<event>
 9    2  0.2147756E-005  0.5022616E+03  0.7546771E-02  0.1066953E+00
         21   -1    0    0  501  502  0.00000000000E+00  0.00000000000E+00  0.56562783043E+02  0.56562783043E+02  0.00000000000E+00 0. -1.
          2   -1    0    0  502    0 -0.00000000000E+00 -0.00000000000E+00 -0.18584068346E+04  0.18584068346E+04  0.00000000000E+00 0. -1.
         24    2    1    2    0    0  0.49563145621E+02 -0.45224723266E+02 -0.11870387814E+03  0.15848802066E+03  0.80784039323E+02 0.  0.
         23    2    1    2    0    0  0.12749025906E+03 -0.15507901974E+03 -0.54472470286E+03  0.58709745087E+03  0.87493693469E+02 0.  0.
        -11    1    3    3    0    0  0.64354653886E+01 -0.19299589569E+02 -0.10413173228E+03  0.10610045731E+03  0.00000000000E+00 0.  1.
         12    1    3    3    0    0  0.43127680233E+02 -0.25925133698E+02 -0.14572145858E+02  0.52387563356E+02  0.00000000000E+00 0. -1.
        -13    1    4    4    0    0 -0.91001947160E+01 -0.27587738321E+02 -0.11301516557E+03  0.11668900762E+03  0.00000000000E+00 0.  1.
         13    1    4    4    0    0  0.13659045377E+03 -0.12749128142E+03 -0.43170953729E+03  0.47040844325E+03  0.00000000000E+00 0. -1.
          1    1    1    2  501    0 -0.17705340468E+03  0.20030374300E+03 -0.11384154706E+04  0.11693841461E+04  0.00000000000E+00 0. -1.
<scales pt_clust_5="13000.00000" pt_clust_6="13000.00000" pt_clust_7="13000.00000" pt_clust_8="13000.00000" pt_clust_9="13000.00000"></scales>
<clustering>
<clus scale="   80.784">  5  6 -1 -1</clus>
<clus scale="   87.494">  7  8 -1 -1</clus>
<clus scale="  105.014">  2  5  1 -1</clus>
<clus scale="  222.632">  7  9 -1 -1</clus>
<clus scale="  502.262">  1  5  2 -1</clus>
</clustering>
</event>
<event>
 9    2  0.2147756E-005  0.6367551E+03  0.7546771E-02  0.1022097E+00
         21   -1    0    0  501  502  0.00000000000E+00  0.00000000000E+00  0.12704305438E+03  0.12704305438E+03  0.00000000000E+00 0. -1.
          2   -1    0    0  502    0 -0.00000000000E+00 -0.00000000000E+00 -0.13779637669E+04  0.13779637669E+04  0.00000000000E+00 0. -1.
         24    2    1    2    0    0 -0.54977954442E+01  0.16983661256E+03 -0.40226340996E+03  0.44402788392E+03  0.80437615522E+02 0.  0.
         23    2    1    2    0    0 -0.21283264210E+03 -0.24899091398E+03 -0.25888872432E+03  0.42713308917E+03  0.90139311585E+02 0.  0.
        -11    1    3    3    0    0  0.28479949905E+02  0.13669392599E+03 -0.28025920947E+03  0.31311589139E+03  0.00000000000E+00 0.  1.
         12    1    3    3    0    0 -0.33977745350E+02  0.33142686568E+02 -0.12200420049E+03  0.13091199253E+03  0.00000000000E+00 0. -1.
        -13    1    4    4    0    0 -0.20375116764E+02  0.43042124782E+01 -0.93791151991E+01  0.22839427097E+02  0.00000000000E+00 0.  1.
         13    1    4    4    0    0 -0.19245752533E+03 -0.25329512646E+03 -0.24950960912E+03  0.40429366207E+03  0.00000000000E+00 0. -1.
          1    1    1    2  501    0  0.21833043754E+03  0.79154301422E+02 -0.58976857827E+03  0.63384584822E+03  0.00000000000E+00 0. -1.
<scales pt_clust_5="13000.00000" pt_clust_6="13000.00000" pt_clust_7="13000.00000" pt_clust_8="13000.00000" pt_clust_9="13000.00000"></scales>
<clustering>
<clus scale="   80.438">  5  6 -1 -1</clus>
<clus scale="   90.139">  7  8 -1 -1</clus>
<clus scale="  188.002">  2  5  1 -1</clus>
<clus scale="  285.444">  7  9 -1 -1</clus>
<clus scale="  636.755">  1  5  2 -1</clus>
</clustering>
</event>
<event>
 9    2  0.2147756E-005  0.1961940E+03  0.7546771E-02  0.1165144E+00
          2   -1    0    0  502    0 -0.00000000000E+00  0.00000000000E+00  0.14691743525E+03  0.14691743525E+03  0.00000000000E+00 0. -1.
         21   -1    0    0  501  502  0.00000000000E+00 -0.00000000000E+00 -0.25194767347E+03  0.25194767347E+03  0.00000000000E+00 0. -1.
         24    2    1    2    0    0 -0.11679825697E+03  0.32786561510E+02 -0.13528783433E+03  0.20035159378E+03  0.84387034348E+02 0.  0.
         23    2    1    2    0    0  0.32022075721E+02 -0.37036399330E+02  0.45782756605E+02  0.11222277014E+03  0.90004339489E+02 0.  0.
        -11    1    3    3    0    0 -0.26785206887E+02 -0.96834662820E+01 -0.83358009370E+02  0.88089582548E+02  0.00000000000E+00 0.  1.
         12    1    3    3    0    0 -0.90013050082E+02  0.42470027792E+02 -0.51929824959E+02  0.11226201123E+03  0.00000000000E+00 0. -1.
        -13    1    4    4    0    0  0.12911448175E+02  0.24840847141E+02  0.37701539690E+02  0.46959336406E+02  0.00000000000E+00 0.  1.
         13    1    4    4    0    0  0.19110627545E+02 -0.61877246471E+02  0.80812169156E+01  0.65263433735E+02  0.00000000000E+00 0. -1.
          1    1    1    2  501    0  0.84776181249E+02  0.42498378196E+01 -0.15525160502E+02  0.86290744795E+02  0.00000000000E+00 0. -1.
<scales pt_clust_5="13000.00000" pt_clust_6="13000.00000" pt_clust_7="13000.00000" pt_clust_8="13000.00000" pt_clust_9="13000.00000"></scales>
<clustering>
<clus scale="   84.387">  5  6 -1 -1</clus>
<clus scale="   90.004">  7  8 -1 -1</clus>
<clus scale="   84.883">  7  9 -1 -1</clus>
<clus scale="  147.777">  1  5  2 -1</clus>
<clus scale="  196.194">  2  5  1 -1</clus>
</clustering>
</event>
<event>
 9    2  0.2147756E-005  0.5526676E+03  0.7546771E-02  0.1064136E+00
          4   -1    0    0  502    0 -0.00000000000E+00  0.00000000000E+00  0.40362061876E+03  0.40362061876E+03  0.00000000000E+00 0. -1.
         21   -1    0    0  501  502  0.00000000000E+00 -0.00000000000E+00 -0.27669950925E+03  0.27669950925E+03  0.00000000000E+00 0.  1.
         24    2    1    2    0    0 -0.29109688504E+02  0.52176979955E+01  0.93702165867E+02  0.12665505587E+03  0.79917513430E+02 0.  0.
         23    2    1    2    0    0 -0.12006044943E+03 -0.22507574145E+03  0.81091167355E+02  0.28370018716E+03  0.94002222654E+02 0.  0.
        -13    1    3    3    0    0 -0.19776403396E+02 -0.36991293199E+02  0.44221328389E+02  0.60950699654E+02  0.00000000000E+00 0.  1.
         14    1    3    3    0    0 -0.93332851086E+01  0.42208991195E+02  0.49480837478E+02  0.65704356219E+02  0.00000000000E+00 0. -1.
        -13    1    4    4    0    0 -0.93737869864E+01 -0.81803316077E+02  0.59030621371E+02  0.10131270731E+03  0.00000000000E+00 0. -1.
         13    1    4    4    0    0 -0.11068666244E+03 -0.14327242537E+03  0.22060545983E+02  0.18238747984E+03  0.00000000000E+00 0.  1.
          3    1    1    2  501    0  0.14917013793E+03  0.21985804345E+03 -0.47872223713E+02  0.26996488499E+03  0.00000000000E+00 0. -1.
<scales pt_clust_5="13000.00000" pt_clust_6="13000.00000" pt_clust_7="13000.00000" pt_clust_8="13000.00000" pt_clust_9="13000.00000"></scales>
<clustering>
<clus scale="   79.918">  5  6 -1 -1</clus>
<clus scale="   85.214">  1  5  2 -1</clus>
<clus scale="   94.002">  7  8 -1 -1</clus>
<clus scale="  261.336">  7  9 -1 -1</clus>
<clus scale="  552.668">  2  5  1 -1</clus>
</clustering>
</event>
<event>
 9    2  0.2147756E-005  0.1704530E+03  0.7546771E-02  0.1208190E+00
          4   -1    0    0  502    0 -0.00000000000E+00  0.00000000000E+00  0.25892974481E+03  0.25892974481E+03  0.00000000000E+00 0. -1.
         21   -1    0    0  501  502  0.00000000000E+00 -0.00000000000E+00 -0.66600836801E+02  0.66600836801E+02  0.00000000000E+00 0. -1.
         24    2    1    2    0    0  0.11691089663E+02  0.44949669829E+02  0.34338522608E+02  0.93118912506E+02  0.73040011885E+02 0.  0.
         23    2    1    2    0    0  0.96738716747E+01  0.12011515556E+02  0.14285895699E+03  0.16972197027E+03  0.90327212411E+02 0.  0.
        -11    1    3    3    0    0 -0.26774765342E+02  0.12272254466E+02  0.30656663281E+02  0.42512672138E+02  0.00000000000E+00 0.  1.
         12    1    3    3    0    0  0.38465855005E+02  0.32677415363E+02  0.36818593272E+01  0.50606240368E+02  0.00000000000E+00 0. -1.
        -13    1    4    4    0    0  0.31570936515E+02 -0.26759805009E+02  0.39636456114E+02  0.57304972296E+02  0.00000000000E+00 0. -1.
         13    1    4    4    0    0 -0.21897064841E+02  0.38771320565E+02  0.10322250088E+03  0.11241699798E+03  0.00000000000E+00 0.  1.
          3    1    1    2  501    0 -0.21364961338E+02 -0.56961185385E+02  0.15131428406E+02  0.62689698827E+02  0.00000000000E+00 0. -1.
<scales pt_clust_5="13000.00000" pt_clust_6="13000.00000" pt_clust_7="13000.00000" pt_clust_8="13000.00000" pt_clust_9="13000.00000"></scales>
<clustering>
<clus scale="   73.040">  5  6 -1 -1</clus>
<clus scale="   86.556">  1  5  2 -1</clus>
<clus scale="   90.327">  7  8 -1 -1</clus>
<clus scale="   51.637">  7  9 -1 -1</clus>
<clus scale="  170.453">  2  5  1 -1</clus>
</clustering>
</event>
<event>
 9    2  0.2147756E-005  0.2264331E+03  0.7546771E-02  0.1172272E+00
         21   -1    0    0  501  502  0.00000000000E+00  0.00000000000E+00  0.96929357096E+02  0.96929357096E+02  0.00000000000E+00 0.  1.
         -3   -1    0    0    0  501 -0.00000000000E+00 -0.00000000000E+00 -0.25220215069E+03  0.25220215069E+03  0.00000000000E+00 0.  1.
         24    2    1    2    0    0 -0.39166035322E+01  0.22664554160E+02 -0.15679582451E+02  0.83127312691E+02  0.78328021876E+02 0.  0.
         23    2    1    2    0    0  0.40201459401E+01 -0.64023133214E+02  0.15258350576E+02  0.10572459892E+03  0.82642303908E+02 0.  0.
        -13    1    3    3    0    0  0.15675856755E+02  0.43509251245E+02 -0.25586733536E+02  0.52853272008E+02  0.00000000000E+00 0.  1.
         14    1    3    3    0    0 -0.19592460287E+02 -0.20844697085E+02  0.99071510842E+01  0.30274040683E+02  0.00000000000E+00 0. -1.
        -13    1    4    4    0    0 -0.64410139408E+01 -0.44511307193E+02  0.48270749393E+02  0.65975816597E+02  0.00000000000E+00 0.  1.
         13    1    4    4    0    0  0.10461159881E+02 -0.19511826021E+02 -0.33012398818E+02  0.39748782326E+02  0.00000000000E+00 0. -1.
         -4    1    1    2    0  502 -0.10354240791E+00  0.41358579054E+02 -0.15485156171E+03  0.16027959617E+03  0.00000000000E+00 0.  1.
<scales pt_clust_5="13000.00000" pt_clust_6="13000.00000" pt_clust_7="13000.00000" pt_clust_8="13000.00000" pt_clust_9="13000.00000"></scales>
<clustering>
<clus scale="   78.328">  5  6 -1 -1</clus>
<clus scale="   81.635">  2  5  1 -1</clus>
<clus scale="   82.642">  7  8 -1 -1</clus>
<clus scale="   59.052">  7  9 -1 -1</clus>
<clus scale="  226.433">  1  5  2 -1</clus>
</clustering>
</event>
<event>
 9    2  0.2147756E-005  0.9857425E+03  0.7546771E-02  0.9896575E-01
         21   -1    0    0  501  502  0.00000000000E+00  0.00000000000E+00  0.92718239541E+03  0.92718239541E+03  0.00000000000E+00 0. -1.
          2   -1    0    0  502    0 -0.00000000000E+00 -0.00000000000E+00 -0.81491401321E+03  0.81491401321E+03  0.00000000000E+00 0. -1.
         24    2    1    2    0    0 -0.33891561942E+02 -0.10751998765E+03 -0.54160119505E+03  0.55920430765E+03  0.81660378960E+02 0.  0.
         23    2    1    2    0    0  0.20059894982E+03  0.12077043550E+03 -0.19491432218E+03  0.31779035236E+03  0.90408397316E+02 0.  0.
        -11    1    3    3    0    0 -0.33556677981E+02 -0.59743471140E+01 -0.87875431153E+02  0.94254097316E+02  0.00000000000E+00 0.  1.
         12    1    3    3    0    0 -0.33488396045E+00 -0.10154564053E+03 -0.45372576390E+03  0.46495021033E+03  0.00000000000E+00 0. -1.
        -13    1    4    4    0    0  0.10652689552E+03  0.19041570661E+02 -0.11468550023E+03  0.15768108588E+03  0.00000000000E+00 0. -1.
         13    1    4    4    0    0  0.94072054305E+02  0.10172886484E+03 -0.80228821942E+02  0.16010926648E+03  0.00000000000E+00 0.  1.
          1    1    1    2  501    0 -0.16670738788E+03 -0.13250447850E+02  0.84878389942E+03  0.86510174861E+03  0.00000000000E+00 0. -1.
<scales pt_clust_5="13000.00000" pt_clust_6="13000.00000" pt_clust_7="13000.00000" pt_clust_8="13000.00000" pt_clust_9="13000.00000"></scales>
<clustering>
<clus scale="   81.660">  5  6 -1 -1</clus>
<clus scale="   90.408">  7  8 -1 -1</clus>
<clus scale="  139.203">  2  5  1 -1</clus>
<clus scale="  168.569">  7  9 -1 -1</clus>
<clus scale="  985.743">  1  5  2 -1</clus>
</clustering>
</event>
<event>
 9    2  0.2147756E-005  0.3122156E+03  0.7546771E-02  0.1088050E+00
         21   -1    0    0  501  502  0.00000000000E+00  0.00000000000E+00  0.15370205464E+03  0.15370205464E+03  0.00000000000E+00 0. -1.
          2   -1    0    0  502    0 -0.00000000000E+00 -0.00000000000E+00 -0.10449463749E+04  0.10449463749E+04  0.00000000000E+00 0. -1.
         24    2    1    2    0    0 -0.16492198971E+03 -0.16520203915E+03 -0.84826404407E+03  0.88348831786E+03  0.80676780445E+02 0.  0.
         23    2    1    2    0    0  0.78899370931E+01  0.54365070916E+02 -0.36765881783E+02  0.12285171933E+03  0.10355193304E+03 0.  0.
        -13    1    3    3    0    0 -0.18325480991E+02 -0.14955710809E+02 -0.27345730653E+02  0.36156403641E+02  0.00000000000E+00 0.  1.
         14    1    3    3    0    0 -0.14659650872E+03 -0.15024632834E+03 -0.82091831342E+03  0.84733191422E+03  0.00000000000E+00 0. -1.
        -13    1    4    4    0    0  0.16439458124E+02  0.29283056032E+02 -0.71599844291E+02  0.79084074607E+02  0.00000000000E+00 0. -1.
         13    1    4    4    0    0 -0.85495210309E+01  0.25082014884E+02  0.34833962507E+02  0.43767644721E+02  0.00000000000E+00 0.  1.
          1    1    1    2  501    0  0.15703205261E+03  0.11083696823E+03 -0.62143944109E+01  0.19230839236E+03  0.00000000000E+00 0. -1.
<scales pt_clust_5="13000.00000" pt_clust_6="13000.00000" pt_clust_7="13000.00000" pt_clust_8="13000.00000" pt_clust_9="13000.00000"></scales>
<clustering>
<clus scale="   80.677">  5  6 -1 -1</clus>
<clus scale="  103.552">  7  8 -1 -1</clus>
<clus scale="  192.208">  7  9 -1 -1</clus>
<clus scale="  246.981">  2  5  1 -1</clus>
<clus scale="  312.216">  1  5  2 -1</clus>
</clustering>
</event>
<event>
 9    2  0.2147756E-005  0.4899314E+03  0.7546771E-02  0.1030677E+00
         21   -1    0    0  501  502  0.00000000000E+00  0.00000000000E+00  0.26129057034E+03  0.26129057034E+03  0.00000000000E+00 0.  1.
          2   -1    0    0  502    0 -0.00000000000E+00 -0.00000000000E+00 -0.66106150025E+03  0.66106150025E+03  0.00000000000E+00 0. -1.
         24    2    1    2    0    0 -0.29201489174E+03 -0.10142791169E+03 -0.57020181270E+02  0.32442995868E+03  0.80269413538E+02 0.  0.
         23    2    1    2    0    0  0.22901656398E+03  0.13086221894E+03 -0.41355040953E+03  0.49868623267E+03  0.89947265179E+02 0.  0.
        -11    1    3    3    0    0 -0.29089572827E+03 -0.10341447983E+03 -0.65539316529E+02  0.31561096524E+03  0.00000000000E+00 0.  1.
         12    1    3    3    0    0 -0.11191634708E+01  0.19865681431E+01  0.85191352591E+01  0.88189934474E+01  0.00000000000E+00 0. -1.
        -13    1    4    4    0    0  0.56956253814E+02 -0.52241442640E+00 -0.13008202169E+03  0.14200570458E+03  0.00000000000E+00 0.  1.
         13    1    4    4    0    0  0.17206031016E+03  0.13138463337E+03 -0.28346838784E+03  0.35668052810E+03  0.00000000000E+00 0. -1.
          1    1    1    2  501    0  0.62998327768E+02 -0.29434307256E+02  0.70799660889E+02  0.99235879233E+02  0.00000000000E+00 0. -1.
<scales pt_clust_5="13000.00000" pt_clust_6="13000.00000" pt_clust_7="13000.00000" pt_clust_8="13000.00000" pt_clust_9="13000.00000"></scales>
<clustering>
<clus scale="   80.269">  5  6 -1 -1</clus>
<clus scale="   89.947">  7  8 -1 -1</clus>
<clus scale="   69.535">  7  9 -1 -1</clus>
<clus scale="  319.380">  2  5  1 -1</clus>
<clus scale="  489.931">  1  5  2 -1</clus>
</clustering>
</event>
<event>
 9    2  0.2147756E-005  0.2446380E+03  0.7546771E-02  0.1137136E+00
          2   -1    0    0  502    0 -0.00000000000E+00  0.00000000000E+00  0.21476933485E+04  0.21476933485E+04  0.00000000000E+00 0. -1.
         21   -1    0    0  501  502  0.00000000000E+00 -0.00000000000E+00 -0.19200156996E+02  0.19200156996E+02  0.00000000000E+00 0. -1.
         24    2    1    2    0    0  0.10417915988E+03 -0.66942634346E+02  0.10897433460E+04  0.10997248214E+04  0.80743477034E+02 0.  0.
         23    2    1    2    0    0  0.17937837460E+02  0.70850830030E+02  0.45043099285E+03  0.46629689456E+03  0.95932832883E+02 0.  0.
        -13    1    3    3    0    0  0.38737476975E+02  0.14946577398E+02  0.24364480033E+03  0.24715740132E+03  0.00000000000E+00 0.  1.
         14    1    3    3    0    0  0.65441682903E+02 -0.81889211743E+02  0.84609854565E+03  0.85256742010E+03  0.00000000000E+00 0. -1.
        -11    1    4    4    0    0  0.39583865227E+02 -0.30071940892E+01  0.21410220460E+03  0.21775141703E+03  0.00000000000E+00 0.  1.
         11    1    4    4    0    0 -0.21646027768E+02  0.73858024119E+02  0.23632878825E+03  0.24854547753E+03  0.00000000000E+00 0. -1.
          1    1    1    2  501    0 -0.12211699734E+03 -0.39081956843E+01  0.58831885266E+03  0.60087178951E+03  0.00000000000E+00 0. -1.
<scales pt_clust_5="13000.00000" pt_clust_6="13000.00000" pt_clust_7="13000.00000" pt_clust_8="13000.00000" pt_clust_9="13000.00000"></scales>
<clustering>
<clus scale="   80.743">  5  6 -1 -1</clus>
<clus scale="   95.933">  7  8 -1 -1</clus>
<clus scale="  122.180">  7  9 -1 -1</clus>
<clus scale="  147.831">  1  5  2 -1</clus>
<clus scale="  244.638">  2  5  1 -1</clus>
</clustering>
</event>
<event>
 9    2  0.2147756E-005  0.6525767E+03  0.7546771E-02  0.1014243E+00
         21   -1    0    0  501  502  0.00000000000E+00  0.00000000000E+00  0.13105404928E+04  0.13105404928E+04  0.00000000000E+00 0. -1.
          2   -1    0    0  502    0 -0.00000000000E+00 -0.00000000000E+00 -0.16166956872E+03  0.16166956872E+03  0.00000000000E+00 0. -1.
         24    2    1    2    0    0  0.99096606721E+02 -0.18134487426E+03  0.52280896525E+03  0.56788158866E+03  0.80337934462E+02 0.  0.
         23    2    1    2    0    0 -0.30810253839E+02 -0.19107665316E+03  0.57737848408E+02  0.22142795699E+03  0.90758591180E+02 0.  0.
        -13    1    3    3    0    0  0.29862415132E+02 -0.81907553553E+02  0.12777995158E+03  0.15468783790E+03  0.00000000000E+00 0.  1.
         14    1    3    3    0    0  0.69234191589E+02 -0.99437320703E+02  0.39502901366E+03  0.41319375076E+03  0.00000000000E+00 0. -1.
        -13    1    4    4    0    0 -0.52757544135E+02 -0.69069049298E+02  0.41797924520E+02  0.96441477219E+02  0.00000000000E+00 0.  1.
         13    1    4    4    0    0  0.21947290296E+02 -0.12200760386E+03  0.15939923889E+02  0.12498647977E+03  0.00000000000E+00 0. -1.
          1    1    1    2  501    0 -0.68286352882E+02  0.37242152742E+03  0.56832411038E+03  0.68290051582E+03  0.00000000000E+00 0. -1.
<scales pt_clust_5="13000.00000" pt_clust_6="13000.00000" pt_clust_7="13000.00000" pt_clust_8="13000.00000" pt_clust_9="13000.00000"></scales>
<clustering>
<clus scale="   80.338">  5  6 -1 -1</clus>
<clus scale="   90.759">  7  8 -1 -1</clus>
<clus scale="  221.721">  2  5  1 -1</clus>
<clus scale="  299.019">  7  9 -1 -1</clus>
<clus scale="  652.577">  1  5  2 -1</clus>
</clustering>
</event>
<event>
 9    2  0.2147756E-005  0.1074490E+04  0.7546771E-02  0.9932226E-01
         21   -1    0    0  501  502  0.00000000000E+00  0.00000000000E+00  0.35605208203E+03  0.35605208203E+03  0.00000000000E+00 0. -1.
          2   -1    0    0  502    0 -0.00000000000E+00 -0.00000000000E+00 -0.10264392926E+04  0.10264392926E+04  0.00000000000E+00 0. -1.
         24    2    1    2    0    0  0.44809869682E+02 -0.23845217591E+02 -0.17448236747E+03  0.19908470078E+03  0.81327133888E+02 0.  0.
         23    2    1    2    0    0  0.45256133126E+03  0.10701266003E+03 -0.48604771117E+03  0.67903369873E+03  0.92633247348E+02 0.  0.
        -11    1    3    3    0    0  0.61520773957E+02 -0.39342933262E+02 -0.13570902742E+03  0.15410909172E+03  0.00000000000E+00 0.  1.
         12    1    3    3    0    0 -0.16710904275E+02  0.15497715671E+02 -0.38773340047E+02  0.44975609069E+02  0.00000000000E+00 0. -1.
        -11    1    4    4    0    0  0.15252100445E+03  0.38425934477E+02 -0.10456492947E+03  0.18887306244E+03  0.00000000000E+00 0.  1.
         11    1    4    4    0    0  0.30004032681E+03  0.68586725556E+02 -0.38148278170E+03  0.49016063629E+03  0.00000000000E+00 0. -1.
          1    1    1    2  501    0 -0.49737120095E+03 -0.83167442443E+02 -0.98571319692E+01  0.50437297515E+03  0.00000000000E+00 0. -1.
<scales pt_clust_5="13000.00000" pt_clust_6="13000.00000" pt_clust_7="13000.00000" pt_clust_8="13000.00000" pt_clust_9="13000.00000"></scales>
<clustering>
<clus scale="   81.327">  5  6 -1 -1</clus>
<clus scale="   92.633">  7  8 -1 -1</clus>
<clus scale="   95.868">  2  5  1 -1</clus>
<clus scale="  492.039">  7  9 -1 -1</clus>
<clus scale=" 1074.490">  1  5  2 -1</clus>
</clustering>
</event>
<event>
 9    2  0.2147756E-005  0.5543099E+03  0.7546771E-02  0.1026244E+00
         21   -1    0    0  501  502  0.00000000000E+00  0.00000000000E+00  0.12935533130E+03  0.12935533130E+03  0.00000000000E+00 0. -1.
          4   -1    0    0  502    0 -0.00000000000E+00 -0.00000000000E+00 -0.14700767290E+04  0.14700767290E+04  0.00000000000E+00 0. -1.
         24    2    1    2    0    0 -0.90323300000E+01 -0.23882685203E+03 -0.74203038832E+03  0.78353354514E+03  0.78713854760E+02 0.  0.
         23    2    1    2    0    0 -0.18079965411E+03  0.18070145695E+01 -0.40954014452E+03  0.45813793153E+03  0.97341944206E+02 0.  0.
        -11    1    3    3    0    0 -0.24673417619E+02 -0.11525795750E+03 -0.25657720277E+03  0.28235622055E+03  0.00000000000E+00 0.  1.
         12    1    3    3    0    0  0.15641087619E+02 -0.12356889453E+03 -0.48545318555E+03  0.50117732459E+03  0.00000000000E+00 0. -1.
        -13    1    4    4    0    0 -0.37566548806E+01  0.24677400695E+02 -0.73527289508E+02  0.77648881919E+02  0.00000000000E+00 0.  1.
         13    1    4    4    0    0 -0.17704299923E+03 -0.22870386125E+02 -0.33601285501E+03  0.38048904961E+03  0.00000000000E+00 0. -1.
          3    1    1    2  501    0  0.18983198411E+03  0.23701983746E+03 -0.18915086489E+03  0.35776058367E+03  0.00000000000E+00 0. -1.
<scales pt_clust_5="13000.00000" pt_clust_6="13000.00000" pt_clust_7="13000.00000" pt_clust_8="13000.00000" pt_clust_9="13000.00000"></scales>
<clustering>
<clus scale="   78.714">  5  6 -1 -1</clus>
<clus scale="   97.342">  7  8 -1 -1</clus>
<clus scale="  251.626">  2  5  1 -1</clus>
<clus scale="  235.915">  7  9 -1 -1</clus>
<clus scale="  554.310">  1  5  2 -1</clus>
</clustering>
</event>
<event>
 9    2  0.2147756E-005  0.2705924E+03  0.7546771E-02  0.1125592E+00
          2   -1    0    0  502    0 -0.00000000000E+00  0.00000000000E+00  0.45145355555E+03  0.45145355555E+03  0.00000000000E+00 0. -1.
         21   -1    0    0  501  502  0.00000000000E+00 -0.00000000000E+00 -0.40624172439E+03  0.40624172439E+03  0.00000000000E+00 0.  1.
         24    2    1    2    0    0 -0.50419317044E+02  0.10334741939E+03  0.39193528823E+03  0.41788005881E+03  0.88247814489E+02 0.  0.
         23    2    1    2    0    0  0.59891436625E+02 -0.14980925437E+03 -0.15436330502E+03  0.24169694520E+03  0.92518033410E+02 0.  0.
        -11    1    3    3    0    0 -0.19104844496E+02  0.42671364803E+02  0.47154510116E+02  0.66403224934E+02  0.00000000000E+00 0.  1.
         12    1    3    3    0    0 -0.31314472548E+02  0.60676054582E+02  0.34478077812E+03  0.35147683387E+03  0.00000000000E+00 0. -1.
        -13    1    4    4    0    0  0.11634858157E+02 -0.86027138579E+02 -0.26294364857E+02  0.90705193455E+02  0.00000000000E+00 0. -1.
         13    1    4    4    0    0  0.48256578467E+02 -0.63782115789E+02 -0.12806894016E+03  0.15099175174E+03  0.00000000000E+00 0.  1.
          1    1    1    2  501    0 -0.94721195806E+01  0.46461834983E+02 -0.19236015206E+03  0.19811827593E+03  0.00000000000E+00 0. -1.
<scales pt_clust_5="13000.00000" pt_clust_6="13000.00000" pt_clust_7="13000.00000" pt_clust_8="13000.00000" pt_clust_9="13000.00000"></scales>
<clustering>
<clus scale="   88.248">  5  6 -1 -1</clus>
<clus scale="   92.518">  7  8 -1 -1</clus>
<clus scale="   47.418">  7  9 -1 -1</clus>
<clus scale="  144.950">  1  5  2 -1</clus>
<clus scale="  270.592">  2  5  1 -1</clus>
</clustering>
</event>
<event>
 9    2  0.2147756E-005  0.2894272E+03  0.7546771E-02  0.1128152E+00
         21   -1    0    0  501  502  0.00000000000E+00  0.00000000000E+00  0.13884269105E+03  0.13884269105E+03  0.00000000000E+00 0. -1.
          2   -1    0    0  502    0 -0.00000000000E+00 -0.00000000000E+00 -0.11932790290E+04  0.11932790290E+04  0.00000000000E+00 0. -1.
         24    2    1    2    0    0 -0.39933742717E+02  0.65888147164E+02 -0.10361692015E+04  0.10421185874E+04  0.80178452409E+02 0.  0.
         23    2    1    2    0    0 -0.42661609382E+02  0.20525202607E+02 -0.10097555724E+03  0.14464171384E+03  0.92107900668E+02 0.  0.
        -13    1    3    3    0    0 -0.18916921551E+02  0.50674602069E+02 -0.26252439538E+03  0.26803884679E+03  0.00000000000E+00 0.  1.
         14    1    3    3    0    0 -0.21016821165E+02  0.15213545095E+02 -0.77364480613E+03  0.77407974058E+03  0.00000000000E+00 0. -1.
        -11    1    4    4    0    0  0.15998980193E+01  0.37505313722E+02 -0.53615396203E+01  0.37920368382E+02  0.00000000000E+00 0. -1.
         11    1    4    4    0    0 -0.44261507402E+02 -0.16980111116E+02 -0.95614017620E+02  0.10672134546E+03  0.00000000000E+00 0.  1.
          1    1    1    2  501    0  0.82595352099E+02 -0.86413349771E+02  0.82708420820E+02  0.14536141882E+03  0.00000000000E+00 0. -1.
<scales pt_clust_5="13000.00000" pt_clust_6="13000.00000" pt_clust_7="13000.00000" pt_clust_8="13000.00000" pt_clust_9="13000.00000"></scales>
<clustering>
<clus scale="   80.178">  5  6 -1 -1</clus>
<clus scale="   92.108">  7  8 -1 -1</clus>
<clus scale="  111.196">  2  5  1 -1</clus>
<clus scale="  104.304">  7  9 -1 -1</clus>
<clus scale="  289.427">  1  5  2 -1</clus>
</clustering>
</event>
<event>
 9    2  0.2147756E-005  0.1939088E+03  0.7546771E-02  0.1187124E+00
         -3   -1    0    0    0  501 -0.00000000000E+00  0.00000000000E+00  0.44140957415E+02  0.44140957415E+02  0.00000000000E+00 0.  1.
         21   -1    0    0  501  502  0.00000000000E+00 -0.00000000000E+00 -0.49465522924E+03  0.49465522924E+03  0.00000000000E+00 0. -1.
         24    2    1    2    0    0  0.39186757206E+02  0.10719101485E+02 -0.21108383554E+03  0.23069300384E+03  0.83739926655E+02 0.  0.
         23    2    1    2    0    0  0.18234987674E+02  0.45036000309E+02 -0.17854487133E+03  0.20754006740E+03  0.93988575910E+02 0.  0.
        -13    1    3    3    0    0 -0.15989135463E+02 -0.20949595065E+02 -0.91756167416E+02  0.95465869530E+02  0.00000000000E+00 0.  1.
         14    1    3    3    0    0  0.55175892670E+02  0.31668696550E+02 -0.11932766812E+03  0.13522713431E+03  0.00000000000E+00 0. -1.
        -11    1    4    4    0    0 -0.57711803984E+00  0.59132048032E+02 -0.51739574645E+02  0.78574269034E+02  0.00000000000E+00 0.  1.
         11    1    4    4    0    0  0.18812105714E+02 -0.14096047723E+02 -0.12680529668E+03  0.12896579837E+03  0.00000000000E+00 0. -1.
         -4    1    1    2    0  502 -0.57421744880E+02 -0.55755101794E+02 -0.60885564955E+02  0.10056311541E+03  0.00000000000E+00 0.  1.
<scales pt_clust_5="13000.00000" pt_clust_6="13000.00000" pt_clust_7="13000.00000" pt_clust_8="13000.00000" pt_clust_9="13000.00000"></scales>
<clustering>
<clus scale="   83.740">  5  6 -1 -1</clus>
<clus scale="   93.075">  1  5  2 -1</clus>
<clus scale="   93.989">  7  8 -1 -1</clus>
<clus scale="   60.548">  7  9 -1 -1</clus>
<clus scale="  193.909">  2  5  1 -1</clus>
</clustering>
</event>
<event>
 9    2  0.2147756E-005  0.3008985E+03  0.7546771E-02  0.1101333E+00
          2   -1    0    0  502    0 -0.00000000000E+00  0.00000000000E+00  0.43880246738E+03  0.43880246738E+03  0.00000000000E+00 0. -1.
         21   -1    0    0  501  502  0.00000000000E+00 -0.00000000000E+00 -0.16684992502E+03  0.16684992502E+03  0.00000000000E+00 0. -1.
         24    2    1    2    0    0  0.14468878030E+03  0.10304975930E+03 -0.75751999254E+01  0.19495098628E+03  0.79965038359E+02 0.  0.
         23    2    1    2    0    0 -0.87287359761E+02 -0.36899931158E+02  0.15089911850E+02  0.13213707063E+03  0.90839484259E+02 0.  0.
        -13    1    3    3    0    0  0.63677263818E+02  0.13127748522E+01  0.70516034570E+01  0.64079968917E+02  0.00000000000E+00 0.  1.
         14    1    3    3    0    0  0.81011516486E+02  0.10173698445E+03 -0.14626803382E+02  0.13087101736E+03  0.00000000000E+00 0. -1.
        -11    1    4    4    0    0  0.17013906596E+02 -0.17752267411E+02  0.79935915856E+01  0.25855628446E+02  0.00000000000E+00 0. -1.
         11    1    4    4    0    0 -0.10430126636E+03 -0.19147663747E+02  0.70963202643E+01  0.10628144218E+03  0.00000000000E+00 0.  1.
          1    1    1    2  501    0 -0.57401420543E+02 -0.66149828146E+02  0.26443783043E+03  0.27856433549E+03  0.00000000000E+00 0. -1.
<scales pt_clust_5="13000.00000" pt_clust_6="13000.00000" pt_clust_7="13000.00000" pt_clust_8="13000.00000" pt_clust_9="13000.00000"></scales>
<clustering>
<clus scale="   79.965">  5  6 -1 -1</clus>
<clus scale="   90.839">  7  8 -1 -1</clus>
<clus scale="   87.583">  7  9 -1 -1</clus>
<clus scale="  194.804">  1  5  2 -1</clus>
<clus scale="  300.898">  2  5  1 -1</clus>
</clustering>
</event>
<event>
 9    2  0.2147756E-005  0.1639456E+03  0.7546771E-02  0.1206547E+00
         -3   -1    0    0    0  501 -0.00000000000E+00  0.00000000000E+00  0.67632901477E+02  0.67632901477E+02  0.00000000000E+00 0.  1.
         21   -1    0    0  501  502  0.00000000000E+00 -0.00000000000E+00 -0.54283819937E+03  0.54283819937E+03  0.00000000000E+00 0.  1.
         24    2    1    2    0    0 -0.52599318357E+02  0.33388229327E+02  0.71457217272E+01  0.10101976870E+03  0.79198927893E+02 0.  0.
         23    2    1    2    0    0 -0.11138036771E+02 -0.11633013934E+02 -0.23828688514E+03  0.25626554744E+03  0.92908601877E+02 0.  0.
        -11    1    3    3    0    0 -0.44638729626E+02  0.16240887701E+02  0.40669297408E+02  0.62532986236E+02  0.00000000000E+00 0.  1.
         12    1    3    3    0    0 -0.79605887313E+01  0.17147341625E+02 -0.33523575681E+02  0.38486782461E+02  0.00000000000E+00 0. -1.
        -13    1    4    4    0    0  0.24960069796E+02  0.26840091312E+02 -0.59739815044E+02  0.70087381798E+02  0.00000000000E+00 0.  1.
         13    1    4    4    0    0 -0.36098106567E+02 -0.38473105245E+02 -0.17854707009E+03  0.18617816565E+03  0.00000000000E+00 0. -1.
         -4    1    1    2    0  502  0.63737355128E+02 -0.21755215393E+02 -0.24406413449E+03  0.25318578471E+03  0.00000000000E+00 0.  1.
<scales pt_clust_5="13000.00000" pt_clust_6="13000.00000" pt_clust_7="13000.00000" pt_clust_8="13000.00000" pt_clust_9="13000.00000"></scales>
<clustering>
<clus scale="   79.199">  5  6 -1 -1</clus>
<clus scale="   92.909">  7  8 -1 -1</clus>
<clus scale="   67.348">  7  9 -1 -1</clus>
<clus scale="  100.767">  1  5  2 -1</clus>
<clus scale="  163.946">  2  5  1 -1</clus>
</clustering>
</event>
<event>
 9    2  0.2147756E-005  0.1908948E+03  0.7546771E-02  0.1172102E+00
         21   -1    0    0  501  502  0.00000000000E+00  0.00000000000E+00  0.47268142461E+02  0.47268142461E+02  0.00000000000E+00 0.  1.
          2   -1    0    0  502    0 -0.00000000000E+00 -0.00000000000E+00 -0.70405769871E+03  0.70405769871E+03  0.00000000000E+00 0. -1.
         24    2    1    2    0    0 -0.47344498050E+02  0.10793531235E+03 -0.12124603144E+03  0.18277706916E+03  0.69392533644E+02 0.  0.
         23    2    1    2    0    0  0.67363439682E+02 -0.12181229605E+03 -0.45635091265E+03  0.48569469232E+03  0.90923650345E+02 0.  0.
        -13    1    3    3    0    0 -0.53745487688E+02  0.87318042347E+02 -0.62238189008E+02  0.11994419593E+03  0.00000000000E+00 0.  1.
         14    1    3    3    0    0  0.64009896381E+01  0.20617269998E+02 -0.59007842429E+02  0.62832873232E+02  0.00000000000E+00 0. -1.
        -11    1    4    4    0    0 -0.18981603596E+02 -0.13442004153E+02 -0.11432777514E+03  0.11666974295E+03  0.00000000000E+00 0.  1.
         11    1    4    4    0    0  0.86345043278E+02 -0.10837029190E+03 -0.34202313751E+03  0.36902494937E+03  0.00000000000E+00 0. -1.
          1    1    1    2  501    0 -0.20018941631E+02  0.13876983704E+02 -0.79192612161E+02  0.82854079692E+02  0.00000000000E+00 0. -1.
<scales pt_clust_5="13000.00000" pt_clust_6="13000.00000" pt_clust_7="13000.00000" pt_clust_8="13000.00000" pt_clust_9="13000.00000"></scales>
<clustering>
<clus scale="   69.393">  5  6 -1 -1</clus>
<clus scale="   90.924">  7  8 -1 -1</clus>
<clus scale="   24.358">  7  9 -1 -1</clus>
<clus scale="  136.773">  2  5  1 -1</clus>
<clus scale="  190.895">  1  5  2 -1</clus>
</clustering>
</event>
<event>
 9    2  0.2147756E-005  0.2198251E+03  0.7546771E-02  0.1172042E+00
         21   -1    0    0  501  502  0.00000000000E+00  0.00000000000E+00  0.20458700287E+03  0.20458700287E+03  0.00000000000E+00 0.  1.
          2   -1    0    0  502    0 -0.00000000000E+00 -0.00000000000E+00 -0.12249505544E+03  0.12249505544E+03  0.00000000000E+00 0. -1.
         24    2    1    2    0    0  0.36293872737E+02  0.56036690884E+01 -0.68359529951E+01  0.89950813772E+02  0.81827699096E+02 0.  0.
         23    2    1    2    0    0 -0.62575526718E+02 -0.81144848155E+02  0.73318299770E+02  0.15563980510E+03  0.91367351523E+02 0.  0.
        -11    1    3    3    0    0  0.54047033358E+02 -0.35999731174E+01  0.18890750685E+02  0.57366384605E+02  0.00000000000E+00 0.  1.
         12    1    3    3    0    0 -0.17753160620E+02  0.92036422058E+01 -0.25726703680E+02  0.32584429167E+02  0.00000000000E+00 0. -1.
        -13    1    4    4    0    0 -0.53238605159E+01 -0.79432461937E+02  0.36742999647E+02  0.87680713519E+02  0.00000000000E+00 0.  1.
         13    1    4    4    0    0 -0.57251666202E+02 -0.17123862181E+01  0.36575300123E+02  0.67959091581E+02  0.00000000000E+00 0. -1.
          1    1    1    2  501    0  0.26281653981E+02  0.75541179066E+02  0.15609600655E+02  0.81491439448E+02  0.00000000000E+00 0. -1.
<scales pt_clust_5="13000.00000" pt_clust_6="13000.00000" pt_clust_7="13000.00000" pt_clust_8="13000.00000" pt_clust_9="13000.00000"></scales>
<clustering>
<clus scale="   81.828">  5  6 -1 -1</clus>
<clus scale="   89.691">  2  5  1 -1</clus>
<clus scale="   91.367">  7  8 -1 -1</clus>
<clus scale="   88.815">  7  9 -1 -1</clus>
<clus scale="  219.825">  1  5  2 -1</clus>
</clustering>
</event>
<event>
 9    2  0.2147756E-005  0.2947772E+03  0.7546771E-02  0.1124789E+00
          2   -1    0    0  502    0 -0.00000000000E+00  0.00000000000E+00  0.62127153680E+03  0.62127153680E+03  0.00000000000E+00 0. -1.
         21   -1    0    0  501  502  0.00000000000E+00 -0.00000000000E+00 -0.67489808153E+02  0.67489808153E+02  0.00000000000E+00 0.  1.
         24    2    1    2    0    0  0.79530682392E+02 -0.30325782897E+01  0.14166508643E+03  0.18207237245E+03  0.82140283190E+02 0.  0.
         23    2    1    2    0    0  0.30368710566E+02  0.87785208368E+02  0.92528501872E+02  0.15826758348E+03  0.88648761603E+02 0.  0.
        -13    1    3    3    0    0  0.63569294893E+02  0.18418683460E+02  0.14050120242E+03  0.15530901788E+03  0.00000000000E+00 0.  1.
         14    1    3    3    0    0  0.15961387499E+02 -0.21451261749E+02  0.11638840073E+01  0.26763354564E+02  0.00000000000E+00 0. -1.
        -11    1    4    4    0    0  0.42261373583E+02  0.44962204400E+02  0.72858644901E+01  0.62134590551E+02  0.00000000000E+00 0.  1.
         11    1    4    4    0    0 -0.11892663017E+02  0.42823003967E+02  0.85242637382E+02  0.96132992933E+02  0.00000000000E+00 0. -1.
          1    1    1    2  501    0 -0.10989939296E+03 -0.84752630078E+02  0.31958814034E+03  0.34842138902E+03  0.00000000000E+00 0. -1.
<scales pt_clust_5="13000.00000" pt_clust_6="13000.00000" pt_clust_7="13000.00000" pt_clust_8="13000.00000" pt_clust_9="13000.00000"></scales>
<clustering>
<clus scale="   82.140">  5  6 -1 -1</clus>
<clus scale="   88.649">  7  8 -1 -1</clus>
<clus scale="  114.374">  1  5  2 -1</clus>
<clus scale="  101.359">  7  9 -1 -1</clus>
<clus scale="  294.777">  2  5  1 -1</clus>
</clustering>
</event>
<event>
 9    2  0.2147756E-005  0.3174783E+03  0.7546771E-02  0.1128149E+00
         21   -1    0    0  501  502  0.00000000000E+00  0.00000000000E+00  0.28927068449E+02  0.28927068449E+02  0.00000000000E+00 0. -1.
          2   -1    0    0  502    0 -0.00000000000E+00 -0.00000000000E+00 -0.13995058891E+04  0.13995058891E+04  0.00000000000E+00 0. -1.
         24    2    1    2    0    0  0.14945415300E+02  0.43655448364E+01 -0.25501680683E+03  0.26857475146E+03  0.82803393250E+02 0.  0.
         23    2    1    2    0    0  0.12297702714E+03 -0.65539932018E+02 -0.55012718584E+03  0.57463905871E+03  0.90284524119E+02 0.  0.
        -11    1    3    3    0    0  0.25494077871E+02  0.37488818478E+02 -0.18404695188E+03  0.18954851625E+03  0.00000000000E+00 0.  1.
         12    1    3    3    0    0 -0.10548662571E+02 -0.33123273642E+02 -0.70969854951E+02  0.79026235204E+02  0.00000000000E+00 0. -1.
        -13    1    4    4    0    0  0.45026528223E+02 -0.75031897849E+02 -0.29323645051E+03  0.30601436216E+03  0.00000000000E+00 0.  1.
         13    1    4    4    0    0  0.77950498919E+02  0.94919658310E+01 -0.25689073533E+03  0.26862469655E+03  0.00000000000E+00 0. -1.
          1    1    1    2  501    0 -0.13792244244E+03  0.61174387182E+02 -0.56543482800E+03  0.58521914740E+03  0.00000000000E+00 0. -1.
<scales pt_clust_5="13000.00000" pt_clust_6="13000.00000" pt_clust_7="13000.00000" pt_clust_8="13000.00000" pt_clust_9="13000.00000"></scales>
<clustering>
<clus scale="   82.803">  5  6 -1 -1</clus>
<clus scale="   84.255">  2  5  1 -1</clus>
<clus scale="   90.285">  7  8 -1 -1</clus>
<clus scale="  144.956">  7  9 -1 -1</clus>
<clus scale="  317.478">  1  5  2 -1</clus>
</clustering>
</event>
<event>
 9    2  0.2147756E-005  0.3591170E+03  0.7546771E-02  0.1081400E+00
          2   -1    0    0  502    0 -0.00000000000E+00  0.00000000000E+00  0.22221530418E+04  0.22221530418E+04  0.00000000000E+00 0. -1.
         21   -1    0    0  501  502  0.00000000000E+00 -0.00000000000E+00 -0.38169224666E+02  0.38169224666E+02  0.00000000000E+00 0. -1.
         24    2    1    2    0    0  0.82719201476E+02 -0.15625849664E+03  0.45720903384E+03  0.49660001621E+03  0.79449930151E+02 0.  0.
         23    2    1    2    0    0  0.14077199662E+02 -0.35671704531E+02  0.22325291236E+03  0.24491193894E+03  0.93109381406E+02 0.  0.
        -11    1    3    3    0    0  0.12853622989E+02 -0.33621046406E+02  0.30582126442E+02  0.47231947272E+02  0.00000000000E+00 0.  1.
         12    1    3    3    0    0  0.69865578487E+02 -0.12263745024E+03  0.42662690740E+03  0.44936806893E+03  0.00000000000E+00 0. -1.
        -11    1    4    4    0    0 -0.12012244358E+01  0.30829719155E+02  0.50596677877E+02  0.59261609289E+02  0.00000000000E+00 0. -1.
         11    1    4    4    0    0  0.15278424097E+02 -0.66501423687E+02  0.17265623448E+03  0.18565032965E+03  0.00000000000E+00 0.  1.
          1    1    1    2  501    0 -0.96796401138E+02  0.19193020117E+03  0.15035218709E+04  0.15188103113E+04  0.00000000000E+00 0. -1.
<scales pt_clust_5="13000.00000" pt_clust_6="13000.00000" pt_clust_7="13000.00000" pt_clust_8="13000.00000" pt_clust_9="13000.00000"></scales>
<clustering>
<clus scale="   79.450">  5  6 -1 -1</clus>
<clus scale="   93.109">  7  8 -1 -1</clus>
<clus scale="  193.834">  1  5  2 -1</clus>
<clus scale="   61.972">  7  9 -1 -1</clus>
<clus scale="  359.117">  2  5  1 -1</clus>
</clustering>
</event>
<event>
 9    2  0.2147756E-005  0.2693157E+03  0.7546771E-02  0.1127411E+00
          2   -1    0    0  502    0 -0.00000000000E+00  0.00000000000E+00  0.20919513385E+03  0.20919513385E+03  0.00000000000E+00 0. -1.
         21   -1    0    0  501  502  0.00000000000E+00 -0.00000000000E+00 -0.24679698734E+03  0.24679698734E+03  0.00000000000E+00 0. -1.
         24    2    1    2    0    0 -0.10190139125E+03 -0.43643572631E+02 -0.10842827265E+03  0.17751892677E+03  0.86415415766E+02 0.  0.
         23    2    1    2    0    0  0.71007760221E+01 -0.25012028757E+01 -0.61344021079E+02  0.10940065902E+03  0.90270361895E+02 0.  0.
        -13    1    3    3    0    0 -0.66412559438E+02  0.18136528083E+02 -0.60501808119E+02  0.91651680223E+02  0.00000000000E+00 0.  1.
         14    1    3    3    0    0 -0.35488831808E+02 -0.61780100713E+02 -0.47926464535E+02  0.85867246550E+02  0.00000000000E+00 0. -1.
        -11    1    4    4    0    0 -0.66968011314E+01 -0.42961332938E+02 -0.14150723266E+02  0.45724897399E+02  0.00000000000E+00 0.  1.
         11    1    4    4    0    0  0.13797577154E+02  0.40460130063E+02 -0.47193297812E+02  0.63675761624E+02  0.00000000000E+00 0. -1.
          1    1    1    2  501    0  0.94800615223E+02  0.46144775506E+02  0.13217044024E+03  0.16907253540E+03  0.00000000000E+00 0. -1.
<scales pt_clust_5="13000.00000" pt_clust_6="13000.00000" pt_clust_7="13000.00000" pt_clust_8="13000.00000" pt_clust_9="13000.00000"></scales>
<clustering>
<clus scale="   86.415">  5  6 -1 -1</clus>
<clus scale="   90.270">  7  8 -1 -1</clus>
<clus scale="  105.435">  7  9 -1 -1</clus>
<clus scale="  140.557">  1  5  2 -1</clus>
<clus scale="  269.316">  2  5  1 -1</clus>
</clustering>
</event>
<event>
 9    2  0.2147756E-005  0.3677605E+03  0.7546771E-02  0.1098142E+00
         -1   -1    0    0    0  501 -0.00000000000E+00  0.00000000000E+00  0.33100027188E+02  0.33100027188E+02  0.00000000000E+00 0.  1.
         21   -1    0    0  501  502  0.00000000000E+00 -0.00000000000E+00 -0.21547706122E+04  0.21547706122E+04  0.00000000000E+00 0.  1.
         24    2    1    2    0    0 -0.53947937527E+02  0.60805131082E+02 -0.19860375303E+03  0.22995495036E+03  0.82632829708E+02 0.  0.
         23    2    1    2    0    0 -0.73431928859E+02  0.96456663208E+02 -0.57204807659E+03  0.59182323985E+03  0.91211891983E+02 0.  0.
        -13    1    3    3    0    0 -0.27835782047E+02  0.65615208296E+02 -0.74740761254E+02  0.10327810859E+03  0.00000000000E+00 0.  1.
         14    1    3    3    0    0 -0.26112155480E+02 -0.48100772140E+01 -0.12386299178E+03  0.12667684176E+03  0.00000000000E+00 0. -1.
        -11    1    4    4    0    0 -0.94587916136E+02  0.78678163378E+02 -0.49157022942E+03  0.50673308331E+03  0.00000000000E+00 0.  1.
         11    1    4    4    0    0  0.21155987277E+02  0.17778499830E+02 -0.80477847171E+02  0.85090156535E+02  0.00000000000E+00 0. -1.
         -2    1    1    2    0  502  0.12737986639E+03 -0.15726179429E+03 -0.13510187554E+04  0.13660924492E+04  0.00000000000E+00 0.  1.
<scales pt_clust_5="13000.00000" pt_clust_6="13000.00000" pt_clust_7="13000.00000" pt_clust_8="13000.00000" pt_clust_9="13000.00000"></scales>
<clustering>
<clus scale="   82.633">  5  6 -1 -1</clus>
<clus scale="   91.212">  7  8 -1 -1</clus>
<clus scale="  115.913">  1  5  2 -1</clus>
<clus scale="  167.261">  7  9 -1 -1</clus>
<clus scale="  367.761">  2  5  1 -1</clus>
</clustering>
</event>
<event>
 9    2  0.2147756E-005  0.7166820E+03  0.7546771E-02  0.9721868E-01
          2   -1    0    0  502    0 -0.00000000000E+00  0.00000000000E+00  0.80397600894E+03  0.80397600894E+03  0.00000000000E+00 0. -1.
         21   -1    0    0  501  502  0.00000000000E+00 -0.00000000000E+00 -0.83428790949E+03  0.83428790949E+03  0.00000000000E+00 0. -1.
         24    2    1    2    0    0 -0.48292738828E+03 -0.41657943405E+03  0.44228291411E+03  0.77978917502E+03  0.75496318761E+02 0.  0.
         23    2    1    2    0    0  0.12415455277E+03 -0.95789733643E+01 -0.60541874111E+02  0.16557030445E+03  0.90785998316E+02 0.  0.
        -13    1    3    3    0    0 -0.30060476438E+02 -0.22267331302E+02  0.67966324236E+01  0.38021842397E+02  0.00000000000E+00 0.  1.
         14    1    3    3    0    0 -0.45286691184E+03 -0.39431210275E+03  0.43548628168E+03  0.74176733263E+03  0.00000000000E+00 0. -1.
        -13    1    4    4    0    0  0.71049219210E+02 -0.14228613500E+02  0.14127572388E+02  0.73824340797E+02  0.00000000000E+00 0. -1.
         13    1    4    4    0    0  0.53105333555E+02  0.46496401361E+01 -0.74669446499E+02  0.91745963649E+02  0.00000000000E+00 0.  1.
          1    1    1    2  501    0  0.35877283551E+03  0.42615840742E+03 -0.41205294055E+03  0.69290443896E+03  0.00000000000E+00 0. -1.
<scales pt_clust_5="13000.00000" pt_clust_6="13000.00000" pt_clust_7="13000.00000" pt_clust_8="13000.00000" pt_clust_9="13000.00000"></scales>
<clustering>
<clus scale="   75.496">  5  6 -1 -1</clus>
<clus scale="   90.786">  7  8 -1 -1</clus>
<clus scale="  557.072">  7  9 -1 -1</clus>
<clus scale="  642.228">  1  5  2 -1</clus>
<clus scale="  716.682">  2  5  1 -1</clus>
</clustering>
</event>
<event>
 9    2  0.2147756E-005  0.5337687E+03  0.7546771E-02  0.1065549E+00
         21   -1    0    0  501  502  0.00000000000E+00  0.00000000000E+00  0.76758984686E+03  0.76758984686E+03  0.00000000000E+00 0.  1.
          4   -1    0    0  502    0 -0.00000000000E+00 -0.00000000000E+00 -0.65425860670E+03  0.65425860670E+03  0.00000000000E+00 0. -1.
         24    2    1    2    0    0  0.39553596412E+02 -0.12723164840E+02 -0.55733088995E+03  0.56470396359E+03  0.80910318856E+02 0.  0.
         23    2    1    2    0    0 -0.15517132845E+03 -0.17013395848E+03  0.56395245919E+03  0.61591608912E+03  0.91030476246E+02 0.  0.
        -11    1    3    3    0    0  0.26522476740E+02 -0.11440303165E+02 -0.54316199978E+02  0.61518874250E+02  0.00000000000E+00 0.  1.
         12    1    3    3    0    0  0.13031119672E+02 -0.12828616754E+01 -0.50301468997E+03  0.50318508934E+03  0.00000000000E+00 0. -1.
        -13    1    4    4    0    0 -0.77943914922E+02 -0.62733157897E+02  0.14196267027E+03  0.17367815845E+03  0.00000000000E+00 0. -1.
         13    1    4    4    0    0 -0.77227413528E+02 -0.10740080058E+03  0.42198978892E+03  0.44223793067E+03  0.00000000000E+00 0.  1.
          3    1    1    2  501    0  0.11561773204E+03  0.18285712332E+03  0.10670967091E+03  0.24122840085E+03  0.00000000000E+00 0. -1.
<scales pt_clust_5="13000.00000" pt_clust_6="13000.00000" pt_clust_7="13000.00000" pt_clust_8="13000.00000" pt_clust_9="13000.00000"></scales>
<clustering>
<clus scale="   80.910">  5  6 -1 -1</clus>
<clus scale="   90.955">  2  5  1 -1</clus>
<clus scale="   91.030">  7  8 -1 -1</clus>
<clus scale="  225.707">  7  9 -1 -1</clus>
<clus scale="  533.769">  1  5  2 -1</clus>
</clustering>
</event>
<event>
 9    2  0.2147756E-005  0.2109906E+03  0.7546771E-02  0.1169439E+00
          2   -1    0    0  502    0 -0.00000000000E+00  0.00000000000E+00  0.21472595424E+03  0.21472595424E+03  0.00000000000E+00 0. -1.
         21   -1    0    0  501  502  0.00000000000E+00 -0.00000000000E+00 -0.15492313481E+03  0.15492313481E+03  0.00000000000E+00 0. -1.
         24    2    1    2    0    0  0.33158019072E+02 -0.64360978301E+02  0.10878766045E+03  0.15304683510E+03  0.79666736547E+02 0.  0.
         23    2    1    2    0    0  0.84001075050E+01 -0.39025181699E+02 -0.15257509600E+02  0.10018357483E+03  0.90611425620E+02 0.  0.
        -13    1    3    3    0    0  0.17324465275E+02  0.17033879077E+02  0.19135278626E+02  0.30926510012E+02  0.00000000000E+00 0.  1.
         14    1    3    3    0    0  0.15833553797E+02 -0.81394857377E+02  0.89652381821E+02  0.12212032509E+03  0.00000000000E+00 0. -1.
        -13    1    4    4    0    0 -0.35492416336E+02 -0.23274348535E+02 -0.29192256606E+02  0.51513054296E+02  0.00000000000E+00 0.  1.
         13    1    4    4    0    0  0.43892523841E+02 -0.15750833164E+02  0.13934747006E+02  0.48670520530E+02  0.00000000000E+00 0. -1.
          1    1    1    2  501    0 -0.41558126577E+02  0.10338616000E+03 -0.33727331421E+02  0.11641867912E+03  0.00000000000E+00 0. -1.
<scales pt_clust_5="13000.00000" pt_clust_6="13000.00000" pt_clust_7="13000.00000" pt_clust_8="13000.00000" pt_clust_9="13000.00000"></scales>
<clustering>
<clus scale="   79.667">  5  6 -1 -1</clus>
<clus scale="   90.611">  7  8 -1 -1</clus>
<clus scale="  107.650">  1  5  2 -1</clus>
<clus scale="   75.938">  7  9 -1 -1</clus>
<clus scale="  210.991">  2  5  1 -1</clus>
</clustering>
</event>
<event>
 9    2  0.2147756E-005  0.7151556E+03  0.7546771E-02  0.1016979E+00
          2   -1    0    0  502    0 -0.00000000000E+00  0.00000000000E+00  0.16567749170E+04  0.16567749170E+04  0.00000000000E+00 0. -1.
         21   -1    0    0  501  502  0.00000000000E+00 -0.00000000000E+00 -0.11711232855E+03  0.11711232855E+03  0.00000000000E+00 0.  1.
         24    2    1    2    0    0  0.11466324761E+03  0.65774495770E+02  0.39349006220E+03  0.42290277182E+03  0.80860254198E+02 0.  0.
         23    2    1    2    0    0  0.12895691687E+03 -0.30707392154E+03  0.38985817985E+03  0.52057036740E+03  0.89887859695E+02 0.  0.
        -11    1    3    3    0    0  0.52533442512E+02  0.32684151033E+02  0.77504095559E+02  0.99171070072E+02  0.00000000000E+00 0.  1.
         12    1    3    3    0    0  0.62129805099E+02  0.33090344737E+02  0.31598596665E+03  0.32373170174E+03  0.00000000000E+00 0. -1.
        -11    1    4    4    0    0  0.60408134663E+02 -0.20848329010E+03  0.19556073705E+03  0.29216164509E+03  0.00000000000E+00 0. -1.
         11    1    4    4    0    0  0.68548782211E+02 -0.98590631435E+02  0.19429744280E+03  0.22840872231E+03  0.00000000000E+00 0.  1.
          1    1    1    2  501    0 -0.24362016448E+03  0.24129942577E+03  0.75631434639E+03  0.83041410632E+03  0.00000000000E+00 0. -1.
<scales pt_clust_5="13000.00000" pt_clust_6="13000.00000" pt_clust_7="13000.00000" pt_clust_8="13000.00000" pt_clust_9="13000.00000"></scales>
<clustering>
<clus scale="   80.860">  5  6 -1 -1</clus>
<clus scale="   89.888">  7  8 -1 -1</clus>
<clus scale="  154.959">  1  5  2 -1</clus>
<clus scale="  330.608">  7  9 -1 -1</clus>
<clus scale="  715.156">  2  5  1 -1</clus>
</clustering>
</event>
<event>
 9    2  0.2147756E-005  0.4184437E+03  0.7546771E-02  0.1068265E+00
          2   -1    0    0  502    0 -0.00000000000E+00  0.00000000000E+00  0.11094030800E+04  0.11094030800E+04  0.00000000000E+00 0. -1.
         21   -1    0    0  501  502  0.00000000000E+00 -0.00000000000E+00 -0.80944529141E+02  0.80944529141E+02  0.00000000000E+00 0.  1.
         24    2    1    2    0    0 -0.13853164129E+03 -0.70738232593E+02  0.23238243037E+03  0.29099655546E+03  0.80513900370E+02 0.  0.
         23    2    1    2    0    0 -0.11379500023E+02 -0.45964282501E+02  0.24004250055E+02  0.10424867007E+03  0.89718297484E+02 0.  0.
        -11    1    3    3    0    0 -0.94774766592E+02 -0.47177332746E+01  0.11066955914E+03  0.14578156505E+03  0.00000000000E+00 0.  1.
         12    1    3    3    0    0 -0.43756874702E+02 -0.66020499319E+02  0.12171287123E+03  0.14521499040E+03  0.00000000000E+00 0. -1.
        -13    1    4    4    0    0 -0.32302046934E+02 -0.45201293235E+02  0.47273033023E+02  0.72947370051E+02  0.00000000000E+00 0. -1.
         13    1    4    4    0    0  0.20922546911E+02 -0.76298926611E+00 -0.23268782968E+02  0.31301300016E+02  0.00000000000E+00 0.  1.
          1    1    1    2  501    0  0.14991114132E+03  0.11670251509E+03  0.77207187047E+03  0.79510238365E+03  0.00000000000E+00 0. -1.
<scales pt_clust_5="13000.00000" pt_clust_6="13000.00000" pt_clust_7="13000.00000" pt_clust_8="13000.00000" pt_clust_9="13000.00000"></scales>
<clustering>
<clus scale="   80.514">  5  6 -1 -1</clus>
<clus scale="   89.718">  7  8 -1 -1</clus>
<clus scale="  175.150">  1  5  2 -1</clus>
<clus scale="   55.777">  7  9 -1 -1</clus>
<clus scale="  418.444">  2  5  1 -1</clus>
</clustering>
</event>
<event>
 9    2  0.2147756E-005  0.2060483E+03  0.7546771E-02  0.1183716E+00
         21   -1    0    0  501  502  0.00000000000E+00  0.00000000000E+00  0.88899155476E+02  0.88899155476E+02  0.00000000000E+00 0. -1.
          2   -1    0    0  502    0 -0.00000000000E+00 -0.00000000000E+00 -0.28908862373E+03  0.28908862373E+03  0.00000000000E+00 0. -1.
         24    2    1    2    0    0  0.19594429020E+02 -0.45166411762E+01 -0.14038124849E+03  0.16343497150E+03  0.81238865613E+02 0.  0.
         23    2    1    2    0    0  0.62122936161E+02  0.25224908617E+02 -0.40938005766E+01  0.11350501397E+03  0.91493572352E+02 0.  0.
        -13    1    3    3    0    0 -0.31911352374E+02  0.70991319224E+00 -0.53165914896E+02  0.62011715779E+02  0.00000000000E+00 0.  1.
         14    1    3    3    0    0  0.51505781394E+02 -0.52265543684E+01 -0.87215333597E+02  0.10142325573E+03  0.00000000000E+00 0. -1.
        -11    1    4    4    0    0 -0.92570916901E+01 -0.22593750158E+02 -0.12035454000E+02  0.27221745825E+02  0.00000000000E+00 0.  1.
         11    1    4    4    0    0  0.71380027852E+02  0.47818658775E+02  0.79416534238E+01  0.86283268148E+02  0.00000000000E+00 0. -1.
          1    1    1    2  501    0 -0.81717365181E+02 -0.20708267441E+02 -0.55714419188E+02  0.10104779373E+03  0.00000000000E+00 0. -1.
<scales pt_clust_5="13000.00000" pt_clust_6="13000.00000" pt_clust_7="13000.00000" pt_clust_8="13000.00000" pt_clust_9="13000.00000"></scales>
<clustering>
<clus scale="   81.239">  5  6 -1 -1</clus>
<clus scale="   83.690">  2  5  1 -1</clus>
<clus scale="   91.494">  7  8 -1 -1</clus>
<clus scale="   74.268">  7  9 -1 -1</clus>
<clus scale="  206.048">  1  5  2 -1</clus>
</clustering>
</event>
<event>
 9    2  0.2147756E-005  0.2478560E+03  0.7546771E-02  0.1143431E+00
         -3   -1    0    0    0  501 -0.00000000000E+00  0.00000000000E+00  0.42269450359E+03  0.42269450359E+03  0.00000000000E+00 0.  1.
         21   -1    0    0  501  502  0.00000000000E+00 -0.00000000000E+00 -0.73504585922E+03  0.73504585922E+03  0.00000000000E+00 0.  1.
         24    2    1    2    0    0 -0.69512651282E+02  0.61528286487E+02  0.39224604548E+03  0.41081994957E+03  0.79362031480E+02 0.  0.
         23    2    1    2    0    0 -0.45764697760E+02  0.21617264065E+02 -0.24762524944E+03  0.26835422432E+03  0.90188756950E+02 0.  0.
        -11    1    3    3    0    0 -0.42456566349E+02  0.75287095757E+02  0.22884724040E+03  0.24462576776E+03  0.00000000000E+00 0.  1.
         12    1    3    3    0    0 -0.27056084933E+02 -0.13758809270E+02  0.16339880509E+03  0.16619418181E+03  0.00000000000E+00 0. -1.
        -13    1    4    4    0    0  0.17952862035E+02  0.28876467585E+02 -0.13010803590E+03  0.13447771801E+03  0.00000000000E+00 0. -1.
         13    1    4    4    0    0 -0.63717559795E+02 -0.72592035192E+01 -0.11751721354E+03  0.13387650631E+03  0.00000000000E+00 0.  1.
         -4    1    1    2    0  502  0.11527734904E+03 -0.83145550553E+02 -0.45697215167E+03  0.47856618892E+03  0.00000000000E+00 0.  1.
<scales pt_clust_5="13000.00000" pt_clust_6="13000.00000" pt_clust_7="13000.00000" pt_clust_8="13000.00000" pt_clust_9="13000.00000"></scales>
<clustering>
<clus scale="   79.362">  5  6 -1 -1</clus>
<clus scale="   90.189">  7  8 -1 -1</clus>
<clus scale="  122.131">  1  5  2 -1</clus>
<clus scale="   95.121">  7  9 -1 -1</clus>
<clus scale="  247.856">  2  5  1 -1</clus>
</clustering>
</event>
<event>
 9    2  0.2147756E-005  0.3666291E+03  0.7546771E-02  0.1062526E+00
          2   -1    0    0  502    0 -0.00000000000E+00  0.00000000000E+00  0.17092748208E+04  0.17092748208E+04  0.00000000000E+00 0. -1.
         21   -1    0    0  501  502  0.00000000000E+00 -0.00000000000E+00 -0.79187791103E+02  0.79187791103E+02  0.00000000000E+00 0. -1.
         24    2    1    2    0    0 -0.25013859544E+03  0.15607503152E+03  0.11162467833E+04  0.11572346993E+04  0.79098265303E+02 0.  0.
         23    2    1    2    0    0  0.17382623719E+03 -0.11102749527E+02  0.33733835705E+03  0.39040960869E+03  0.91014634213E+02 0.  0.
        -13    1    3    3    0    0 -0.14373836589E+03  0.47526386730E+02  0.49304746089E+03  0.51576668558E+03  0.00000000000E+00 0.  1.
         14    1    3    3    0    0 -0.10640022954E+03  0.10854864479E+03  0.62319932240E+03  0.64146801368E+03  0.00000000000E+00 0. -1.
        -13    1    4    4    0    0  0.13993459003E+03  0.14197878393E+01  0.32211855208E+03  0.35120373984E+03  0.00000000000E+00 0. -1.
         13    1    4    4    0    0  0.33891647156E+02 -0.12522537366E+02  0.15219804970E+02  0.39205868851E+02  0.00000000000E+00 0.  1.
          1    1    1    2  501    0  0.76312358250E+02 -0.14497228200E+03  0.17650188934E+03  0.24081830393E+03  0.00000000000E+00 0. -1.
<scales pt_clust_5="13000.00000" pt_clust_6="13000.00000" pt_clust_7="13000.00000" pt_clust_8="13000.00000" pt_clust_9="13000.00000"></scales>
<clustering>
<clus scale="   79.098">  5  6 -1 -1</clus>
<clus scale="   91.015">  7  8 -1 -1</clus>
<clus scale="  163.831">  7  9 -1 -1</clus>
<clus scale="  305.263">  1  5  2 -1</clus>
<clus scale="  366.629">  2  5  1 -1</clus>
</clustering>
</event>
<event>
 9    2  0.2147756E-005  0.2822636E+03  0.7546771E-02  0.1142625E+00
          4   -1    0    0  502    0 -0.00000000000E+00  0.00000000000E+00  0.24933553615E+03  0.24933553615E+03  0.00000000000E+00 0. -1.
         21   -1    0    0  501  502  0.00000000000E+00 -0.00000000000E+00 -0.15329645744E+03  0.15329645744E+03  0.00000000000E+00 0. -1.
         24    2    1    2    0    0  0.12954305766E+02 -0.54298135666E+02 -0.35188012588E+02  0.91355101232E+02  0.63177976515E+02 0.  0.
         23    2    1    2    0    0 -0.63476118895E+02  0.12835945592E+02  0.19179427798E+03  0.22217049017E+03  0.91546176683E+02 0.  0.
        -13    1    3    3    0    0  0.31143093846E+02 -0.10428501185E+02 -0.28327003267E+02  0.43371246758E+02  0.00000000000E+00 0.  1.
         14    1    3    3    0    0 -0.18188788080E+02 -0.43869634481E+02 -0.68610093211E+01  0.47983854474E+02  0.00000000000E+00 0. -1.
        -13    1    4    4    0    0 -0.65839817637E+02  0.33721783156E+02  0.82223010997E+02  0.11060137333E+03  0.00000000000E+00 0. -1.
         13    1    4    4    0    0  0.23636987419E+01 -0.20885837563E+02  0.10957126699E+03  0.11156911684E+03  0.00000000000E+00 0.  1.
          3    1    1    2  501    0  0.50521813129E+02  0.41462190074E+02 -0.60567186683E+02  0.89106402184E+02  0.00000000000E+00 0. -1.
<scales pt_clust_5="13000.00000" pt_clust_6="13000.00000" pt_clust_7="13000.00000" pt_clust_8="13000.00000" pt_clust_9="13000.00000"></scales>
<clustering>
<clus scale="   63.178">  5  6 -1 -1</clus>
<clus scale="   84.306">  1  5  2 -1</clus>
<clus scale="   91.546">  7  8 -1 -1</clus>
<clus scale="   63.864">  7  9 -1 -1</clus>
<clus scale="  282.264">  2  5  1 -1</clus>
</clustering>
</event>
<event>
 9    2  0.2147756E-005  0.2322901E+03  0.7546771E-02  0.1169082E+00
         21   -1    0    0  501  502  0.00000000000E+00  0.00000000000E+00  0.47241519481E+02  0.47241519481E+02  0.00000000000E+00 0. -1.
          4   -1    0    0  502    0 -0.00000000000E+00 -0.00000000000E+00 -0.58207164336E+03  0.58207164336E+03  0.00000000000E+00 0. -1.
         24    2    1    2    0    0  0.35773729590E+02 -0.27647081205E+01 -0.61193503214E+02  0.10178084279E+03  0.72988298957E+02 0.  0.
         23    2    1    2    0    0  0.55161364689E+02  0.61119271372E+02 -0.20615882193E+03  0.23905559787E+03  0.88700493371E+02 0.  0.
        -11    1    3    3    0    0  0.61854639452E+00 -0.24395566342E+02 -0.54831136875E+02  0.60016496298E+02  0.00000000000E+00 0.  1.
         12    1    3    3    0    0  0.35155183196E+02  0.21630858222E+02 -0.63623663384E+01  0.41764346497E+02  0.00000000000E+00 0. -1.
        -11    1    4    4    0    0  0.39712204194E+02  0.54010355049E+01 -0.21343689330E+02  0.45406865347E+02  0.00000000000E+00 0.  1.
         11    1    4    4    0    0  0.15449160495E+02  0.55718235867E+02 -0.18481513260E+03  0.19364873252E+03  0.00000000000E+00 0. -1.
          3    1    1    2  501    0 -0.90935094279E+02 -0.58354563252E+02 -0.26747779873E+03  0.28847672217E+03  0.00000000000E+00 0. -1.
<scales pt_clust_5="13000.00000" pt_clust_6="13000.00000" pt_clust_7="13000.00000" pt_clust_8="13000.00000" pt_clust_9="13000.00000"></scales>
<clustering>
<clus scale="   72.988">  5  6 -1 -1</clus>
<clus scale="   81.331">  2  5  1 -1</clus>
<clus scale="   88.700">  7  8 -1 -1</clus>
<clus scale="   92.939">  7  9 -1 -1</clus>
<clus scale="  232.290">  1  5  2 -1</clus>
</clustering>
</event>
<event>
 9    2  0.2147756E-005  0.1618796E+03  0.7546771E-02  0.1198300E+00
         -3   -1    0    0    0  501 -0.00000000000E+00  0.00000000000E+00  0.71385858238E+02  0.71385858238E+02  0.00000000000E+00 0.  1.
         21   -1    0    0  501  502  0.00000000000E+00 -0.00000000000E+00 -0.42020249943E+03  0.42020249943E+03  0.00000000000E+00 0.  1.
         24    2    1    2    0    0  0.27119684200E+02 -0.71332846022E+02 -0.29592552962E+03  0.32128726612E+03  0.99145025601E+02 0.  0.
         23    2    1    2    0    0 -0.21262369315E+02  0.52036837207E+01 -0.45661064697E+02  0.10352049690E+03  0.90290607347E+02 0.  0.
        -13    1    3    3    0    0  0.40139395690E+02 -0.89132119996E+02 -0.19682929401E+03  0.21976686939E+03  0.00000000000E+00 0.  1.
         14    1    3    3    0    0 -0.13019711490E+02  0.17799273975E+02 -0.99096235604E+02  0.10152039673E+03  0.00000000000E+00 0. -1.
        -13    1    4    4    0    0 -0.23330536077E+02 -0.39226075184E+02 -0.10522537182E+02  0.46837193305E+02  0.00000000000E+00 0. -1.
         13    1    4    4    0    0  0.20681667621E+01  0.44429758904E+02 -0.35138527515E+02  0.56683303591E+02  0.00000000000E+00 0.  1.
         -4    1    1    2    0  502 -0.58573148847E+01  0.66129162301E+02 -0.72300468820E+01  0.66780594653E+02  0.00000000000E+00 0.  1.
<scales pt_clust_5="13000.00000" pt_clust_6="13000.00000" pt_clust_7="13000.00000" pt_clust_8="13000.00000" pt_clust_9="13000.00000"></scales>
<clustering>
<clus scale="   90.291">  7  8 -1 -1</clus>
<clus scale="   66.388">  7  9 -1 -1</clus>
<clus scale="   99.145">  5  6 -1 -1</clus>
<clus scale="  125.114">  1  5  2 -1</clus>
<clus scale="  161.880">  2  5  1 -1</clus>
</clustering>
</event>
<event>
 9    2  0.2147756E-005  0.8184017E+03  0.7546771E-02  0.1002139E+00
          2   -1    0    0  502    0 -0.00000000000E+00  0.00000000000E+00  0.12516993598E+04  0.12516993598E+04  0.00000000000E+00 0. -1.
         21   -1    0    0  501  502  0.00000000000E+00 -0.00000000000E+00 -0.23599763151E+03  0.23599763151E+03  0.00000000000E+00 0. -1.
         24    2    1    2    0    0 -0.56247376568E+02 -0.13205353360E+03 -0.23129085749E+02  0.16521793892E+03  0.78486365879E+02 0.  0.
         23    2    1    2    0    0  0.69591636115E+02 -0.30477180912E+03  0.21196052602E+03  0.38722030609E+03  0.85343127468E+02 0.  0.
        -11    1    3    3    0    0 -0.16340980649E+02 -0.10891544975E+03  0.66113582253E+01  0.11033273721E+03  0.00000000000E+00 0.  1.
         12    1    3    3    0    0 -0.39906395919E+02 -0.23138083844E+02 -0.29740443974E+02  0.54885201712E+02  0.00000000000E+00 0. -1.
        -11    1    4    4    0    0  0.85692216949E+02 -0.28338938369E+03  0.20308346449E+03  0.35902032308E+03  0.00000000000E+00 0. -1.
         11    1    4    4    0    0 -0.16100580834E+02 -0.21382425435E+02  0.88770615304E+01  0.28199983015E+02  0.00000000000E+00 0.  1.
          1    1    1    2  501    0 -0.13344259547E+02  0.43682534272E+03  0.82687028801E+03  0.93525874628E+03  0.00000000000E+00 0. -1.
<scales pt_clust_5="13000.00000" pt_clust_6="13000.00000" pt_clust_7="13000.00000" pt_clust_8="13000.00000" pt_clust_9="13000.00000"></scales>
<clustering>
<clus scale="   78.486">  5  6 -1 -1</clus>
<clus scale="   85.343">  7  8 -1 -1</clus>
<clus scale="  163.591">  1  5  2 -1</clus>
<clus scale="  342.774">  7  9 -1 -1</clus>
<clus scale="  818.402">  2  5  1 -1</clus>
</clustering>
</event>
<event>
 9    2  0.2147756E-005  0.2040137E+03  0.7546771E-02  0.1182621E+00
         21   -1    0    0  501  502  0.00000000000E+00  0.00000000000E+00  0.23707125676E+03  0.23707125676E+03  0.00000000000E+00 0.  1.
         -3   -1    0    0    0  501 -0.00000000000E+00 -0.00000000000E+00 -0.90571678647E+02  0.90571678647E+02  0.00000000000E+00 0.  1.
         24    2    1    2    0    0  0.27226984756E+02  0.19775034925E+02  0.34043155517E+02  0.94687927326E+02  0.81697652589E+02 0.  0.
         23    2    1    2    0    0  0.21292104164E+02  0.50893022249E+02  0.25867452979E+02  0.11111196990E+03  0.92915506336E+02 0.  0.
        -11    1    3    3    0    0  0.51142537309E+02  0.21996282782E+02  0.34309415106E+01  0.55777835546E+02  0.00000000000E+00 0.  1.
         12    1    3    3    0    0 -0.23915552552E+02 -0.22212478564E+01  0.30612214006E+02  0.38910091780E+02  0.00000000000E+00 0. -1.
        -11    1    4    4    0    0 -0.24710488816E+02 -0.12237823849E+02 -0.32117162936E+01  0.27761262789E+02  0.00000000000E+00 0. -1.
         11    1    4    4    0    0  0.46002592981E+02  0.63130846098E+02  0.29079169273E+02  0.83350707109E+02  0.00000000000E+00 0.  1.
         -4    1    1    2    0  502 -0.48519088921E+02 -0.70668057174E+02  0.86588969620E+02  0.12184303819E+03  0.00000000000E+00 0.  1.
<scales pt_clust_5="13000.00000" pt_clust_6="13000.00000" pt_clust_7="13000.00000" pt_clust_8="13000.00000" pt_clust_9="13000.00000"></scales>
<clustering>
<clus scale="   81.698">  5  6 -1 -1</clus>
<clus scale="   88.356">  2  5  1 -1</clus>
<clus scale="   92.916">  7  8 -1 -1</clus>
<clus scale="   76.514">  7  9 -1 -1</clus>
<clus scale="  204.014">  1  5  2 -1</clus>
</clustering>
</event>
<event>
 9    2  0.2147756E-005  0.4011701E+03  0.7546771E-02  0.1062863E+00
         21   -1    0    0  501  502  0.00000000000E+00  0.00000000000E+00  0.76833392216E+02  0.76833392216E+02  0.00000000000E+00 0.  1.
          2   -1    0    0  502    0 -0.00000000000E+00 -0.00000000000E+00 -0.13003657527E+04  0.13003657527E+04  0.00000000000E+00 0. -1.
         24    2    1    2    0    0 -0.20268633444E+03 -0.77001560504E+02 -0.43120943243E+03  0.48910397077E+03  0.79184146902E+02 0.  0.
         23    2    1    2    0    0 -0.26567575473E+02  0.32075653634E+02 -0.97477294983E+02  0.15502891103E+03  0.11312584407E+03 0.  0.
        -11    1    3    3    0    0 -0.20322848711E+03 -0.85773489390E+02 -0.42307666575E+03  0.47712972508E+03  0.00000000000E+00 0.  1.
         12    1    3    3    0    0  0.54215267680E+00  0.87719288861E+01 -0.81327666776E+01  0.11974245686E+02  0.00000000000E+00 0. -1.
        -11    1    4    4    0    0 -0.35318237548E+02  0.57084708926E+02 -0.10746979509E+03  0.12671147838E+03  0.00000000000E+00 0.  1.
         11    1    4    4    0    0  0.87506620750E+01 -0.25009055292E+02  0.99925001102E+01  0.28317432648E+02  0.00000000000E+00 0. -1.
          1    1    1    2  501    0  0.22925390991E+03  0.44925906869E+02 -0.69484563311E+03  0.73306626315E+03  0.00000000000E+00 0. -1.
<scales pt_clust_5="13000.00000" pt_clust_6="13000.00000" pt_clust_7="13000.00000" pt_clust_8="13000.00000" pt_clust_9="13000.00000"></scales>
<clustering>
<clus scale="   79.184">  5  6 -1 -1</clus>
<clus scale="  113.126">  7  8 -1 -1</clus>
<clus scale="  230.827">  2  5  1 -1</clus>
<clus scale="   60.599">  7  9 -1 -1</clus>
<clus scale="  401.170">  1  5  2 -1</clus>
</clustering>
</event>
<event>
 9    2  0.2147756E-005  0.1369122E+03  0.7546771E-02  0.1243705E+00
          2   -1    0    0  502    0 -0.00000000000E+00  0.00000000000E+00  0.28430604626E+03  0.28430604626E+03  0.00000000000E+00 0. -1.
         21   -1    0    0  501  502  0.00000000000E+00 -0.00000000000E+00 -0.48286883979E+02  0.48286883979E+02  0.00000000000E+00 0. -1.
         24    2    1    2    0    0 -0.13176575282E+02 -0.17698579038E+01  0.30070724328E+02  0.85288030086E+02  0.78695902569E+02 0.  0.
         23    2    1    2    0    0 -0.16386383611E+02 -0.16656147953E+02  0.18061809645E+03  0.20423388402E+03  0.92426412793E+02 0.  0.
        -13    1    3    3    0    0  0.17790280409E+02  0.20673294069E+02  0.37459087340E+02  0.46336404576E+02  0.00000000000E+00 0.  1.
         14    1    3    3    0    0 -0.30966855691E+02 -0.22443151973E+02 -0.73883630124E+01  0.38951625510E+02  0.00000000000E+00 0. -1.
        -11    1    4    4    0    0  0.16858986462E+02  0.31906228708E+02  0.77857126943E+02  0.85813548293E+02  0.00000000000E+00 0.  1.
         11    1    4    4    0    0 -0.33245370073E+02 -0.48562376661E+02  0.10276096951E+03  0.11842033572E+03  0.00000000000E+00 0. -1.
          1    1    1    2  501    0  0.29562958894E+02  0.18426005857E+02  0.25330341500E+02  0.43071016135E+02  0.00000000000E+00 0. -1.
<scales pt_clust_5="13000.00000" pt_clust_6="13000.00000" pt_clust_7="13000.00000" pt_clust_8="13000.00000" pt_clust_9="13000.00000"></scales>
<clustering>
<clus scale="   78.696">  5  6 -1 -1</clus>
<clus scale="   79.811">  1  5  2 -1</clus>
<clus scale="   92.426">  7  8 -1 -1</clus>
<clus scale="   33.017">  7  9 -1 -1</clus>
<clus scale="  136.912">  2  5  1 -1</clus>
</clustering>
</event>
<event>
 9    2  0.2147756E-005  0.2103309E+03  0.7546771E-02  0.1162840E+00
          2   -1    0    0  502    0 -0.00000000000E+00  0.00000000000E+00  0.32192505381E+03  0.32192505381E+03  0.00000000000E+00 0. -1.
         21   -1    0    0  501  502  0.00000000000E+00 -0.00000000000E+00 -0.88168200475E+02  0.88168200475E+02  0.00000000000E+00 0. -1.
         24    2    1    2    0    0 -0.98390846173E+02 -0.11874677624E+02  0.82546516400E+02  0.15104954311E+03  0.78614696625E+02 0.  0.
         23    2    1    2    0    0  0.30252510978E+00  0.11482381939E+02  0.12426016966E+03  0.15731965236E+03  0.95796381142E+02 0.  0.
        -11    1    3    3    0    0 -0.41696060337E+02  0.19803881052E+02  0.71598193633E+02  0.85188358852E+02  0.00000000000E+00 0.  1.
         12    1    3    3    0    0 -0.56694785836E+02 -0.31678558676E+02  0.10948322767E+02  0.65861184261E+02  0.00000000000E+00 0. -1.
        -11    1    4    4    0    0 -0.76734772832E+01 -0.37942731696E+02  0.85995111253E+02  0.94306374661E+02  0.00000000000E+00 0. -1.
         11    1    4    4    0    0  0.79760023929E+01  0.49425113635E+02  0.38265058403E+02  0.63013277701E+02  0.00000000000E+00 0.  1.
          1    1    1    2  501    0  0.98088321063E+02  0.39229568502E+00  0.26950167281E+02  0.10172405881E+03  0.00000000000E+00 0. -1.
<scales pt_clust_5="13000.00000" pt_clust_6="13000.00000" pt_clust_7="13000.00000" pt_clust_8="13000.00000" pt_clust_9="13000.00000"></scales>
<clustering>
<clus scale="   78.615">  5  6 -1 -1</clus>
<clus scale="   95.796">  7  8 -1 -1</clus>
<clus scale="   98.089">  7  9 -1 -1</clus>
<clus scale="  126.499">  1  5  2 -1</clus>
<clus scale="  210.331">  2  5  1 -1</clus>
</clustering>
</event>
<event>
 9    2  0.2147756E-005  0.2286719E+03  0.7546771E-02  0.1167838E+00
         21   -1    0    0  501  502  0.00000000000E+00  0.00000000000E+00  0.73570827192E+02  0.73570827192E+02  0.00000000000E+00 0.  1.
          2   -1    0    0  502    0 -0.00000000000E+00 -0.00000000000E+00 -0.37665752116E+03  0.37665752116E+03  0.00000000000E+00 0. -1.
         24    2    1    2    0    0  0.26711179882E+02 -0.18987345454E+02 -0.15405476922E+03  0.17727895727E+03  0.81369222388E+02 0.  0.
         23    2    1    2    0    0  0.22962568593E+02 -0.24436805586E+02  0.16461370302E+02  0.94788876696E+02  0.87117836344E+02 0.  0.
        -13    1    3    3    0    0  0.55557092924E+02 -0.14130010508E+02 -0.87844812799E+02  0.10489498990E+03  0.00000000000E+00 0.  1.
         14    1    3    3    0    0 -0.28845913041E+02 -0.48573349465E+01 -0.66209956425E+02  0.72383967367E+02  0.00000000000E+00 0. -1.
        -13    1    4    4    0    0  0.24306315947E+02 -0.55096689689E+02  0.55541015186E+00  0.60222509828E+02  0.00000000000E+00 0.  1.
         13    1    4    4    0    0 -0.13437473538E+01  0.30659884102E+02  0.15905960150E+02  0.34566366867E+02  0.00000000000E+00 0. -1.
          1    1    1    2  501    0 -0.49673748476E+02  0.43424151041E+02 -0.16549329505E+03  0.17816051439E+03  0.00000000000E+00 0. -1.
<scales pt_clust_5="13000.00000" pt_clust_6="13000.00000" pt_clust_7="13000.00000" pt_clust_8="13000.00000" pt_clust_9="13000.00000"></scales>
<clustering>
<clus scale="   81.369">  5  6 -1 -1</clus>
<clus scale="   87.118">  7  8 -1 -1</clus>
<clus scale="   65.978">  7  9 -1 -1</clus>
<clus scale="   87.721">  2  5  1 -1</clus>
<clus scale="  228.672">  1  5  2 -1</clus>
</clustering>
</event>
<event>
 9    2  0.2147756E-005  0.1720052E+03  0.7546771E-02  0.1207368E+00
         -3   -1    0    0    0  501 -0.00000000000E+00  0.00000000000E+00  0.44483899512E+02  0.44483899512E+02  0.00000000000E+00 0.  1.
         21   -1    0    0  501  502  0.00000000000E+00 -0.00000000000E+00 -0.69723747346E+03  0.69723747346E+03  0.00000000000E+00 0. -1.
         24    2    1    2    0    0 -0.27915054527E+02 -0.14220440965E+02 -0.22804944606E+02  0.88712147071E+02  0.79801681241E+02 0.  0.
         23    2    1    2    0    0 -0.34949597521E+02  0.30681828568E+02 -0.31983932548E+03  0.33616427629E+03  0.92446620019E+02 0.  0.
        -11    1    3    3    0    0 -0.41870585480E+01 -0.30374331012E+02  0.20409352002E+02  0.36833043492E+02  0.00000000000E+00 0.  1.
         12    1    3    3    0    0 -0.23727995979E+02  0.16153890047E+02 -0.43214296608E+02  0.51879103579E+02  0.00000000000E+00 0. -1.
        -13    1    4    4    0    0  0.19986975711E+02  0.16870474511E+02 -0.25873149315E+02  0.36790106874E+02  0.00000000000E+00 0.  1.
         13    1    4    4    0    0 -0.54936573232E+02  0.13811354057E+02 -0.29396617617E+03  0.29937416941E+03  0.00000000000E+00 0. -1.
         -4    1    1    2    0  502  0.62864652048E+02 -0.16461387603E+02 -0.31010930386E+03  0.31684494962E+03  0.00000000000E+00 0.  1.
<scales pt_clust_5="13000.00000" pt_clust_6="13000.00000" pt_clust_7="13000.00000" pt_clust_8="13000.00000" pt_clust_9="13000.00000"></scales>
<clustering>
<clus scale="   79.802">  5  6 -1 -1</clus>
<clus scale="   85.731">  1  5  2 -1</clus>
<clus scale="   92.447">  7  8 -1 -1</clus>
<clus scale="   58.466">  7  9 -1 -1</clus>
<clus scale="  172.005">  2  5  1 -1</clus>
</clustering>
</event>
<event>
 9    2  0.2147756E-005  0.7204157E+03  0.7546771E-02  0.1026471E+00
          2   -1    0    0  502    0 -0.00000000000E+00  0.00000000000E+00  0.17155255999E+04  0.17155255999E+04  0.00000000000E+00 0. -1.
         21   -1    0    0  501  502  0.00000000000E+00 -0.00000000000E+00 -0.14884707952E+03  0.14884707952E+03  0.00000000000E+00 0. -1.
         24    2    1    2    0    0  0.78721830578E+02 -0.23141557884E+02  0.81610602066E+03  0.82400840274E+03  0.78918644999E+02 0.  0.
         23    2    1    2    0    0 -0.19471535099E+03  0.18022794332E+03  0.79241939714E+03  0.84066001509E+03  0.91567355243E+02 0.  0.
        -11    1    3    3    0    0 -0.97023303730E+01 -0.22390156313E+02  0.13519897856E+03  0.13738347105E+03  0.00000000000E+00 0.  1.
         12    1    3    3    0    0  0.88424160951E+02 -0.75140157086E+00  0.68090704210E+03  0.68662493169E+03  0.00000000000E+00 0. -1.
        -13    1    4    4    0    0 -0.13469076718E+03  0.76005850263E+02  0.52777222333E+03  0.54996546414E+03  0.00000000000E+00 0.  1.
         13    1    4    4    0    0 -0.60024583808E+02  0.10422209305E+03  0.26464717382E+03  0.29069455095E+03  0.00000000000E+00 0. -1.
          1    1    1    2  501    0  0.11599352041E+03 -0.15708638543E+03 -0.41846897427E+02  0.19970426157E+03  0.00000000000E+00 0. -1.
<scales pt_clust_5="13000.00000" pt_clust_6="13000.00000" pt_clust_7="13000.00000" pt_clust_8="13000.00000" pt_clust_9="13000.00000"></scales>
<clustering>
<clus scale="   78.919">  5  6 -1 -1</clus>
<clus scale="   91.567">  7  8 -1 -1</clus>
<clus scale="  113.846">  1  5  2 -1</clus>
<clus scale="  201.081">  7  9 -1 -1</clus>
<clus scale="  720.416">  2  5  1 -1</clus>
</clustering>
</event>
<event>
 9    2  0.2147756E-005  0.3613573E+03  0.7546771E-02  0.1078771E+00
         21   -1    0    0  501  502  0.00000000000E+00  0.00000000000E+00  0.85996004048E+02  0.85996004048E+02  0.00000000000E+00 0. -1.
          4   -1    0    0  502    0 -0.00000000000E+00 -0.00000000000E+00 -0.95173261871E+03  0.95173261871E+03  0.00000000000E+00 0. -1.
         24    2    1    2    0    0 -0.12127784334E+03  0.14490883233E+03 -0.39094494197E+03  0.44106606846E+03  0.77423795545E+02 0.  0.
         23    2    1    2    0    0 -0.53325538329E+02  0.24929410174E+02 -0.21440345617E+03  0.24010485517E+03  0.90644420278E+02 0.  0.
        -13    1    3    3    0    0 -0.19762807890E+02  0.74967109796E+02 -0.19149077996E+03  0.20658982292E+03  0.00000000000E+00 0.  1.
         14    1    3    3    0    0 -0.10151503545E+03  0.69941722537E+02 -0.19945416202E+03  0.23447624554E+03  0.00000000000E+00 0. -1.
        -11    1    4    4    0    0 -0.18870551966E+02 -0.24106496272E+02 -0.14593965152E+03  0.14911607150E+03  0.00000000000E+00 0.  1.
         11    1    4    4    0    0 -0.34454986363E+02  0.49035906446E+02 -0.68463804656E+02  0.90988783673E+02  0.00000000000E+00 0. -1.
          3    1    1    2  501    0  0.17460338167E+03 -0.16983824251E+03 -0.26038821652E+03  0.35655769913E+03  0.00000000000E+00 0. -1.
<scales pt_clust_5="13000.00000" pt_clust_6="13000.00000" pt_clust_7="13000.00000" pt_clust_8="13000.00000" pt_clust_9="13000.00000"></scales>
<clustering>
<clus scale="   77.424">  5  6 -1 -1</clus>
<clus scale="   90.644">  7  8 -1 -1</clus>
<clus scale="  204.209">  2  5  1 -1</clus>
<clus scale="  135.801">  7  9 -1 -1</clus>
<clus scale="  361.357">  1  5  2 -1</clus>
</clustering>
</event>
<event>
 9    2  0.2147756E-005  0.4962650E+03  0.7546771E-02  0.1072533E+00
         21   -1    0    0  501  502  0.00000000000E+00  0.00000000000E+00  0.19454762147E+03  0.19454762147E+03  0.00000000000E+00 0. -1.
         -1   -1    0    0    0  501 -0.00000000000E+00 -0.00000000000E+00 -0.48922187368E+03  0.48922187368E+03  0.00000000000E+00 0.  1.
         24    2    1    2    0    0  0.25477817410E+02  0.37691373009E+02 -0.13164938686E+03  0.16141326483E+03  0.81565447469E+02 0.  0.
         23    2    1    2    0    0 -0.11005301687E+03 -0.12020388951E+03  0.11493347813E+03  0.22032623107E+03  0.93665906970E+02 0.  0.
        -11    1    3    3    0    0  0.45870127515E+02  0.51333708328E+02 -0.98458111328E+02  0.12013832817E+03  0.00000000000E+00 0.  1.
         12    1    3    3    0    0 -0.20392310105E+02 -0.13642335319E+02 -0.33191275536E+02  0.41274936657E+02  0.00000000000E+00 0. -1.
        -13    1    4    4    0    0 -0.89385696368E+02 -0.28791143278E+02  0.50850894571E+02  0.10679206958E+03  0.00000000000E+00 0. -1.
         13    1    4    4    0    0 -0.20667320502E+02 -0.91412746233E+02  0.64082583559E+02  0.11353416149E+03  0.00000000000E+00 0.  1.
         -2    1    1    2    0  502  0.84575199460E+02  0.82512516501E+02 -0.27795834347E+03  0.30202999925E+03  0.00000000000E+00 0.  1.
<scales pt_clust_5="13000.00000" pt_clust_6="13000.00000" pt_clust_7="13000.00000" pt_clust_8="13000.00000" pt_clust_9="13000.00000"></scales>
<clustering>
<clus scale="   81.565">  5  6 -1 -1</clus>
<clus scale="   93.395">  2  5  1 -1</clus>
<clus scale="   93.666">  7  8 -1 -1</clus>
<clus scale="  156.057">  7  9 -1 -1</clus>
<clus scale="  496.265">  1  5  2 -1</clus>
</clustering>
</event>
<event>
 9    2  0.2147756E-005  0.5273152E+03  0.7546771E-02  0.1018230E+00
         21   -1    0    0  501  502  0.00000000000E+00  0.00000000000E+00  0.33074179660E+03  0.33074179660E+03  0.00000000000E+00 0. -1.
          2   -1    0    0  502    0 -0.00000000000E+00 -0.00000000000E+00 -0.70596152349E+03  0.70596152349E+03  0.00000000000E+00 0. -1.
         24    2    1    2    0    0 -0.35176328635E+03  0.90244023287E+02  0.27582558946E+02  0.37314393932E+03  0.81204732173E+02 0.  0.
         23    2    1    2    0    0 -0.53646759671E+02 -0.22680885544E+02 -0.13378767162E+03  0.17234563336E+03  0.91714114872E+02 0.  0.
        -13    1    3    3    0    0 -0.21081241484E+03  0.52145220386E+02  0.56283040793E+02  0.22434076522E+03  0.00000000000E+00 0.  1.
         14    1    3    3    0    0 -0.14095087151E+03  0.38098802901E+02 -0.28700481847E+02  0.14880317409E+03  0.00000000000E+00 0. -1.
        -11    1    4    4    0    0 -0.22482296021E+02 -0.15326985548E+02  0.68910574371E+01  0.28068786809E+02  0.00000000000E+00 0.  1.
         11    1    4    4    0    0 -0.31164463651E+02 -0.73538999959E+01 -0.14067872906E+03  0.14427684655E+03  0.00000000000E+00 0. -1.
          1    1    1    2  501    0  0.40541004602E+03 -0.67563137743E+02 -0.26901461421E+03  0.49121374742E+03  0.00000000000E+00 0. -1.
<scales pt_clust_5="13000.00000" pt_clust_6="13000.00000" pt_clust_7="13000.00000" pt_clust_8="13000.00000" pt_clust_9="13000.00000"></scales>
<clustering>
<clus scale="   81.205">  5  6 -1 -1</clus>
<clus scale="   91.714">  7  8 -1 -1</clus>
<clus scale="  372.123">  2  5  1 -1</clus>
<clus scale="  154.665">  7  9 -1 -1</clus>
<clus scale="  527.315">  1  5  2 -1</clus>
</clustering>
</event>
<event>
 9    2  0.2147756E-005  0.3801708E+03  0.7546771E-02  0.1098230E+00
          4   -1    0    0  502    0 -0.00000000000E+00  0.00000000000E+00  0.82179917435E+03  0.82179917435E+03  0.00000000000E+00 0. -1.
         21   -1    0    0  501  502  0.00000000000E+00 -0.00000000000E+00 -0.88526758147E+02  0.88526758147E+02  0.00000000000E+00 0. -1.
         24    2    1    2    0    0 -0.14709820188E+02 -0.59089415068E+02  0.36989331014E+03  0.38442272194E+03  0.85157680088E+02 0.  0.
         23    2    1    2    0    0  0.10880246029E+03 -0.95198707450E+02  0.27449602354E+03  0.32451191970E+03  0.95179566208E+02 0.  0.
        -11    1    3    3    0    0 -0.21365073649E+02  0.17612381182E+02  0.10023157606E+03  0.10398572586E+03  0.00000000000E+00 0.  1.
         12    1    3    3    0    0  0.66552534604E+01 -0.76701796250E+02  0.26966173408E+03  0.28043699608E+03  0.00000000000E+00 0. -1.
        -11    1    4    4    0    0  0.10341422167E+03 -0.30431559543E+02  0.16188623492E+03  0.19449353233E+03  0.00000000000E+00 0. -1.
         11    1    4    4    0    0  0.53882386265E+01 -0.64767147907E+02  0.11260978862E+03  0.13001838738E+03  0.00000000000E+00 0.  1.
          3    1    1    2  501    0 -0.94092640105E+02  0.15428812252E+03  0.88883082526E+02  0.20139129085E+03  0.00000000000E+00 0. -1.
<scales pt_clust_5="13000.00000" pt_clust_6="13000.00000" pt_clust_7="13000.00000" pt_clust_8="13000.00000" pt_clust_9="13000.00000"></scales>
<clustering>
<clus scale="   85.158">  5  6 -1 -1</clus>
<clus scale="   95.180">  7  8 -1 -1</clus>
<clus scale="  104.689">  1  5  2 -1</clus>
<clus scale="  167.348">  7  9 -1 -1</clus>
<clus scale="  380.171">  2  5  1 -1</clus>
</clustering>
</event>
<event>
 9    2  0.2147756E-005  0.1935647E+03  0.7546771E-02  0.1168757E+00
          2   -1    0    0  502    0 -0.00000000000E+00  0.00000000000E+00  0.24372363671E+03  0.24372363671E+03  0.00000000000E+00 0. -1.
         21   -1    0    0  501  502  0.00000000000E+00 -0.00000000000E+00 -0.11917216094E+03  0.11917216094E+03  0.00000000000E+00 0. -1.
         24    2    1    2    0    0 -0.19263709651E+02 -0.11422839632E+03  0.20359484886E+02  0.14307024783E+03  0.81457781420E+02 0.  0.
         23    2    1    2    0    0  0.34163077692E+01  0.15673583050E+02  0.37928427596E+02  0.10001298294E+03  0.91141092664E+02 0.  0.
        -13    1    3    3    0    0  0.18638915376E+02 -0.96673795202E+02  0.23375134439E+02  0.10119105077E+03  0.00000000000E+00 0.  1.
         14    1    3    3    0    0 -0.37902625027E+02 -0.17554601115E+02 -0.30156495525E+01  0.41879197061E+02  0.00000000000E+00 0. -1.
        -11    1    4    4    0    0 -0.27302867224E+02  0.18020906251E+02  0.55589526793E+02  0.64501124873E+02  0.00000000000E+00 0.  1.
         11    1    4    4    0    0  0.30719174993E+02 -0.23473232002E+01 -0.17661099198E+02  0.35511858066E+02  0.00000000000E+00 0. -1.
          1    1    1    2  501    0  0.15847401882E+02  0.98554813267E+02  0.66263563289E+02  0.11981256689E+03  0.00000000000E+00 0. -1.
<scales pt_clust_5="13000.00000" pt_clust_6="13000.00000" pt_clust_7="13000.00000" pt_clust_8="13000.00000" pt_clust_9="13000.00000"></scales>
<clustering>
<clus scale="   81.458">  5  6 -1 -1</clus>
<clus scale="   91.141">  7  8 -1 -1</clus>
<clus scale="   99.821">  7  9 -1 -1</clus>
<clus scale="  141.614">  1  5  2 -1</clus>
<clus scale="  193.565">  2  5  1 -1</clus>
</clustering>
</event>
<event>
 9    2  0.2147756E-005  0.4337760E+03  0.7546771E-02  0.1057718E+00
          2   -1    0    0  502    0 -0.00000000000E+00  0.00000000000E+00  0.15205630126E+04  0.15205630126E+04  0.00000000000E+00 0. -1.
         21   -1    0    0  501  502  0.00000000000E+00 -0.00000000000E+00 -0.12799144993E+03  0.12799144993E+03  0.00000000000E+00 0. -1.
         24    2    1    2    0    0  0.97351526917E+02  0.16846161687E+03  0.11123074291E+04  0.11321151300E+04  0.81241704935E+02 0.  0.
         23    2    1    2    0    0  0.10106587497E+03 -0.15761174524E+03  0.23175372470E+03  0.31188996233E+03  0.92248503338E+02 0.  0.
        -11    1    3    3    0    0  0.63305971753E+02  0.34325641599E+02  0.34653162100E+03  0.35393510716E+03  0.00000000000E+00 0.  1.
         12    1    3    3    0    0  0.34045555164E+02  0.13413597527E+03  0.76577580806E+03  0.77818002281E+03  0.00000000000E+00 0. -1.
        -13    1    4    4    0    0  0.31372086420E+02 -0.81036350316E+01  0.70839322560E+01  0.33167134385E+02  0.00000000000E+00 0.  1.
         13    1    4    4    0    0  0.69693788550E+02 -0.14950811021E+03  0.22466979244E+03  0.27872282794E+03  0.00000000000E+00 0. -1.
          1    1    1    2  501    0 -0.19841740189E+03 -0.10849871634E+02  0.48510408899E+02  0.20454937022E+03  0.00000000000E+00 0. -1.
<scales pt_clust_5="13000.00000" pt_clust_6="13000.00000" pt_clust_7="13000.00000" pt_clust_8="13000.00000" pt_clust_9="13000.00000"></scales>
<clustering>
<clus scale="   81.242">  5  6 -1 -1</clus>
<clus scale="   92.249">  7  8 -1 -1</clus>
<clus scale="  198.714">  7  9 -1 -1</clus>
<clus scale="  210.848">  1  5  2 -1</clus>
<clus scale="  433.776">  2  5  1 -1</clus>
</clustering>
</event>
<event>
 9    2  0.2147756E-005  0.1322224E+03  0.7546771E-02  0.1231865E+00
         21   -1    0    0  501  502  0.00000000000E+00  0.00000000000E+00  0.44313170233E+02  0.44313170233E+02  0.00000000000E+00 0.  1.
          2   -1    0    0  502    0 -0.00000000000E+00 -0.00000000000E+00 -0.46088186987E+03  0.46088186987E+03  0.00000000000E+00 0. -1.
         24    2    1    2    0    0  0.77412183844E+02  0.27694836933E+02 -0.32591006222E+03  0.34487737927E+03  0.77222975061E+02 0.  0.
         23    2    1    2    0    0 -0.56847447803E+02 -0.31449807242E+02 -0.72910711310E+02  0.13289509619E+03  0.90135520580E+02 0.  0.
        -11    1    3    3    0    0 -0.31760027209E+01  0.30413044637E+02 -0.11746244332E+03  0.12137736967E+03  0.00000000000E+00 0.  1.
         12    1    3    3    0    0  0.80588186565E+02 -0.27182077047E+01 -0.20844761890E+03  0.22350000960E+03  0.00000000000E+00 0. -1.
        -13    1    4    4    0    0 -0.36330057852E+02 -0.19886371621E+02  0.13320073072E+02  0.43505921739E+02  0.00000000000E+00 0.  1.
         13    1    4    4    0    0 -0.20517389952E+02 -0.11563435622E+02 -0.86230784382E+02  0.89389174451E+02  0.00000000000E+00 0. -1.
          1    1    1    2  501    0 -0.20564736041E+02  0.37549703097E+01 -0.17747926109E+02  0.27422564644E+02  0.00000000000E+00 0. -1.
<scales pt_clust_5="13000.00000" pt_clust_6="13000.00000" pt_clust_7="13000.00000" pt_clust_8="13000.00000" pt_clust_9="13000.00000"></scales>
<clustering>
<clus scale="   77.223">  5  6 -1 -1</clus>
<clus scale="   90.136">  7  8 -1 -1</clus>
<clus scale="   20.905">  7  9 -1 -1</clus>
<clus scale="  112.796">  2  5  1 -1</clus>
<clus scale="  132.222">  1  5  2 -1</clus>
</clustering>
</event>
<event>
 9    2  0.2147756E-005  0.6026554E+03  0.7546771E-02  0.1054102E+00
         21   -1    0    0  501  502  0.00000000000E+00  0.00000000000E+00  0.35557986611E+03  0.35557986611E+03  0.00000000000E+00 0. -1.
          2   -1    0    0  502    0 -0.00000000000E+00 -0.00000000000E+00 -0.63087400619E+03  0.63087400619E+03  0.00000000000E+00 0. -1.
         24    2    1    2    0    0 -0.31858186492E+02  0.38064720343E+01 -0.36670975863E+03  0.37690456733E+03  0.80941784796E+02 0.  0.
         23    2    1    2    0    0  0.14086666015E+03 -0.84263317440E+02 -0.20871638237E+03  0.28025404342E+03  0.89644174263E+02 0.  0.
        -11    1    3    3    0    0  0.25131999929E+02 -0.27003081989E+01 -0.64048689176E+02  0.68855963213E+02  0.00000000000E+00 0.  1.
         12    1    3    3    0    0 -0.56990186421E+02  0.65067802332E+01 -0.30266106945E+03  0.30804860412E+03  0.00000000000E+00 0. -1.
        -13    1    4    4    0    0  0.20023410142E+02 -0.27993333135E+02 -0.10751301433E+03  0.11288760740E+03  0.00000000000E+00 0.  1.
         13    1    4    4    0    0  0.12084325000E+03 -0.56269984305E+02 -0.10120336804E+03  0.16736643602E+03  0.00000000000E+00 0. -1.
          1    1    1    2  501    0 -0.10900847365E+03  0.80456845406E+02  0.30013200092E+03  0.32929526155E+03  0.00000000000E+00 0. -1.
<scales pt_clust_5="13000.00000" pt_clust_6="13000.00000" pt_clust_7="13000.00000" pt_clust_8="13000.00000" pt_clust_9="13000.00000"></scales>
<clustering>
<clus scale="   80.942">  5  6 -1 -1</clus>
<clus scale="   87.069">  2  5  1 -1</clus>
<clus scale="   89.644">  7  8 -1 -1</clus>
<clus scale="  137.058">  7  9 -1 -1</clus>
<clus scale="  602.655">  1  5  2 -1</clus>
</clustering>
</event>
<event>
 9    2  0.2147756E-005  0.4938820E+03  0.7546771E-02  0.1037199E+00
         21   -1    0    0  501  502  0.00000000000E+00  0.00000000000E+00  0.12264886499E+03  0.12264886499E+03  0.00000000000E+00 0. -1.
          2   -1    0    0  502    0 -0.00000000000E+00 -0.00000000000E+00 -0.12043048644E+04  0.12043048644E+04  0.00000000000E+00 0. -1.
         24    2    1    2    0    0 -0.83685198430E+02  0.22950523145E+03 -0.24434624122E+03  0.35483898934E+03  0.80806924550E+02 0.  0.
         23    2    1    2    0    0 -0.13719852310E+03 -0.20012089178E+03 -0.34576438431E+03  0.43242046322E+03  0.92534542160E+02 0.  0.
        -13    1    3    3    0    0 -0.72510649557E+02  0.97350002602E+02 -0.88647532689E+02  0.15031035346E+03  0.00000000000E+00 0.  1.
         14    1    3    3    0    0 -0.11174548873E+02  0.13215522885E+03 -0.15569870853E+03  0.20452863588E+03  0.00000000000E+00 0. -1.
        -11    1    4    4    0    0 -0.24555800999E+01 -0.73465060828E+02 -0.79922609164E+02  0.10858530514E+03  0.00000000000E+00 0.  1.
         11    1    4    4    0    0 -0.13474294300E+03 -0.12665583095E+03 -0.26584177514E+03  0.32383515809E+03  0.00000000000E+00 0. -1.
          1    1    1    2  501    0  0.22088372153E+03 -0.29384339676E+02 -0.49154537391E+03  0.53969427685E+03  0.00000000000E+00 0. -1.
<scales pt_clust_5="13000.00000" pt_clust_6="13000.00000" pt_clust_7="13000.00000" pt_clust_8="13000.00000" pt_clust_9="13000.00000"></scales>
<clustering>
<clus scale="   80.807">  5  6 -1 -1</clus>
<clus scale="   92.535">  7  8 -1 -1</clus>
<clus scale="  222.830">  7  9 -1 -1</clus>
<clus scale="  257.305">  2  5  1 -1</clus>
<clus scale="  493.882">  1  5  2 -1</clus>
</clustering>
</event>
<event>
 9    2  0.2147756E-005  0.1325597E+03  0.7546771E-02  0.1246007E+00
         -1   -1    0    0    0  501 -0.00000000000E+00  0.00000000000E+00  0.11668400461E+03  0.11668400461E+03  0.00000000000E+00 0.  1.
         21   -1    0    0  501  502  0.00000000000E+00 -0.00000000000E+00 -0.12977245246E+03  0.12977245246E+03  0.00000000000E+00 0. -1.
         24    2    1    2    0    0  0.11493937147E+02  0.21746643431E+02  0.52031370152E+02  0.98765383200E+02  0.80264004056E+02 0.  0.
         23    2    1    2    0    0  0.23658416297E+02 -0.18712479592E+02 -0.44913894806E+02  0.10703183833E+03  0.92350846861E+02 0.  0.
        -13    1    3    3    0    0  0.18766553211E+02 -0.24683910283E+02  0.39328863926E+02  0.50082317079E+02  0.00000000000E+00 0.  1.
         14    1    3    3    0    0 -0.72726160637E+01  0.46430553713E+02  0.12702506226E+02  0.48683066121E+02  0.00000000000E+00 0. -1.
        -11    1    4    4    0    0  0.34259264532E+02  0.22083247098E+02  0.57094170664E+01  0.41157799406E+02  0.00000000000E+00 0.  1.
         11    1    4    4    0    0 -0.10600848235E+02 -0.40795726690E+02 -0.50623311872E+02  0.65874038926E+02  0.00000000000E+00 0. -1.
         -2    1    1    2    0  502 -0.35152353444E+02 -0.30341638384E+01 -0.20205923198E+02  0.40659235546E+02  0.00000000000E+00 0.  1.
<scales pt_clust_5="13000.00000" pt_clust_6="13000.00000" pt_clust_7="13000.00000" pt_clust_8="13000.00000" pt_clust_9="13000.00000"></scales>
<clustering>
<clus scale="   80.264">  5  6 -1 -1</clus>
<clus scale="   83.948">  1  5  2 -1</clus>
<clus scale="   92.351">  7  8 -1 -1</clus>
<clus scale="   32.391">  7  9 -1 -1</clus>
<clus scale="  132.560">  2  5  1 -1</clus>
</clustering>
</event>
<event>
 9    2  0.2147756E-005  0.2862234E+03  0.7546771E-02  0.1109312E+00
          2   -1    0    0  502    0 -0.00000000000E+00  0.00000000000E+00  0.25204504580E+03  0.25204504580E+03  0.00000000000E+00 0. -1.
         21   -1    0    0  501  502  0.00000000000E+00 -0.00000000000E+00 -0.22517217162E+03  0.22517217162E+03  0.00000000000E+00 0. -1.
         24    2    1    2    0    0 -0.16515815194E+03  0.44461046495E+01  0.47043428177E+02  0.19028397878E+03  0.81840854403E+02 0.  0.
         23    2    1    2    0    0  0.36751179144E+02 -0.89173036384E+02 -0.67761367027E+01  0.13251039693E+03  0.90612414604E+02 0.  0.
        -13    1    3    3    0    0 -0.35362175548E+02  0.18456170003E+02  0.44428808858E+02  0.59707895016E+02  0.00000000000E+00 0.  1.
         14    1    3    3    0    0 -0.12979597639E+03 -0.14010065353E+02  0.26146193189E+01  0.13057608377E+03  0.00000000000E+00 0. -1.
        -11    1    4    4    0    0  0.36145564957E+01 -0.35437657886E+02 -0.46005077116E+02  0.58183844283E+02  0.00000000000E+00 0.  1.
         11    1    4    4    0    0  0.33136622648E+02 -0.53735378498E+02  0.39228940413E+02  0.74326552650E+02  0.00000000000E+00 0. -1.
          1    1    1    2  501    0  0.12840697279E+03  0.84726931734E+02 -0.13394417295E+02  0.15442284170E+03  0.00000000000E+00 0. -1.
<scales pt_clust_5="13000.00000" pt_clust_6="13000.00000" pt_clust_7="13000.00000" pt_clust_8="13000.00000" pt_clust_9="13000.00000"></scales>
<clustering>
<clus scale="   81.841">  5  6 -1 -1</clus>
<clus scale="   90.612">  7  8 -1 -1</clus>
<clus scale="  153.841">  7  9 -1 -1</clus>
<clus scale="  184.377">  1  5  2 -1</clus>
<clus scale="  286.223">  2  5  1 -1</clus>
</clustering>
</event>
<event>
 9    2  0.2147756E-005  0.3231297E+03  0.7546771E-02  0.1125878E+00
         21   -1    0    0  501  502  0.00000000000E+00  0.00000000000E+00  0.35628132757E+02  0.35628132757E+02  0.00000000000E+00 0. -1.
          2   -1    0    0  502    0 -0.00000000000E+00 -0.00000000000E+00 -0.12502533721E+04  0.12502533721E+04  0.00000000000E+00 0. -1.
         24    2    1    2    0    0  0.16364937131E+02 -0.10468565031E+02 -0.41340246660E+03  0.42195399312E+03  0.82256737690E+02 0.  0.
         23    2    1    2    0    0  0.27083190886E+00 -0.13138400894E+03 -0.57824902634E+03  0.59913288729E+03  0.85594678661E+02 0.  0.
        -13    1    3    3    0    0 -0.19103107041E+02  0.26661676274E+02 -0.14223431067E+03  0.14596702645E+03  0.00000000000E+00 0.  1.
         14    1    3    3    0    0  0.35468044172E+02 -0.37130241305E+02 -0.27116815593E+03  0.27598696666E+03  0.00000000000E+00 0. -1.
        -11    1    4    4    0    0 -0.45226269353E+01 -0.21337129178E+02 -0.18356024689E+02  0.28507382874E+02  0.00000000000E+00 0. -1.
         11    1    4    4    0    0  0.47934588441E+01 -0.11004687976E+03 -0.55989300165E+03  0.57062550442E+03  0.00000000000E+00 0.  1.
          1    1    1    2  501    0 -0.16635769040E+02  0.14185257397E+03 -0.22297374642E+03  0.26479462447E+03  0.00000000000E+00 0. -1.
<scales pt_clust_5="13000.00000" pt_clust_6="13000.00000" pt_clust_7="13000.00000" pt_clust_8="13000.00000" pt_clust_9="13000.00000"></scales>
<clustering>
<clus scale="   82.257">  5  6 -1 -1</clus>
<clus scale="   84.520">  2  5  1 -1</clus>
<clus scale="   85.595">  7  8 -1 -1</clus>
<clus scale="  139.290">  7  9 -1 -1</clus>
<clus scale="  323.130">  1  5  2 -1</clus>
</clustering>
</event>
<event>
 9    2  0.2147756E-005  0.3174374E+03  0.7546771E-02  0.1103300E+00
         21   -1    0    0  501  502  0.00000000000E+00  0.00000000000E+00  0.40236478684E+02  0.40236478684E+02  0.00000000000E+00 0.  1.
          2   -1    0    0  502    0 -0.00000000000E+00 -0.00000000000E+00 -0.14361154075E+04  0.14361154075E+04  0.00000000000E+00 0. -1.
         24    2    1    2    0    0  0.11240200785E+03  0.74398509338E+02 -0.57505576770E+03  0.59628532344E+03  0.81839485794E+02 0.  0.
         23    2    1    2    0    0 -0.13466468636E+03 -0.10920502317E+03 -0.81308415877E+03  0.83803071597E+03  0.10549557724E+03 0.  0.
        -13    1    3    3    0    0  0.59114817854E+02  0.70522145094E+02 -0.46411344536E+03  0.47314820596E+03  0.00000000000E+00 0.  1.
         14    1    3    3    0    0  0.53287189994E+02  0.38763642444E+01 -0.11094232233E+03  0.12313711748E+03  0.00000000000E+00 0. -1.
        -13    1    4    4    0    0 -0.85376488049E+02 -0.20496438508E+02 -0.23015931689E+03  0.24633830366E+03  0.00000000000E+00 0.  1.
         13    1    4    4    0    0 -0.49288198307E+02 -0.88708584665E+02 -0.58292484189E+03  0.59169241230E+03  0.00000000000E+00 0. -1.
          1    1    1    2  501    0  0.22262678508E+02  0.34806513834E+02 -0.77390023907E+01  0.42035846817E+02  0.00000000000E+00 0. -1.
<scales pt_clust_5="13000.00000" pt_clust_6="13000.00000" pt_clust_7="13000.00000" pt_clust_8="13000.00000" pt_clust_9="13000.00000"></scales>
<clustering>
<clus scale="   81.839">  5  6 -1 -1</clus>
<clus scale="  105.496">  7  8 -1 -1</clus>
<clus scale="   41.317">  7  9 -1 -1</clus>
<clus scale="  157.693">  2  5  1 -1</clus>
<clus scale="  317.437">  1  5  2 -1</clus>
</clustering>
</event>
<event>
 9    2  0.2461335E-005  0.2904992E+03  0.7546771E-02  0.1111208E+00
          2   -1    0    0  502    0 -0.00000000000E+00  0.00000000000E+00  0.16919087228E+03  0.16919087228E+03  0.00000000000E+00 0. -1.
         21   -1    0    0  501  502  0.00000000000E+00 -0.00000000000E+00 -0.31210493547E+03  0.31210493547E+03  0.00000000000E+00 0. -1.
         24    2    1    2    0    0 -0.10902982664E+03 -0.99466585883E+02 -0.68082598467E+02  0.18131327374E+03  0.80362666809E+02 0.  0.
         23    2    1    2    0    0 -0.20307809223E+02 -0.38206554661E+02 -0.19277241127E+02  0.10308563349E+03  0.91558111991E+02 0.  0.
        -13    1    3    3    0    0 -0.24410302204E+02  0.94699387085E+01 -0.26472019935E+02  0.37233189929E+02  0.00000000000E+00 0.  1.
         14    1    3    3    0    0 -0.84619524436E+02 -0.10893652459E+03 -0.41610578533E+02  0.14408008381E+03  0.00000000000E+00 0. -1.
        -11    1    4    4    0    0  0.75641961814E+00 -0.63426908624E+02  0.28081658510E+01  0.63493548520E+02  0.00000000000E+00 0. -1.
         11    1    4    4    0    0 -0.21064228841E+02  0.25220353963E+02 -0.22085406978E+02  0.39592084967E+02  0.00000000000E+00 0.  1.
          1    1    1    2  501    0  0.12933763586E+03  0.13767314054E+03 -0.55554223592E+02  0.19689690053E+03  0.00000000000E+00 0. -1.
<scales pt_clust_5="13000.00000" pt_clust_6="13000.00000" pt_clust_7="13000.00000" pt_clust_8="13000.00000" pt_clust_9="13000.00000"></scales>
<clustering>
<clus scale="   80.363">  5  6 -1 -1</clus>
<clus scale="   91.558">  7  8 -1 -1</clus>
<clus scale="  168.046">  1  5  2 -1</clus>
<clus scale="   96.786">  7  9 -1 -1</clus>
<clus scale="  290.499">  2  5  1 -1</clus>
</clustering>
</event>
<event>
 9    2  0.2147756E-005  0.2070177E+03  0.7546771E-02  0.1158240E+00
         21   -1    0    0  501  502  0.00000000000E+00  0.00000000000E+00  0.56491232547E+02  0.56491232547E+02  0.00000000000E+00 0. -1.
          2   -1    0    0  502    0 -0.00000000000E+00 -0.00000000000E+00 -0.55672930807E+03  0.55672930807E+03  0.00000000000E+00 0. -1.
         24    2    1    2    0    0 -0.30362309540E+01 -0.12433042418E+03 -0.21115293179E+03  0.25765545574E+03  0.79583290911E+02 0.  0.
         23    2    1    2    0    0  0.17949978162E+02  0.25108315776E+02 -0.19920823635E+03  0.22086057444E+03  0.90237700977E+02 0.  0.
        -11    1    3    3    0    0 -0.36904409684E+02 -0.36760592188E+02 -0.57490163151E+02  0.77578318178E+02  0.00000000000E+00 0.  1.
         12    1    3    3    0    0  0.33868178730E+02 -0.87569831990E+02 -0.15366276864E+03  0.18007713756E+03  0.00000000000E+00 0. -1.
        -13    1    4    4    0    0 -0.11008331216E+02 -0.27238720242E+02 -0.10688999019E+03  0.11085396358E+03  0.00000000000E+00 0. -1.
         13    1    4    4    0    0  0.28958309378E+02  0.52347036018E+02 -0.92318246151E+02  0.11000661087E+03  0.00000000000E+00 0.  1.
          1    1    1    2  501    0 -0.14913747208E+02  0.99222108402E+02 -0.89876907387E+02  0.13470451044E+03  0.00000000000E+00 0. -1.
<scales pt_clust_5="13000.00000" pt_clust_6="13000.00000" pt_clust_7="13000.00000" pt_clust_8="13000.00000" pt_clust_9="13000.00000"></scales>
<clustering>
<clus scale="   79.583">  5  6 -1 -1</clus>
<clus scale="   90.238">  7  8 -1 -1</clus>
<clus scale="  100.337">  7  9 -1 -1</clus>
<clus scale="  147.651">  2  5  1 -1</clus>
<clus scale="  207.018">  1  5  2 -1</clus>
</clustering>
</event>
<event>
 9    2  0.2147756E-005  0.1475342E+03  0.7546771E-02  0.1230537E+00
          2   -1    0    0  502    0 -0.00000000000E+00  0.00000000000E+00  0.26528817860E+03  0.26528817860E+03  0.00000000000E+00 0. -1.
         21   -1    0    0  501  502  0.00000000000E+00 -0.00000000000E+00 -0.14066659297E+03  0.14066659297E+03  0.00000000000E+00 0. -1.
         24    2    1    2    0    0 -0.28002914872E+02 -0.12231044192E+02  0.21658516874E+03  0.23210529732E+03  0.77652894603E+02 0.  0.
         23    2    1    2    0    0  0.21200963927E+02 -0.22052148258E+02 -0.26338889788E+02  0.99497579898E+02  0.90940932346E+02 0.  0.
        -11    1    3    3    0    0 -0.34582271049E+02  0.17216431412E+02  0.52011264878E+02  0.64788198429E+02  0.00000000000E+00 0.  1.
         12    1    3    3    0    0  0.65793561773E+01 -0.29447475604E+02  0.16457390386E+03  0.16731709889E+03  0.00000000000E+00 0. -1.
        -13    1    4    4    0    0  0.14447932305E+01  0.35080815313E+02 -0.14000312820E+02  0.37798939000E+02  0.00000000000E+00 0.  1.
         13    1    4    4    0    0  0.19756170697E+02 -0.57132963571E+02 -0.12338576968E+02  0.61698640897E+02  0.00000000000E+00 0. -1.
          1    1    1    2  501    0  0.68019509446E+01  0.34283192450E+02 -0.65624693321E+02  0.74351894359E+02  0.00000000000E+00 0. -1.
<scales pt_clust_5="13000.00000" pt_clust_6="13000.00000" pt_clust_7="13000.00000" pt_clust_8="13000.00000" pt_clust_9="13000.00000"></scales>
<clustering>
<clus scale="   77.653">  5  6 -1 -1</clus>
<clus scale="   83.449">  1  5  2 -1</clus>
<clus scale="   90.941">  7  8 -1 -1</clus>
<clus scale="   33.200">  7  9 -1 -1</clus>
<clus scale="  147.534">  2  5  1 -1</clus>
</clustering>
</event>
<event>
 9    2  0.2147756E-005  0.2271423E+03  0.7546771E-02  0.1170273E+00
          2   -1    0    0  502    0 -0.00000000000E+00  0.00000000000E+00  0.12287049978E+04  0.12287049978E+04  0.00000000000E+00 0. -1.
         21   -1    0    0  501  502  0.00000000000E+00 -0.00000000000E+00 -0.22355754294E+02  0.22355754294E+02  0.00000000000E+00 0.  1.
         24    2    1    2    0    0  0.25949543724E+02  0.20040252532E+01  0.55099652916E+03  0.55746087289E+03  0.80548461918E+02 0.  0.
         23    2    1    2    0    0 -0.62513255813E+02 -0.48853302969E+02  0.20614892248E+03  0.24048200658E+03  0.95077152290E+02 0.  0.
        -13    1    3    3    0    0 -0.26601887333E+02 -0.13024879160E+02  0.16945088149E+03  0.17202008349E+03  0.00000000000E+00 0.  1.
         14    1    3    3    0    0  0.52551431057E+02  0.15028904414E+02  0.38154564767E+03  0.38544078940E+03  0.00000000000E+00 0. -1.
        -11    1    4    4    0    0  0.17499059693E+02 -0.37928837599E+02  0.87497615807E+02  0.96956931592E+02  0.00000000000E+00 0. -1.
         11    1    4    4    0    0 -0.80012315506E+02 -0.10924465370E+02  0.11865130667E+03  0.14352507499E+03  0.00000000000E+00 0.  1.
          1    1    1    2  501    0  0.36563712089E+02  0.46849277716E+02  0.44920379186E+03  0.45311787262E+03  0.00000000000E+00 0. -1.
<scales pt_clust_5="13000.00000" pt_clust_6="13000.00000" pt_clust_7="13000.00000" pt_clust_8="13000.00000" pt_clust_9="13000.00000"></scales>
<clustering>
<clus scale="   80.548">  5  6 -1 -1</clus>
<clus scale="   84.649">  1  5  2 -1</clus>
<clus scale="   95.077">  7  8 -1 -1</clus>
<clus scale="   72.317">  7  9 -1 -1</clus>
<clus scale="  227.142">  2  5  1 -1</clus>
</clustering>
</event>
<event>
 9    2  0.2147756E-005  0.3791909E+03  0.7546771E-02  0.1058941E+00
         21   -1    0    0  501  502  0.00000000000E+00  0.00000000000E+00  0.16902564763E+03  0.16902564763E+03  0.00000000000E+00 0.  1.
         -3   -1    0    0    0  501 -0.00000000000E+00 -0.00000000000E+00 -0.69250788082E+03  0.69250788082E+03  0.00000000000E+00 0.  1.
         24    2    1    2    0    0  0.26544082385E+03 -0.12432599453E+03 -0.22708430351E+03  0.38024625344E+03  0.84286110810E+02 0.  0.
         23    2    1    2    0    0 -0.43263550645E+02  0.66149203808E+02 -0.21155883408E+02  0.12281068757E+03  0.91582976585E+02 0.  0.
        -11    1    3    3    0    0  0.27097650349E+03 -0.12556943253E+03 -0.22585372628E+03  0.37444072095E+03  0.00000000000E+00 0.  1.
         12    1    3    3    0    0 -0.55356796451E+01  0.12434379974E+01 -0.12305772248E+01  0.58055324900E+01  0.00000000000E+00 0. -1.
        -11    1    4    4    0    0 -0.55999717820E+02  0.82627590435E+02 -0.14023017556E+02  0.10079648862E+03  0.00000000000E+00 0. -1.
         11    1    4    4    0    0  0.12736167175E+02 -0.16478386627E+02 -0.71328658527E+01  0.22014198950E+02  0.00000000000E+00 0.  1.
         -4    1    1    2    0  502 -0.22217727320E+03  0.58176790722E+02 -0.27524204627E+03  0.35847658744E+03  0.00000000000E+00 0.  1.
<scales pt_clust_5="13000.00000" pt_clust_6="13000.00000" pt_clust_7="13000.00000" pt_clust_8="13000.00000" pt_clust_9="13000.00000"></scales>
<clustering>
<clus scale="   84.286">  5  6 -1 -1</clus>
<clus scale="   91.583">  7  8 -1 -1</clus>
<clus scale="  229.668">  7  9 -1 -1</clus>
<clus scale="  304.992">  2  5  1 -1</clus>
<clus scale="  379.191">  1  5  2 -1</clus>
</clustering>
</event>
<event>
 9    2  0.2147756E-005  0.2884192E+03  0.7546771E-02  0.1131007E+00
         21   -1    0    0  501  502  0.00000000000E+00  0.00000000000E+00  0.62222455647E+02  0.62222455647E+02  0.00000000000E+00 0. -1.
          2   -1    0    0  502    0 -0.00000000000E+00 -0.00000000000E+00 -0.83626908686E+03  0.83626908686E+03  0.00000000000E+00 0. -1.
         24    2    1    2    0    0 -0.65206644890E+02 -0.19392909813E+02 -0.46134649041E+03  0.47308933939E+03  0.79655177737E+02 0.  0.
         23    2    1    2    0    0  0.39360818857E+02  0.13625233732E+03 -0.18254466823E+03  0.24858427540E+03  0.91419979166E+02 0.  0.
        -13    1    3    3    0    0 -0.74261335528E+01  0.18776041582E+02 -0.29638824319E+02  0.35862893136E+02  0.00000000000E+00 0.  1.
         14    1    3    3    0    0 -0.57780511337E+02 -0.38168951395E+02 -0.43170766609E+03  0.43722644625E+03  0.00000000000E+00 0. -1.
        -13    1    4    4    0    0  0.10357932363E+02  0.72478143467E+02 -0.27078819018E+02  0.78061709453E+02  0.00000000000E+00 0. -1.
         13    1    4    4    0    0  0.29002886495E+02  0.63774193857E+02 -0.15546584921E+03  0.17052256595E+03  0.00000000000E+00 0.  1.
          1    1    1    2  501    0  0.25845826033E+02 -0.11685942751E+03 -0.13015547258E+03  0.17681792772E+03  0.00000000000E+00 0. -1.
<scales pt_clust_5="13000.00000" pt_clust_6="13000.00000" pt_clust_7="13000.00000" pt_clust_8="13000.00000" pt_clust_9="13000.00000"></scales>
<clustering>
<clus scale="   79.655">  5  6 -1 -1</clus>
<clus scale="   91.420">  7  8 -1 -1</clus>
<clus scale="  104.752">  2  5  1 -1</clus>
<clus scale="  124.931">  7  9 -1 -1</clus>
<clus scale="  288.419">  1  5  2 -1</clus>
</clustering>
</event>
<event>
 9    2  0.2147756E-005  0.3675313E+03  0.7546771E-02  0.1065425E+00
         21   -1    0    0  501  502  0.00000000000E+00  0.00000000000E+00  0.38206059401E+03  0.38206059401E+03  0.00000000000E+00 0. -1.
         -3   -1    0    0    0  501 -0.00000000000E+00 -0.00000000000E+00 -0.28458045179E+03  0.28458045179E+03  0.00000000000E+00 0.  1.
         24    2    1    2    0    0 -0.16590719699E+03  0.20535198831E+03 -0.21313475245E+02  0.28038828255E+03  0.92025472842E+02 0.  0.
         23    2    1    2    0    0  0.28610078336E+02 -0.42049765708E+02  0.13754242252E+03  0.17208079406E+03  0.90039781832E+02 0.  0.
        -11    1    3    3    0    0 -0.18310643398E+02  0.41504861353E+02  0.29465570136E+02  0.54093927580E+02  0.00000000000E+00 0.  1.
         12    1    3    3    0    0 -0.14759655359E+03  0.16384712695E+03 -0.50779045381E+02  0.22629435497E+03  0.00000000000E+00 0. -1.
        -13    1    4    4    0    0  0.52585785139E+02 -0.55052810562E+02  0.10055562013E+03  0.12612497567E+03  0.00000000000E+00 0. -1.
         13    1    4    4    0    0 -0.23975706803E+02  0.13003044853E+02  0.36986802395E+02  0.45955818386E+02  0.00000000000E+00 0.  1.
         -4    1    1    2    0  502  0.13729711865E+03 -0.16330222260E+03 -0.18748805063E+02  0.21417196919E+03  0.00000000000E+00 0.  1.
<scales pt_clust_5="13000.00000" pt_clust_6="13000.00000" pt_clust_7="13000.00000" pt_clust_8="13000.00000" pt_clust_9="13000.00000"></scales>
<clustering>
<clus scale="   90.040">  7  8 -1 -1</clus>
<clus scale="   92.025">  5  6 -1 -1</clus>
<clus scale="  213.350">  7  9 -1 -1</clus>
<clus scale="  279.577">  2  5  1 -1</clus>
<clus scale="  367.531">  1  5  2 -1</clus>
</clustering>
</event>
<event>
 9    2  0.2147756E-005  0.2104562E+03  0.7546771E-02  0.1156495E+00
          2   -1    0    0  502    0 -0.00000000000E+00  0.00000000000E+00  0.61115489001E+03  0.61115489001E+03  0.00000000000E+00 0. -1.
         21   -1    0    0  501  502  0.00000000000E+00 -0.00000000000E+00 -0.10018389377E+03  0.10018389377E+03  0.00000000000E+00 0. -1.
         24    2    1    2    0    0  0.11253469524E+03 -0.48700332242E+02  0.47599476769E+03  0.49799598599E+03  0.79957508683E+02 0.  0.
         23    2    1    2    0    0 -0.13745944698E+02 -0.58943565421E+01  0.26788427850E+02  0.10017549970E+03  0.95361503969E+02 0.  0.
        -13    1    3    3    0    0  0.19600411394E+02 -0.37251127050E+02  0.73005163273E+02  0.84270851769E+02  0.00000000000E+00 0.  1.
         14    1    3    3    0    0  0.92934283844E+02 -0.11449205192E+02  0.40298960442E+03  0.41372513422E+03  0.00000000000E+00 0. -1.
        -13    1    4    4    0    0 -0.25474525817E+02  0.29285319996E+02  0.44525528454E+02  0.59068639031E+02  0.00000000000E+00 0.  1.
         13    1    4    4    0    0  0.11728581118E+02 -0.35179676538E+02 -0.17737100604E+02  0.41106860671E+02  0.00000000000E+00 0. -1.
          1    1    1    2  501    0 -0.98788750540E+02  0.54594688784E+02  0.81878007043E+01  0.11316729809E+03  0.00000000000E+00 0. -1.
<scales pt_clust_5="13000.00000" pt_clust_6="13000.00000" pt_clust_7="13000.00000" pt_clust_8="13000.00000" pt_clust_9="13000.00000"></scales>
<clustering>
<clus scale="   79.958">  5  6 -1 -1</clus>
<clus scale="   95.362">  7  8 -1 -1</clus>
<clus scale="  112.871">  7  9 -1 -1</clus>
<clus scale="  146.386">  1  5  2 -1</clus>
<clus scale="  210.456">  2  5  1 -1</clus>
</clustering>
</event>
<event>
 9    2  0.2147756E-005  0.6290603E+03  0.7546771E-02  0.9911584E-01
         21   -1    0    0  501  502  0.00000000000E+00  0.00000000000E+00  0.31407486548E+03  0.31407486548E+03  0.00000000000E+00 0. -1.
          2   -1    0    0  502    0 -0.00000000000E+00 -0.00000000000E+00 -0.16186527480E+04  0.16186527480E+04  0.00000000000E+00 0. -1.
         24    2    1    2    0    0 -0.30066768253E+03  0.40482491174E+03 -0.11879380132E+04  0.12929450978E+04  0.78905248345E+02 0.  0.
         23    2    1    2    0    0  0.21844197520E+02  0.33100701986E+02 -0.61363212035E+02  0.11769355029E+03  0.92268643379E+02 0.  0.
        -11    1    3    3    0    0 -0.37325979549E+02  0.85131181094E+02 -0.16585285680E+03  0.19012552920E+03  0.00000000000E+00 0.  1.
         12    1    3    3    0    0 -0.26334170298E+03  0.31969373065E+03 -0.10220851564E+04  0.11028195686E+04  0.00000000000E+00 0. -1.
        -13    1    4    4    0    0  0.43129343409E+02  0.23470908222E+02 -0.75738708229E+02  0.90262814712E+02  0.00000000000E+00 0.  1.
         13    1    4    4    0    0 -0.21285145888E+02  0.96297937646E+01  0.14375496194E+02  0.27430735576E+02  0.00000000000E+00 0. -1.
          1    1    1    2  501    0  0.27882348501E+03 -0.43792561373E+03 -0.55276657296E+02  0.52208896540E+03  0.00000000000E+00 0. -1.
<scales pt_clust_5="13000.00000" pt_clust_6="13000.00000" pt_clust_7="13000.00000" pt_clust_8="13000.00000" pt_clust_9="13000.00000"></scales>
<clustering>
<clus scale="   78.905">  5  6 -1 -1</clus>
<clus scale="   92.269">  7  8 -1 -1</clus>
<clus scale="  510.402">  2  5  1 -1</clus>
<clus scale="  138.043">  7  9 -1 -1</clus>
<clus scale="  629.060">  1  5  2 -1</clus>
</clustering>
</event>
<event>
 9    2  0.2147756E-005  0.1611870E+03  0.7546771E-02  0.1214421E+00
         21   -1    0    0  501  502  0.00000000000E+00  0.00000000000E+00  0.59350265950E+02  0.59350265950E+02  0.00000000000E+00 0. -1.
          4   -1    0    0  502    0 -0.00000000000E+00 -0.00000000000E+00 -0.29214583423E+03  0.29214583423E+03  0.00000000000E+00 0. -1.
         24    2    1    2    0    0 -0.22680068181E+02  0.32672431557E+02 -0.34716368124E+02  0.96120635175E+02  0.80324821906E+02 0.  0.
         23    2    1    2    0    0  0.47320531085E+02 -0.47815605463E+02 -0.90785400583E+02  0.14425198614E+03  0.89672079037E+02 0.  0.
        -11    1    3    3    0    0 -0.15535309297E+02 -0.15350576355E+02  0.15105038840E+02  0.26554627238E+02  0.00000000000E+00 0.  1.
         12    1    3    3    0    0 -0.71447588833E+01  0.48023007912E+02 -0.49821406964E+02  0.69566007937E+02  0.00000000000E+00 0. -1.
        -13    1    4    4    0    0  0.77133013135E+01 -0.20033309093E+02  0.16162036009E+02  0.26870800105E+02  0.00000000000E+00 0. -1.
         13    1    4    4    0    0  0.39607229771E+02 -0.27782296370E+02 -0.10694743659E+03  0.11738118604E+03  0.00000000000E+00 0.  1.
          3    1    1    2  501    0 -0.24640462904E+02  0.15143173906E+02 -0.10729379957E+03  0.11112347886E+03  0.00000000000E+00 0. -1.
<scales pt_clust_5="13000.00000" pt_clust_6="13000.00000" pt_clust_7="13000.00000" pt_clust_8="13000.00000" pt_clust_9="13000.00000"></scales>
<clustering>
<clus scale="   80.325">  5  6 -1 -1</clus>
<clus scale="   89.632">  2  5  1 -1</clus>
<clus scale="   89.672">  7  8 -1 -1</clus>
<clus scale="   47.101">  7  9 -1 -1</clus>
<clus scale="  161.187">  1  5  2 -1</clus>
</clustering>
</event>
<event>
 9    2  0.2147756E-005  0.2645728E+03  0.7546771E-02  0.1141425E+00
         21   -1    0    0  501  502  0.00000000000E+00  0.00000000000E+00  0.17044970856E+03  0.17044970856E+03  0.00000000000E+00 0. -1.
          2   -1    0    0  502    0 -0.00000000000E+00 -0.00000000000E+00 -0.20881952648E+03  0.20881952648E+03  0.00000000000E+00 0. -1.
         24    2    1    2    0    0 -0.22977026247E+02  0.62265467664E+02  0.22593542236E+02  0.10776363919E+03  0.81838875735E+02 0.  0.
         23    2    1    2    0    0 -0.91130971202E+02  0.94259965529E+01 -0.24523783175E+02  0.13190565354E+03  0.91673235856E+02 0.  0.
        -13    1    3    3    0    0  0.16167395177E+02 -0.11999919106E+02 -0.21354150177E+01  0.20247042318E+02  0.00000000000E+00 0.  1.
         14    1    3    3    0    0 -0.39144421423E+02  0.74265386770E+02  0.24728957254E+02  0.87516596869E+02  0.00000000000E+00 0. -1.
        -13    1    4    4    0    0  0.85958284063E+01  0.26546463012E+02 -0.50365897138E+00  0.27908003096E+02  0.00000000000E+00 0.  1.
         13    1    4    4    0    0 -0.99726799608E+02 -0.17120466459E+02 -0.24020124204E+02  0.10399765045E+03  0.00000000000E+00 0. -1.
          1    1    1    2  501    0  0.11410799745E+03 -0.71691464217E+02 -0.36439576978E+02  0.13959994231E+03  0.00000000000E+00 0. -1.
<scales pt_clust_5="13000.00000" pt_clust_6="13000.00000" pt_clust_7="13000.00000" pt_clust_8="13000.00000" pt_clust_9="13000.00000"></scales>
<clustering>
<clus scale="   81.839">  5  6 -1 -1</clus>
<clus scale="   91.673">  7  8 -1 -1</clus>
<clus scale="  105.369">  2  5  1 -1</clus>
<clus scale="  109.049">  7  9 -1 -1</clus>
<clus scale="  264.573">  1  5  2 -1</clus>
</clustering>
</event>
<event>
 9    2  0.2147756E-005  0.3198166E+03  0.7546771E-02  0.1080155E+00
         -1   -1    0    0    0  501 -0.00000000000E+00  0.00000000000E+00  0.20704662856E+03  0.20704662856E+03  0.00000000000E+00 0.  1.
         21   -1    0    0  501  502  0.00000000000E+00 -0.00000000000E+00 -0.97202250595E+03  0.97202250595E+03  0.00000000000E+00 0. -1.
         24    2    1    2    0    0 -0.23876073975E+03  0.13163596303E+03 -0.80798972365E+03  0.85637290918E+03  0.78692111715E+02 0.  0.
         23    2    1    2    0    0  0.10662783686E+03 -0.55362656820E+02 -0.31430824502E+02  0.15293542222E+03  0.89257085305E+02 0.  0.
        -11    1    3    3    0    0 -0.13087412414E+02  0.26453668669E+02 -0.14946663235E+03  0.15235271949E+03  0.00000000000E+00 0.  1.
         12    1    3    3    0    0 -0.22567332734E+03  0.10518229436E+03 -0.65852309130E+03  0.70402018969E+03  0.00000000000E+00 0. -1.
        -13    1    4    4    0    0  0.12118377974E+03 -0.39147017291E+02 -0.22199756891E+02  0.12927036258E+03  0.00000000000E+00 0.  1.
         13    1    4    4    0    0 -0.14555942882E+02 -0.16215639529E+02 -0.92310676114E+01  0.23665059640E+02  0.00000000000E+00 0. -1.
         -2    1    1    2    0  502  0.13213290289E+03 -0.76273306213E+02  0.74444670757E+02  0.16976080311E+03  0.00000000000E+00 0.  1.
<scales pt_clust_5="13000.00000" pt_clust_6="13000.00000" pt_clust_7="13000.00000" pt_clust_8="13000.00000" pt_clust_9="13000.00000"></scales>
<clustering>
<clus scale="   78.692">  5  6 -1 -1</clus>
<clus scale="   89.257">  7  8 -1 -1</clus>
<clus scale="  152.567">  7  9 -1 -1</clus>
<clus scale="  283.773">  1  5  2 -1</clus>
<clus scale="  319.817">  2  5  1 -1</clus>
</clustering>
</event>
<event>
 9    2  0.2147756E-005  0.3073448E+03  0.7546771E-02  0.1121506E+00
          2   -1    0    0  502    0 -0.00000000000E+00  0.00000000000E+00  0.56005133076E+03  0.56005133076E+03  0.00000000000E+00 0. -1.
         21   -1    0    0  501  502  0.00000000000E+00 -0.00000000000E+00 -0.11325049987E+03  0.11325049987E+03  0.00000000000E+00 0. -1.
         24    2    1    2    0    0  0.10093915225E+02 -0.72750914039E+02  0.32457383405E+03  0.34254468535E+03  0.81204095316E+02 0.  0.
         23    2    1    2    0    0  0.50759222274E+02 -0.56725308723E+02  0.14398516858E+03  0.18604842184E+03  0.89933459866E+02 0.  0.
        -11    1    3    3    0    0 -0.21339291808E+02 -0.44048993655E+02  0.76309143040E+02  0.90657401950E+02  0.00000000000E+00 0.  1.
         12    1    3    3    0    0  0.31433207032E+02 -0.28701920384E+02  0.24826469101E+03  0.25188728340E+03  0.00000000000E+00 0. -1.
        -13    1    4    4    0    0  0.71210434967E+01 -0.40452733735E+02  0.73933244439E+01  0.41734807696E+02  0.00000000000E+00 0. -1.
         13    1    4    4    0    0  0.43638178777E+02 -0.16272574989E+02  0.13659184413E+03  0.14431361414E+03  0.00000000000E+00 0.  1.
          1    1    1    2  501    0 -0.60853137499E+02  0.12947622276E+03 -0.21758171733E+02  0.14470872345E+03  0.00000000000E+00 0. -1.
<scales pt_clust_5="13000.00000" pt_clust_6="13000.00000" pt_clust_7="13000.00000" pt_clust_8="13000.00000" pt_clust_9="13000.00000"></scales>
<clustering>
<clus scale="   81.204">  5  6 -1 -1</clus>
<clus scale="   89.933">  7  8 -1 -1</clus>
<clus scale="  109.493">  1  5  2 -1</clus>
<clus scale="  124.169">  7  9 -1 -1</clus>
<clus scale="  307.345">  2  5  1 -1</clus>
</clustering>
</event>
<event>
 9    2  0.2147756E-005  0.2409873E+03  0.7546771E-02  0.1160584E+00
         -1   -1    0    0    0  501 -0.00000000000E+00  0.00000000000E+00  0.11890565929E+03  0.11890565929E+03  0.00000000000E+00 0.  1.
         21   -1    0    0  501  502  0.00000000000E+00 -0.00000000000E+00 -0.24046175406E+03  0.24046175406E+03  0.00000000000E+00 0. -1.
         24    2    1    2    0    0  0.37439501298E+02  0.21901788588E+02 -0.69981759404E+02  0.11292309888E+03  0.77283730563E+02 0.  0.
         23    2    1    2    0    0  0.30603945982E+01 -0.21266938431E+02 -0.12901622493E+03  0.15904928681E+03  0.90497738393E+02 0.  0.
        -13    1    3    3    0    0  0.25246317294E+02  0.51078333603E+02 -0.46282825833E+02  0.73406216818E+02  0.00000000000E+00 0.  1.
         14    1    3    3    0    0  0.12193184003E+02 -0.29176545015E+02 -0.23698933571E+02  0.39516882058E+02  0.00000000000E+00 0. -1.
        -11    1    4    4    0    0 -0.39284355282E+02  0.64867537217E+01 -0.75646144301E+02  0.85484955936E+02  0.00000000000E+00 0. -1.
         11    1    4    4    0    0  0.42344749880E+02 -0.27753692152E+02 -0.53370080628E+02  0.73564330873E+02  0.00000000000E+00 0.  1.
         -2    1    1    2    0  502 -0.40499895896E+02 -0.63485015690E+00  0.77441889565E+02  0.87395027672E+02  0.00000000000E+00 0.  1.
<scales pt_clust_5="13000.00000" pt_clust_6="13000.00000" pt_clust_7="13000.00000" pt_clust_8="13000.00000" pt_clust_9="13000.00000"></scales>
<clustering>
<clus scale="   77.284">  5  6 -1 -1</clus>
<clus scale="   88.624">  1  5  2 -1</clus>
<clus scale="   90.498">  7  8 -1 -1</clus>
<clus scale="   19.952">  7  9 -1 -1</clus>
<clus scale="  240.987">  2  5  1 -1</clus>
</clustering>
</event>
<event>
 9    2  0.2147756E-005  0.4157973E+03  0.7546771E-02  0.1100149E+00
          2   -1    0    0  502    0 -0.00000000000E+00  0.00000000000E+00  0.20050509818E+03  0.20050509818E+03  0.00000000000E+00 0. -1.
         21   -1    0    0  501  502  0.00000000000E+00 -0.00000000000E+00 -0.30359875688E+03  0.30359875688E+03  0.00000000000E+00 0. -1.
         24    2    1    2    0    0  0.14538434876E+02  0.35207898204E+02 -0.30537373654E+02  0.82023486151E+02  0.65911750896E+02 0.  0.
         23    2    1    2    0    0 -0.27922987480E+02  0.32214892673E+02  0.15498056807E+03  0.18438729265E+03  0.90344920559E+02 0.  0.
        -11    1    3    3    0    0  0.37356564889E+02  0.11898801415E+02 -0.29739787062E+01  0.39318430344E+02  0.00000000000E+00 0.  1.
         12    1    3    3    0    0 -0.22818130012E+02  0.23309096790E+02 -0.27563394948E+02  0.42705055807E+02  0.00000000000E+00 0. -1.
        -11    1    4    4    0    0 -0.28774168950E+02 -0.22937600093E+02  0.99789217556E+02  0.10635776529E+03  0.00000000000E+00 0. -1.
         11    1    4    4    0    0  0.85118147051E+00  0.55152492766E+02  0.55191350513E+02  0.78029527357E+02  0.00000000000E+00 0.  1.
          1    1    1    2  501    0  0.13384552603E+02 -0.67422790877E+02 -0.22753685311E+03  0.23769307626E+03  0.00000000000E+00 0. -1.
<scales pt_clust_5="13000.00000" pt_clust_6="13000.00000" pt_clust_7="13000.00000" pt_clust_8="13000.00000" pt_clust_9="13000.00000"></scales>
<clustering>
<clus scale="   65.912">  5  6 -1 -1</clus>
<clus scale="   76.127">  1  5  2 -1</clus>
<clus scale="   90.345">  7  8 -1 -1</clus>
<clus scale="   67.820">  7  9 -1 -1</clus>
<clus scale="  415.797">  2  5  1 -1</clus>
</clustering>
</event>
<event>
 9    2  0.2147756E-005  0.2005207E+03  0.7546771E-02  0.1186251E+00
         21   -1    0    0  501  502  0.00000000000E+00  0.00000000000E+00  0.89798176086E+02  0.89798176086E+02  0.00000000000E+00 0. -1.
          2   -1    0    0  502    0 -0.00000000000E+00 -0.00000000000E+00 -0.27603083987E+03  0.27603083987E+03  0.00000000000E+00 0. -1.
         24    2    1    2    0    0  0.24640656946E+02 -0.14325716123E+02 -0.13313668056E+03  0.15839777267E+03  0.80944984763E+02 0.  0.
         23    2    1    2    0    0 -0.53914362518E+01  0.84573972412E+02 -0.46044051398E+02  0.13425283287E+03  0.93391349008E+02 0.  0.
        -11    1    3    3    0    0 -0.19072047487E+02 -0.29296791913E+02 -0.83820398889E+02  0.90817973340E+02  0.00000000000E+00 0.  1.
         12    1    3    3    0    0  0.43712704433E+02  0.14971075790E+02 -0.49316281669E+02  0.67579799325E+02  0.00000000000E+00 0. -1.
        -13    1    4    4    0    0 -0.32605015962E+02  0.11150836713E+02 -0.44045159806E+02  0.55923200263E+02  0.00000000000E+00 0.  1.
         13    1    4    4    0    0  0.27213579710E+02  0.73423135700E+02 -0.19988915918E+01  0.78329632606E+02  0.00000000000E+00 0. -1.
          1    1    1    2  501    0 -0.19249220694E+02 -0.70248256290E+02 -0.70519318261E+01  0.73178410420E+02  0.00000000000E+00 0. -1.
<scales pt_clust_5="13000.00000" pt_clust_6="13000.00000" pt_clust_7="13000.00000" pt_clust_8="13000.00000" pt_clust_9="13000.00000"></scales>
<clustering>
<clus scale="   80.945">  5  6 -1 -1</clus>
<clus scale="   85.817">  2  5  1 -1</clus>
<clus scale="   93.391">  7  8 -1 -1</clus>
<clus scale="   75.565">  7  9 -1 -1</clus>
<clus scale="  200.521">  1  5  2 -1</clus>
</clustering>
</event>
<event>
 9    2  0.2147756E-005  0.2022440E+03  0.7546771E-02  0.1171955E+00
         21   -1    0    0  501  502  0.00000000000E+00  0.00000000000E+00  0.75935811034E+02  0.75935811034E+02  0.00000000000E+00 0. -1.
          2   -1    0    0  502    0 -0.00000000000E+00 -0.00000000000E+00 -0.63754910460E+03  0.63754910460E+03  0.00000000000E+00 0. -1.
         24    2    1    2    0    0  0.51306576694E+02 -0.72765508027E+02 -0.48284328758E+03  0.49644264315E+03  0.73419844808E+02 0.  0.
         23    2    1    2    0    0  0.14885399529E+02  0.20921829317E+02  0.75082169335E+01  0.96572041762E+02  0.92792714517E+02 0.  0.
        -11    1    3    3    0    0  0.42533629571E+02 -0.11760483186E+02 -0.10969653091E+03  0.11824021102E+03  0.00000000000E+00 0.  1.
         12    1    3    3    0    0  0.87729471226E+01 -0.61005024841E+02 -0.37314675667E+03  0.37820243213E+03  0.00000000000E+00 0. -1.
        -11    1    4    4    0    0  0.24202221274E+02  0.54942257621E+02  0.11316698687E+02  0.61093918324E+02  0.00000000000E+00 0. -1.
         11    1    4    4    0    0 -0.93168217445E+01 -0.34020428303E+02 -0.38084817536E+01  0.35478123437E+02  0.00000000000E+00 0.  1.
          1    1    1    2  501    0 -0.66191976223E+02  0.51843678710E+02 -0.86278222917E+02  0.12047023071E+03  0.00000000000E+00 0. -1.
<scales pt_clust_5="13000.00000" pt_clust_6="13000.00000" pt_clust_7="13000.00000" pt_clust_8="13000.00000" pt_clust_9="13000.00000"></scales>
<clustering>
<clus scale="   73.420">  5  6 -1 -1</clus>
<clus scale="   92.793">  7  8 -1 -1</clus>
<clus scale="   84.078">  7  9 -1 -1</clus>
<clus scale="  115.402">  2  5  1 -1</clus>
<clus scale="  202.244">  1  5  2 -1</clus>
</clustering>
</event>
<event>
 9    2  0.2147756E-005  0.2851607E+03  0.7546771E-02  0.1141276E+00
          2   -1    0    0  502    0 -0.00000000000E+00  0.00000000000E+00  0.82681926897E+03  0.82681926897E+03  0.00000000000E+00 0. -1.
         21   -1    0    0  501  502  0.00000000000E+00 -0.00000000000E+00 -0.41717643748E+02  0.41717643748E+02  0.00000000000E+00 0. -1.
         24    2    1    2    0    0  0.25083965777E+02  0.31709756515E+01  0.21769239168E+03  0.23350160388E+03  0.80583876754E+02 0.  0.
         23    2    1    2    0    0  0.11203970238E+03 -0.31396189837E+02  0.31412729163E+03  0.34563713126E+03  0.85149606680E+02 0.  0.
        -13    1    3    3    0    0 -0.11238837180E+02  0.21149936178E+02  0.18596917678E+02  0.30322872697E+02  0.00000000000E+00 0.  1.
         14    1    3    3    0    0  0.36322802957E+02 -0.17978960526E+02  0.19909547400E+03  0.20317873118E+03  0.00000000000E+00 0. -1.
        -11    1    4    4    0    0  0.46036655931E+02 -0.29538150458E+02  0.24092028498E+03  0.24705153256E+03  0.00000000000E+00 0.  1.
         11    1    4    4    0    0  0.66003046448E+02 -0.18580393782E+01  0.73207006643E+02  0.98585598707E+02  0.00000000000E+00 0. -1.
          1    1    1    2  501    0 -0.13712366816E+03  0.28225214185E+02  0.25328194192E+03  0.28939817758E+03  0.00000000000E+00 0. -1.
<scales pt_clust_5="13000.00000" pt_clust_6="13000.00000" pt_clust_7="13000.00000" pt_clust_8="13000.00000" pt_clust_9="13000.00000"></scales>
<clustering>
<clus scale="   80.584">  5  6 -1 -1</clus>
<clus scale="   84.457">  1  5  2 -1</clus>
<clus scale="   85.150">  7  8 -1 -1</clus>
<clus scale="  129.251">  7  9 -1 -1</clus>
<clus scale="  285.161">  2  5  1 -1</clus>
</clustering>
</event>
<event>
 9    2  0.2147756E-005  0.1232413E+03  0.7546771E-02  0.1253694E+00
         -1   -1    0    0    0  501 -0.00000000000E+00  0.00000000000E+00  0.31048748344E+03  0.31048748344E+03  0.00000000000E+00 0.  1.
         21   -1    0    0  501  502  0.00000000000E+00 -0.00000000000E+00 -0.50952729196E+02  0.50952729196E+02  0.00000000000E+00 0.  1.
         24    2    1    2    0    0  0.34309391908E+02  0.76596904565E+01  0.21055353246E+03  0.22882204514E+03  0.82407117902E+02 0.  0.
         23    2    1    2    0    0 -0.16587948852E+02  0.15025131509E+02  0.31603199633E+02  0.98993082430E+02  0.91104080688E+02 0.  0.
        -13    1    3    3    0    0  0.46109355325E+02  0.18775057488E+02  0.20607567067E+03  0.21200414494E+03  0.00000000000E+00 0.  1.
         14    1    3    3    0    0 -0.11799963417E+02 -0.11115367031E+02  0.44778617928E+01  0.16817900200E+02  0.00000000000E+00 0. -1.
        -11    1    4    4    0    0  0.33721085809E+02  0.25672348168E+02  0.14930229059E+02  0.44934316824E+02  0.00000000000E+00 0.  1.
         11    1    4    4    0    0 -0.50309034661E+02 -0.10647216659E+02  0.16672970574E+02  0.54058765606E+02  0.00000000000E+00 0. -1.
         -2    1    1    2    0  502 -0.17721443056E+02 -0.22684821966E+02  0.17378022150E+02  0.33625085063E+02  0.00000000000E+00 0.  1.
<scales pt_clust_5="13000.00000" pt_clust_6="13000.00000" pt_clust_7="13000.00000" pt_clust_8="13000.00000" pt_clust_9="13000.00000"></scales>
<clustering>
<clus scale="   82.407">  5  6 -1 -1</clus>
<clus scale="   89.592">  1  5  2 -1</clus>
<clus scale="   91.104">  7  8 -1 -1</clus>
<clus scale="   22.068">  7  9 -1 -1</clus>
<clus scale="  123.241">  2  5  1 -1</clus>
</clustering>
</event>
<event>
 9    2  0.2147756E-005  0.5689075E+03  0.7546771E-02  0.1040888E+00
          2   -1    0    0  502    0 -0.00000000000E+00  0.00000000000E+00  0.41875342956E+03  0.41875342956E+03  0.00000000000E+00 0. -1.
         21   -1    0    0  501  502  0.00000000000E+00 -0.00000000000E+00 -0.31355047746E+03  0.31355047746E+03  0.00000000000E+00 0. -1.
         24    2    1    2    0    0 -0.10746008799E+03  0.68238511318E+02 -0.11265676249E+02  0.15159680422E+03  0.81550663098E+02 0.  0.
         23    2    1    2    0    0 -0.44009470339E+02  0.22050690730E+03  0.44309348577E+02  0.24675515186E+03  0.91458498514E+02 0.  0.
        -13    1    3    3    0    0 -0.61305741075E+01  0.46951733251E+02 -0.78699976672E+01  0.47999854765E+02  0.00000000000E+00 0.  1.
         14    1    3    3    0    0 -0.10132951388E+03  0.21286778067E+02 -0.33956785814E+01  0.10359694946E+03  0.00000000000E+00 0. -1.
        -13    1    4    4    0    0 -0.49433621958E+02  0.56784473392E+02 -0.56365748533E+01  0.75497883244E+02  0.00000000000E+00 0.  1.
         13    1    4    4    0    0  0.54241516188E+01  0.16372243391E+03  0.49945923430E+02  0.17125726862E+03  0.00000000000E+00 0. -1.
          1    1    1    2  501    0  0.15146955833E+03 -0.28874541862E+03  0.72159279770E+02  0.33395195093E+03  0.00000000000E+00 0. -1.
<scales pt_clust_5="13000.00000" pt_clust_6="13000.00000" pt_clust_7="13000.00000" pt_clust_8="13000.00000" pt_clust_9="13000.00000"></scales>
<clustering>
<clus scale="   81.551">  5  6 -1 -1</clus>
<clus scale="   91.458">  7  8 -1 -1</clus>
<clus scale="  151.178">  1  5  2 -1</clus>
<clus scale="  264.381">  7  9 -1 -1</clus>
<clus scale="  568.908">  2  5  1 -1</clus>
</clustering>
</event>
<event>
 9    2  0.2147756E-005  0.3112382E+03  0.7546771E-02  0.1090358E+00
          2   -1    0    0  502    0 -0.00000000000E+00  0.00000000000E+00  0.20985221085E+03  0.20985221085E+03  0.00000000000E+00 0. -1.
         21   -1    0    0  501  502  0.00000000000E+00 -0.00000000000E+00 -0.75436671897E+03  0.75436671897E+03  0.00000000000E+00 0. -1.
         24    2    1    2    0    0 -0.13709813955E+03 -0.17355150698E+03 -0.60347267912E+03  0.64744564782E+03  0.78042084825E+02 0.  0.
         23    2    1    2    0    0  0.32547674417E+02 -0.21106672077E+02  0.17112612570E+02  0.91887406066E+02  0.81520618057E+02 0.  0.
        -13    1    3    3    0    0 -0.15736834369E+02 -0.77581312153E+02 -0.18196464606E+03  0.19843800132E+03  0.00000000000E+00 0.  1.
         14    1    3    3    0    0 -0.12136130518E+03 -0.95970194828E+02 -0.42150803306E+03  0.44900764651E+03  0.00000000000E+00 0. -1.
        -13    1    4    4    0    0 -0.98630259668E+00 -0.40443322575E+02  0.30782504943E+02  0.50835005108E+02  0.00000000000E+00 0.  1.
         13    1    4    4    0    0  0.33533977014E+02  0.19336650499E+02 -0.13669892374E+02  0.41052400958E+02  0.00000000000E+00 0. -1.
          1    1    1    2  501    0  0.10455046513E+03  0.19465817906E+03  0.41845558431E+02  0.22488587593E+03  0.00000000000E+00 0. -1.
<scales pt_clust_5="13000.00000" pt_clust_6="13000.00000" pt_clust_7="13000.00000" pt_clust_8="13000.00000" pt_clust_9="13000.00000"></scales>
<clustering>
<clus scale="   78.042">  5  6 -1 -1</clus>
<clus scale="   81.521">  7  8 -1 -1</clus>
<clus scale="  220.958">  7  9 -1 -1</clus>
<clus scale="  234.535">  1  5  2 -1</clus>
<clus scale="  311.238">  2  5  1 -1</clus>
</clustering>
</event>
<event>
 9    2  0.2147756E-005  0.2637559E+03  0.7546771E-02  0.1123792E+00
         21   -1    0    0  501  502  0.00000000000E+00  0.00000000000E+00  0.82596451855E+02  0.82596451855E+02  0.00000000000E+00 0. -1.
          2   -1    0    0  502    0 -0.00000000000E+00 -0.00000000000E+00 -0.79780509337E+03  0.79780509337E+03  0.00000000000E+00 0. -1.
         24    2    1    2    0    0  0.12895332636E+03  0.61509576221E+02 -0.53875507054E+03  0.56306410688E+03  0.79823393032E+02 0.  0.
         23    2    1    2    0    0  0.13416612454E+02  0.15799651833E+02 -0.10371110728E+03  0.13974976353E+03  0.91347513079E+02 0.  0.
        -13    1    3    3    0    0  0.12269122650E+02  0.43979896279E+02 -0.15245865984E+03  0.15914900442E+03  0.00000000000E+00 0.  1.
         14    1    3    3    0    0  0.11668420371E+03  0.17529679941E+02 -0.38629641070E+03  0.40391510246E+03  0.00000000000E+00 0. -1.
        -11    1    4    4    0    0  0.74181265317E+01 -0.36310506531E+02 -0.23411402699E+02  0.43835776052E+02  0.00000000000E+00 0.  1.
         11    1    4    4    0    0  0.59984859228E+01  0.52110158364E+02 -0.80299704579E+02  0.95913987477E+02  0.00000000000E+00 0. -1.
          1    1    1    2  501    0 -0.14236993882E+03 -0.77309228054E+02 -0.72742463693E+02  0.17758767481E+03  0.00000000000E+00 0. -1.
<scales pt_clust_5="13000.00000" pt_clust_6="13000.00000" pt_clust_7="13000.00000" pt_clust_8="13000.00000" pt_clust_9="13000.00000"></scales>
<clustering>
<clus scale="   79.823">  5  6 -1 -1</clus>
<clus scale="   91.348">  7  8 -1 -1</clus>
<clus scale="  162.006">  7  9 -1 -1</clus>
<clus scale="  163.659">  2  5  1 -1</clus>
<clus scale="  263.756">  1  5  2 -1</clus>
</clustering>
</event>
<event>
 9    2  0.2147756E-005  0.1685644E+03  0.7546771E-02  0.1200567E+00
         21   -1    0    0  501  502  0.00000000000E+00  0.00000000000E+00  0.23478714963E+02  0.23478714963E+02  0.00000000000E+00 0. -1.
          2   -1    0    0  502    0 -0.00000000000E+00 -0.00000000000E+00 -0.93053975741E+03  0.93053975741E+03  0.00000000000E+00 0. -1.
         24    2    1    2    0    0  0.68818124482E+02  0.79175615716E+01 -0.53857492373E+03  0.54880742799E+03  0.79548868652E+02 0.  0.
         23    2    1    2    0    0 -0.64723273130E+02 -0.40374960524E+02 -0.19215618086E+03  0.22587198691E+03  0.90966571352E+02 0.  0.
        -11    1    3    3    0    0  0.44384544124E+02  0.37466515939E+02 -0.20608116956E+03  0.21411019597E+03  0.00000000000E+00 0.  1.
         12    1    3    3    0    0  0.24433580357E+02 -0.29548954367E+02 -0.33249375417E+03  0.33469723201E+03  0.00000000000E+00 0. -1.
        -13    1    4    4    0    0  0.57376628333E+01  0.23056642402E+02 -0.34072974425E+02  0.41539103503E+02  0.00000000000E+00 0.  1.
         13    1    4    4    0    0 -0.70460935963E+02 -0.63431602926E+02 -0.15808320644E+03  0.18433288340E+03  0.00000000000E+00 0. -1.
          1    1    1    2  501    0 -0.40948513519E+01  0.32457398952E+02 -0.17632993785E+03  0.17933905748E+03  0.00000000000E+00 0. -1.
<scales pt_clust_5="13000.00000" pt_clust_6="13000.00000" pt_clust_7="13000.00000" pt_clust_8="13000.00000" pt_clust_9="13000.00000"></scales>
<clustering>
<clus scale="   79.549">  5  6 -1 -1</clus>
<clus scale="   90.967">  7  8 -1 -1</clus>
<clus scale="   32.715">  7  9 -1 -1</clus>
<clus scale="  105.483">  2  5  1 -1</clus>
<clus scale="  168.564">  1  5  2 -1</clus>
</clustering>
</event>
<event>
 9    2  0.2147756E-005  0.5661108E+03  0.7546771E-02  0.1041985E+00
          2   -1    0    0  502    0 -0.00000000000E+00  0.00000000000E+00  0.65405244944E+03  0.65405244944E+03  0.00000000000E+00 0. -1.
         21   -1    0    0  501  502  0.00000000000E+00 -0.00000000000E+00 -0.19805860068E+03  0.19805860068E+03  0.00000000000E+00 0. -1.
         24    2    1    2    0    0 -0.12455832816E+03 -0.10306613684E+02  0.55457813370E+02  0.15863389648E+03  0.80424751483E+02 0.  0.
         23    2    1    2    0    0 -0.16226802862E+03 -0.15120944767E+02 -0.16278064674E+02  0.18687088276E+03  0.89978860589E+02 0.  0.
        -13    1    3    3    0    0 -0.27947524538E+02 -0.24491336788E+02  0.47999503386E+02  0.60702899690E+02  0.00000000000E+00 0.  1.
         14    1    3    3    0    0 -0.96610803617E+02  0.14184723103E+02  0.74583099840E+01  0.97930996793E+02  0.00000000000E+00 0. -1.
        -11    1    4    4    0    0 -0.13651215900E+03  0.24588671425E+02 -0.15061955816E+02  0.13952431627E+03  0.00000000000E+00 0.  1.
         11    1    4    4    0    0 -0.25755869615E+02 -0.39709616192E+02 -0.12161088584E+01  0.47346566492E+02  0.00000000000E+00 0. -1.
          1    1    1    2  501    0  0.28682635677E+03  0.25427558452E+02  0.41681410007E+03  0.50660627087E+03  0.00000000000E+00 0. -1.
<scales pt_clust_5="13000.00000" pt_clust_6="13000.00000" pt_clust_7="13000.00000" pt_clust_8="13000.00000" pt_clust_9="13000.00000"></scales>
<clustering>
<clus scale="   80.425">  5  6 -1 -1</clus>
<clus scale="   89.979">  7  8 -1 -1</clus>
<clus scale="  148.624">  1  5  2 -1</clus>
<clus scale="  182.459">  7  9 -1 -1</clus>
<clus scale="  566.111">  2  5  1 -1</clus>
</clustering>
</event>
<event>
 9    2  0.2147756E-005  0.5285421E+03  0.7546771E-02  0.1050574E+00
         21   -1    0    0  501  502  0.00000000000E+00  0.00000000000E+00  0.37213927525E+03  0.37213927525E+03  0.00000000000E+00 0. -1.
          2   -1    0    0  502    0 -0.00000000000E+00 -0.00000000000E+00 -0.34776144676E+03  0.34776144676E+03  0.00000000000E+00 0. -1.
         24    2    1    2    0    0 -0.11365677512E+03  0.73009685837E+01 -0.10331265828E+03  0.17615299030E+03  0.85937209387E+02 0.  0.
         23    2    1    2    0    0 -0.16598181057E+03  0.87641972220E+02 -0.27066948921E+02  0.21033842693E+03  0.90986578035E+02 0.  0.
        -11    1    3    3    0    0 -0.72731634629E+02 -0.37428301158E+02 -0.64483461864E+02  0.10415798221E+03  0.00000000000E+00 0.  1.
         12    1    3    3    0    0 -0.40925140496E+02  0.44729269742E+02 -0.38829196411E+02  0.71995008092E+02  0.00000000000E+00 0. -1.
        -13    1    4    4    0    0 -0.66478016483E+02  0.43558044927E+02  0.32970718705E+02  0.86044745599E+02  0.00000000000E+00 0.  1.
         13    1    4    4    0    0 -0.99503794090E+02  0.44083927293E+02 -0.60037667627E+02  0.12429368133E+03  0.00000000000E+00 0. -1.
          1    1    1    2  501    0  0.27963858570E+03 -0.94942940804E+02  0.15475743568E+03  0.33340930479E+03  0.00000000000E+00 0. -1.
<scales pt_clust_5="13000.00000" pt_clust_6="13000.00000" pt_clust_7="13000.00000" pt_clust_8="13000.00000" pt_clust_9="13000.00000"></scales>
<clustering>
<clus scale="   85.937">  5  6 -1 -1</clus>
<clus scale="   90.987">  7  8 -1 -1</clus>
<clus scale="  142.676">  2  5  1 -1</clus>
<clus scale="  248.422">  7  9 -1 -1</clus>
<clus scale="  528.542">  1  5  2 -1</clus>
</clustering>
</event>
<event>
 9    2  0.2147756E-005  0.1372710E+03  0.7546771E-02  0.1231946E+00
          2   -1    0    0  502    0 -0.00000000000E+00  0.00000000000E+00  0.10699404741E+03  0.10699404741E+03  0.00000000000E+00 0. -1.
         21   -1    0    0  501  502  0.00000000000E+00 -0.00000000000E+00 -0.32542694080E+03  0.32542694080E+03  0.00000000000E+00 0. -1.
         24    2    1    2    0    0  0.84799679834E+01  0.57257830943E+02  0.63395650351E+02  0.11893945991E+03  0.82323857898E+02 0.  0.
         23    2    1    2    0    0 -0.28347311794E+02 -0.50755254293E+02 -0.15274536887E+03  0.18271662136E+03  0.81697919703E+02 0.  0.
        -13    1    3    3    0    0  0.22764262099E+02 -0.14750644173E+02  0.19472689799E+02  0.33391297975E+02  0.00000000000E+00 0.  1.
         14    1    3    3    0    0 -0.14284294116E+02  0.72008475116E+02  0.43922960552E+02  0.85548161936E+02  0.00000000000E+00 0. -1.
        -13    1    4    4    0    0 -0.56536038433E+02 -0.24046656629E+02 -0.93224573470E+02  0.11164849500E+03  0.00000000000E+00 0.  1.
         13    1    4    4    0    0  0.28188726639E+02 -0.26708597664E+02 -0.59520795405E+02  0.71068126361E+02  0.00000000000E+00 0. -1.
          1    1    1    2  501    0  0.19867343810E+02 -0.65025766496E+01 -0.12908317487E+03  0.13076490694E+03  0.00000000000E+00 0. -1.
<scales pt_clust_5="13000.00000" pt_clust_6="13000.00000" pt_clust_7="13000.00000" pt_clust_8="13000.00000" pt_clust_9="13000.00000"></scales>
<clustering>
<clus scale="   81.698">  7  8 -1 -1</clus>
<clus scale="   20.904">  7  9 -1 -1</clus>
<clus scale="   82.324">  5  6 -1 -1</clus>
<clus scale="  100.636">  1  5  2 -1</clus>
<clus scale="  137.271">  2  5  1 -1</clus>
</clustering>
</event>
<event>
 9    2  0.2147756E-005  0.1984862E+03  0.7546771E-02  0.1180227E+00
         21   -1    0    0  501  502  0.00000000000E+00  0.00000000000E+00  0.15151706755E+03  0.15151706755E+03  0.00000000000E+00 0.  1.
          2   -1    0    0  502    0 -0.00000000000E+00 -0.00000000000E+00 -0.14824111678E+03  0.14824111678E+03  0.00000000000E+00 0. -1.
         24    2    1    2    0    0 -0.41380518627E+01 -0.64276743354E+02  0.26019989302E+01  0.10127086507E+03  0.78105022268E+02 0.  0.
         23    2    1    2    0    0  0.48056532482E+02 -0.15603194944E+02  0.14439400099E+02  0.10629661990E+03  0.92399053680E+02 0.  0.
        -11    1    3    3    0    0  0.33194825118E+02 -0.42118652677E+02  0.15781338069E+02  0.55901054992E+02  0.00000000000E+00 0.  1.
         12    1    3    3    0    0 -0.37332876980E+02 -0.22158090677E+02 -0.13179339139E+02  0.45369810075E+02  0.00000000000E+00 0. -1.
        -11    1    4    4    0    0 -0.41928831157E+01 -0.34153997711E+02  0.33149063379E+02  0.47780081953E+02  0.00000000000E+00 0.  1.
         11    1    4    4    0    0  0.52249415598E+02  0.18550802767E+02 -0.18709663281E+02  0.58516537950E+02  0.00000000000E+00 0. -1.
          1    1    1    2  501    0 -0.43918480620E+02  0.79879938299E+02 -0.13765448253E+02  0.92190699358E+02  0.00000000000E+00 0. -1.
<scales pt_clust_5="13000.00000" pt_clust_6="13000.00000" pt_clust_7="13000.00000" pt_clust_8="13000.00000" pt_clust_9="13000.00000"></scales>
<clustering>
<clus scale="   78.105">  5  6 -1 -1</clus>
<clus scale="   92.399">  7  8 -1 -1</clus>
<clus scale="   91.157">  7  9 -1 -1</clus>
<clus scale="  101.237">  2  5  1 -1</clus>
<clus scale="  198.486">  1  5  2 -1</clus>
</clustering>
</event>
<event>
 9    2  0.2147756E-005  0.2038368E+03  0.7546771E-02  0.1181471E+00
         21   -1    0    0  501  502  0.00000000000E+00  0.00000000000E+00  0.12142138239E+03  0.12142138239E+03  0.00000000000E+00 0. -1.
          2   -1    0    0  502    0 -0.00000000000E+00 -0.00000000000E+00 -0.44417323461E+03  0.44417323461E+03  0.00000000000E+00 0. -1.
         24    2    1    2    0    0  0.50542729545E+01  0.44513854146E+02 -0.34848048202E+03  0.36014050041E+03  0.79091749258E+02 0.  0.
         23    2    1    2    0    0  0.70563146841E+02 -0.23390066424E+02 -0.15177232497E+02  0.11692447096E+03  0.88964771807E+02 0.  0.
        -11    1    3    3    0    0 -0.13709525063E+02  0.15338891970E+02 -0.16552429295E+02  0.26404840463E+02  0.00000000000E+00 0.  1.
         12    1    3    3    0    0  0.18763798018E+02  0.29174962175E+02 -0.33192805273E+03  0.33373565995E+03  0.00000000000E+00 0. -1.
        -11    1    4    4    0    0 -0.20560531199E+02 -0.83904264362E+01  0.41052814515E+01  0.22582914665E+02  0.00000000000E+00 0.  1.
         11    1    4    4    0    0  0.91123678040E+02 -0.14999639988E+02 -0.19282513949E+02  0.94341556291E+02  0.00000000000E+00 0. -1.
          1    1    1    2  501    0 -0.75617419795E+02 -0.21123787722E+02  0.40905862301E+02  0.88529645627E+02  0.00000000000E+00 0. -1.
<scales pt_clust_5="13000.00000" pt_clust_6="13000.00000" pt_clust_7="13000.00000" pt_clust_8="13000.00000" pt_clust_9="13000.00000"></scales>
<clustering>
<clus scale="   79.092">  5  6 -1 -1</clus>
<clus scale="   88.965">  7  8 -1 -1</clus>
<clus scale="   78.513">  7  9 -1 -1</clus>
<clus scale="   90.898">  2  5  1 -1</clus>
<clus scale="  203.837">  1  5  2 -1</clus>
</clustering>
</event>
<event>
 9    2  0.2147756E-005  0.1568540E+03  0.7546771E-02  0.1216890E+00
         -1   -1    0    0    0  501 -0.00000000000E+00  0.00000000000E+00  0.24113306630E+03  0.24113306630E+03  0.00000000000E+00 0.  1.
         21   -1    0    0  501  502  0.00000000000E+00 -0.00000000000E+00 -0.13603747984E+03  0.13603747984E+03  0.00000000000E+00 0.  1.
         24    2    1    2    0    0  0.23779518673E+02  0.35425685794E+02  0.18079820379E+03  0.20300377095E+03  0.81866328871E+02 0.  0.
         23    2    1    2    0    0 -0.13832086432E+01  0.17803460634E-01 -0.45344610707E+01  0.91566883552E+02  0.91444077135E+02 0.  0.
        -13    1    3    3    0    0  0.28738419740E+02  0.56721721433E+02  0.16247885691E+03  0.17447816308E+03  0.00000000000E+00 0.  1.
         14    1    3    3    0    0 -0.49589010672E+01 -0.21296035639E+02  0.18319346884E+02  0.28525607864E+02  0.00000000000E+00 0. -1.
        -11    1    4    4    0    0 -0.15973877371E+01  0.43919283210E+02 -0.14994701386E+02  0.46435936029E+02  0.00000000000E+00 0.  1.
         11    1    4    4    0    0  0.21417909390E+00 -0.43901479749E+02  0.10460240315E+02  0.45130947523E+02  0.00000000000E+00 0. -1.
         -2    1    1    2    0  502 -0.22396310029E+02 -0.35443489255E+02 -0.71168156256E+02  0.82599891636E+02  0.00000000000E+00 0.  1.
<scales pt_clust_5="13000.00000" pt_clust_6="13000.00000" pt_clust_7="13000.00000" pt_clust_8="13000.00000" pt_clust_9="13000.00000"></scales>
<clustering>
<clus scale="   81.866">  5  6 -1 -1</clus>
<clus scale="   91.444">  7  8 -1 -1</clus>
<clus scale="   41.927">  7  9 -1 -1</clus>
<clus scale="   92.318">  1  5  2 -1</clus>
<clus scale="  156.854">  2  5  1 -1</clus>
</clustering>
</event>
<event>
 9    2  0.2147756E-005  0.3979717E+03  0.7546771E-02  0.1049459E+00
         21   -1    0    0  501  502  0.00000000000E+00  0.00000000000E+00  0.28252781769E+03  0.28252781769E+03  0.00000000000E+00 0.  1.
          2   -1    0    0  502    0 -0.00000000000E+00 -0.00000000000E+00 -0.50946430844E+03  0.50946430844E+03  0.00000000000E+00 0. -1.
         24    2    1    2    0    0  0.33497821679E+03 -0.16012731927E+02 -0.18589358354E+03  0.39190963767E+03  0.81055082427E+02 0.  0.
         23    2    1    2    0    0 -0.59465335690E+02 -0.25921689819E+02 -0.45225820862E+02  0.12136517622E+03  0.92065579743E+02 0.  0.
        -11    1    3    3    0    0  0.29865248637E+03 -0.32109080676E+02 -0.18374957062E+03  0.35211958960E+03  0.00000000000E+00 0.  1.
         12    1    3    3    0    0  0.36325730427E+02  0.16096348749E+02 -0.21440129163E+01  0.39790048071E+02  0.00000000000E+00 0. -1.
        -11    1    4    4    0    0  0.44450820083E+01  0.21464757605E+02 -0.34793443797E+02  0.41122722482E+02  0.00000000000E+00 0. -1.
         11    1    4    4    0    0 -0.63910417699E+02 -0.47386447424E+02 -0.10432377065E+02  0.80242453733E+02  0.00000000000E+00 0.  1.
          1    1    1    2  501    0 -0.27551288110E+03  0.41934421746E+02  0.41829136547E+01  0.27871731225E+03  0.00000000000E+00 0. -1.
<scales pt_clust_5="13000.00000" pt_clust_6="13000.00000" pt_clust_7="13000.00000" pt_clust_8="13000.00000" pt_clust_9="13000.00000"></scales>
<clustering>
<clus scale="   81.055">  5  6 -1 -1</clus>
<clus scale="   92.066">  7  8 -1 -1</clus>
<clus scale="  278.686">  7  9 -1 -1</clus>
<clus scale="  345.017">  2  5  1 -1</clus>
<clus scale="  397.972">  1  5  2 -1</clus>
</clustering>
</event>
<event>
 9    2  0.2147756E-005  0.2284116E+03  0.7546771E-02  0.1149578E+00
         21   -1    0    0  501  502  0.00000000000E+00  0.00000000000E+00  0.14009684011E+03  0.14009684011E+03  0.00000000000E+00 0. -1.
          2   -1    0    0  502    0 -0.00000000000E+00 -0.00000000000E+00 -0.25237149348E+03  0.25237149348E+03  0.00000000000E+00 0. -1.
         24    2    1    2    0    0 -0.77340500588E+01 -0.10863559879E+03 -0.91943579218E+02  0.16315369666E+03  0.79397721126E+02 0.  0.
         23    2    1    2    0    0 -0.52751746032E+02  0.64587199925E+02  0.41228839054E+02  0.13242079871E+03  0.94240106416E+02 0.  0.
        -13    1    3    3    0    0  0.77016171593E+01 -0.30559339524E+02  0.10689067851E+02  0.33278285871E+02  0.00000000000E+00 0.  1.
         14    1    3    3    0    0 -0.15435667218E+02 -0.78076259269E+02 -0.10263264707E+03  0.12987541079E+03  0.00000000000E+00 0. -1.
        -13    1    4    4    0    0 -0.25721649984E+02 -0.15209022024E+02 -0.12614222055E+02  0.32435107937E+02  0.00000000000E+00 0.  1.
         13    1    4    4    0    0 -0.27030096048E+02  0.79796221949E+02  0.53843061109E+02  0.99985690772E+02  0.00000000000E+00 0. -1.
          1    1    1    2  501    0  0.60485796091E+02  0.44048398867E+02 -0.61559913204E+02  0.96893838222E+02  0.00000000000E+00 0. -1.
<scales pt_clust_5="13000.00000" pt_clust_6="13000.00000" pt_clust_7="13000.00000" pt_clust_8="13000.00000" pt_clust_9="13000.00000"></scales>
<clustering>
<clus scale="   79.398">  5  6 -1 -1</clus>
<clus scale="   94.240">  7  8 -1 -1</clus>
<clus scale="   74.825">  7  9 -1 -1</clus>
<clus scale="  134.779">  2  5  1 -1</clus>
<clus scale="  228.412">  1  5  2 -1</clus>
</clustering>
</event>
<event>
 9    2  0.2147756E-005  0.3581914E+03  0.7546771E-02  0.1105176E+00
          2   -1    0    0  502    0 -0.00000000000E+00  0.00000000000E+00  0.22824167672E+03  0.22824167672E+03  0.00000000000E+00 0. -1.
         21   -1    0    0  501  502  0.00000000000E+00 -0.00000000000E+00 -0.25564979123E+03  0.25564979123E+03  0.00000000000E+00 0. -1.
         24    2    1    2    0    0  0.63680390116E+02  0.22752636248E+02  0.52309006929E+02  0.11693659465E+03  0.79781328770E+02 0.  0.
         23    2    1    2    0    0 -0.98503166769E+02  0.12303325793E+03  0.29949598615E+02  0.18123211702E+03  0.84309224663E+02 0.  0.
        -11    1    3    3    0    0  0.51545804022E+02 -0.23268763430E+02  0.33698568361E+02  0.65833113047E+02  0.00000000000E+00 0.  1.
         12    1    3    3    0    0  0.12134586094E+02  0.46021399678E+02  0.18610438569E+02  0.51103481601E+02  0.00000000000E+00 0. -1.
        -13    1    4    4    0    0 -0.43632748081E+02  0.10865369108E+03 -0.68960743531E-03  0.11708732336E+03  0.00000000000E+00 0. -1.
         13    1    4    4    0    0 -0.54870418689E+02  0.14379566848E+02  0.29950288222E+02  0.64144793666E+02  0.00000000000E+00 0.  1.
          1    1    1    2  501    0  0.34822776653E+02 -0.14578589418E+03 -0.10966672005E+03  0.18572275628E+03  0.00000000000E+00 0. -1.
<scales pt_clust_5="13000.00000" pt_clust_6="13000.00000" pt_clust_7="13000.00000" pt_clust_8="13000.00000" pt_clust_9="13000.00000"></scales>
<clustering>
<clus scale="   79.781">  5  6 -1 -1</clus>
<clus scale="   84.309">  7  8 -1 -1</clus>
<clus scale="  104.585">  1  5  2 -1</clus>
<clus scale="  149.012">  7  9 -1 -1</clus>
<clus scale="  358.191">  2  5  1 -1</clus>
</clustering>
</event>
<event>
 9    2  0.2147756E-005  0.5306579E+03  0.7546771E-02  0.1055123E+00
         21   -1    0    0  501  502  0.00000000000E+00  0.00000000000E+00  0.20294940077E+03  0.20294940077E+03  0.00000000000E+00 0. -1.
          2   -1    0    0  502    0 -0.00000000000E+00 -0.00000000000E+00 -0.64236458860E+03  0.64236458860E+03  0.00000000000E+00 0. -1.
         24    2    1    2    0    0  0.89584070409E+02  0.28949087787E+02 -0.25502758970E+03  0.28353416621E+03  0.80555549440E+02 0.  0.
         23    2    1    2    0    0  0.92232724660E+02  0.19395564176E+03 -0.13540255568E+03  0.26998640341E+03  0.91832126580E+02 0.  0.
        -11    1    3    3    0    0  0.41787511276E+02 -0.26499853050E+02 -0.12279975025E+03  0.13239417272E+03  0.00000000000E+00 0.  1.
         12    1    3    3    0    0  0.47796559133E+02  0.55448940837E+02 -0.13222783946E+03  0.15113999349E+03  0.00000000000E+00 0. -1.
        -13    1    4    4    0    0  0.50269958266E+02  0.22638590785E+02 -0.48175196506E+02  0.73214916889E+02  0.00000000000E+00 0.  1.
         13    1    4    4    0    0  0.41962766394E+02  0.17131705098E+03 -0.87227359175E+02  0.19677148652E+03  0.00000000000E+00 0. -1.
          1    1    1    2  501    0 -0.18181679507E+03 -0.22290472955E+03 -0.48985042447E+02  0.29179341975E+03  0.00000000000E+00 0. -1.
<scales pt_clust_5="13000.00000" pt_clust_6="13000.00000" pt_clust_7="13000.00000" pt_clust_8="13000.00000" pt_clust_9="13000.00000"></scales>
<clustering>
<clus scale="   80.556">  5  6 -1 -1</clus>
<clus scale="   91.832">  7  8 -1 -1</clus>
<clus scale="  123.905">  2  5  1 -1</clus>
<clus scale="  252.628">  7  9 -1 -1</clus>
<clus scale="  530.658">  1  5  2 -1</clus>
</clustering>
</event>
<event>
 9    2  0.2147756E-005  0.2547091E+03  0.7546771E-02  0.1151395E+00
         21   -1    0    0  501  502  0.00000000000E+00  0.00000000000E+00  0.31447466431E+03  0.31447466431E+03  0.00000000000E+00 0. -1.
          2   -1    0    0  502    0 -0.00000000000E+00 -0.00000000000E+00 -0.10932440406E+03  0.10932440406E+03  0.00000000000E+00 0. -1.
         24    2    1    2    0    0 -0.24094256730E+02  0.31562081465E+02 -0.55046582898E+01  0.93265833030E+02  0.84211140321E+02 0.  0.
         23    2    1    2    0    0 -0.86645083465E+02  0.22104755061E+02  0.81108572692E+02  0.15185591016E+03  0.92117458716E+02 0.  0.
        -11    1    3    3    0    0  0.29022874133E+02  0.23981350487E+02 -0.11275560333E+02  0.39301026131E+02  0.00000000000E+00 0.  1.
         12    1    3    3    0    0 -0.53117130863E+02  0.75807309784E+01  0.57709020428E+01  0.53964806899E+02  0.00000000000E+00 0. -1.
        -13    1    4    4    0    0 -0.55647362344E+02  0.57754197614E+02  0.59747117330E+02  0.10000947109E+03  0.00000000000E+00 0. -1.
         13    1    4    4    0    0 -0.30997721121E+02 -0.35649442552E+02  0.21361455362E+02  0.51846439069E+02  0.00000000000E+00 0.  1.
          1    1    1    2  501    0  0.11073934019E+03 -0.53666836526E+02  0.12954634585E+03  0.17867732518E+03  0.00000000000E+00 0. -1.
<scales pt_clust_5="13000.00000" pt_clust_6="13000.00000" pt_clust_7="13000.00000" pt_clust_8="13000.00000" pt_clust_9="13000.00000"></scales>
<clustering>
<clus scale="   84.211">  5  6 -1 -1</clus>
<clus scale="   92.117">  7  8 -1 -1</clus>
<clus scale="   93.103">  2  5  1 -1</clus>
<clus scale="  108.778">  7  9 -1 -1</clus>
<clus scale="  254.709">  1  5  2 -1</clus>
</clustering>
</event>
<event>
 9    2  0.2147756E-005  0.2097906E+03  0.7546771E-02  0.1176767E+00
         21   -1    0    0  501  502  0.00000000000E+00  0.00000000000E+00  0.93862355638E+02  0.93862355638E+02  0.00000000000E+00 0. -1.
          2   -1    0    0  502    0 -0.00000000000E+00 -0.00000000000E+00 -0.27509049558E+03  0.27509049558E+03  0.00000000000E+00 0. -1.
         24    2    1    2    0    0 -0.42771004135E+02  0.30113627204E+02 -0.15021743042E+01  0.92703819511E+02  0.76521580526E+02 0.  0.
         23    2    1    2    0    0  0.54408326691E+02  0.22723149323E+02 -0.25968420538E+02  0.11325045838E+03  0.93138069179E+02 0.  0.
        -11    1    3    3    0    0 -0.25080994334E+02 -0.17830884591E+02  0.20592944666E+02  0.37027909637E+02  0.00000000000E+00 0.  1.
         12    1    3    3    0    0 -0.17690009802E+02  0.47944511795E+02 -0.22095118970E+02  0.55675909874E+02  0.00000000000E+00 0. -1.
        -13    1    4    4    0    0 -0.45683035132E+01 -0.21085630222E+02 -0.33022055121E+02  0.39445269973E+02  0.00000000000E+00 0.  1.
         13    1    4    4    0    0  0.58976630204E+02  0.43808779546E+02  0.70536345828E+01  0.73805188410E+02  0.00000000000E+00 0. -1.
          1    1    1    2  501    0 -0.11637322555E+02 -0.52836776527E+02 -0.15375754510E+03  0.16299857332E+03  0.00000000000E+00 0. -1.
<scales pt_clust_5="13000.00000" pt_clust_6="13000.00000" pt_clust_7="13000.00000" pt_clust_8="13000.00000" pt_clust_9="13000.00000"></scales>
<clustering>
<clus scale="   76.522">  5  6 -1 -1</clus>
<clus scale="   92.692">  2  5  1 -1</clus>
<clus scale="   93.138">  7  8 -1 -1</clus>
<clus scale="   52.235">  7  9 -1 -1</clus>
<clus scale="  209.791">  1  5  2 -1</clus>
</clustering>
</event>
<event>
 9    2  0.2147756E-005  0.5131703E+03  0.7546771E-02  0.1047103E+00
         21   -1    0    0  501  502  0.00000000000E+00  0.00000000000E+00  0.41081394656E+02  0.41081394656E+02  0.00000000000E+00 0. -1.
          2   -1    0    0  502    0 -0.00000000000E+00 -0.00000000000E+00 -0.32140964251E+04  0.32140964251E+04  0.00000000000E+00 0. -1.
         24    2    1    2    0    0 -0.66050723930E+02  0.13559422240E+03 -0.13627960413E+04  0.13736261946E+04  0.82990246112E+02 0.  0.
         23    2    1    2    0    0  0.18208788197E+03  0.11747714631E+03 -0.81882856952E+03  0.85181151048E+03  0.90253789216E+02 0.  0.
        -11    1    3    3    0    0  0.28132998244E+01  0.27587164919E+02 -0.84621040131E+02  0.89048788633E+02  0.00000000000E+00 0.  1.
         12    1    3    3    0    0 -0.68864023754E+02  0.10800705748E+03 -0.12781750012E+04  0.12845774059E+04  0.00000000000E+00 0. -1.
        -11    1    4    4    0    0  0.41446404984E+02 -0.11404538920E+02 -0.12240645184E+03  0.12973514345E+03  0.00000000000E+00 0.  1.
         11    1    4    4    0    0  0.14064147698E+03  0.12888168523E+03 -0.69642211768E+03  0.72207636703E+03  0.00000000000E+00 0. -1.
          1    1    1    2  501    0 -0.11603715804E+03 -0.25307136870E+03 -0.99139041962E+03  0.10297401147E+04  0.00000000000E+00 0. -1.
<scales pt_clust_5="13000.00000" pt_clust_6="13000.00000" pt_clust_7="13000.00000" pt_clust_8="13000.00000" pt_clust_9="13000.00000"></scales>
<clustering>
<clus scale="   82.990">  5  6 -1 -1</clus>
<clus scale="   90.254">  7  8 -1 -1</clus>
<clus scale="  172.151">  2  5  1 -1</clus>
<clus scale="  234.834">  7  9 -1 -1</clus>
<clus scale="  513.170">  1  5  2 -1</clus>
</clustering>
</event>
<event>
 9    2  0.2147756E-005  0.4231094E+03  0.7546771E-02  0.1084719E+00
         21   -1    0    0  501  502  0.00000000000E+00  0.00000000000E+00  0.14085799383E+03  0.14085799383E+03  0.00000000000E+00 0. -1.
          2   -1    0    0  502    0 -0.00000000000E+00 -0.00000000000E+00 -0.72606404114E+03  0.72606404114E+03  0.00000000000E+00 0. -1.
         24    2    1    2    0    0  0.70992933625E+02 -0.18790578328E+02 -0.38285529676E+03  0.39791522326E+03  0.79782605793E+02 0.  0.
         23    2    1    2    0    0 -0.30813447744E+02 -0.47954948514E+02 -0.31476749096E+03  0.33223371507E+03  0.89730275936E+02 0.  0.
        -13    1    3    3    0    0  0.82532242035E+02  0.34572942664E+01 -0.27224333749E+03  0.28449948799E+03  0.00000000000E+00 0.  1.
         14    1    3    3    0    0 -0.11539308409E+02 -0.22247872594E+02 -0.11061195927E+03  0.11341573528E+03  0.00000000000E+00 0. -1.
        -13    1    4    4    0    0 -0.48389604587E+02 -0.61656261344E+02 -0.19066327735E+03  0.20614444868E+03  0.00000000000E+00 0. -1.
         13    1    4    4    0    0  0.17576156843E+02  0.13701312830E+02 -0.12410421361E+03  0.12608926639E+03  0.00000000000E+00 0.  1.
          1    1    1    2  501    0 -0.40179485882E+02  0.66745526842E+02  0.11241674040E+03  0.13677309663E+03  0.00000000000E+00 0. -1.
<scales pt_clust_5="13000.00000" pt_clust_6="13000.00000" pt_clust_7="13000.00000" pt_clust_8="13000.00000" pt_clust_9="13000.00000"></scales>
<clustering>
<clus scale="   79.783">  5  6 -1 -1</clus>
<clus scale="   89.730">  7  8 -1 -1</clus>
<clus scale="   77.906">  7  9 -1 -1</clus>
<clus scale="  108.436">  2  5  1 -1</clus>
<clus scale="  423.109">  1  5  2 -1</clus>
</clustering>
</event>
<event>
 9    2  0.2147756E-005  0.2232405E+03  0.7546771E-02  0.1158870E+00
         21   -1    0    0  501  502  0.00000000000E+00  0.00000000000E+00  0.96918185805E+02  0.96918185805E+02  0.00000000000E+00 0. -1.
          2   -1    0    0  502    0 -0.00000000000E+00 -0.00000000000E+00 -0.30002630441E+03  0.30002630441E+03  0.00000000000E+00 0. -1.
         24    2    1    2    0    0 -0.73473536743E+02  0.45000498484E+02 -0.89011634090E+02  0.14623684020E+03  0.77709310665E+02 0.  0.
         23    2    1    2    0    0  0.70732255297E+02  0.43200534407E+02 -0.26066329936E+02  0.12606317584E+03  0.91340750124E+02 0.  0.
        -11    1    3    3    0    0 -0.44063908141E-01  0.23741976279E+02  0.58055092917E+01  0.24441508084E+02  0.00000000000E+00 0.  1.
         12    1    3    3    0    0 -0.73429472835E+02  0.21258522205E+02 -0.94817143381E+02  0.12179533212E+03  0.00000000000E+00 0. -1.
        -13    1    4    4    0    0  0.91746437530E+02  0.43198405127E+02 -0.15646915094E+02  0.10260768469E+03  0.00000000000E+00 0. -1.
         13    1    4    4    0    0 -0.21014182232E+02  0.21292793992E-02 -0.10419414842E+02  0.23455491150E+02  0.00000000000E+00 0.  1.
          1    1    1    2  501    0  0.27412814461E+01 -0.88201032890E+02 -0.88030154578E+02  0.12464447417E+03  0.00000000000E+00 0. -1.
<scales pt_clust_5="13000.00000" pt_clust_6="13000.00000" pt_clust_7="13000.00000" pt_clust_8="13000.00000" pt_clust_9="13000.00000"></scales>
<clustering>
<clus scale="   77.709">  5  6 -1 -1</clus>
<clus scale="   91.341">  7  8 -1 -1</clus>
<clus scale="   88.244">  7  9 -1 -1</clus>
<clus scale="  116.026">  2  5  1 -1</clus>
<clus scale="  223.240">  1  5  2 -1</clus>
</clustering>
</event>
<event>
 9    2  0.2147756E-005  0.3289444E+03  0.7546771E-02  0.1114377E+00
          2   -1    0    0  502    0 -0.00000000000E+00  0.00000000000E+00  0.77470233696E+03  0.77470233696E+03  0.00000000000E+00 0. -1.
         21   -1    0    0  501  502  0.00000000000E+00 -0.00000000000E+00 -0.75876566470E+02  0.75876566470E+02  0.00000000000E+00 0. -1.
         24    2    1    2    0    0 -0.11805982642E+02  0.70718136812E+02  0.39735127863E+02  0.11396171826E+03  0.79170428461E+02 0.  0.
         23    2    1    2    0    0 -0.78155382736E+02 -0.15662106524E+02  0.60705678973E+03  0.61900878589E+03  0.91106342428E+02 0.  0.
        -13    1    3    3    0    0  0.24952365698E+02  0.52619121194E+02  0.20156740009E+01  0.58270536387E+02  0.00000000000E+00 0.  1.
         14    1    3    3    0    0 -0.36758348341E+02  0.18099015619E+02  0.37719453862E+02  0.55691181876E+02  0.00000000000E+00 0. -1.
        -13    1    4    4    0    0  0.13884670834E+02 -0.24460516067E+02  0.11982876910E+03  0.12308547776E+03  0.00000000000E+00 0.  1.
         13    1    4    4    0    0 -0.92040053570E+02  0.87984095434E+01  0.48722802063E+03  0.49592330814E+03  0.00000000000E+00 0. -1.
          1    1    1    2  501    0  0.89961365379E+02 -0.55056030289E+02  0.52033852904E+02  0.11760839927E+03  0.00000000000E+00 0. -1.
<scales pt_clust_5="13000.00000" pt_clust_6="13000.00000" pt_clust_7="13000.00000" pt_clust_8="13000.00000" pt_clust_9="13000.00000"></scales>
<clustering>
<clus scale="   79.170">  5  6 -1 -1</clus>
<clus scale="   91.106">  7  8 -1 -1</clus>
<clus scale="  105.471">  7  9 -1 -1</clus>
<clus scale="  106.810">  1  5  2 -1</clus>
<clus scale="  328.944">  2  5  1 -1</clus>
</clustering>
</event>
<event>
 9    2  0.2147756E-005  0.1910246E+03  0.7546771E-02  0.1165582E+00
         21   -1    0    0  501  502  0.00000000000E+00  0.00000000000E+00  0.58716641809E+02  0.58716641809E+02  0.00000000000E+00 0. -1.
          2   -1    0    0  502    0 -0.00000000000E+00 -0.00000000000E+00 -0.76034457619E+03  0.76034457619E+03  0.00000000000E+00 0. -1.
         24    2    1    2    0    0 -0.37892124998E+02 -0.13296586239E+03 -0.55797630274E+03  0.58005038596E+03  0.77492981219E+02 0.  0.
         23    2    1    2    0    0  0.49284213252E+02  0.93948745417E+02 -0.74239172337E+02  0.15857325003E+03  0.91535350963E+02 0.  0.
        -13    1    3    3    0    0 -0.46482943118E+02 -0.42103853303E+02 -0.16258079900E+03  0.17425818393E+03  0.00000000000E+00 0.  1.
         14    1    3    3    0    0  0.85908181194E+01 -0.90862009087E+02 -0.39539550373E+03  0.40579220202E+03  0.00000000000E+00 0. -1.
        -13    1    4    4    0    0 -0.24438702579E+02  0.34330389933E+02 -0.39017475956E+02  0.57429864066E+02  0.00000000000E+00 0.  1.
         13    1    4    4    0    0  0.73722915831E+02  0.59618355484E+02 -0.35221696381E+02  0.10114338597E+03  0.00000000000E+00 0. -1.
          1    1    1    2  501    0 -0.11392088254E+02  0.39017116973E+02 -0.69412459309E+02  0.80437582006E+02  0.00000000000E+00 0. -1.
<scales pt_clust_5="13000.00000" pt_clust_6="13000.00000" pt_clust_7="13000.00000" pt_clust_8="13000.00000" pt_clust_9="13000.00000"></scales>
<clustering>
<clus scale="   77.493">  5  6 -1 -1</clus>
<clus scale="   91.535">  7  8 -1 -1</clus>
<clus scale="   40.646">  7  9 -1 -1</clus>
<clus scale="  158.496">  2  5  1 -1</clus>
<clus scale="  191.025">  1  5  2 -1</clus>
</clustering>
</event>
<event>
 9    2  0.2147756E-005  0.7049942E+03  0.7546771E-02  0.1032489E+00
         21   -1    0    0  501  502  0.00000000000E+00  0.00000000000E+00  0.33447689783E+03  0.33447689783E+03  0.00000000000E+00 0. -1.
          2   -1    0    0  502    0 -0.00000000000E+00 -0.00000000000E+00 -0.74730876037E+03  0.74730876037E+03  0.00000000000E+00 0. -1.
         24    2    1    2    0    0  0.62252470213E+02  0.49091252172E+01 -0.36084862132E+03  0.37487758531E+03  0.80137425100E+02 0.  0.
         23    2    1    2    0    0  0.27149713116E+03  0.14052682936E+03 -0.11138430763E+03  0.33803289076E+03  0.91658547087E+02 0.  0.
        -13    1    3    3    0    0 -0.15675362230E+02 -0.12493254304E+02 -0.48376252988E+02  0.52364685021E+02  0.00000000000E+00 0.  1.
         14    1    3    3    0    0  0.77927832443E+02  0.17402379521E+02 -0.31247236834E+03  0.32251290029E+03  0.00000000000E+00 0. -1.
        -13    1    4    4    0    0  0.42375715180E+02  0.54010301707E+01 -0.48635983663E+02  0.64732768138E+02  0.00000000000E+00 0.  1.
         13    1    4    4    0    0  0.22912141598E+03  0.13512579919E+03 -0.62748323971E+02  0.27330012263E+03  0.00000000000E+00 0. -1.
          1    1    1    2  501    0 -0.33374960137E+03 -0.14543595458E+03  0.59401066420E+02  0.36887518213E+03  0.00000000000E+00 0. -1.
<scales pt_clust_5="13000.00000" pt_clust_6="13000.00000" pt_clust_7="13000.00000" pt_clust_8="13000.00000" pt_clust_9="13000.00000"></scales>
<clustering>
<clus scale="   80.137">  5  6 -1 -1</clus>
<clus scale="   91.659">  7  8 -1 -1</clus>
<clus scale="  101.595">  2  5  1 -1</clus>
<clus scale="  340.090">  7  9 -1 -1</clus>
<clus scale="  704.994">  1  5  2 -1</clus>
</clustering>
</event>
<event>
 9    2  0.2147756E-005  0.2985879E+03  0.7546771E-02  0.1130773E+00
          2   -1    0    0  502    0 -0.00000000000E+00  0.00000000000E+00  0.13143661925E+03  0.13143661925E+03  0.00000000000E+00 0. -1.
         21   -1    0    0  501  502  0.00000000000E+00 -0.00000000000E+00 -0.29463975707E+03  0.29463975707E+03  0.00000000000E+00 0. -1.
         24    2    1    2    0    0  0.22613757881E+02  0.44555334054E+02 -0.36798502292E+02  0.10183443312E+03  0.80743805707E+02 0.  0.
         23    2    1    2    0    0  0.51458812675E+02  0.38465480925E+02  0.44214319479E+02  0.12055092908E+03  0.91923978537E+02 0.  0.
        -13    1    3    3    0    0  0.26397632777E+02  0.90189762221E+01 -0.55043906758E+02  0.61709064322E+02  0.00000000000E+00 0.  1.
         14    1    3    3    0    0 -0.37838748956E+01  0.35536357832E+02  0.18245404466E+02  0.40125368800E+02  0.00000000000E+00 0. -1.
        -11    1    4    4    0    0 -0.25026378756E+02  0.93019399898E+01 -0.15972344507E+01  0.26746904103E+02  0.00000000000E+00 0.  1.
         11    1    4    4    0    0  0.76485191431E+02  0.29163540935E+02  0.45811553930E+02  0.93804024975E+02  0.00000000000E+00 0. -1.
          1    1    1    2  501    0 -0.74072570556E+02 -0.83020814979E+02 -0.17061895500E+03  0.20369101412E+03  0.00000000000E+00 0. -1.
<scales pt_clust_5="13000.00000" pt_clust_6="13000.00000" pt_clust_7="13000.00000" pt_clust_8="13000.00000" pt_clust_9="13000.00000"></scales>
<clustering>
<clus scale="   80.744">  5  6 -1 -1</clus>
<clus scale="   91.924">  7  8 -1 -1</clus>
<clus scale="   94.953">  1  5  2 -1</clus>
<clus scale="  103.210">  7  9 -1 -1</clus>
<clus scale="  298.588">  2  5  1 -1</clus>
</clustering>
</event>
<event>
 9    2  0.2147756E-005  0.3619389E+03  0.7546771E-02  0.1069508E+00
          2   -1    0    0  502    0 -0.00000000000E+00  0.00000000000E+00  0.76274006470E+03  0.76274006470E+03  0.00000000000E+00 0. -1.
         21   -1    0    0  501  502  0.00000000000E+00 -0.00000000000E+00 -0.13003568545E+03  0.13003568545E+03  0.00000000000E+00 0.  1.
         24    2    1    2    0    0 -0.19496697184E+03  0.15298943298E+03  0.20389639426E+03  0.33163754313E+03  0.83617185469E+02 0.  0.
         23    2    1    2    0    0  0.82694325105E+01  0.25405190971E+02  0.66056415510E+02  0.11586378131E+03  0.91362785346E+02 0.  0.
        -13    1    3    3    0    0 -0.18367478133E+03  0.11777320934E+03  0.14460735684E+03  0.26175989339E+03  0.00000000000E+00 0.  1.
         14    1    3    3    0    0 -0.11292190508E+02  0.35216223638E+02  0.59289037428E+02  0.69877649738E+02  0.00000000000E+00 0. -1.
        -11    1    4    4    0    0 -0.39034439198E+02 -0.81059630014E+00  0.39769841439E+02  0.55731362785E+02  0.00000000000E+00 0.  1.
         11    1    4    4    0    0  0.47303871708E+02  0.26215787271E+02  0.26286574071E+02  0.60132418521E+02  0.00000000000E+00 0. -1.
          1    1    1    2  501    0  0.18669753933E+03 -0.17839462395E+03  0.36275156947E+03  0.44527442572E+03  0.00000000000E+00 0. -1.
<scales pt_clust_5="13000.00000" pt_clust_6="13000.00000" pt_clust_7="13000.00000" pt_clust_8="13000.00000" pt_clust_9="13000.00000"></scales>
<clustering>
<clus scale="   83.617">  5  6 -1 -1</clus>
<clus scale="   91.363">  7  8 -1 -1</clus>
<clus scale="  258.226">  7  9 -1 -1</clus>
<clus scale="  261.553">  1  5  2 -1</clus>
<clus scale="  361.939">  2  5  1 -1</clus>
</clustering>
</event>
<event>
 9    2  0.2147756E-005  0.4099205E+03  0.7546771E-02  0.1094408E+00
          2   -1    0    0  502    0 -0.00000000000E+00  0.00000000000E+00  0.60216798780E+03  0.60216798780E+03  0.00000000000E+00 0. -1.
         21   -1    0    0  501  502  0.00000000000E+00 -0.00000000000E+00 -0.62372881270E+03  0.62372881270E+03  0.00000000000E+00 0. -1.
         24    2    1    2    0    0  0.43933115397E+02 -0.60952497096E+01  0.53040039888E+03  0.53836789529E+03  0.80920558863E+02 0.  0.
         23    2    1    2    0    0  0.17128976491E+03 -0.41030727187E+01 -0.28024706190E+03  0.34075307020E+03  0.90648885134E+02 0.  0.
        -13    1    3    3    0    0  0.31500696305E+02 -0.63597634911E+00  0.59981468520E+02  0.67753043470E+02  0.00000000000E+00 0.  1.
         14    1    3    3    0    0  0.12432419092E+02 -0.54592733605E+01  0.47041893036E+03  0.47061485182E+03  0.00000000000E+00 0. -1.
        -13    1    4    4    0    0  0.10692847073E+03 -0.44196471441E+02 -0.19427172920E+03  0.22611618851E+03  0.00000000000E+00 0. -1.
         13    1    4    4    0    0  0.64361294180E+02  0.40093398722E+02 -0.85975332700E+02  0.11463688169E+03  0.00000000000E+00 0.  1.
          1    1    1    2  501    0 -0.21522288031E+03  0.10198322428E+02 -0.27171416188E+03  0.34677583502E+03  0.00000000000E+00 0. -1.
<scales pt_clust_5="13000.00000" pt_clust_6="13000.00000" pt_clust_7="13000.00000" pt_clust_8="13000.00000" pt_clust_9="13000.00000"></scales>
<clustering>
<clus scale="   80.921">  5  6 -1 -1</clus>
<clus scale="   90.649">  7  8 -1 -1</clus>
<clus scale="   92.279">  1  5  2 -1</clus>
<clus scale="  191.020">  7  9 -1 -1</clus>
<clus scale="  409.920">  2  5  1 -1</clus>
</clustering>
</event>
<event>
 9    2  0.2147756E-005  0.3658495E+03  0.7546771E-02  0.1083480E+00
         21   -1    0    0  501  502  0.00000000000E+00  0.00000000000E+00  0.44504801735E+03  0.44504801735E+03  0.00000000000E+00 0.  1.
         -1   -1    0    0    0  501 -0.00000000000E+00 -0.00000000000E+00 -0.22896104114E+03  0.22896104114E+03  0.00000000000E+00 0.  1.
         24    2    1    2    0    0  0.12631404296E+03 -0.87056357749E+02 -0.91494171562E+02  0.19604250266E+03  0.80792527796E+02 0.  0.
         23    2    1    2    0    0  0.77870787283E+02  0.26505564623E+01  0.29305949532E+02  0.12264575691E+03  0.90068074529E+02 0.  0.
        -11    1    3    3    0    0  0.52584645917E+02  0.74121152027E+01 -0.21718831006E+02  0.57374141024E+02  0.00000000000E+00 0.  1.
         12    1    3    3    0    0  0.73729397039E+02 -0.94468472952E+02 -0.69775340556E+02  0.13866836164E+03  0.00000000000E+00 0. -1.
        -11    1    4    4    0    0  0.43718449304E+02 -0.43326143636E+02  0.11059974901E+02  0.62536234111E+02  0.00000000000E+00 0. -1.
         11    1    4    4    0    0  0.34152337979E+02  0.45976700099E+02  0.18245974632E+02  0.60109522803E+02  0.00000000000E+00 0.  1.
         -2    1    1    2    0  502 -0.20418483024E+03  0.84405801287E+02  0.27827519824E+03  0.35532079892E+03  0.00000000000E+00 0.  1.
<scales pt_clust_5="13000.00000" pt_clust_6="13000.00000" pt_clust_7="13000.00000" pt_clust_8="13000.00000" pt_clust_9="13000.00000"></scales>
<clustering>
<clus scale="   80.793">  5  6 -1 -1</clus>
<clus scale="   90.068">  7  8 -1 -1</clus>
<clus scale="  173.382">  2  5  1 -1</clus>
<clus scale="  153.810">  7  9 -1 -1</clus>
<clus scale="  365.850">  1  5  2 -1</clus>
</clustering>
</event>
<event>
 9    2  0.2147756E-005  0.3500381E+03  0.7546771E-02  0.1107943E+00
          2   -1    0    0  502    0 -0.00000000000E+00  0.00000000000E+00  0.14767814838E+03  0.14767814838E+03  0.00000000000E+00 0. -1.
         21   -1    0    0  501  502  0.00000000000E+00 -0.00000000000E+00 -0.34990513633E+03  0.34990513633E+03  0.00000000000E+00 0. -1.
         24    2    1    2    0    0 -0.31231833071E+02 -0.65451113918E+02 -0.40171558391E+02  0.11185199194E+03  0.75085539803E+02 0.  0.
         23    2    1    2    0    0 -0.13421466106E+03  0.49214147099E+02 -0.36886336386E+02  0.17763640240E+03  0.98785029869E+02 0.  0.
        -13    1    3    3    0    0 -0.21259083774E+02  0.12330858510E+02 -0.20597792782E+01  0.24662550663E+02  0.00000000000E+00 0.  1.
         14    1    3    3    0    0 -0.99727492968E+01 -0.77781972428E+02 -0.38111779113E+02  0.87189441278E+02  0.00000000000E+00 0. -1.
        -11    1    4    4    0    0 -0.27741873937E+02  0.59610041313E+02 -0.23501250244E+02  0.69823186392E+02  0.00000000000E+00 0. -1.
         11    1    4    4    0    0 -0.10647278712E+03 -0.10395894214E+02 -0.13385086142E+02  0.10781321600E+03  0.00000000000E+00 0.  1.
          1    1    1    2  501    0  0.16544649413E+03  0.16236966819E+02 -0.12516909318E+03  0.20809489037E+03  0.00000000000E+00 0. -1.
<scales pt_clust_5="13000.00000" pt_clust_6="13000.00000" pt_clust_7="13000.00000" pt_clust_8="13000.00000" pt_clust_9="13000.00000"></scales>
<clustering>
<clus scale="   75.086">  5  6 -1 -1</clus>
<clus scale="   98.785">  7  8 -1 -1</clus>
<clus scale="  104.389">  1  5  2 -1</clus>
<clus scale="  154.077">  7  9 -1 -1</clus>
<clus scale="  350.038">  2  5  1 -1</clus>
</clustering>
</event>
<event>
 9    2  0.2147756E-005  0.1906663E+03  0.7546771E-02  0.1190640E+00
          2   -1    0    0  502    0 -0.00000000000E+00  0.00000000000E+00  0.12209094186E+04  0.12209094186E+04  0.00000000000E+00 0. -1.
         21   -1    0    0  501  502  0.00000000000E+00 -0.00000000000E+00 -0.16719822057E+02  0.16719822057E+02  0.00000000000E+00 0. -1.
         24    2    1    2    0    0 -0.76858209957E+01 -0.28107633853E+02  0.29193366315E+03  0.30566115286E+03  0.85757598867E+02 0.  0.
         23    2    1    2    0    0  0.26565489596E+02 -0.43937755562E+02  0.35906641005E+03  0.37378744611E+03  0.90289071527E+02 0.  0.
        -11    1    3    3    0    0  0.31227918778E+01 -0.23244716494E+02  0.13672829276E+02  0.27148018978E+02  0.00000000000E+00 0.  1.
         12    1    3    3    0    0 -0.10808612874E+02 -0.48629173592E+01  0.27826083388E+03  0.27851313389E+03  0.00000000000E+00 0. -1.
        -11    1    4    4    0    0  0.42829901888E+02  0.12750069796E+02  0.14326859988E+03  0.15007616895E+03  0.00000000000E+00 0.  1.
         11    1    4    4    0    0 -0.16264412292E+02 -0.56687825358E+02  0.21579781017E+03  0.22371127715E+03  0.00000000000E+00 0. -1.
          1    1    1    2  501    0 -0.18879668601E+02  0.72045389415E+02  0.55318952330E+03  0.55818064165E+03  0.00000000000E+00 0. -1.
<scales pt_clust_5="13000.00000" pt_clust_6="13000.00000" pt_clust_7="13000.00000" pt_clust_8="13000.00000" pt_clust_9="13000.00000"></scales>
<clustering>
<clus scale="   85.758">  5  6 -1 -1</clus>
<clus scale="   90.289">  7  8 -1 -1</clus>
<clus scale="   74.478">  7  9 -1 -1</clus>
<clus scale="   90.573">  1  5  2 -1</clus>
<clus scale="  190.666">  2  5  1 -1</clus>
</clustering>
</event>
<event>
 9    2  0.2147756E-005  0.1544389E+03  0.7546771E-02  0.1217699E+00
         21   -1    0    0  501  502  0.00000000000E+00  0.00000000000E+00  0.27340742279E+02  0.27340742279E+02  0.00000000000E+00 0.  1.
          2   -1    0    0  502    0 -0.00000000000E+00 -0.00000000000E+00 -0.73067174010E+03  0.73067174010E+03  0.00000000000E+00 0. -1.
         24    2    1    2    0    0 -0.48792719907E+02 -0.56651950805E+01 -0.46062963580E+03  0.47034024737E+03  0.81409231465E+02 0.  0.
         23    2    1    2    0    0  0.50361579524E+02  0.28379643319E+02 -0.14157635188E+03  0.18401571011E+03  0.10235343329E+03 0.  0.
        -13    1    3    3    0    0 -0.51536270134E+01 -0.35057420475E+02 -0.10448041702E+03  0.11032560964E+03  0.00000000000E+00 0.  1.
         14    1    3    3    0    0 -0.43639092893E+02  0.29392225395E+02 -0.35614921879E+03  0.36001463773E+03  0.00000000000E+00 0. -1.
        -13    1    4    4    0    0  0.81005588031E+02  0.17170587938E+02 -0.11617114113E+03  0.14266207770E+03  0.00000000000E+00 0. -1.
         13    1    4    4    0    0 -0.30644008507E+02  0.11209055381E+02 -0.25405210760E+02  0.41353632412E+02  0.00000000000E+00 0.  1.
          1    1    1    2  501    0 -0.15688596172E+01 -0.22714448239E+02 -0.10112501013E+03  0.10365652489E+03  0.00000000000E+00 0. -1.
<scales pt_clust_5="13000.00000" pt_clust_6="13000.00000" pt_clust_7="13000.00000" pt_clust_8="13000.00000" pt_clust_9="13000.00000"></scales>
<clustering>
<clus scale="   81.409">  5  6 -1 -1</clus>
<clus scale="   95.080">  2  5  1 -1</clus>
<clus scale="  102.353">  7  8 -1 -1</clus>
<clus scale="   32.196">  7  9 -1 -1</clus>
<clus scale="  154.439">  1  5  2 -1</clus>
</clustering>
</event>
<event>
 9    2  0.2147756E-005  0.2406652E+03  0.7546771E-02  0.1157931E+00
         21   -1    0    0  501  502  0.00000000000E+00  0.00000000000E+00  0.15628039139E+03  0.15628039139E+03  0.00000000000E+00 0. -1.
          2   -1    0    0  502    0 -0.00000000000E+00 -0.00000000000E+00 -0.24520782733E+03  0.24520782733E+03  0.00000000000E+00 0. -1.
         24    2    1    2    0    0 -0.38527663435E+02  0.12627473129E+02 -0.12640986019E+03  0.15792161452E+03  0.85533324807E+02 0.  0.
         23    2    1    2    0    0  0.44190977329E+01 -0.10249653287E+03  0.52728585254E+02  0.14624092629E+03  0.89894589071E+02 0.  0.
        -11    1    3    3    0    0  0.18631350972E+02 -0.12634135097E+02 -0.70718100477E+02  0.74214542670E+02  0.00000000000E+00 0.  1.
         12    1    3    3    0    0 -0.57159014407E+02  0.25261608226E+02 -0.55691759718E+02  0.83707071855E+02  0.00000000000E+00 0. -1.
        -13    1    4    4    0    0  0.35873264835E+02 -0.34702819708E+02 -0.72221715600E+01  0.50431503920E+02  0.00000000000E+00 0.  1.
         13    1    4    4    0    0 -0.31454167102E+02 -0.67793713167E+02  0.59950756814E+02  0.95809422373E+02  0.00000000000E+00 0. -1.
          1    1    1    2  501    0  0.34108565702E+02  0.89869059746E+02 -0.15246161000E+02  0.97325677902E+02  0.00000000000E+00 0. -1.
<scales pt_clust_5="13000.00000" pt_clust_6="13000.00000" pt_clust_7="13000.00000" pt_clust_8="13000.00000" pt_clust_9="13000.00000"></scales>
<clustering>
<clus scale="   85.533">  5  6 -1 -1</clus>
<clus scale="   89.895">  7  8 -1 -1</clus>
<clus scale="   94.656">  2  5  1 -1</clus>
<clus scale="   97.645">  7  9 -1 -1</clus>
<clus scale="  240.665">  1  5  2 -1</clus>
</clustering>
</event>
<event>
 9    2  0.2147756E-005  0.3802159E+03  0.7546771E-02  0.1106234E+00
         21   -1    0    0  501  502  0.00000000000E+00  0.00000000000E+00  0.73921750092E+02  0.73921750092E+02  0.00000000000E+00 0. -1.
          2   -1    0    0  502    0 -0.00000000000E+00 -0.00000000000E+00 -0.80717750861E+03  0.80717750861E+03  0.00000000000E+00 0. -1.
         24    2    1    2    0    0 -0.23655622022E+02 -0.41371046716E+01 -0.48720218798E+02  0.98058379797E+02  0.81639953702E+02 0.  0.
         23    2    1    2    0    0  0.15826065853E+03 -0.57910384267E+02 -0.20278704717E+03  0.27900713319E+03  0.91226888741E+02 0.  0.
        -11    1    3    3    0    0  0.84896737372E+01 -0.36069246083E+02 -0.98032807766E+01  0.38329745462E+02  0.00000000000E+00 0.  1.
         12    1    3    3    0    0 -0.32145295759E+02  0.31932141412E+02 -0.38916938022E+02  0.59728634335E+02  0.00000000000E+00 0. -1.
        -13    1    4    4    0    0  0.43739368141E+02 -0.59150603433E+02 -0.10618290742E+03  0.12917714983E+03  0.00000000000E+00 0.  1.
         13    1    4    4    0    0  0.11452129039E+03  0.12402191665E+01 -0.96604139750E+02  0.14982998336E+03  0.00000000000E+00 0. -1.
          1    1    1    2  501    0 -0.13460503651E+03  0.62047488938E+02 -0.48174849255E+03  0.50403374571E+03  0.00000000000E+00 0. -1.
<scales pt_clust_5="13000.00000" pt_clust_6="13000.00000" pt_clust_7="13000.00000" pt_clust_8="13000.00000" pt_clust_9="13000.00000"></scales>
<clustering>
<clus scale="   81.640">  5  6 -1 -1</clus>
<clus scale="   85.099">  2  5  1 -1</clus>
<clus scale="   91.227">  7  8 -1 -1</clus>
<clus scale="  161.745">  7  9 -1 -1</clus>
<clus scale="  380.216">  1  5  2 -1</clus>
</clustering>
</event>
<event>
 9    2  0.2147756E-005  0.4299106E+03  0.7546771E-02  0.1062576E+00
          2   -1    0    0  502    0 -0.00000000000E+00  0.00000000000E+00  0.95557953616E+03  0.95557953616E+03  0.00000000000E+00 0. -1.
         21   -1    0    0  501  502  0.00000000000E+00 -0.00000000000E+00 -0.10097201741E+03  0.10097201741E+03  0.00000000000E+00 0. -1.
         24    2    1    2    0    0  0.30346234809E+02  0.16801218493E+03  0.22062975605E+03  0.29055488026E+03  0.81213674542E+02 0.  0.
         23    2    1    2    0    0 -0.32594154368E+02  0.10637075182E+03  0.11177624813E+03  0.17609373984E+03  0.78345132720E+02 0.  0.
        -11    1    3    3    0    0 -0.13615930328E+02  0.50645931795E+02  0.11595276222E+03  0.12726133361E+03  0.00000000000E+00 0.  1.
         12    1    3    3    0    0  0.43962165137E+02  0.11736625313E+03  0.10467699384E+03  0.16329354665E+03  0.00000000000E+00 0. -1.
        -13    1    4    4    0    0 -0.25851954740E+01  0.82816677283E+02  0.11025017099E+03  0.13791441359E+03  0.00000000000E+00 0. -1.
         13    1    4    4    0    0 -0.30008958894E+02  0.23554074539E+02  0.15260771410E+01  0.38179326248E+02  0.00000000000E+00 0.  1.
          1    1    1    2  501    0  0.22479195585E+01 -0.27438293675E+03  0.52220151456E+03  0.58990293348E+03  0.00000000000E+00 0. -1.
<scales pt_clust_5="13000.00000" pt_clust_6="13000.00000" pt_clust_7="13000.00000" pt_clust_8="13000.00000" pt_clust_9="13000.00000"></scales>
<clustering>
<clus scale="   78.345">  7  8 -1 -1</clus>
<clus scale="   81.214">  5  6 -1 -1</clus>
<clus scale="  189.063">  1  5  2 -1</clus>
<clus scale="  143.362">  7  9 -1 -1</clus>
<clus scale="  429.911">  2  5  1 -1</clus>
</clustering>
</event>
<event>
 9    2  0.2147756E-005  0.3353823E+03  0.7546771E-02  0.1117824E+00
         -1   -1    0    0    0  501 -0.00000000000E+00  0.00000000000E+00  0.19596698276E+03  0.19596698276E+03  0.00000000000E+00 0.  1.
         21   -1    0    0  501  502  0.00000000000E+00 -0.00000000000E+00 -0.31649423582E+03  0.31649423582E+03  0.00000000000E+00 0.  1.
         24    2    1    2    0    0  0.20743272543E+02 -0.50830466064E+02  0.79558620421E+02  0.12192871305E+03  0.74317005771E+02 0.  0.
         23    2    1    2    0    0  0.37228000954E+01  0.11279969387E+02  0.70295269948E+02  0.11618091866E+03  0.91735946794E+02 0.  0.
        -13    1    3    3    0    0  0.47965300594E+02 -0.34787532563E+02  0.40889615285E+02  0.71991687861E+02  0.00000000000E+00 0.  1.
         14    1    3    3    0    0 -0.27222028051E+02 -0.16042933501E+02  0.38669005136E+02  0.49937025189E+02  0.00000000000E+00 0. -1.
        -11    1    4    4    0    0 -0.30000419801E+02 -0.57863894093E+01  0.72136718383E+02  0.78340370370E+02  0.00000000000E+00 0.  1.
         11    1    4    4    0    0  0.33723219897E+02  0.17066358796E+02 -0.18414484345E+01  0.37840548293E+02  0.00000000000E+00 0. -1.
         -2    1    1    2    0  502 -0.24466072639E+02  0.39550496677E+02 -0.27038114343E+03  0.27435158687E+03  0.00000000000E+00 0.  1.
<scales pt_clust_5="13000.00000" pt_clust_6="13000.00000" pt_clust_7="13000.00000" pt_clust_8="13000.00000" pt_clust_9="13000.00000"></scales>
<clustering>
<clus scale="   74.317">  5  6 -1 -1</clus>
<clus scale="   91.736">  7  8 -1 -1</clus>
<clus scale="   46.506">  7  9 -1 -1</clus>
<clus scale="   92.396">  1  5  2 -1</clus>
<clus scale="  335.382">  2  5  1 -1</clus>
</clustering>
</event>
<event>
 9    2  0.2147756E-005  0.1910034E+03  0.7546771E-02  0.1184654E+00
         21   -1    0    0  501  502  0.00000000000E+00  0.00000000000E+00  0.50615969927E+02  0.50615969927E+02  0.00000000000E+00 0. -1.
          2   -1    0    0  502    0 -0.00000000000E+00 -0.00000000000E+00 -0.44618443522E+03  0.44618443522E+03  0.00000000000E+00 0. -1.
         24    2    1    2    0    0  0.27655420172E+02 -0.57758747269E+02 -0.19082814966E+03  0.21679877379E+03  0.80532170360E+02 0.  0.
         23    2    1    2    0    0  0.32675019818E+02  0.40027129987E+01 -0.60658830507E+02  0.11480796451E+03  0.91748004694E+02 0.  0.
        -11    1    3    3    0    0 -0.28646539454E+02 -0.22852733725E+02 -0.68115599619E+02  0.77347311348E+02  0.00000000000E+00 0.  1.
         12    1    3    3    0    0  0.56301959626E+02 -0.34906013545E+02 -0.12271255004E+03  0.13945146244E+03  0.00000000000E+00 0. -1.
        -11    1    4    4    0    0  0.15533767274E+02 -0.42277930835E+02 -0.43333894670E+02  0.62502382264E+02  0.00000000000E+00 0.  1.
         11    1    4    4    0    0  0.17141252544E+02  0.46280643834E+02 -0.17324935837E+02  0.52305582247E+02  0.00000000000E+00 0. -1.
          1    1    1    2  501    0 -0.60330439990E+02  0.53756034271E+02 -0.14408148513E+03  0.16519366685E+03  0.00000000000E+00 0. -1.
<scales pt_clust_5="13000.00000" pt_clust_6="13000.00000" pt_clust_7="13000.00000" pt_clust_8="13000.00000" pt_clust_9="13000.00000"></scales>
<clustering>
<clus scale="   80.532">  5  6 -1 -1</clus>
<clus scale="   91.748">  7  8 -1 -1</clus>
<clus scale="   80.805">  7  9 -1 -1</clus>
<clus scale="  102.890">  2  5  1 -1</clus>
<clus scale="  191.003">  1  5  2 -1</clus>
</clustering>
</event>
<event>
 9    2  0.2147756E-005  0.2570373E+03  0.7546771E-02  0.1150486E+00
         21   -1    0    0  501  502  0.00000000000E+00  0.00000000000E+00  0.35310650869E+02  0.35310650869E+02  0.00000000000E+00 0. -1.
          2   -1    0    0  502    0 -0.00000000000E+00 -0.00000000000E+00 -0.88502373504E+03  0.88502373504E+03  0.00000000000E+00 0. -1.
         24    2    1    2    0    0  0.30265842504E+02 -0.30797011500E+02 -0.16866141081E+03  0.19239236850E+03  0.81875972185E+02 0.  0.
         23    2    1    2    0    0  0.83694095627E+02  0.56304918556E+02 -0.29775785955E+03  0.32725302514E+03  0.90883739144E+02 0.  0.
        -11    1    3    3    0    0  0.67837137197E+01 -0.19164328381E+02  0.13488999094E+01  0.20374243178E+02  0.00000000000E+00 0.  1.
         12    1    3    3    0    0  0.23482128785E+02 -0.11632683119E+02 -0.17001031072E+03  0.17201812532E+03  0.00000000000E+00 0. -1.
        -11    1    4    4    0    0  0.91684742339E+01  0.37964039610E+02 -0.31563678286E+02  0.50215485761E+02  0.00000000000E+00 0. -1.
         11    1    4    4    0    0  0.74525621393E+02  0.18340878947E+02 -0.26619418126E+03  0.27703753938E+03  0.00000000000E+00 0.  1.
          1    1    1    2  501    0 -0.11395993813E+03 -0.25507907056E+02 -0.38329381381E+03  0.40068899227E+03  0.00000000000E+00 0. -1.
<scales pt_clust_5="13000.00000" pt_clust_6="13000.00000" pt_clust_7="13000.00000" pt_clust_8="13000.00000" pt_clust_9="13000.00000"></scales>
<clustering>
<clus scale="   81.876">  5  6 -1 -1</clus>
<clus scale="   90.884">  7  8 -1 -1</clus>
<clus scale="   92.564">  2  5  1 -1</clus>
<clus scale="  106.069">  7  9 -1 -1</clus>
<clus scale="  257.037">  1  5  2 -1</clus>
</clustering>
</event>
<event>
 9    2  0.2147756E-005  0.4228652E+03  0.7546771E-02  0.1065706E+00
         -3   -1    0    0    0  501 -0.00000000000E+00  0.00000000000E+00  0.11078129089E+04  0.11078129089E+04  0.00000000000E+00 0.  1.
         21   -1    0    0  501  502  0.00000000000E+00 -0.00000000000E+00 -0.93098420942E+02  0.93098420942E+02  0.00000000000E+00 0.  1.
         24    2    1    2    0    0  0.78618214872E+01 -0.16371933893E+03  0.14131620974E+03  0.23053022389E+03  0.79423439967E+02 0.  0.
         23    2    1    2    0    0  0.13275583026E+02 -0.11295543606E+03  0.28339904823E+03  0.31838815172E+03  0.90115608964E+02 0.  0.
        -11    1    3    3    0    0 -0.31700196048E+02 -0.92137860366E+02  0.97085183737E+02  0.13754933894E+03  0.00000000000E+00 0.  1.
         12    1    3    3    0    0  0.39562017535E+02 -0.71581478563E+02  0.44231025999E+02  0.92980884947E+02  0.00000000000E+00 0. -1.
        -11    1    4    4    0    0  0.15725880148E+02 -0.60337231325E+02  0.52363235614E+02  0.81423542262E+02  0.00000000000E+00 0.  1.
         11    1    4    4    0    0 -0.24502971225E+01 -0.52618204732E+02  0.23103581261E+03  0.23696460946E+03  0.00000000000E+00 0. -1.
         -4    1    1    2    0  502 -0.21137404513E+02  0.27667477499E+03  0.58999923004E+03  0.65199295428E+03  0.00000000000E+00 0.  1.
<scales pt_clust_5="13000.00000" pt_clust_6="13000.00000" pt_clust_7="13000.00000" pt_clust_8="13000.00000" pt_clust_9="13000.00000"></scales>
<clustering>
<clus scale="   79.423">  5  6 -1 -1</clus>
<clus scale="   90.116">  7  8 -1 -1</clus>
<clus scale="  182.137">  1  5  2 -1</clus>
<clus scale="  167.144">  7  9 -1 -1</clus>
<clus scale="  422.865">  2  5  1 -1</clus>
</clustering>
</event>
<event>
 9    2  0.2147756E-005  0.1685795E+03  0.7546771E-02  0.1197175E+00
          2   -1    0    0  502    0 -0.00000000000E+00  0.00000000000E+00  0.59423775510E+03  0.59423775510E+03  0.00000000000E+00 0. -1.
         21   -1    0    0  501  502  0.00000000000E+00 -0.00000000000E+00 -0.43163336360E+02  0.43163336360E+02  0.00000000000E+00 0.  1.
         24    2    1    2    0    0  0.58767956697E+02  0.31804287482E+02  0.85149335676E+02  0.14191624433E+03  0.91785759255E+02 0.  0.
         23    2    1    2    0    0  0.19377235096E+02 -0.19836318263E+02  0.26109834742E+03  0.27593099286E+03  0.84832829947E+02 0.  0.
        -13    1    3    3    0    0  0.44904737193E+02  0.50387993524E+02  0.16533420836E+02  0.69489130936E+02  0.00000000000E+00 0.  1.
         14    1    3    3    0    0  0.13863219504E+02 -0.18583706042E+02  0.68615914840E+02  0.72427113394E+02  0.00000000000E+00 0. -1.
        -13    1    4    4    0    0 -0.33819321787E+02 -0.79086270827E+01  0.10099674716E+03  0.10680185319E+03  0.00000000000E+00 0.  1.
         13    1    4    4    0    0  0.53196556883E+02 -0.11927691180E+02  0.16010160026E+03  0.16912913967E+03  0.00000000000E+00 0. -1.
          1    1    1    2  501    0 -0.78145191793E+02 -0.11967969219E+02  0.20482673565E+03  0.21955385427E+03  0.00000000000E+00 0. -1.
<scales pt_clust_5="13000.00000" pt_clust_6="13000.00000" pt_clust_7="13000.00000" pt_clust_8="13000.00000" pt_clust_9="13000.00000"></scales>
<clustering>
<clus scale="   84.833">  7  8 -1 -1</clus>
<clus scale="   79.056">  7  9 -1 -1</clus>
<clus scale="   91.786">  5  6 -1 -1</clus>
<clus scale="  113.533">  1  5  2 -1</clus>
<clus scale="  168.580">  2  5  1 -1</clus>
</clustering>
</event>
<event>
 9    2  0.2147756E-005  0.2763053E+03  0.7546771E-02  0.1133604E+00
         21   -1    0    0  501  502  0.00000000000E+00  0.00000000000E+00  0.13007219507E+03  0.13007219507E+03  0.00000000000E+00 0.  1.
         -1   -1    0    0    0  501 -0.00000000000E+00 -0.00000000000E+00 -0.46246975245E+03  0.46246975245E+03  0.00000000000E+00 0.  1.
         24    2    1    2    0    0  0.29296603896E+02  0.72776076492E+02  0.48587493219E+02  0.12191022077E+03  0.79666235769E+02 0.  0.
         23    2    1    2    0    0  0.38585708025E+02  0.41314681271E+02 -0.57113426370E+02  0.12060667298E+03  0.89934789400E+02 0.  0.
        -11    1    3    3    0    0  0.55173077885E+02  0.35397577416E+02  0.35770558649E+02  0.74676568455E+02  0.00000000000E+00 0.  1.
         12    1    3    3    0    0 -0.25876473989E+02  0.37378499077E+02  0.12816934570E+02  0.47233652316E+02  0.00000000000E+00 0. -1.
        -13    1    4    4    0    0  0.30640123036E+02  0.69621416654E+02 -0.47480677810E+02  0.89668130135E+02  0.00000000000E+00 0. -1.
         13    1    4    4    0    0  0.79455849886E+01 -0.28306735383E+02 -0.96327485604E+01  0.30938542850E+02  0.00000000000E+00 0.  1.
         -2    1    1    2    0  502 -0.67882311921E+02 -0.11409075776E+03 -0.32387162424E+03  0.35002505377E+03  0.00000000000E+00 0.  1.
<scales pt_clust_5="13000.00000" pt_clust_6="13000.00000" pt_clust_7="13000.00000" pt_clust_8="13000.00000" pt_clust_9="13000.00000"></scales>
<clustering>
<clus scale="   79.666">  5  6 -1 -1</clus>
<clus scale="   89.935">  7  8 -1 -1</clus>
<clus scale="  111.810">  2  5  1 -1</clus>
<clus scale="   72.045">  7  9 -1 -1</clus>
<clus scale="  276.305">  1  5  2 -1</clus>
</clustering>
</event>
<event>
 9    2  0.2147756E-005  0.2205688E+03  0.7546771E-02  0.1175206E+00
          2   -1    0    0  502    0 -0.00000000000E+00  0.00000000000E+00  0.44890056315E+03  0.44890056315E+03  0.00000000000E+00 0. -1.
         21   -1    0    0  501  502  0.00000000000E+00 -0.00000000000E+00 -0.55189170701E+02  0.55189170701E+02  0.00000000000E+00 0. -1.
         24    2    1    2    0    0  0.19537512233E+02 -0.10784061591E+02  0.17472044098E+03  0.19327203185E+03  0.79553978096E+02 0.  0.
         23    2    1    2    0    0 -0.80458666172E+02 -0.24402374531E+02  0.65958837107E+02  0.14238878432E+03  0.94100610324E+02 0.  0.
        -13    1    3    3    0    0  0.43569431429E+02  0.10808786931E+02  0.13383323091E+03  0.14116110982E+03  0.00000000000E+00 0.  1.
         14    1    3    3    0    0 -0.24031919197E+02 -0.21592848522E+02  0.40887210072E+02  0.52110922032E+02  0.00000000000E+00 0. -1.
        -11    1    4    4    0    0 -0.23880172919E+02 -0.30895283367E+02  0.75162016468E+02  0.84700117547E+02  0.00000000000E+00 0.  1.
         11    1    4    4    0    0 -0.56578493253E+02  0.64929088357E+01 -0.92031793611E+01  0.57688666775E+02  0.00000000000E+00 0. -1.
          1    1    1    2  501    0  0.60921153939E+02  0.35186436121E+02  0.15303211436E+03  0.16842891768E+03  0.00000000000E+00 0. -1.
<scales pt_clust_5="13000.00000" pt_clust_6="13000.00000" pt_clust_7="13000.00000" pt_clust_8="13000.00000" pt_clust_9="13000.00000"></scales>
<clustering>
<clus scale="   79.554">  5  6 -1 -1</clus>
<clus scale="   82.625">  1  5  2 -1</clus>
<clus scale="   94.101">  7  8 -1 -1</clus>
<clus scale="   78.209">  7  9 -1 -1</clus>
<clus scale="  220.569">  2  5  1 -1</clus>
</clustering>
</event>
<event>
 9    2  0.2147756E-005  0.1671863E+03  0.7546771E-02  0.1213109E+00
         21   -1    0    0  501  502  0.00000000000E+00  0.00000000000E+00  0.30093032789E+02  0.30093032789E+02  0.00000000000E+00 0.  1.
          2   -1    0    0  502    0 -0.00000000000E+00 -0.00000000000E+00 -0.52163478634E+03  0.52163478634E+03  0.00000000000E+00 0. -1.
         24    2    1    2    0    0  0.16038953471E+02  0.17210420935E+02 -0.18382167475E+03  0.20152372106E+03  0.79170420140E+02 0.  0.
         23    2    1    2    0    0  0.17864373650E+02  0.34763848403E+02 -0.13730709578E+03  0.16884438632E+03  0.90152799392E+02 0.  0.
        -13    1    3    3    0    0  0.25422983237E+02  0.18712163809E+02 -0.18836384412E+03  0.19099060428E+03  0.00000000000E+00 0.  1.
         14    1    3    3    0    0 -0.93840297661E+01 -0.15017428732E+01  0.45421693788E+01  0.10533116774E+02  0.00000000000E+00 0. -1.
        -11    1    4    4    0    0  0.10020143614E+02 -0.20414256996E+02 -0.98102324306E+02  0.10070358087E+03  0.00000000000E+00 0. -1.
         11    1    4    4    0    0  0.78442300365E+01  0.55178105398E+02 -0.39204771471E+02  0.68140805442E+02  0.00000000000E+00 0.  1.
          1    1    1    2  501    0 -0.33903327121E+02 -0.51974269338E+02 -0.17041298303E+03  0.18135971175E+03  0.00000000000E+00 0. -1.
<scales pt_clust_5="13000.00000" pt_clust_6="13000.00000" pt_clust_7="13000.00000" pt_clust_8="13000.00000" pt_clust_9="13000.00000"></scales>
<clustering>
<clus scale="   79.170">  5  6 -1 -1</clus>
<clus scale="   82.592">  2  5  1 -1</clus>
<clus scale="   90.153">  7  8 -1 -1</clus>
<clus scale="   49.709">  7  9 -1 -1</clus>
<clus scale="  167.186">  1  5  2 -1</clus>
</clustering>
</event>
<event>
 9    2  0.2147756E-005  0.1862580E+03  0.7546771E-02  0.1175625E+00
         21   -1    0    0  501  502  0.00000000000E+00  0.00000000000E+00  0.28045507834E+02  0.28045507834E+02  0.00000000000E+00 0. -1.
          2   -1    0    0  502    0 -0.00000000000E+00 -0.00000000000E+00 -0.10152445372E+04  0.10152445372E+04  0.00000000000E+00 0. -1.
         24    2    1    2    0    0 -0.10932661599E+03 -0.43917228770E+01 -0.26974654105E+03  0.30205452212E+03  0.80635858847E+02 0.  0.
         23    2    1    2    0    0  0.18168423870E+02  0.14841726421E+02 -0.33829049801E+03  0.35112934062E+03  0.91109737869E+02 0.  0.
        -13    1    3    3    0    0 -0.11284444343E+02 -0.31481195297E+02 -0.53714916962E+02  0.63274771004E+02  0.00000000000E+00 0.  1.
         14    1    3    3    0    0 -0.98042171651E+02  0.27089472420E+02 -0.21603162409E+03  0.23877975112E+03  0.00000000000E+00 0. -1.
        -11    1    4    4    0    0 -0.24822624286E+02 -0.23824516726E+02 -0.16147099216E+03  0.16509588603E+03  0.00000000000E+00 0.  1.
         11    1    4    4    0    0  0.42991048156E+02  0.38666243148E+02 -0.17681950585E+03  0.18603345459E+03  0.00000000000E+00 0. -1.
          1    1    1    2  501    0  0.91158192124E+02 -0.10450003544E+02 -0.37916199033E+03  0.39010618231E+03  0.00000000000E+00 0. -1.
<scales pt_clust_5="13000.00000" pt_clust_6="13000.00000" pt_clust_7="13000.00000" pt_clust_8="13000.00000" pt_clust_9="13000.00000"></scales>
<clustering>
<clus scale="   80.636">  5  6 -1 -1</clus>
<clus scale="   91.110">  7  8 -1 -1</clus>
<clus scale="   91.755">  7  9 -1 -1</clus>
<clus scale="  135.918">  2  5  1 -1</clus>
<clus scale="  186.258">  1  5  2 -1</clus>
</clustering>
</event>
<event>
 9    2  0.2147756E-005  0.2633197E+03  0.7546771E-02  0.1144820E+00
          2   -1    0    0  502    0 -0.00000000000E+00  0.00000000000E+00  0.93201186060E+02  0.93201186060E+02  0.00000000000E+00 0. -1.
         21   -1    0    0  501  502  0.00000000000E+00 -0.00000000000E+00 -0.42620109018E+03  0.42620109018E+03  0.00000000000E+00 0. -1.
         24    2    1    2    0    0 -0.14611572759E+02 -0.54692112997E+02 -0.48163939178E+01  0.98639082730E+02  0.80633403182E+02 0.  0.
         23    2    1    2    0    0 -0.39118699244E+02 -0.71851065133E+02 -0.19471383091E+03  0.22915350338E+03  0.88910089258E+02 0.  0.
        -13    1    3    3    0    0  0.20531691571E+02  0.10970338482E+02 -0.64147814599E+01  0.24146389096E+02  0.00000000000E+00 0.  1.
         14    1    3    3    0    0 -0.35143264330E+02 -0.65662451480E+02  0.15983875421E+01  0.74492693634E+02  0.00000000000E+00 0. -1.
        -13    1    4    4    0    0 -0.24284776375E+02  0.13833777204E+02 -0.83030135172E+02  0.87607802746E+02  0.00000000000E+00 0.  1.
         13    1    4    4    0    0 -0.14833922869E+02 -0.85684842337E+02 -0.11168369574E+03  0.14154570063E+03  0.00000000000E+00 0. -1.
          1    1    1    2  501    0  0.53730272003E+02  0.12654317813E+03 -0.13346967929E+03  0.19160969012E+03  0.00000000000E+00 0. -1.
<scales pt_clust_5="13000.00000" pt_clust_6="13000.00000" pt_clust_7="13000.00000" pt_clust_8="13000.00000" pt_clust_9="13000.00000"></scales>
<clustering>
<clus scale="   80.633">  5  6 -1 -1</clus>
<clus scale="   88.910">  7  8 -1 -1</clus>
<clus scale="   98.521">  1  5  2 -1</clus>
<clus scale="  102.398">  7  9 -1 -1</clus>
<clus scale="  263.320">  2  5  1 -1</clus>
</clustering>
</event>
<event>
 9    2  0.2147756E-005  0.2454507E+03  0.7546771E-02  0.1124029E+00
          2   -1    0    0  502    0 -0.00000000000E+00  0.00000000000E+00  0.97431836362E+03  0.97431836362E+03  0.00000000000E+00 0. -1.
         21   -1    0    0  501  502  0.00000000000E+00 -0.00000000000E+00 -0.57124447864E+02  0.57124447864E+02  0.00000000000E+00 0. -1.
         24    2    1    2    0    0 -0.15765178511E+03 -0.10678832178E+03  0.58177694451E+03  0.61581002414E+03  0.67080113638E+02 0.  0.
         23    2    1    2    0    0  0.60200452039E+02  0.36342974920E+02  0.22555023586E+03  0.25275243631E+03  0.89810795071E+02 0.  0.
        -13    1    3    3    0    0 -0.72316847482E+02 -0.27460291951E+02  0.15242699207E+03  0.17093209756E+03  0.00000000000E+00 0.  1.
         14    1    3    3    0    0 -0.85334937627E+02 -0.79328029827E+02  0.42934995244E+03  0.44487792658E+03  0.00000000000E+00 0. -1.
        -13    1    4    4    0    0  0.40602327486E+02  0.53306832892E+02  0.21423499798E+03  0.22447004653E+03  0.00000000000E+00 0.  1.
         13    1    4    4    0    0  0.19598124553E+02 -0.16963857972E+02  0.11315237884E+02  0.28282389780E+02  0.00000000000E+00 0. -1.
          1    1    1    2  501    0  0.97451333069E+02  0.70445346858E+02  0.10986673538E+03  0.16288035104E+03  0.00000000000E+00 0. -1.
<scales pt_clust_5="13000.00000" pt_clust_6="13000.00000" pt_clust_7="13000.00000" pt_clust_8="13000.00000" pt_clust_9="13000.00000"></scales>
<clustering>
<clus scale="   67.080">  5  6 -1 -1</clus>
<clus scale="   89.811">  7  8 -1 -1</clus>
<clus scale="  120.247">  7  9 -1 -1</clus>
<clus scale="  201.885">  1  5  2 -1</clus>
<clus scale="  245.451">  2  5  1 -1</clus>
</clustering>
</event>
<event>
 9    2  0.2147756E-005  0.3102517E+03  0.7546771E-02  0.1092411E+00
          2   -1    0    0  502    0 -0.00000000000E+00  0.00000000000E+00  0.47810934611E+03  0.47810934611E+03  0.00000000000E+00 0. -1.
         21   -1    0    0  501  502  0.00000000000E+00 -0.00000000000E+00 -0.15616726546E+03  0.15616726546E+03  0.00000000000E+00 0. -1.
         24    2    1    2    0    0  0.69861845774E+02 -0.19728988126E+03  0.71101177323E+02  0.23530635497E+03  0.80682888695E+02 0.  0.
         23    2    1    2    0    0  0.51311863393E+02  0.42816311289E+02  0.98318109650E+02  0.15035739651E+03  0.92058417121E+02 0.  0.
        -13    1    3    3    0    0  0.72160206653E+02 -0.15396523946E+03  0.84531853811E+02  0.18988950654E+03  0.00000000000E+00 0.  1.
         14    1    3    3    0    0 -0.22983608790E+01 -0.43324641799E+02 -0.13430676488E+02  0.45416848423E+02  0.00000000000E+00 0. -1.
        -13    1    4    4    0    0  0.18475425485E+02  0.18807982716E+02 -0.14739424399E+02  0.30204837234E+02  0.00000000000E+00 0.  1.
         13    1    4    4    0    0  0.32836437909E+02  0.24008328573E+02  0.11305753405E+03  0.12015255928E+03  0.00000000000E+00 0. -1.
          1    1    1    2  501    0 -0.12117370917E+03  0.15447356997E+03  0.15252279368E+03  0.24861286010E+03  0.00000000000E+00 0. -1.
<scales pt_clust_5="13000.00000" pt_clust_6="13000.00000" pt_clust_7="13000.00000" pt_clust_8="13000.00000" pt_clust_9="13000.00000"></scales>
<clustering>
<clus scale="   80.683">  5  6 -1 -1</clus>
<clus scale="   92.058">  7  8 -1 -1</clus>
<clus scale="  196.329">  7  9 -1 -1</clus>
<clus scale="  224.307">  1  5  2 -1</clus>
<clus scale="  310.252">  2  5  1 -1</clus>
</clustering>
</event>
<event>
 9    2  0.2147756E-005  0.1479452E+03  0.7546771E-02  0.1231627E+00
         21   -1    0    0  501  502  0.00000000000E+00  0.00000000000E+00  0.53364320475E+03  0.53364320475E+03  0.00000000000E+00 0. -1.
          4   -1    0    0  502    0 -0.00000000000E+00 -0.00000000000E+00 -0.25108940032E+02  0.25108940032E+02  0.00000000000E+00 0. -1.
         24    2    1    2    0    0 -0.50864908877E+00  0.10089004817E+02  0.14115484485E+03  0.16270236274E+03  0.80282762001E+02 0.  0.
         23    2    1    2    0    0  0.32413931491E+02  0.24312369098E+02  0.28384116941E+03  0.30023725226E+03  0.89077741051E+02 0.  0.
        -13    1    3    3    0    0 -0.10926698730E+02 -0.33544120013E+02  0.73470836053E+02  0.81501929321E+02  0.00000000000E+00 0.  1.
         14    1    3    3    0    0  0.10418049642E+02  0.43633124830E+02  0.67684008793E+02  0.81200433417E+02  0.00000000000E+00 0. -1.
        -11    1    4    4    0    0 -0.22644219006E+02  0.29246197520E+02  0.67766626044E+02  0.77203732612E+02  0.00000000000E+00 0.  1.
         11    1    4    4    0    0  0.55058150497E+02 -0.49338284221E+01  0.21607454336E+03  0.22303351965E+03  0.00000000000E+00 0. -1.
          3    1    1    2  501    0 -0.31905282402E+02 -0.34401373915E+02  0.83538250465E+02  0.95812529782E+02  0.00000000000E+00 0. -1.
<scales pt_clust_5="13000.00000" pt_clust_6="13000.00000" pt_clust_7="13000.00000" pt_clust_8="13000.00000" pt_clust_9="13000.00000"></scales>
<clustering>
<clus scale="   80.283">  5  6 -1 -1</clus>
<clus scale="   80.916">  2  5  1 -1</clus>
<clus scale="   89.078">  7  8 -1 -1</clus>
<clus scale="   44.009">  7  9 -1 -1</clus>
<clus scale="  147.945">  1  5  2 -1</clus>
</clustering>
</event>
<event>
 9    2  0.2147756E-005  0.3650098E+03  0.7546771E-02  0.1094766E+00
         -3   -1    0    0    0  501 -0.00000000000E+00  0.00000000000E+00  0.10305134729E+04  0.10305134729E+04  0.00000000000E+00 0.  1.
         21   -1    0    0  501  502  0.00000000000E+00 -0.00000000000E+00 -0.60111566761E+02  0.60111566761E+02  0.00000000000E+00 0.  1.
         24    2    1    2    0    0  0.68868895171E+02 -0.74645176100E+02  0.20204197381E+03  0.23997284019E+03  0.80319224442E+02 0.  0.
         23    2    1    2    0    0  0.49144918388E+02 -0.88576932140E+02  0.45594888059E+03  0.47894077637E+03  0.10598957332E+03 0.  0.
        -13    1    3    3    0    0  0.55578947744E+02 -0.34557529367E+02  0.18163829678E+03  0.19306919258E+03  0.00000000000E+00 0.  1.
         14    1    3    3    0    0  0.13289947427E+02 -0.40087646733E+02  0.20403677030E+02  0.46903647614E+02  0.00000000000E+00 0. -1.
        -11    1    4    4    0    0  0.53129480513E+02 -0.54570660378E+02  0.42805474169E+03  0.43477759896E+03  0.00000000000E+00 0.  1.
         11    1    4    4    0    0 -0.39845621248E+01 -0.34006271762E+02  0.27894138897E+02  0.44163177414E+02  0.00000000000E+00 0. -1.
         -4    1    1    2    0  502 -0.11801381356E+03  0.16322210824E+03  0.31241105178E+03  0.37171142313E+03  0.00000000000E+00 0.  1.
<scales pt_clust_5="13000.00000" pt_clust_6="13000.00000" pt_clust_7="13000.00000" pt_clust_8="13000.00000" pt_clust_9="13000.00000"></scales>
<clustering>
<clus scale="   80.319">  5  6 -1 -1</clus>
<clus scale="  105.990">  7  8 -1 -1</clus>
<clus scale="  129.484">  1  5  2 -1</clus>
<clus scale="  158.888">  7  9 -1 -1</clus>
<clus scale="  365.010">  2  5  1 -1</clus>
</clustering>
</event>
<event>
 9    2  0.2302296E-005  0.5078675E+03  0.7546771E-02  0.1051892E+00
          2   -1    0    0  502    0 -0.00000000000E+00  0.00000000000E+00  0.24493104953E+04  0.24493104953E+04  0.00000000000E+00 0. -1.
         21   -1    0    0  501  502  0.00000000000E+00 -0.00000000000E+00 -0.11065306613E+03  0.11065306613E+03  0.00000000000E+00 0. -1.
         24    2    1    2    0    0 -0.63766393334E+02 -0.11328274388E+03  0.18457224222E+04  0.18522105482E+04  0.84223048286E+02 0.  0.
         23    2    1    2    0    0  0.11398730292E+02 -0.93092028510E+02  0.46791578016E+03  0.49337278905E+03  0.12520173652E+03 0.  0.
        -11    1    3    3    0    0 -0.20313081335E+02 -0.26759720801E+02  0.14956114283E+03  0.15328809273E+03  0.00000000000E+00 0.  1.
         12    1    3    3    0    0 -0.43453311999E+02 -0.86523023080E+02  0.16961612794E+04  0.16989224554E+04  0.00000000000E+00 0. -1.
        -13    1    4    4    0    0 -0.42060343615E+02 -0.89004757139E+02  0.24361375133E+03  0.26275193460E+03  0.00000000000E+00 0. -1.
         13    1    4    4    0    0  0.53459073907E+02 -0.40872713712E+01  0.22430202883E+03  0.23062085445E+03  0.00000000000E+00 0.  1.
          1    1    1    2  501    0  0.52367663042E+02  0.20637477239E+03  0.25019226756E+02  0.21438022418E+03  0.00000000000E+00 0. -1.
<scales pt_clust_5="13000.00000" pt_clust_6="13000.00000" pt_clust_7="13000.00000" pt_clust_8="13000.00000" pt_clust_9="13000.00000"></scales>
<clustering>
<clus scale="   84.223">  5  6 -1 -1</clus>
<clus scale="  125.202">  7  8 -1 -1</clus>
<clus scale="  154.896">  1  5  2 -1</clus>
<clus scale="  188.017">  7  9 -1 -1</clus>
<clus scale="  507.868">  2  5  1 -1</clus>
</clustering>
</event>
<event>
 9    2  0.2147756E-005  0.6486867E+03  0.7546771E-02  0.1047475E+00
         21   -1    0    0  501  502  0.00000000000E+00  0.00000000000E+00  0.49587596973E+03  0.49587596973E+03  0.00000000000E+00 0. -1.
          2   -1    0    0  502    0 -0.00000000000E+00 -0.00000000000E+00 -0.27456281565E+03  0.27456281565E+03  0.00000000000E+00 0. -1.
         24    2    1    2    0    0  0.27660382679E+01 -0.19294890956E+02  0.55322114564E+02  0.10085121753E+03  0.82039551032E+02 0.  0.
         23    2    1    2    0    0 -0.11311226077E+03  0.33858587306E+02 -0.22087102329E+03  0.26703242167E+03  0.92636482144E+02 0.  0.
        -11    1    3    3    0    0  0.69994659146E+01 -0.47925360843E+02  0.53029268980E+02  0.71818772641E+02  0.00000000000E+00 0.  1.
         12    1    3    3    0    0 -0.42334276467E+01  0.28630469887E+02  0.22928455838E+01  0.29032444893E+02  0.00000000000E+00 0. -1.
        -11    1    4    4    0    0 -0.60259326203E+02  0.63150963121E+02 -0.10669310299E+03  0.13785009526E+03  0.00000000000E+00 0. -1.
         11    1    4    4    0    0 -0.52852934566E+02 -0.29292375815E+02 -0.11417792030E+03  0.12918232641E+03  0.00000000000E+00 0.  1.
          1    1    1    2  501    0  0.11034622250E+03 -0.14563696349E+02  0.38686206280E+03  0.40255514617E+03  0.00000000000E+00 0. -1.
<scales pt_clust_5="13000.00000" pt_clust_6="13000.00000" pt_clust_7="13000.00000" pt_clust_8="13000.00000" pt_clust_9="13000.00000"></scales>
<clustering>
<clus scale="   82.040">  5  6 -1 -1</clus>
<clus scale="   84.323">  2  5  1 -1</clus>
<clus scale="   92.636">  7  8 -1 -1</clus>
<clus scale="  111.469">  7  9 -1 -1</clus>
<clus scale="  648.687">  1  5  2 -1</clus>
</clustering>
</event>
<event>
 9    2  0.2147756E-005  0.4553031E+03  0.7546771E-02  0.1077879E+00
          2   -1    0    0  502    0 -0.00000000000E+00  0.00000000000E+00  0.16258355928E+03  0.16258355928E+03  0.00000000000E+00 0. -1.
         21   -1    0    0  501  502  0.00000000000E+00 -0.00000000000E+00 -0.90646697704E+03  0.90646697704E+03  0.00000000000E+00 0. -1.
         24    2    1    2    0    0  0.59500959554E+02 -0.34199876854E+02 -0.57342729698E+03  0.58288571337E+03  0.78910672110E+02 0.  0.
         23    2    1    2    0    0  0.10135743912E+03  0.46086142628E+02 -0.26356853574E+03  0.29992135445E+03  0.89928765205E+02 0.  0.
        -11    1    3    3    0    0  0.57209223668E+02 -0.75837567575E+01 -0.19103701602E+03  0.19956339877E+03  0.00000000000E+00 0.  1.
         12    1    3    3    0    0  0.22917358857E+01 -0.26616120097E+02 -0.38239028095E+03  0.38332231460E+03  0.00000000000E+00 0. -1.
        -13    1    4    4    0    0  0.80195702279E+02  0.71296115363E+02 -0.17321592168E+03  0.20376025680E+03  0.00000000000E+00 0. -1.
         13    1    4    4    0    0  0.21161736845E+02 -0.25209972735E+02 -0.90352614065E+02  0.96161097643E+02  0.00000000000E+00 0.  1.
          1    1    1    2  501    0 -0.16085839868E+03 -0.11886265773E+02  0.93112414964E+02  0.18624346850E+03  0.00000000000E+00 0. -1.
<scales pt_clust_5="13000.00000" pt_clust_6="13000.00000" pt_clust_7="13000.00000" pt_clust_8="13000.00000" pt_clust_9="13000.00000"></scales>
<clustering>
<clus scale="   78.911">  5  6 -1 -1</clus>
<clus scale="   89.929">  7  8 -1 -1</clus>
<clus scale="  104.580">  1  5  2 -1</clus>
<clus scale="  116.128">  7  9 -1 -1</clus>
<clus scale="  455.303">  2  5  1 -1</clus>
</clustering>
</event>
<event>
 9    2  0.2147756E-005  0.4979943E+03  0.7546771E-02  0.1058075E+00
          2   -1    0    0  502    0 -0.00000000000E+00  0.00000000000E+00  0.19614167640E+04  0.19614167640E+04  0.00000000000E+00 0. -1.
         21   -1    0    0  501  502  0.00000000000E+00 -0.00000000000E+00 -0.62412754107E+02  0.62412754107E+02  0.00000000000E+00 0. -1.
         24    2    1    2    0    0 -0.39514986587E+02  0.10908395535E+03  0.86753824541E+03  0.87843877187E+03  0.74641310171E+02 0.  0.
         23    2    1    2    0    0  0.27673508470E+02  0.17572911604E+03  0.55890476280E+03  0.59350977488E+03  0.90734633389E+02 0.  0.
        -13    1    3    3    0    0 -0.44350607199E+01  0.51656683032E+02  0.17177872069E+03  0.17943247072E+03  0.00000000000E+00 0.  1.
         14    1    3    3    0    0 -0.35079925867E+02  0.57427272320E+02  0.69575952472E+03  0.69900630115E+03  0.00000000000E+00 0. -1.
        -11    1    4    4    0    0  0.59897050561E+02  0.13509857806E+03  0.40729778134E+03  0.43327908459E+03  0.00000000000E+00 0. -1.
         11    1    4    4    0    0 -0.32223542090E+02  0.40630537983E+02  0.15160698147E+03  0.16023069029E+03  0.00000000000E+00 0.  1.
          1    1    1    2  501    0  0.11841478117E+02 -0.28481307139E+03  0.47256100164E+03  0.55188097132E+03  0.00000000000E+00 0. -1.
<scales pt_clust_5="13000.00000" pt_clust_6="13000.00000" pt_clust_7="13000.00000" pt_clust_8="13000.00000" pt_clust_9="13000.00000"></scales>
<clustering>
<clus scale="   74.641">  5  6 -1 -1</clus>
<clus scale="   90.735">  7  8 -1 -1</clus>
<clus scale="  137.957">  1  5  2 -1</clus>
<clus scale="  233.575">  7  9 -1 -1</clus>
<clus scale="  497.994">  2  5  1 -1</clus>
</clustering>
</event>
<event>
 9    2  0.2147756E-005  0.4087020E+03  0.7546771E-02  0.1091183E+00
          2   -1    0    0  502    0 -0.00000000000E+00  0.00000000000E+00  0.66481522277E+03  0.66481522277E+03  0.00000000000E+00 0. -1.
         21   -1    0    0  501  502  0.00000000000E+00 -0.00000000000E+00 -0.12718158242E+03  0.12718158242E+03  0.00000000000E+00 0. -1.
         24    2    1    2    0    0 -0.37436350815E+02 -0.47028098324E+02  0.30571992824E+03  0.32208058027E+03  0.81597201383E+02 0.  0.
         23    2    1    2    0    0 -0.10401712644E+03  0.17047718424E+03  0.13405876754E+03  0.25819859877E+03  0.93876143484E+02 0.  0.
        -11    1    3    3    0    0 -0.16560261328E+02 -0.57420671137E+02  0.11185785808E+03  0.12682096098E+03  0.00000000000E+00 0.  1.
         12    1    3    3    0    0 -0.20876089486E+02  0.10392572813E+02  0.19386207015E+03  0.19525961929E+03  0.00000000000E+00 0. -1.
        -11    1    4    4    0    0 -0.21707058762E+02  0.20041871071E+02  0.68523554555E+02  0.74621381151E+02  0.00000000000E+00 0.  1.
         11    1    4    4    0    0 -0.82310067679E+02  0.15043531317E+03  0.65535212988E+02  0.18357721762E+03  0.00000000000E+00 0. -1.
          1    1    1    2  501    0  0.14145347726E+03 -0.12344908591E+03  0.97854944573E+02  0.21171762614E+03  0.00000000000E+00 0. -1.
<scales pt_clust_5="13000.00000" pt_clust_6="13000.00000" pt_clust_7="13000.00000" pt_clust_8="13000.00000" pt_clust_9="13000.00000"></scales>
<clustering>
<clus scale="   81.597">  5  6 -1 -1</clus>
<clus scale="   93.876">  7  8 -1 -1</clus>
<clus scale="  101.347">  1  5  2 -1</clus>
<clus scale="  190.792">  7  9 -1 -1</clus>
<clus scale="  408.702">  2  5  1 -1</clus>
</clustering>
</event>
<event>
 9    2  0.2147756E-005  0.2745287E+03  0.7546771E-02  0.1138749E+00
         21   -1    0    0  501  502  0.00000000000E+00  0.00000000000E+00  0.63438738317E+02  0.63438738317E+02  0.00000000000E+00 0.  1.
         -1   -1    0    0    0  501 -0.00000000000E+00 -0.00000000000E+00 -0.63639679852E+03  0.63639679852E+03  0.00000000000E+00 0.  1.
         24    2    1    2    0    0 -0.13871304008E+01  0.50754703206E+02 -0.28385059786E+03  0.30115126408E+03  0.86850203930E+02 0.  0.
         23    2    1    2    0    0 -0.49668722385E+02  0.43201190953E+02 -0.26675440971E+03  0.28944110770E+03  0.91021507569E+02 0.  0.
        -11    1    3    3    0    0 -0.24562166384E+02  0.61358390555E+02 -0.25110234742E+03  0.25965465717E+03  0.00000000000E+00 0.  1.
         12    1    3    3    0    0  0.23175035983E+02 -0.10603687349E+02 -0.32748250437E+02  0.41496606909E+02  0.00000000000E+00 0. -1.
        -13    1    4    4    0    0 -0.34734568740E+02 -0.10363283848E+02 -0.19663776744E+03  0.19995074269E+03  0.00000000000E+00 0. -1.
         13    1    4    4    0    0 -0.14934153645E+02  0.53564474801E+02 -0.70116642275E+02  0.89490365010E+02  0.00000000000E+00 0.  1.
         -2    1    1    2    0  502  0.51055852786E+02 -0.93955894159E+02 -0.22353052630E+02  0.10924316506E+03  0.00000000000E+00 0.  1.
<scales pt_clust_5="13000.00000" pt_clust_6="13000.00000" pt_clust_7="13000.00000" pt_clust_8="13000.00000" pt_clust_9="13000.00000"></scales>
<clustering>
<clus scale="   86.850">  5  6 -1 -1</clus>
<clus scale="   91.022">  7  8 -1 -1</clus>
<clus scale="  100.603">  2  5  1 -1</clus>
<clus scale="   98.371">  7  9 -1 -1</clus>
<clus scale="  274.529">  1  5  2 -1</clus>
</clustering>
</event>
<event>
 9    2  0.2147756E-005  0.3858197E+03  0.7546771E-02  0.1101725E+00
          2   -1    0    0  502    0 -0.00000000000E+00  0.00000000000E+00  0.41940062132E+02  0.41940062132E+02  0.00000000000E+00 0. -1.
         21   -1    0    0  501  502  0.00000000000E+00 -0.00000000000E+00 -0.16493865499E+04  0.16493865499E+04  0.00000000000E+00 0. -1.
         24    2    1    2    0    0  0.31129016392E+02  0.31050074131E+02 -0.69026368923E+03  0.69629840203E+03  0.80214594912E+02 0.  0.
         23    2    1    2    0    0  0.81480880006E+02  0.10422303188E+03 -0.68740847623E+03  0.70558729864E+03  0.88438954219E+02 0.  0.
        -13    1    3    3    0    0 -0.34344492330E+01  0.48994092627E+02 -0.28840413828E+03  0.29255625704E+03  0.00000000000E+00 0.  1.
         14    1    3    3    0    0  0.34563465625E+02 -0.17944018496E+02 -0.40185955095E+03  0.40374214499E+03  0.00000000000E+00 0. -1.
        -11    1    4    4    0    0  0.44184176130E+02  0.11189716089E+03 -0.49118805622E+03  0.50570636007E+03  0.00000000000E+00 0. -1.
         11    1    4    4    0    0  0.37296703876E+02 -0.76741290073E+01 -0.19622042001E+03  0.19988093857E+03  0.00000000000E+00 0.  1.
          1    1    1    2  501    0 -0.11260989640E+03 -0.13527310601E+03 -0.22977432229E+03  0.28944091135E+03  0.00000000000E+00 0. -1.
<scales pt_clust_5="13000.00000" pt_clust_6="13000.00000" pt_clust_7="13000.00000" pt_clust_8="13000.00000" pt_clust_9="13000.00000"></scales>
<clustering>
<clus scale="   80.215">  5  6 -1 -1</clus>
<clus scale="   88.439">  7  8 -1 -1</clus>
<clus scale="   91.474">  1  5  2 -1</clus>
<clus scale="  142.489">  7  9 -1 -1</clus>
<clus scale="  385.820">  2  5  1 -1</clus>
</clustering>
</event>
<event>
 9    2  0.2147756E-005  0.3518174E+03  0.7546771E-02  0.1106631E+00
         21   -1    0    0  501  502  0.00000000000E+00  0.00000000000E+00  0.42293654073E+03  0.42293654073E+03  0.00000000000E+00 0. -1.
         -1   -1    0    0    0  501 -0.00000000000E+00 -0.00000000000E+00 -0.14516413449E+03  0.14516413449E+03  0.00000000000E+00 0.  1.
         24    2    1    2    0    0  0.68347054937E+02  0.23730808272E+02  0.16933995110E+03  0.19995253945E+03  0.77913591989E+02 0.  0.
         23    2    1    2    0    0  0.11328633237E+03 -0.37416174463E+02  0.11039011848E+03  0.18598938886E+03  0.90400836818E+02 0.  0.
        -11    1    3    3    0    0  0.74923389904E+01  0.42007597611E+02  0.72615120021E+02  0.84224278306E+02  0.00000000000E+00 0.  1.
         12    1    3    3    0    0  0.60854715947E+02 -0.18276789339E+02  0.96724831077E+02  0.11572826115E+03  0.00000000000E+00 0. -1.
        -11    1    4    4    0    0  0.91397184754E+02 -0.11022989131E+02  0.27174944278E+02  0.95986609831E+02  0.00000000000E+00 0.  1.
         11    1    4    4    0    0  0.21889147612E+02 -0.26393185333E+02  0.83215174201E+02  0.90002779027E+02  0.00000000000E+00 0. -1.
         -2    1    1    2    0  502 -0.18163338730E+03  0.13685366192E+02 -0.19576633390E+01  0.18215874691E+03  0.00000000000E+00 0.  1.
<scales pt_clust_5="13000.00000" pt_clust_6="13000.00000" pt_clust_7="13000.00000" pt_clust_8="13000.00000" pt_clust_9="13000.00000"></scales>
<clustering>
<clus scale="   77.914">  5  6 -1 -1</clus>
<clus scale="   90.401">  7  8 -1 -1</clus>
<clus scale="  106.325">  2  5  1 -1</clus>
<clus scale="  136.631">  7  9 -1 -1</clus>
<clus scale="  351.817">  1  5  2 -1</clus>
</clustering>
</event>
<event>
 9    2  0.2147756E-005  0.1802035E+03  0.7546771E-02  0.1194503E+00
          4   -1    0    0  502    0 -0.00000000000E+00  0.00000000000E+00  0.40036555065E+03  0.40036555065E+03  0.00000000000E+00 0. -1.
         21   -1    0    0  501  502  0.00000000000E+00 -0.00000000000E+00 -0.55135935038E+02  0.55135935038E+02  0.00000000000E+00 0.  1.
         24    2    1    2    0    0  0.28278825129E+02  0.50228722117E+02  0.20398254722E+03  0.22653849759E+03  0.79926183703E+02 0.  0.
         23    2    1    2    0    0 -0.10929223809E+02  0.32141158069E+02  0.78003772493E+02  0.12367519060E+03  0.89768938230E+02 0.  0.
        -13    1    3    3    0    0 -0.34754002695E+01  0.48434474586E+02  0.18073085271E+03  0.18714063657E+03  0.00000000000E+00 0.  1.
         14    1    3    3    0    0  0.31754225399E+02  0.17942475317E+01  0.23251694515E+02  0.39397861017E+02  0.00000000000E+00 0. -1.
        -11    1    4    4    0    0  0.27955631275E+02 -0.74328384108E+01  0.12303814157E+01  0.28953035164E+02  0.00000000000E+00 0.  1.
         11    1    4    4    0    0 -0.38884855084E+02  0.39573996479E+02  0.76773391077E+02  0.94722155432E+02  0.00000000000E+00 0. -1.
          3    1    1    2  501    0 -0.17349601320E+02 -0.82369880186E+02  0.63243295898E+02  0.10528779751E+03  0.00000000000E+00 0. -1.
<scales pt_clust_5="13000.00000" pt_clust_6="13000.00000" pt_clust_7="13000.00000" pt_clust_8="13000.00000" pt_clust_9="13000.00000"></scales>
<clustering>
<clus scale="   79.926">  5  6 -1 -1</clus>
<clus scale="   89.769">  7  8 -1 -1</clus>
<clus scale="   84.177">  7  9 -1 -1</clus>
<clus scale="   98.543">  1  5  2 -1</clus>
<clus scale="  180.204">  2  5  1 -1</clus>
</clustering>
</event>
<event>
 9    2  0.2147756E-005  0.2270128E+03  0.7546771E-02  0.1163414E+00
          2   -1    0    0  502    0 -0.00000000000E+00  0.00000000000E+00  0.60517337789E+02  0.60517337789E+02  0.00000000000E+00 0. -1.
         21   -1    0    0  501  502  0.00000000000E+00 -0.00000000000E+00 -0.52139538552E+03  0.52139538552E+03  0.00000000000E+00 0. -1.
         24    2    1    2    0    0  0.54950145277E+02 -0.21836828522E+02 -0.26172976212E+03  0.27992784094E+03  0.79754386782E+02 0.  0.
         23    2    1    2    0    0  0.51216521906E+02 -0.26149877278E+02 -0.11867256868E+03  0.16038535493E+03  0.91287103804E+02 0.  0.
        -13    1    3    3    0    0 -0.19988728297E+02 -0.56354651516E+01 -0.80744422715E+02  0.83372474630E+02  0.00000000000E+00 0.  1.
         14    1    3    3    0    0  0.74938873574E+02 -0.16201363371E+02 -0.18098533940E+03  0.19655536631E+03  0.00000000000E+00 0. -1.
        -13    1    4    4    0    0 -0.13008379490E+02 -0.40101396574E+02 -0.45374655582E+02  0.61937059289E+02  0.00000000000E+00 0. -1.
         13    1    4    4    0    0  0.64224901397E+02  0.13951519296E+02 -0.73297913099E+02  0.98448295642E+02  0.00000000000E+00 0.  1.
          1    1    1    2  501    0 -0.10616666718E+03  0.47986705800E+02 -0.80475716935E+02  0.14159952744E+03  0.00000000000E+00 0. -1.
<scales pt_clust_5="13000.00000" pt_clust_6="13000.00000" pt_clust_7="13000.00000" pt_clust_8="13000.00000" pt_clust_9="13000.00000"></scales>
<clustering>
<clus scale="   79.754">  5  6 -1 -1</clus>
<clus scale="   91.287">  7  8 -1 -1</clus>
<clus scale="   99.283">  1  5  2 -1</clus>
<clus scale="   81.416">  7  9 -1 -1</clus>
<clus scale="  227.013">  2  5  1 -1</clus>
</clustering>
</event>
<event>
 9    2  0.2147756E-005  0.2052669E+03  0.7546771E-02  0.1177818E+00
         21   -1    0    0  501  502  0.00000000000E+00  0.00000000000E+00  0.32814055216E+03  0.32814055216E+03  0.00000000000E+00 0.  1.
         -1   -1    0    0    0  501 -0.00000000000E+00 -0.00000000000E+00 -0.81365257698E+02  0.81365257698E+02  0.00000000000E+00 0.  1.
         24    2    1    2    0    0 -0.47241955809E+02  0.26323514413E+02  0.11567968848E+02  0.97324805852E+02  0.80084768409E+02 0.  0.
         23    2    1    2    0    0 -0.37646404125E+02  0.27552151078E+02  0.14458296855E+03  0.17682445604E+03  0.90478067435E+02 0.  0.
        -13    1    3    3    0    0 -0.65537803279E+02  0.35265296455E+02  0.11084179942E+01  0.74431669222E+02  0.00000000000E+00 0.  1.
         14    1    3    3    0    0  0.18295847469E+02 -0.89417820422E+01  0.10459550854E+02  0.22893136630E+02  0.00000000000E+00 0. -1.
        -11    1    4    4    0    0 -0.28258543753E+02 -0.23322558958E+02  0.10638263729E+03  0.11251556590E+03  0.00000000000E+00 0.  1.
         11    1    4    4    0    0 -0.93878603716E+01  0.50874710035E+02  0.38200331256E+02  0.64308890145E+02  0.00000000000E+00 0. -1.
         -2    1    1    2    0  502  0.84888359934E+02 -0.53875665491E+02  0.90624357068E+02  0.13535654797E+03  0.00000000000E+00 0.  1.
<scales pt_clust_5="13000.00000" pt_clust_6="13000.00000" pt_clust_7="13000.00000" pt_clust_8="13000.00000" pt_clust_9="13000.00000"></scales>
<clustering>
<clus scale="   80.085">  5  6 -1 -1</clus>
<clus scale="   90.478">  7  8 -1 -1</clus>
<clus scale="   96.635">  2  5  1 -1</clus>
<clus scale="   69.188">  7  9 -1 -1</clus>
<clus scale="  205.267">  1  5  2 -1</clus>
</clustering>
</event>
<event>
 9    2  0.2147756E-005  0.2467666E+03  0.7546771E-02  0.1156640E+00
         21   -1    0    0  501  502  0.00000000000E+00  0.00000000000E+00  0.19055444649E+03  0.19055444649E+03  0.00000000000E+00 0.  1.
         -1   -1    0    0    0  501 -0.00000000000E+00 -0.00000000000E+00 -0.15035684103E+03  0.15035684103E+03  0.00000000000E+00 0.  1.
         24    2    1    2    0    0  0.36092419286E+02 -0.24429255203E+02  0.23919293399E+02  0.93608381934E+02  0.79315479775E+02 0.  0.
         23    2    1    2    0    0 -0.77928318440E+02 -0.33969592217E+02  0.79148289839E+02  0.15183928978E+03  0.97795511782E+02 0.  0.
        -11    1    3    3    0    0  0.15928171109E+02 -0.51360321985E+02  0.27185390642E+01  0.53842174584E+02  0.00000000000E+00 0.  1.
         12    1    3    3    0    0  0.20164248177E+02  0.26931066783E+02  0.21200754335E+02  0.39766207350E+02  0.00000000000E+00 0. -1.
        -11    1    4    4    0    0  0.19641259612E+02  0.60540420574E+01  0.99437570407E+00  0.20577154502E+02  0.00000000000E+00 0. -1.
         11    1    4    4    0    0 -0.97569578052E+02 -0.40023634274E+02  0.78153914135E+02  0.13126213527E+03  0.00000000000E+00 0.  1.
         -2    1    1    2    0  502  0.41835899154E+02  0.58398847419E+02 -0.62869977778E+02  0.95463615812E+02  0.00000000000E+00 0.  1.
<scales pt_clust_5="13000.00000" pt_clust_6="13000.00000" pt_clust_7="13000.00000" pt_clust_8="13000.00000" pt_clust_9="13000.00000"></scales>
<clustering>
<clus scale="   79.315">  5  6 -1 -1</clus>
<clus scale="   90.501">  2  5  1 -1</clus>
<clus scale="   97.796">  7  8 -1 -1</clus>
<clus scale="   78.531">  7  9 -1 -1</clus>
<clus scale="  246.767">  1  5  2 -1</clus>
</clustering>
</event>
<event>
 9    2  0.2147756E-005  0.4391996E+03  0.7546771E-02  0.1042560E+00
         -3   -1    0    0    0  501 -0.00000000000E+00  0.00000000000E+00  0.65974221114E+03  0.65974221114E+03  0.00000000000E+00 0.  1.
         21   -1    0    0  501  502  0.00000000000E+00 -0.00000000000E+00 -0.24269345405E+03  0.24269345405E+03  0.00000000000E+00 0.  1.
         24    2    1    2    0    0  0.30259030489E+03  0.11275922509E+02  0.32971569234E+03  0.45463730106E+03  0.79338507016E+02 0.  0.
         23    2    1    2    0    0  0.66065727411E+01 -0.69293989439E+02 -0.18809536758E+02  0.11578171231E+03  0.90588644198E+02 0.  0.
        -13    1    3    3    0    0  0.24502337451E+03  0.34629254870E+02  0.23431089958E+03  0.34078913864E+03  0.00000000000E+00 0.  1.
         14    1    3    3    0    0  0.57566930383E+02 -0.23353332361E+02  0.95404792757E+02  0.11384816242E+03  0.00000000000E+00 0. -1.
        -11    1    4    4    0    0  0.35590210076E+02 -0.20410597797E+02 -0.37876998879E+02  0.55838361363E+02  0.00000000000E+00 0. -1.
         11    1    4    4    0    0 -0.28983637335E+02 -0.48883391642E+02  0.19067462121E+02  0.59943350952E+02  0.00000000000E+00 0.  1.
         -4    1    1    2    0  502 -0.30919687763E+03  0.58018066931E+02  0.10614260150E+03  0.33201665182E+03  0.00000000000E+00 0.  1.
<scales pt_clust_5="13000.00000" pt_clust_6="13000.00000" pt_clust_7="13000.00000" pt_clust_8="13000.00000" pt_clust_9="13000.00000"></scales>
<clustering>
<clus scale="   79.339">  5  6 -1 -1</clus>
<clus scale="   90.589">  7  8 -1 -1</clus>
<clus scale="  313.022">  1  5  2 -1</clus>
<clus scale="   91.090">  7  9 -1 -1</clus>
<clus scale="  439.200">  2  5  1 -1</clus>
</clustering>
</event>
<event>
 9    2  0.2147756E-005  0.1880538E+03  0.7546771E-02  0.1181004E+00
          2   -1    0    0  502    0 -0.00000000000E+00  0.00000000000E+00  0.39867582389E+03  0.39867582389E+03  0.00000000000E+00 0. -1.
         21   -1    0    0  501  502  0.00000000000E+00 -0.00000000000E+00 -0.69309025365E+02  0.69309025365E+02  0.00000000000E+00 0.  1.
         24    2    1    2    0    0 -0.37129491923E+02  0.76267120748E+02  0.41470675153E+02  0.12411216410E+03  0.80552712572E+02 0.  0.
         23    2    1    2    0    0  0.61900135946E+02 -0.19122645513E+01  0.14747831669E+03  0.18306413476E+03  0.89035610611E+02 0.  0.
        -13    1    3    3    0    0 -0.97549494750E+01  0.51313641771E+02 -0.16971076957E+02  0.54920545556E+02  0.00000000000E+00 0.  1.
         14    1    3    3    0    0 -0.27374542448E+02  0.24953478976E+02  0.58441752110E+02  0.69191618546E+02  0.00000000000E+00 0. -1.
        -11    1    4    4    0    0  0.73320454679E+02 -0.26553822562E+02  0.12707722066E+03  0.14909599115E+03  0.00000000000E+00 0.  1.
         11    1    4    4    0    0 -0.11420318733E+02  0.24641558010E+02  0.20401096031E+02  0.33968143611E+02  0.00000000000E+00 0. -1.
          1    1    1    2  501    0 -0.24770644022E+02 -0.74354856196E+02  0.14041780669E+03  0.16080855040E+03  0.00000000000E+00 0. -1.
<scales pt_clust_5="13000.00000" pt_clust_6="13000.00000" pt_clust_7="13000.00000" pt_clust_8="13000.00000" pt_clust_9="13000.00000"></scales>
<clustering>
<clus scale="   80.553">  5  6 -1 -1</clus>
<clus scale="   89.036">  7  8 -1 -1</clus>
<clus scale="   78.372">  7  9 -1 -1</clus>
<clus scale="  116.979">  1  5  2 -1</clus>
<clus scale="  188.054">  2  5  1 -1</clus>
</clustering>
</event>
<event>
 9    2  0.2147756E-005  0.2994113E+03  0.7546771E-02  0.1107307E+00
         21   -1    0    0  501  502  0.00000000000E+00  0.00000000000E+00  0.12253130505E+03  0.12253130505E+03  0.00000000000E+00 0. -1.
          2   -1    0    0  502    0 -0.00000000000E+00 -0.00000000000E+00 -0.49910810434E+03  0.49910810434E+03  0.00000000000E+00 0. -1.
         24    2    1    2    0    0 -0.23784928718E+02 -0.14703729634E+03 -0.46085669243E+02  0.17568925126E+03  0.80976136914E+02 0.  0.
         23    2    1    2    0    0 -0.38546574682E+02  0.18726438365E+03 -0.29764769319E+03  0.36481985422E+03  0.89138033226E+02 0.  0.
        -11    1    3    3    0    0 -0.21506767780E+02 -0.70529305494E+02 -0.63364474705E+02  0.97221297299E+02  0.00000000000E+00 0.  1.
         12    1    3    3    0    0 -0.22781609384E+01 -0.76507990849E+02  0.17278805462E+02  0.78467953964E+02  0.00000000000E+00 0. -1.
        -13    1    4    4    0    0 -0.45650301098E+02  0.51591116915E+02 -0.61332392775E+02  0.92234785945E+02  0.00000000000E+00 0.  1.
         13    1    4    4    0    0  0.71037264159E+01  0.13567326674E+03 -0.23631530041E+03  0.27258506827E+03  0.00000000000E+00 0. -1.
          1    1    1    2  501    0  0.62331503400E+02 -0.40227087308E+02 -0.32843436861E+02  0.81130303921E+02  0.00000000000E+00 0. -1.
<scales pt_clust_5="13000.00000" pt_clust_6="13000.00000" pt_clust_7="13000.00000" pt_clust_8="13000.00000" pt_clust_9="13000.00000"></scales>
<clustering>
<clus scale="   80.976">  5  6 -1 -1</clus>
<clus scale="   89.138">  7  8 -1 -1</clus>
<clus scale="   74.185">  7  9 -1 -1</clus>
<clus scale="  169.537">  2  5  1 -1</clus>
<clus scale="  299.411">  1  5  2 -1</clus>
</clustering>
</event>
<event>
 9    2  0.2147756E-005  0.1685086E+03  0.7546771E-02  0.1212578E+00
         21   -1    0    0  501  502  0.00000000000E+00  0.00000000000E+00  0.88148224559E+02  0.88148224559E+02  0.00000000000E+00 0.  1.
          4   -1    0    0  502    0 -0.00000000000E+00 -0.00000000000E+00 -0.74920894722E+03  0.74920894722E+03  0.00000000000E+00 0. -1.
         24    2    1    2    0    0 -0.14741252793E+02  0.34225136306E+01 -0.66383209762E+03  0.66882582245E+03  0.80161766511E+02 0.  0.
         23    2    1    2    0    0 -0.19634427893E+02 -0.37147057722E+02 -0.36192575726E+02  0.10658603675E+03  0.91023436741E+02 0.  0.
        -11    1    3    3    0    0 -0.77289745593E+01 -0.36629551559E+02 -0.22279240191E+03  0.22591572642E+03  0.00000000000E+00 0.  1.
         12    1    3    3    0    0 -0.70122782338E+01  0.40052065190E+02 -0.44103969571E+03  0.44291009603E+03  0.00000000000E+00 0. -1.
        -13    1    4    4    0    0 -0.32857082294E+02  0.20633248101E+02 -0.25302689644E+02  0.46320026849E+02  0.00000000000E+00 0. -1.
         13    1    4    4    0    0  0.13222654400E+02 -0.57780305824E+02 -0.10889886082E+02  0.60266009901E+02  0.00000000000E+00 0.  1.
          3    1    1    2  501    0  0.34375680687E+02  0.33724544092E+02  0.38963950690E+02  0.61945312577E+02  0.00000000000E+00 0. -1.
<scales pt_clust_5="13000.00000" pt_clust_6="13000.00000" pt_clust_7="13000.00000" pt_clust_8="13000.00000" pt_clust_9="13000.00000"></scales>
<clustering>
<clus scale="   80.162">  5  6 -1 -1</clus>
<clus scale="   81.578">  2  5  1 -1</clus>
<clus scale="   91.023">  7  8 -1 -1</clus>
<clus scale="   47.063">  7  9 -1 -1</clus>
<clus scale="  168.509">  1  5  2 -1</clus>
</clustering>
</event>
<event>
 9    2  0.2147756E-005  0.2866262E+03  0.7546771E-02  0.1132645E+00
          2   -1    0    0  502    0 -0.00000000000E+00  0.00000000000E+00  0.11511280912E+04  0.11511280912E+04  0.00000000000E+00 0. -1.
         21   -1    0    0  501  502  0.00000000000E+00 -0.00000000000E+00 -0.44360228713E+02  0.44360228713E+02  0.00000000000E+00 0. -1.
         24    2    1    2    0    0  0.18979620995E+02  0.58106640193E+02  0.63687313973E+03  0.64507424942E+03  0.82321221501E+02 0.  0.
         23    2    1    2    0    0 -0.11679250933E+03  0.33010375786E+01  0.14868624266E+03  0.20907384184E+03  0.89178952111E+02 0.  0.
        -13    1    3    3    0    0  0.13910218516E+02 -0.18202461621E+02  0.89551838288E+02  0.92435683201E+02  0.00000000000E+00 0.  1.
         14    1    3    3    0    0  0.50694024789E+01  0.76309101814E+02  0.54732130144E+03  0.55263856622E+03  0.00000000000E+00 0. -1.
        -13    1    4    4    0    0 -0.11093024676E+03  0.28039138542E+02  0.91551196876E+02  0.14653782646E+03  0.00000000000E+00 0. -1.
         13    1    4    4    0    0 -0.58622625714E+01 -0.24738100963E+02  0.57135045787E+02  0.62536015374E+02  0.00000000000E+00 0.  1.
          1    1    1    2  501    0  0.97812888333E+02 -0.61407677772E+02  0.32120848011E+03  0.34134022867E+03  0.00000000000E+00 0. -1.
<scales pt_clust_5="13000.00000" pt_clust_6="13000.00000" pt_clust_7="13000.00000" pt_clust_8="13000.00000" pt_clust_9="13000.00000"></scales>
<clustering>
<clus scale="   82.321">  5  6 -1 -1</clus>
<clus scale="   89.179">  7  8 -1 -1</clus>
<clus scale="  102.535">  1  5  2 -1</clus>
<clus scale="  112.654">  7  9 -1 -1</clus>
<clus scale="  286.626">  2  5  1 -1</clus>
</clustering>
</event>
<event>
 9    2  0.2147756E-005  0.7345163E+03  0.7546771E-02  0.1034352E+00
         21   -1    0    0  501  502  0.00000000000E+00  0.00000000000E+00  0.49913990630E+02  0.49913990630E+02  0.00000000000E+00 0. -1.
          2   -1    0    0  502    0 -0.00000000000E+00 -0.00000000000E+00 -0.34001801850E+04  0.34001801850E+04  0.00000000000E+00 0. -1.
         24    2    1    2    0    0 -0.24558064567E+02  0.12357168389E+02 -0.25233371280E+03  0.26627573498E+03  0.80465311016E+02 0.  0.
         23    2    1    2    0    0  0.66541129693E+02  0.33620510710E+03 -0.11169305581E+04  0.11719469591E+04  0.92001126358E+02 0.  0.
        -13    1    3    3    0    0  0.11089445017E+02 -0.28614982974E+02 -0.87489283122E+02  0.92715520290E+02  0.00000000000E+00 0.  1.
         14    1    3    3    0    0 -0.35647509584E+02  0.40972151363E+02 -0.16484442968E+03  0.17356021469E+03  0.00000000000E+00 0. -1.
        -11    1    4    4    0    0  0.79919059612E+02  0.30281895143E+03 -0.92239330124E+03  0.97411281462E+03  0.00000000000E+00 0. -1.
         11    1    4    4    0    0 -0.13377929919E+02  0.33386155675E+02 -0.19453725691E+03  0.19783414449E+03  0.00000000000E+00 0.  1.
          1    1    1    2  501    0 -0.41983065126E+02 -0.34856227549E+03 -0.19810019235E+04  0.20118714816E+04  0.00000000000E+00 0. -1.
<scales pt_clust_5="13000.00000" pt_clust_6="13000.00000" pt_clust_7="13000.00000" pt_clust_8="13000.00000" pt_clust_9="13000.00000"></scales>
<clustering>
<clus scale="   80.465">  5  6 -1 -1</clus>
<clus scale="   85.032">  2  5  1 -1</clus>
<clus scale="   92.001">  7  8 -1 -1</clus>
<clus scale="  345.541">  7  9 -1 -1</clus>
<clus scale="  734.516">  1  5  2 -1</clus>
</clustering>
</event>
<event>
 9    2  0.2147756E-005  0.1445055E+03  0.7546771E-02  0.1234524E+00
          2   -1    0    0  502    0 -0.00000000000E+00  0.00000000000E+00  0.54348605858E+03  0.54348605858E+03  0.00000000000E+00 0. -1.
         21   -1    0    0  501  502  0.00000000000E+00 -0.00000000000E+00 -0.31438651422E+02  0.31438651422E+02  0.00000000000E+00 0. -1.
         24    2    1    2    0    0 -0.57923332262E+01 -0.18839120378E+02  0.34256841813E+03  0.35220295794E+03  0.79406164132E+02 0.  0.
         23    2    1    2    0    0 -0.25902390416E+02  0.17806444368E+01  0.70693147981E+02  0.11758284632E+03  0.90300055672E+02 0.  0.
        -11    1    3    3    0    0  0.24582145782E+02 -0.34179240843E+02  0.25120016687E+03  0.25470380097E+03  0.00000000000E+00 0.  1.
         12    1    3    3    0    0 -0.30374479008E+02  0.15340120465E+02  0.91368251259E+02  0.97499156965E+02  0.00000000000E+00 0. -1.
        -13    1    4    4    0    0  0.50178465938E+01 -0.40082278688E+02  0.20586027120E+02  0.45338199808E+02  0.00000000000E+00 0.  1.
         13    1    4    4    0    0 -0.30920237010E+02  0.41862923124E+02  0.50107120861E+02  0.72244646516E+02  0.00000000000E+00 0. -1.
          1    1    1    2  501    0  0.31694723642E+02  0.17058475941E+02  0.98785841054E+02  0.10513890574E+03  0.00000000000E+00 0. -1.
<scales pt_clust_5="13000.00000" pt_clust_6="13000.00000" pt_clust_7="13000.00000" pt_clust_8="13000.00000" pt_clust_9="13000.00000"></scales>
<clustering>
<clus scale="   79.406">  5  6 -1 -1</clus>
<clus scale="   81.816">  1  5  2 -1</clus>
<clus scale="   90.300">  7  8 -1 -1</clus>
<clus scale="   29.588">  7  9 -1 -1</clus>
<clus scale="  144.506">  2  5  1 -1</clus>
</clustering>
</event>
<event>
 9    2  0.2147756E-005  0.1717151E+03  0.7546771E-02  0.1204442E+00
         21   -1    0    0  501  502  0.00000000000E+00  0.00000000000E+00  0.13760855575E+02  0.13760855575E+02  0.00000000000E+00 0.  1.
          2   -1    0    0  502    0 -0.00000000000E+00 -0.00000000000E+00 -0.12992470877E+04  0.12992470877E+04  0.00000000000E+00 0. -1.
         24    2    1    2    0    0 -0.13318798531E+02 -0.41967290955E+02 -0.56063679543E+03  0.56809669692E+03  0.80508364498E+02 0.  0.
         23    2    1    2    0    0 -0.44275205634E+02  0.32105588336E+02 -0.36430161746E+03  0.37965920673E+03  0.91838892294E+02 0.  0.
        -13    1    3    3    0    0 -0.35789542029E+02  0.71657263695E+01 -0.18191528974E+03  0.18554086233E+03  0.00000000000E+00 0.  1.
         14    1    3    3    0    0  0.22470743498E+02 -0.49133017325E+02 -0.37872150569E+03  0.38255583459E+03  0.00000000000E+00 0. -1.
        -11    1    4    4    0    0 -0.52401623686E+02  0.57737035553E+02 -0.29988971014E+03  0.30986018409E+03  0.00000000000E+00 0.  1.
         11    1    4    4    0    0  0.81264180525E+01 -0.25631447217E+02 -0.64411907318E+02  0.69799022638E+02  0.00000000000E+00 0. -1.
          1    1    1    2  501    0  0.57594004165E+02  0.98617026191E+01 -0.36054781927E+03  0.36525203966E+03  0.00000000000E+00 0. -1.
<scales pt_clust_5="13000.00000" pt_clust_6="13000.00000" pt_clust_7="13000.00000" pt_clust_8="13000.00000" pt_clust_9="13000.00000"></scales>
<clustering>
<clus scale="   80.508">  5  6 -1 -1</clus>
<clus scale="   91.762">  2  5  1 -1</clus>
<clus scale="   91.839">  7  8 -1 -1</clus>
<clus scale="   52.161">  7  9 -1 -1</clus>
<clus scale="  171.715">  1  5  2 -1</clus>
</clustering>
</event>
<event>
 9    2  0.2147756E-005  0.4064115E+03  0.7546771E-02  0.1073665E+00
         21   -1    0    0  501  502  0.00000000000E+00  0.00000000000E+00  0.19817512318E+03  0.19817512318E+03  0.00000000000E+00 0. -1.
          2   -1    0    0  502    0 -0.00000000000E+00 -0.00000000000E+00 -0.71569198877E+03  0.71569198877E+03  0.00000000000E+00 0. -1.
         24    2    1    2    0    0 -0.11334097373E+03 -0.88585773888E+02 -0.47788628158E+03  0.50552791583E+03  0.80557804687E+02 0.  0.
         23    2    1    2    0    0  0.25455122758E+01 -0.10805372989E+03 -0.10293121125E+03  0.17392567661E+03  0.89292880792E+02 0.  0.
        -13    1    3    3    0    0 -0.34724851871E+02  0.11566104848E+02 -0.85588947420E+02  0.93086293509E+02  0.00000000000E+00 0.  1.
         14    1    3    3    0    0 -0.78616121857E+02 -0.10015187874E+03 -0.39229733416E+03  0.41244162232E+03  0.00000000000E+00 0. -1.
        -13    1    4    4    0    0  0.36998258573E+02 -0.15810640167E+02 -0.18793934519E+02  0.44407876043E+02  0.00000000000E+00 0.  1.
         13    1    4    4    0    0 -0.34452746297E+02 -0.92243089720E+02 -0.84137276728E+02  0.12951780057E+03  0.00000000000E+00 0. -1.
          1    1    1    2  501    0  0.11079546145E+03  0.19663950378E+03  0.63300627238E+02  0.23441351952E+03  0.00000000000E+00 0. -1.
<scales pt_clust_5="13000.00000" pt_clust_6="13000.00000" pt_clust_7="13000.00000" pt_clust_8="13000.00000" pt_clust_9="13000.00000"></scales>
<clustering>
<clus scale="   80.558">  5  6 -1 -1</clus>
<clus scale="   89.293">  7  8 -1 -1</clus>
<clus scale="  164.873">  2  5  1 -1</clus>
<clus scale="  176.242">  7  9 -1 -1</clus>
<clus scale="  406.412">  1  5  2 -1</clus>
</clustering>
</event>
<event>
 9    2  0.2147756E-005  0.2969465E+03  0.7546771E-02  0.1127473E+00
         21   -1    0    0  501  502  0.00000000000E+00  0.00000000000E+00  0.75744715182E+02  0.75744715182E+02  0.00000000000E+00 0. -1.
          2   -1    0    0  502    0 -0.00000000000E+00 -0.00000000000E+00 -0.58868226000E+03  0.58868226000E+03  0.00000000000E+00 0. -1.
         24    2    1    2    0    0  0.26073858379E+02  0.63169762650E+02 -0.23686211196E+03  0.25897061895E+03  0.79321222828E+02 0.  0.
         23    2    1    2    0    0 -0.51602281810E+02  0.79029505960E+02 -0.20676409018E+03  0.24521780089E+03  0.92043047452E+02 0.  0.
        -11    1    3    3    0    0 -0.20541537678E+02  0.16384159068E+02 -0.13526679029E+03  0.13779513778E+03  0.00000000000E+00 0.  1.
         12    1    3    3    0    0  0.46615396058E+02  0.46785603582E+02 -0.10159532167E+03  0.12117548117E+03  0.00000000000E+00 0. -1.
        -13    1    4    4    0    0 -0.12859106836E+02  0.89502527775E+02 -0.15818539742E+03  0.18220504675E+03  0.00000000000E+00 0.  1.
         13    1    4    4    0    0 -0.38743174974E+02 -0.10473021815E+02 -0.48578692761E+02  0.63012754132E+02  0.00000000000E+00 0. -1.
          1    1    1    2  501    0  0.25528423431E+02 -0.14219926861E+03 -0.69311342677E+02  0.16023855535E+03  0.00000000000E+00 0. -1.
<scales pt_clust_5="13000.00000" pt_clust_6="13000.00000" pt_clust_7="13000.00000" pt_clust_8="13000.00000" pt_clust_9="13000.00000"></scales>
<clustering>
<clus scale="   79.321">  5  6 -1 -1</clus>
<clus scale="   92.043">  7  8 -1 -1</clus>
<clus scale="  104.700">  2  5  1 -1</clus>
<clus scale="  125.696">  7  9 -1 -1</clus>
<clus scale="  296.946">  1  5  2 -1</clus>
</clustering>
</event>
<event>
 9    2  0.2147756E-005  0.2347021E+03  0.7546771E-02  0.1160754E+00
         -1   -1    0    0    0  501 -0.00000000000E+00  0.00000000000E+00  0.53960068686E+02  0.53960068686E+02  0.00000000000E+00 0.  1.
         21   -1    0    0  501  502  0.00000000000E+00 -0.00000000000E+00 -0.51552768187E+03  0.51552768187E+03  0.00000000000E+00 0. -1.
         24    2    1    2    0    0  0.36786510190E+02  0.33671804783E+02 -0.17185723075E+03  0.19663768541E+03  0.81513396410E+02 0.  0.
         23    2    1    2    0    0  0.39511014312E+01  0.72235829151E+02 -0.18082212268E+03  0.21558394343E+03  0.92445499616E+02 0.  0.
        -11    1    3    3    0    0 -0.16759552833E+02  0.24095839736E+02 -0.20496532133E+02  0.35799440404E+02  0.00000000000E+00 0.  1.
         12    1    3    3    0    0  0.53546063023E+02  0.95759650472E+01 -0.15136069862E+03  0.16083824501E+03  0.00000000000E+00 0. -1.
        -11    1    4    4    0    0 -0.51871312766E+01  0.93523518260E+02 -0.13609151233E+03  0.16521033420E+03  0.00000000000E+00 0. -1.
         11    1    4    4    0    0  0.91382327078E+01 -0.21287689109E+02 -0.44730610347E+02  0.50373609228E+02  0.00000000000E+00 0.  1.
         -2    1    1    2    0  502 -0.40737611621E+02 -0.10590763393E+03 -0.10888825976E+03  0.15726612172E+03  0.00000000000E+00 0.  1.
<scales pt_clust_5="13000.00000" pt_clust_6="13000.00000" pt_clust_7="13000.00000" pt_clust_8="13000.00000" pt_clust_9="13000.00000"></scales>
<clustering>
<clus scale="   81.513">  5  6 -1 -1</clus>
<clus scale="   92.445">  7  8 -1 -1</clus>
<clus scale="   95.559">  1  5  2 -1</clus>
<clus scale="   88.453">  7  9 -1 -1</clus>
<clus scale="  234.702">  2  5  1 -1</clus>
</clustering>
</event>
<event>
 9    2  0.2147756E-005  0.2675367E+03  0.7546771E-02  0.1150414E+00
         21   -1    0    0  501  502  0.00000000000E+00  0.00000000000E+00  0.14826718308E+03  0.14826718308E+03  0.00000000000E+00 0.  1.
         -1   -1    0    0    0  501 -0.00000000000E+00 -0.00000000000E+00 -0.25313612594E+03  0.25313612594E+03  0.00000000000E+00 0.  1.
         24    2    1    2    0    0 -0.58846576004E+01  0.40589871186E+01 -0.10563349848E+03  0.13386552718E+03  0.81917267990E+02 0.  0.
         23    2    1    2    0    0 -0.53342196647E+02 -0.11207189239E+02  0.10337591764E+03  0.14884486429E+03  0.92180378849E+02 0.  0.
        -13    1    3    3    0    0 -0.38953667328E+02 -0.84056873077E+01 -0.82518992350E+02  0.91637480737E+02  0.00000000000E+00 0.  1.
         14    1    3    3    0    0  0.33069009728E+02  0.12464674426E+02 -0.23114506133E+02  0.42228046446E+02  0.00000000000E+00 0. -1.
        -11    1    4    4    0    0 -0.72420340702E+02 -0.23408537533E+02  0.50543956580E+02  0.91363870997E+02  0.00000000000E+00 0.  1.
         11    1    4    4    0    0  0.19078144055E+02  0.12201348294E+02  0.52831961062E+02  0.57480993297E+02  0.00000000000E+00 0. -1.
         -2    1    1    2    0  502  0.59226854247E+02  0.71482021199E+01 -0.10261136202E+03  0.11869291754E+03  0.00000000000E+00 0.  1.
<scales pt_clust_5="13000.00000" pt_clust_6="13000.00000" pt_clust_7="13000.00000" pt_clust_8="13000.00000" pt_clust_9="13000.00000"></scales>
<clustering>
<clus scale="   81.917">  5  6 -1 -1</clus>
<clus scale="   82.229">  2  5  1 -1</clus>
<clus scale="   92.180">  7  8 -1 -1</clus>
<clus scale="   55.353">  7  9 -1 -1</clus>
<clus scale="  267.537">  1  5  2 -1</clus>
</clustering>
</event>
<event>
 9    2  0.2147756E-005  0.3166489E+03  0.7546771E-02  0.1123522E+00
         21   -1    0    0  501  502  0.00000000000E+00  0.00000000000E+00  0.43158548097E+02  0.43158548097E+02  0.00000000000E+00 0. -1.
          2   -1    0    0  502    0 -0.00000000000E+00 -0.00000000000E+00 -0.15525683842E+04  0.15525683842E+04  0.00000000000E+00 0. -1.
         24    2    1    2    0    0  0.22744892911E+02  0.50393414736E+02 -0.60943784975E+02  0.11305352662E+03  0.77525018881E+02 0.  0.
         23    2    1    2    0    0  0.10934535722E+03  0.49006840627E+02 -0.66788248524E+03  0.68477682824E+03  0.92164053900E+02 0.  0.
        -13    1    3    3    0    0 -0.26079221010E+02  0.23132737408E+02 -0.40686485926E+02  0.53578348663E+02  0.00000000000E+00 0.  1.
         14    1    3    3    0    0  0.48824113921E+02  0.27260677329E+02 -0.20257299049E+02  0.59475177960E+02  0.00000000000E+00 0. -1.
        -11    1    4    4    0    0  0.59505610576E+02  0.73282034728E+02 -0.46309477074E+03  0.47261817675E+03  0.00000000000E+00 0. -1.
         11    1    4    4    0    0  0.49839746639E+02 -0.24275194101E+02 -0.20478771450E+03  0.21215865149E+03  0.00000000000E+00 0.  1.
          1    1    1    2  501    0 -0.13209025013E+03 -0.99400255363E+02 -0.78058356585E+03  0.79789657740E+03  0.00000000000E+00 0. -1.
<scales pt_clust_5="13000.00000" pt_clust_6="13000.00000" pt_clust_7="13000.00000" pt_clust_8="13000.00000" pt_clust_9="13000.00000"></scales>
<clustering>
<clus scale="   77.525">  5  6 -1 -1</clus>
<clus scale="   92.164">  7  8 -1 -1</clus>
<clus scale="   95.221">  2  5  1 -1</clus>
<clus scale="  139.942">  7  9 -1 -1</clus>
<clus scale="  316.649">  1  5  2 -1</clus>
</clustering>
</event>
<event>
 9    2  0.2147756E-005  0.2468990E+03  0.7546771E-02  0.1158709E+00
          2   -1    0    0  502    0 -0.00000000000E+00  0.00000000000E+00  0.10746922364E+03  0.10746922364E+03  0.00000000000E+00 0. -1.
         21   -1    0    0  501  502  0.00000000000E+00 -0.00000000000E+00 -0.28162216238E+03  0.28162216238E+03  0.00000000000E+00 0.  1.
         24    2    1    2    0    0 -0.38082524194E+02 -0.67967053485E+01 -0.98593218707E+02  0.13088912051E+03  0.76908161072E+02 0.  0.
         23    2    1    2    0    0  0.11721996870E+01  0.45705638507E+02 -0.14076254143E+03  0.17377664705E+03  0.91070580032E+02 0.  0.
        -13    1    3    3    0    0 -0.13318762773E+02 -0.18453108406E+02 -0.10088820480E+03  0.10342309471E+03  0.00000000000E+00 0.  1.
         14    1    3    3    0    0 -0.24763761421E+02  0.11656403058E+02  0.22949860920E+01  0.27466025797E+02  0.00000000000E+00 0. -1.
        -11    1    4    4    0    0 -0.29922418093E+02  0.23260585495E+02 -0.12506635918E+02  0.39910172689E+02  0.00000000000E+00 0.  1.
         11    1    4    4    0    0  0.31094617780E+02  0.22445053012E+02 -0.12825590551E+03  0.13386647436E+03  0.00000000000E+00 0. -1.
          1    1    1    2  501    0  0.36910324507E+02 -0.38908933158E+02  0.65202821397E+02  0.84425618463E+02  0.00000000000E+00 0. -1.
<scales pt_clust_5="13000.00000" pt_clust_6="13000.00000" pt_clust_7="13000.00000" pt_clust_8="13000.00000" pt_clust_9="13000.00000"></scales>
<clustering>
<clus scale="   76.908">  5  6 -1 -1</clus>
<clus scale="   86.089">  1  5  2 -1</clus>
<clus scale="   91.071">  7  8 -1 -1</clus>
<clus scale="   44.842">  7  9 -1 -1</clus>
<clus scale="  246.899">  2  5  1 -1</clus>
</clustering>
</event>
<event>
 9    2  0.2147756E-005  0.2926209E+03  0.7546771E-02  0.1130700E+00
         21   -1    0    0  501  502  0.00000000000E+00  0.00000000000E+00  0.55282899312E+02  0.55282899312E+02  0.00000000000E+00 0. -1.
          2   -1    0    0  502    0 -0.00000000000E+00 -0.00000000000E+00 -0.77111622305E+03  0.77111622305E+03  0.00000000000E+00 0. -1.
         24    2    1    2    0    0 -0.38742380180E+02 -0.41267471650E+02 -0.31010249313E+03  0.32615468791E+03  0.83721848769E+02 0.  0.
         23    2    1    2    0    0  0.56919339495E+02  0.99598133978E+02 -0.78843948177E+02  0.16769684098E+03  0.93521456420E+02 0.  0.
        -11    1    3    3    0    0 -0.16189487283E+02  0.25412981109E+02 -0.78197131513E+02  0.83801613852E+02  0.00000000000E+00 0.  1.
         12    1    3    3    0    0 -0.22552892897E+02 -0.66680452760E+02 -0.23190536162E+03  0.24235307406E+03  0.00000000000E+00 0. -1.
        -11    1    4    4    0    0  0.12936989587E+02  0.67071456171E+02 -0.88863887546E+02  0.11208361362E+03  0.00000000000E+00 0. -1.
         11    1    4    4    0    0  0.43982349908E+02  0.32526677806E+02  0.10019939369E+02  0.55613227361E+02  0.00000000000E+00 0.  1.
          1    1    1    2  501    0 -0.18176959315E+02 -0.58330662327E+02 -0.32688688243E+03  0.33254759347E+03  0.00000000000E+00 0. -1.
<scales pt_clust_5="13000.00000" pt_clust_6="13000.00000" pt_clust_7="13000.00000" pt_clust_8="13000.00000" pt_clust_9="13000.00000"></scales>
<clustering>
<clus scale="   83.722">  5  6 -1 -1</clus>
<clus scale="   93.521">  7  8 -1 -1</clus>
<clus scale="   61.097">  7  9 -1 -1</clus>
<clus scale="  101.061">  2  5  1 -1</clus>
<clus scale="  292.621">  1  5  2 -1</clus>
</clustering>
</event>
<event>
 9    2  0.2147756E-005  0.2972628E+03  0.7546771E-02  0.1117490E+00
          2   -1    0    0  502    0 -0.00000000000E+00  0.00000000000E+00  0.32837040021E+03  0.32837040021E+03  0.00000000000E+00 0. -1.
         21   -1    0    0  501  502  0.00000000000E+00 -0.00000000000E+00 -0.17495968555E+03  0.17495968555E+03  0.00000000000E+00 0. -1.
         24    2    1    2    0    0 -0.87715920075E+02 -0.62846542399E+02  0.15668575480E+03  0.20604921662E+03  0.79133326646E+02 0.  0.
         23    2    1    2    0    0 -0.61198278806E+02  0.78577186534E+02 -0.43863764787E+02  0.14213469173E+03  0.91425582639E+02 0.  0.
        -13    1    3    3    0    0 -0.56469453283E+01 -0.35850753320E+02  0.13312074614E+02  0.38657157625E+02  0.00000000000E+00 0.  1.
         14    1    3    3    0    0 -0.82068974746E+02 -0.26995789079E+02  0.14337368019E+03  0.16739205900E+03  0.00000000000E+00 0. -1.
        -11    1    4    4    0    0 -0.57733570964E+02  0.15505723469E+02  0.81194339490E+01  0.60328416888E+02  0.00000000000E+00 0. -1.
         11    1    4    4    0    0 -0.34647078425E+01  0.63071463065E+02 -0.51983198736E+02  0.81806274847E+02  0.00000000000E+00 0.  1.
          1    1    1    2  501    0  0.14891419888E+03 -0.15730644135E+02  0.40588724645E+02  0.15514617740E+03  0.00000000000E+00 0. -1.
<scales pt_clust_5="13000.00000" pt_clust_6="13000.00000" pt_clust_7="13000.00000" pt_clust_8="13000.00000" pt_clust_9="13000.00000"></scales>
<clustering>
<clus scale="   79.133">  5  6 -1 -1</clus>
<clus scale="   91.426">  7  8 -1 -1</clus>
<clus scale="  133.813">  1  5  2 -1</clus>
<clus scale="  107.274">  7  9 -1 -1</clus>
<clus scale="  297.263">  2  5  1 -1</clus>
</clustering>
</event>
<event>
 9    2  0.2147756E-005  0.1943168E+03  0.7546771E-02  0.1174995E+00
         -1   -1    0    0    0  501 -0.00000000000E+00  0.00000000000E+00  0.15584178697E+03  0.15584178697E+03  0.00000000000E+00 0.  1.
         21   -1    0    0  501  502  0.00000000000E+00 -0.00000000000E+00 -0.22836187288E+03  0.22836187288E+03  0.00000000000E+00 0.  1.
         24    2    1    2    0    0 -0.15522048197E+02  0.89024322370E+02  0.72787256264E+02  0.14156554251E+03  0.81095956728E+02 0.  0.
         23    2    1    2    0    0 -0.35958681243E+02 -0.59887216633E+02 -0.54192855580E+02  0.13400531336E+03  0.10070279510E+03 0.  0.
        -11    1    3    3    0    0 -0.38575101324E+01  0.88739273459E+02  0.86209649690E+02  0.12378062344E+03  0.00000000000E+00 0.  1.
         12    1    3    3    0    0 -0.11664538064E+02  0.28504891094E+00 -0.13422393426E+02  0.17784919073E+02  0.00000000000E+00 0. -1.
        -11    1    4    4    0    0 -0.64776504265E+02 -0.66637712638E+02 -0.42306278731E+02  0.10210975208E+03  0.00000000000E+00 0.  1.
         11    1    4    4    0    0  0.28817823022E+02  0.67504960059E+01 -0.11886576849E+02  0.31895561278E+02  0.00000000000E+00 0. -1.
         -2    1    1    2    0  502  0.51480729439E+02 -0.29137105738E+02 -0.91114486592E+02  0.10863280398E+03  0.00000000000E+00 0.  1.
<scales pt_clust_5="13000.00000" pt_clust_6="13000.00000" pt_clust_7="13000.00000" pt_clust_8="13000.00000" pt_clust_9="13000.00000"></scales>
<clustering>
<clus scale="   81.096">  5  6 -1 -1</clus>
<clus scale="  100.703">  7  8 -1 -1</clus>
<clus scale="   59.154">  7  9 -1 -1</clus>
<clus scale="  121.420">  1  5  2 -1</clus>
<clus scale="  194.317">  2  5  1 -1</clus>
</clustering>
</event>
<event>
 9    2  0.2147756E-005  0.2980094E+03  0.7546771E-02  0.1125808E+00
         21   -1    0    0  501  502  0.00000000000E+00  0.00000000000E+00  0.13055158198E+03  0.13055158198E+03  0.00000000000E+00 0.  1.
          2   -1    0    0  502    0 -0.00000000000E+00 -0.00000000000E+00 -0.87910349983E+03  0.87910349983E+03  0.00000000000E+00 0. -1.
         24    2    1    2    0    0  0.76063543182E+02 -0.32501764940E+01 -0.69932756406E+03  0.70760762017E+03  0.76506705665E+02 0.  0.
         23    2    1    2    0    0 -0.15193892996E+03  0.35572388014E+02 -0.96823536335E+02  0.20682413543E+03  0.95134602425E+02 0.  0.
        -11    1    3    3    0    0  0.39522630330E+02 -0.29758434178E+02 -0.19185616281E+03  0.19813225361E+03  0.00000000000E+00 0.  1.
         12    1    3    3    0    0  0.36540912852E+02  0.26508257684E+02 -0.50747140125E+03  0.50947536656E+03  0.00000000000E+00 0. -1.
        -13    1    4    4    0    0 -0.15854117360E+03  0.14418752100E+02 -0.75964101979E+02  0.17639089809E+03  0.00000000000E+00 0.  1.
         13    1    4    4    0    0  0.66022436333E+01  0.21153635914E+02 -0.20859434356E+02  0.30433237341E+02  0.00000000000E+00 0. -1.
          1    1    1    2  501    0  0.75875386782E+02 -0.32322211520E+02  0.47599182541E+02  0.95223326215E+02  0.00000000000E+00 0. -1.
<scales pt_clust_5="13000.00000" pt_clust_6="13000.00000" pt_clust_7="13000.00000" pt_clust_8="13000.00000" pt_clust_9="13000.00000"></scales>
<clustering>
<clus scale="   76.507">  5  6 -1 -1</clus>
<clus scale="   95.135">  7  8 -1 -1</clus>
<clus scale="   82.473">  7  9 -1 -1</clus>
<clus scale="  107.933">  2  5  1 -1</clus>
<clus scale="  298.009">  1  5  2 -1</clus>
</clustering>
</event>
<event>
 9    2  0.2147756E-005  0.1613340E+03  0.7546771E-02  0.1214180E+00
          4   -1    0    0  502    0 -0.00000000000E+00  0.00000000000E+00  0.88880419180E+03  0.88880419180E+03  0.00000000000E+00 0. -1.
         21   -1    0    0  501  502  0.00000000000E+00 -0.00000000000E+00 -0.11394634113E+03  0.11394634113E+03  0.00000000000E+00 0. -1.
         24    2    1    2    0    0  0.11332511605E+02 -0.38906707018E+02 -0.87510973229E+02  0.12542012660E+03  0.80186532855E+02 0.  0.
         23    2    1    2    0    0 -0.45955863934E+02 -0.72829709485E+01  0.46763058905E+03  0.47839364828E+03  0.89538437577E+02 0.  0.
        -13    1    3    3    0    0 -0.21015583917E+02 -0.42771427201E+02 -0.22493503513E+02  0.52697319215E+02  0.00000000000E+00 0.  1.
         14    1    3    3    0    0  0.32348095522E+02  0.38647201826E+01 -0.65017469716E+02  0.72722807387E+02  0.00000000000E+00 0. -1.
        -11    1    4    4    0    0  0.43995491897E+01  0.34338995975E+02  0.13203201528E+03  0.13649533229E+03  0.00000000000E+00 0.  1.
         11    1    4    4    0    0 -0.50355413124E+02 -0.41621966923E+02  0.33559857378E+03  0.34189831600E+03  0.00000000000E+00 0. -1.
          3    1    1    2  501    0  0.34623352329E+02  0.46189677966E+02  0.39473823484E+03  0.39893675805E+03  0.00000000000E+00 0. -1.
<scales pt_clust_5="13000.00000" pt_clust_6="13000.00000" pt_clust_7="13000.00000" pt_clust_8="13000.00000" pt_clust_9="13000.00000"></scales>
<clustering>
<clus scale="   80.187">  5  6 -1 -1</clus>
<clus scale="   89.538">  7  8 -1 -1</clus>
<clus scale="   57.726">  7  9 -1 -1</clus>
<clus scale="   89.845">  1  5  2 -1</clus>
<clus scale="  161.334">  2  5  1 -1</clus>
</clustering>
</event>
<event>
 9    2  0.2147756E-005  0.3822308E+03  0.7546771E-02  0.1106529E+00
         21   -1    0    0  501  502  0.00000000000E+00  0.00000000000E+00  0.23515149161E+03  0.23515149161E+03  0.00000000000E+00 0.  1.
         -3   -1    0    0    0  501 -0.00000000000E+00 -0.00000000000E+00 -0.33222814191E+03  0.33222814191E+03  0.00000000000E+00 0.  1.
         24    2    1    2    0    0 -0.12115580228E+02  0.12394864844E+02  0.10587418837E+03  0.13461012130E+03  0.81302650849E+02 0.  0.
         23    2    1    2    0    0 -0.10185846691E+03  0.41429867913E+02 -0.25847065360E+03  0.29503921370E+03  0.90274457140E+02 0.  0.
        -11    1    3    3    0    0 -0.29499494785E+02  0.38974339434E+02  0.79513221484E+02  0.93335800836E+02  0.00000000000E+00 0.  1.
         12    1    3    3    0    0  0.17383914557E+02 -0.26579474590E+02  0.26360966888E+02  0.41274320468E+02  0.00000000000E+00 0. -1.
        -13    1    4    4    0    0 -0.44153933702E+02  0.60095426971E+02 -0.95613451746E+02  0.12125577248E+03  0.00000000000E+00 0.  1.
         13    1    4    4    0    0 -0.57704533210E+02 -0.18665559058E+02 -0.16285720186E+03  0.17378344123E+03  0.00000000000E+00 0. -1.
         -4    1    1    2    0  502  0.11397404714E+03 -0.53824732757E+02  0.55519814934E+02  0.13773029851E+03  0.00000000000E+00 0.  1.
<scales pt_clust_5="13000.00000" pt_clust_6="13000.00000" pt_clust_7="13000.00000" pt_clust_8="13000.00000" pt_clust_9="13000.00000"></scales>
<clustering>
<clus scale="   81.303">  5  6 -1 -1</clus>
<clus scale="   83.130">  2  5  1 -1</clus>
<clus scale="   90.274">  7  8 -1 -1</clus>
<clus scale="  123.946">  7  9 -1 -1</clus>
<clus scale="  382.231">  1  5  2 -1</clus>
</clustering>
</event>
<event>
 9    2  0.2147756E-005  0.2111458E+03  0.7546771E-02  0.1181673E+00
         21   -1    0    0  501  502  0.00000000000E+00  0.00000000000E+00  0.42559499929E+03  0.42559499929E+03  0.00000000000E+00 0. -1.
          2   -1    0    0  502    0 -0.00000000000E+00 -0.00000000000E+00 -0.35635074455E+03  0.35635074455E+03  0.00000000000E+00 0. -1.
         24    2    1    2    0    0 -0.34622639308E+01  0.13922600360E+02 -0.32482613808E+03  0.33487301997E+03  0.80137965082E+02 0.  0.
         23    2    1    2    0    0  0.36802632450E+02  0.19863022185E+02  0.81377928404E+02  0.13079811887E+03  0.93470889924E+02 0.  0.
        -13    1    3    3    0    0  0.20974129456E+02 -0.26613947491E+02 -0.12424672307E+03  0.12878456624E+03  0.00000000000E+00 0.  1.
         14    1    3    3    0    0 -0.24436393387E+02  0.40536547851E+02 -0.20057941501E+03  0.20608845373E+03  0.00000000000E+00 0. -1.
        -13    1    4    4    0    0  0.62305309502E+02  0.36251239883E+02  0.57633845877E+02  0.92291734060E+02  0.00000000000E+00 0. -1.
         13    1    4    4    0    0 -0.25502677052E+02 -0.16388217698E+02  0.23744082528E+02  0.38506384811E+02  0.00000000000E+00 0.  1.
          1    1    1    2  501    0 -0.33340368519E+02 -0.33785622545E+02  0.31269246442E+03  0.31627460500E+03  0.00000000000E+00 0. -1.
<scales pt_clust_5="13000.00000" pt_clust_6="13000.00000" pt_clust_7="13000.00000" pt_clust_8="13000.00000" pt_clust_9="13000.00000"></scales>
<clustering>
<clus scale="   80.138">  5  6 -1 -1</clus>
<clus scale="   81.412">  2  5  1 -1</clus>
<clus scale="   93.471">  7  8 -1 -1</clus>
<clus scale="   46.968">  7  9 -1 -1</clus>
<clus scale="  211.146">  1  5  2 -1</clus>
</clustering>
</event>
<event>
 9    2  0.2147756E-005  0.6504967E+03  0.7546771E-02  0.1038462E+00
         21   -1    0    0  501  502  0.00000000000E+00  0.00000000000E+00  0.15220112336E+03  0.15220112336E+03  0.00000000000E+00 0. -1.
          2   -1    0    0  502    0 -0.00000000000E+00 -0.00000000000E+00 -0.10661250181E+04  0.10661250181E+04  0.00000000000E+00 0. -1.
         24    2    1    2    0    0  0.55257010574E+02  0.47595511946E+02 -0.31843914094E+03  0.33642586704E+03  0.80375416368E+02 0.  0.
         23    2    1    2    0    0  0.17154355902E+03  0.22496216389E+03 -0.27823720843E+03  0.40611440863E+03  0.86474278956E+02 0.  0.
        -13    1    3    3    0    0  0.54330711141E+02 -0.23123531569E+01 -0.11902451387E+03  0.13085873319E+03  0.00000000000E+00 0.  1.
         14    1    3    3    0    0  0.92629943277E+00  0.49907865103E+02 -0.19941462707E+03  0.20556713385E+03  0.00000000000E+00 0. -1.
        -13    1    4    4    0    0  0.42916361459E+02  0.39528886853E+02 -0.11039167850E+03  0.12486260312E+03  0.00000000000E+00 0.  1.
         13    1    4    4    0    0  0.12862719756E+03  0.18543327704E+03 -0.16784552993E+03  0.28125180551E+03  0.00000000000E+00 0. -1.
          1    1    1    2  501    0 -0.22680056959E+03 -0.27255767584E+03 -0.31724754537E+03  0.47578586577E+03  0.00000000000E+00 0. -1.
<scales pt_clust_5="13000.00000" pt_clust_6="13000.00000" pt_clust_7="13000.00000" pt_clust_8="13000.00000" pt_clust_9="13000.00000"></scales>
<clustering>
<clus scale="   80.375">  5  6 -1 -1</clus>
<clus scale="   86.474">  7  8 -1 -1</clus>
<clus scale="  108.531">  2  5  1 -1</clus>
<clus scale="  316.034">  7  9 -1 -1</clus>
<clus scale="  650.497">  1  5  2 -1</clus>
</clustering>
</event>
<event>
 9    2  0.2147756E-005  0.6115973E+03  0.7546771E-02  0.1044157E+00
          2   -1    0    0  502    0 -0.00000000000E+00  0.00000000000E+00  0.10746182418E+04  0.10746182418E+04  0.00000000000E+00 0. -1.
         21   -1    0    0  501  502  0.00000000000E+00 -0.00000000000E+00 -0.12150919308E+03  0.12150919308E+03  0.00000000000E+00 0.  1.
         24    2    1    2    0    0 -0.67483129372E+02  0.43013560729E+02  0.13178300985E+03  0.17210219666E+03  0.76473951469E+02 0.  0.
         23    2    1    2    0    0 -0.20666830031E+03  0.14603392670E+03  0.27906384580E+03  0.38767137052E+03  0.91513755203E+02 0.  0.
        -11    1    3    3    0    0 -0.16018183300E+01  0.39241189623E+02  0.76596385867E+02  0.86078122150E+02  0.00000000000E+00 0.  1.
         12    1    3    3    0    0 -0.65881311042E+02  0.37723711058E+01  0.55186623982E+02  0.86024074508E+02  0.00000000000E+00 0. -1.
        -11    1    4    4    0    0 -0.31779367274E+02  0.42803280101E+02  0.16645721191E+02  0.55849162982E+02  0.00000000000E+00 0. -1.
         11    1    4    4    0    0 -0.17488893303E+03  0.10323064660E+03  0.26241812460E+03  0.33182220754E+03  0.00000000000E+00 0.  1.
          1    1    1    2  501    0  0.27415142968E+03 -0.18904748743E+03  0.54226219311E+03  0.63635386773E+03  0.00000000000E+00 0. -1.
<scales pt_clust_5="13000.00000" pt_clust_6="13000.00000" pt_clust_7="13000.00000" pt_clust_8="13000.00000" pt_clust_9="13000.00000"></scales>
<clustering>
<clus scale="   76.474">  5  6 -1 -1</clus>
<clus scale="   91.514">  7  8 -1 -1</clus>
<clus scale="  110.691">  1  5  2 -1</clus>
<clus scale="  281.941">  7  9 -1 -1</clus>
<clus scale="  611.597">  2  5  1 -1</clus>
</clustering>
</event>
<event>
 9    2  0.2147756E-005  0.5008066E+03  0.7546771E-02  0.1053577E+00
         21   -1    0    0  501  502  0.00000000000E+00  0.00000000000E+00  0.84936074036E+02  0.84936074036E+02  0.00000000000E+00 0. -1.
          2   -1    0    0  502    0 -0.00000000000E+00 -0.00000000000E+00 -0.12827952451E+04  0.12827952451E+04  0.00000000000E+00 0. -1.
         24    2    1    2    0    0  0.13729086014E+03  0.20739631695E+01 -0.21281541644E+03  0.26268904868E+03  0.69728424786E+02 0.  0.
         23    2    1    2    0    0 -0.16840763809E+03 -0.11401442605E+03 -0.16730878301E+03  0.27909469046E+03  0.92418588256E+02 0.  0.
        -11    1    3    3    0    0  0.52656229692E+02 -0.24346916698E+02 -0.12545388333E+03  0.13821768238E+03  0.00000000000E+00 0.  1.
         12    1    3    3    0    0  0.84634630444E+02  0.26420879867E+02 -0.87361533104E+02  0.12447136630E+03  0.00000000000E+00 0. -1.
        -13    1    4    4    0    0 -0.32992056026E+01 -0.28015719143E+02  0.85882101431E+00  0.28222382079E+02  0.00000000000E+00 0.  1.
         13    1    4    4    0    0 -0.16510843249E+03 -0.85998706907E+02 -0.16816760403E+03  0.25087230838E+03  0.00000000000E+00 0. -1.
          1    1    1    2  501    0  0.31116777954E+02  0.11194046288E+03 -0.81773497166E+03  0.82594758004E+03  0.00000000000E+00 0. -1.
<scales pt_clust_5="13000.00000" pt_clust_6="13000.00000" pt_clust_7="13000.00000" pt_clust_8="13000.00000" pt_clust_9="13000.00000"></scales>
<clustering>
<clus scale="   69.728">  5  6 -1 -1</clus>
<clus scale="   92.419">  7  8 -1 -1</clus>
<clus scale="  116.185">  7  9 -1 -1</clus>
<clus scale="  153.997">  2  5  1 -1</clus>
<clus scale="  500.807">  1  5  2 -1</clus>
</clustering>
</event>
<event>
 9    2  0.2147756E-005  0.2682838E+03  0.7546771E-02  0.1116556E+00
          2   -1    0    0  502    0 -0.00000000000E+00  0.00000000000E+00  0.12263731826E+04  0.12263731826E+04  0.00000000000E+00 0. -1.
         21   -1    0    0  501  502  0.00000000000E+00 -0.00000000000E+00 -0.43910548199E+02  0.43910548199E+02  0.00000000000E+00 0. -1.
         24    2    1    2    0    0  0.83015020222E+02  0.14375272155E+03  0.36328932477E+03  0.40829702025E+03  0.84681666981E+02 0.  0.
         23    2    1    2    0    0 -0.10055894861E+03 -0.36222159240E+02  0.29457177570E+03  0.32619068531E+03  0.90574197090E+02 0.  0.
        -11    1    3    3    0    0 -0.14879202680E+02  0.43400749810E+02  0.80201562568E+02  0.92397545394E+02  0.00000000000E+00 0.  1.
         12    1    3    3    0    0  0.97894222902E+02  0.10035197174E+03  0.28308776220E+03  0.31589947486E+03  0.00000000000E+00 0. -1.
        -11    1    4    4    0    0 -0.48924445100E+02 -0.38212559885E+02  0.61225284904E+02  0.87191379006E+02  0.00000000000E+00 0. -1.
         11    1    4    4    0    0 -0.51634503512E+02  0.19904006451E+01  0.23334649080E+03  0.23899930631E+03  0.00000000000E+00 0.  1.
          1    1    1    2  501    0  0.17543928390E+02 -0.10753056231E+03  0.52460153398E+03  0.53579602528E+03  0.00000000000E+00 0. -1.
<scales pt_clust_5="13000.00000" pt_clust_6="13000.00000" pt_clust_7="13000.00000" pt_clust_8="13000.00000" pt_clust_9="13000.00000"></scales>
<clustering>
<clus scale="   84.682">  5  6 -1 -1</clus>
<clus scale="   90.574">  7  8 -1 -1</clus>
<clus scale="  108.952">  7  9 -1 -1</clus>
<clus scale="  186.353">  1  5  2 -1</clus>
<clus scale="  268.284">  2  5  1 -1</clus>
</clustering>
</event>
<event>
 9    2  0.2147756E-005  0.2331011E+03  0.7546771E-02  0.1160436E+00
          2   -1    0    0  502    0 -0.00000000000E+00  0.00000000000E+00  0.23028975319E+03  0.23028975319E+03  0.00000000000E+00 0. -1.
         21   -1    0    0  501  502  0.00000000000E+00 -0.00000000000E+00 -0.12875821859E+03  0.12875821859E+03  0.00000000000E+00 0. -1.
         24    2    1    2    0    0  0.52072475761E+02 -0.63867520612E+01 -0.13361919880E+02  0.99169856467E+02  0.83089025720E+02 0.  0.
         23    2    1    2    0    0  0.51379521537E+02  0.36486482591E+02  0.14307992124E+02  0.11248155919E+03  0.92066627357E+02 0.  0.
        -11    1    3    3    0    0  0.43467346659E+02 -0.40671480319E+02 -0.20781975211E+02  0.63051328539E+02  0.00000000000E+00 0.  1.
         12    1    3    3    0    0  0.86051291023E+01  0.34284728258E+02  0.74200553304E+01  0.36118527928E+02  0.00000000000E+00 0. -1.
        -13    1    4    4    0    0  0.73233757068E+02  0.17289911673E+02  0.28057178882E+02  0.80307717604E+02  0.00000000000E+00 0. -1.
         13    1    4    4    0    0 -0.21854235531E+02  0.19196570918E+02 -0.13749186758E+02  0.32173841582E+02  0.00000000000E+00 0.  1.
          1    1    1    2  501    0 -0.10345199730E+03 -0.30099730530E+02  0.10058546235E+03  0.14739655613E+03  0.00000000000E+00 0. -1.
<scales pt_clust_5="13000.00000" pt_clust_6="13000.00000" pt_clust_7="13000.00000" pt_clust_8="13000.00000" pt_clust_9="13000.00000"></scales>
<clustering>
<clus scale="   83.089">  5  6 -1 -1</clus>
<clus scale="   92.067">  7  8 -1 -1</clus>
<clus scale="   98.266">  1  5  2 -1</clus>
<clus scale="   77.063">  7  9 -1 -1</clus>
<clus scale="  233.101">  2  5  1 -1</clus>
</clustering>
</event>
<event>
 9    2  0.2147756E-005  0.2754877E+03  0.7546771E-02  0.1122226E+00
         -1   -1    0    0    0  501 -0.00000000000E+00  0.00000000000E+00  0.21206584947E+03  0.21206584947E+03  0.00000000000E+00 0.  1.
         21   -1    0    0  501  502  0.00000000000E+00 -0.00000000000E+00 -0.21276804185E+03  0.21276804185E+03  0.00000000000E+00 0.  1.
         24    2    1    2    0    0 -0.52972381830E+02  0.11163274403E+03  0.13356720281E+01  0.14933866343E+03  0.83858867141E+02 0.  0.
         23    2    1    2    0    0 -0.28742039344E+01  0.45475132824E+02  0.40022965855E+02  0.10353348925E+03  0.83911243868E+02 0.  0.
        -11    1    3    3    0    0 -0.47732680102E+02  0.12330684088E+03  0.11882796453E+02  0.13275611703E+03  0.00000000000E+00 0.  1.
         12    1    3    3    0    0 -0.52397017285E+01 -0.11674096849E+02 -0.10547124425E+02  0.16582546399E+02  0.00000000000E+00 0. -1.
        -13    1    4    4    0    0 -0.17775977494E+02 -0.20423477619E+02  0.17830199009E+02  0.32419435692E+02  0.00000000000E+00 0.  1.
         13    1    4    4    0    0  0.14901773559E+02  0.65898610443E+02  0.22192766846E+02  0.71114053560E+02  0.00000000000E+00 0. -1.
         -2    1    1    2    0  502  0.55846585765E+02 -0.15710787685E+03 -0.42060830264E+02  0.17196173863E+03  0.00000000000E+00 0.  1.
<scales pt_clust_5="13000.00000" pt_clust_6="13000.00000" pt_clust_7="13000.00000" pt_clust_8="13000.00000" pt_clust_9="13000.00000"></scales>
<clustering>
<clus scale="   83.859">  5  6 -1 -1</clus>
<clus scale="   83.911">  7  8 -1 -1</clus>
<clus scale="  149.333">  1  5  2 -1</clus>
<clus scale="  108.507">  7  9 -1 -1</clus>
<clus scale="  275.488">  2  5  1 -1</clus>
</clustering>
</event>
<event>
 9    2  0.2147756E-005  0.3159267E+03  0.7546771E-02  0.1102743E+00
         21   -1    0    0  501  502  0.00000000000E+00  0.00000000000E+00  0.55129132924E+02  0.55129132924E+02  0.00000000000E+00 0. -1.
          2   -1    0    0  502    0 -0.00000000000E+00 -0.00000000000E+00 -0.11261969361E+04  0.11261969361E+04  0.00000000000E+00 0. -1.
         24    2    1    2    0    0 -0.12804995274E+03  0.44086865006E+02 -0.21898002951E+03  0.27255586836E+03  0.89409205284E+02 0.  0.
         23    2    1    2    0    0 -0.63830219215E+02  0.87168011090E+01 -0.41510612953E+03  0.42860441174E+03  0.85078572416E+02 0.  0.
        -13    1    3    3    0    0 -0.51253770621E+01  0.36218609906E+02 -0.72216930076E+02  0.80952715724E+02  0.00000000000E+00 0.  1.
         14    1    3    3    0    0 -0.12292457568E+03  0.78682550998E+01 -0.14676309944E+03  0.19160315264E+03  0.00000000000E+00 0. -1.
        -11    1    4    4    0    0 -0.46343502777E+01  0.39233088601E+02 -0.17734788680E+03  0.18169475886E+03  0.00000000000E+00 0. -1.
         11    1    4    4    0    0 -0.59195868937E+02 -0.30516287492E+02 -0.23775824273E+03  0.24690965289E+03  0.00000000000E+00 0.  1.
          1    1    1    2  501    0  0.19188017195E+03 -0.52803666115E+02 -0.43698164416E+03  0.48016578894E+03  0.00000000000E+00 0. -1.
<scales pt_clust_5="13000.00000" pt_clust_6="13000.00000" pt_clust_7="13000.00000" pt_clust_8="13000.00000" pt_clust_9="13000.00000"></scales>
<clustering>
<clus scale="   85.079">  7  8 -1 -1</clus>
<clus scale="   89.409">  5  6 -1 -1</clus>
<clus scale="  162.279">  2  5  1 -1</clus>
<clus scale="  128.693">  7  9 -1 -1</clus>
<clus scale="  315.927">  1  5  2 -1</clus>
</clustering>
</event>
<event>
 9    2  0.2147756E-005  0.2991011E+03  0.7546771E-02  0.1127487E+00
          2   -1    0    0  502    0 -0.00000000000E+00  0.00000000000E+00  0.88243734148E+03  0.88243734148E+03  0.00000000000E+00 0. -1.
         21   -1    0    0  501  502  0.00000000000E+00 -0.00000000000E+00 -0.50253008935E+02  0.50253008935E+02  0.00000000000E+00 0. -1.
         24    2    1    2    0    0 -0.24998166287E+02 -0.52605999804E+02  0.10636319467E+03  0.14765672205E+03  0.84244162123E+02 0.  0.
         23    2    1    2    0    0  0.51552609596E+02  0.15915381288E+03  0.48607850933E+03  0.52134042998E+03  0.86809671094E+02 0.  0.
        -13    1    3    3    0    0 -0.53970473760E+02 -0.20924867918E+02  0.73690887369E+02  0.93707038245E+02  0.00000000000E+00 0.  1.
         14    1    3    3    0    0  0.28972307473E+02 -0.31681131886E+02  0.32672307301E+02  0.53949683802E+02  0.00000000000E+00 0. -1.
        -13    1    4    4    0    0 -0.11448453514E+02  0.10409022896E+03  0.26233219420E+03  0.28246065738E+03  0.00000000000E+00 0. -1.
         13    1    4    4    0    0  0.63001063110E+02  0.55063583923E+02  0.22374631513E+03  0.23887977261E+03  0.00000000000E+00 0.  1.
          1    1    1    2  501    0 -0.26554443309E+02 -0.10654781308E+03  0.23974262855E+03  0.26369319838E+03  0.00000000000E+00 0. -1.
<scales pt_clust_5="13000.00000" pt_clust_6="13000.00000" pt_clust_7="13000.00000" pt_clust_8="13000.00000" pt_clust_9="13000.00000"></scales>
<clustering>
<clus scale="   84.244">  5  6 -1 -1</clus>
<clus scale="   86.810">  7  8 -1 -1</clus>
<clus scale="  102.418">  1  5  2 -1</clus>
<clus scale="  128.887">  7  9 -1 -1</clus>
<clus scale="  299.101">  2  5  1 -1</clus>
</clustering>
</event>
<event>
 9    2  0.2147756E-005  0.2584102E+03  0.7546771E-02  0.1116139E+00
          2   -1    0    0  502    0 -0.00000000000E+00  0.00000000000E+00  0.86501811610E+03  0.86501811610E+03  0.00000000000E+00 0. -1.
         21   -1    0    0  501  502  0.00000000000E+00 -0.00000000000E+00 -0.34088290356E+03  0.34088290356E+03  0.00000000000E+00 0. -1.
         24    2    1    2    0    0  0.19490098989E+03  0.99712626313E+00  0.80036459656E+03  0.82764383569E+03  0.80146373656E+02 0.  0.
         23    2    1    2    0    0 -0.58814664981E+02  0.39234406936E+02 -0.10436001710E+03  0.15537348475E+03  0.90837234051E+02 0.  0.
        -11    1    3    3    0    0  0.34525707200E+02  0.10617000345E+02  0.59888890898E+02  0.69938718940E+02  0.00000000000E+00 0.  1.
         12    1    3    3    0    0  0.16037528269E+03 -0.96198740823E+01  0.74047570566E+03  0.75770511675E+03  0.00000000000E+00 0. -1.
        -11    1    4    4    0    0  0.20687905115E+02 -0.77252129730E+01 -0.13799176970E+02  0.26040077161E+02  0.00000000000E+00 0. -1.
         11    1    4    4    0    0 -0.79502570095E+02  0.46959619909E+02 -0.90560840125E+02  0.12933340759E+03  0.00000000000E+00 0.  1.
          1    1    1    2  501    0 -0.13608632490E+03 -0.40231533199E+02 -0.17186936693E+03  0.22288369922E+03  0.00000000000E+00 0. -1.
<scales pt_clust_5="13000.00000" pt_clust_6="13000.00000" pt_clust_7="13000.00000" pt_clust_8="13000.00000" pt_clust_9="13000.00000"></scales>
<clustering>
<clus scale="   80.146">  5  6 -1 -1</clus>
<clus scale="   90.837">  7  8 -1 -1</clus>
<clus scale="  141.909">  7  9 -1 -1</clus>
<clus scale="  210.739">  1  5  2 -1</clus>
<clus scale="  258.410">  2  5  1 -1</clus>
</clustering>
</event>
<event>
 9    2  0.2147756E-005  0.2684519E+03  0.7546771E-02  0.1119111E+00
          2   -1    0    0  502    0 -0.00000000000E+00  0.00000000000E+00  0.51658511211E+03  0.51658511211E+03  0.00000000000E+00 0. -1.
         21   -1    0    0  501  502  0.00000000000E+00 -0.00000000000E+00 -0.95758096235E+02  0.95758096235E+02  0.00000000000E+00 0. -1.
         24    2    1    2    0    0 -0.13175647518E+03  0.82083244133E+02  0.19396598796E+03  0.26087155496E+03  0.79584772327E+02 0.  0.
         23    2    1    2    0    0  0.67108338841E-01  0.21446727483E+02  0.47082031923E+02  0.10574613219E+03  0.92225593628E+02 0.  0.
        -11    1    3    3    0    0 -0.23505760842E+02  0.12026940990E+02  0.94226457717E+02  0.97855983140E+02  0.00000000000E+00 0.  1.
         12    1    3    3    0    0 -0.10825071434E+03  0.70056303143E+02  0.99739530238E+02  0.16301557182E+03  0.00000000000E+00 0. -1.
        -11    1    4    4    0    0 -0.27264663143E+02 -0.28907538558E+01  0.60773539490E+02  0.66671893750E+02  0.00000000000E+00 0.  1.
         11    1    4    4    0    0  0.27331771482E+02  0.24337481339E+02 -0.13691507566E+02  0.39074238440E+02  0.00000000000E+00 0. -1.
          1    1    1    2  501    0  0.13168936684E+03 -0.10352997162E+03  0.17977899599E+03  0.24572552119E+03  0.00000000000E+00 0. -1.
<scales pt_clust_5="13000.00000" pt_clust_6="13000.00000" pt_clust_7="13000.00000" pt_clust_8="13000.00000" pt_clust_9="13000.00000"></scales>
<clustering>
<clus scale="   79.585">  5  6 -1 -1</clus>
<clus scale="   92.226">  7  8 -1 -1</clus>
<clus scale="  167.513">  7  9 -1 -1</clus>
<clus scale="  174.445">  1  5  2 -1</clus>
<clus scale="  268.452">  2  5  1 -1</clus>
</clustering>
</event>
<event>
 9    2  0.2147756E-005  0.2241228E+03  0.7546771E-02  0.1152311E+00
         21   -1    0    0  501  502  0.00000000000E+00  0.00000000000E+00  0.23669014097E+02  0.23669014097E+02  0.00000000000E+00 0.  1.
          2   -1    0    0  502    0 -0.00000000000E+00 -0.00000000000E+00 -0.13708806972E+04  0.13708806972E+04  0.00000000000E+00 0. -1.
         24    2    1    2    0    0 -0.98743468276E+02 -0.37545540321E+02 -0.58359191890E+03  0.59871920634E+03  0.82007439351E+02 0.  0.
         23    2    1    2    0    0  0.33074270022E+02 -0.41624083899E+02 -0.53379692913E+03  0.54403930471E+03  0.90626330776E+02 0.  0.
        -13    1    3    3    0    0 -0.30549331554E+02 -0.41812786298E+02 -0.12874876119E+03  0.13877252705E+03  0.00000000000E+00 0.  1.
         14    1    3    3    0    0 -0.68194136722E+02  0.42672459772E+01 -0.45484315771E+03  0.45994667929E+03  0.00000000000E+00 0. -1.
        -13    1    4    4    0    0 -0.25612440074E+02  0.85950455948E+01 -0.11064165348E+03  0.11389226216E+03  0.00000000000E+00 0.  1.
         13    1    4    4    0    0  0.58686710097E+02 -0.50219129493E+02 -0.42315527565E+03  0.43014704256E+03  0.00000000000E+00 0. -1.
          1    1    1    2  501    0  0.65669198253E+02  0.79169624220E+02 -0.22982283509E+03  0.25179120025E+03  0.00000000000E+00 0. -1.
<scales pt_clust_5="13000.00000" pt_clust_6="13000.00000" pt_clust_7="13000.00000" pt_clust_8="13000.00000" pt_clust_9="13000.00000"></scales>
<clustering>
<clus scale="   82.007">  5  6 -1 -1</clus>
<clus scale="   90.626">  7  8 -1 -1</clus>
<clus scale="  102.861">  7  9 -1 -1</clus>
<clus scale="  133.735">  2  5  1 -1</clus>
<clus scale="  224.123">  1  5  2 -1</clus>
</clustering>
</event>
<event>
 9    2  0.2147756E-005  0.2885305E+03  0.7546771E-02  0.1138841E+00
         21   -1    0    0  501  502  0.00000000000E+00  0.00000000000E+00  0.10928883375E+03  0.10928883375E+03  0.00000000000E+00 0. -1.
          2   -1    0    0  502    0 -0.00000000000E+00 -0.00000000000E+00 -0.10614413741E+04  0.10614413741E+04  0.00000000000E+00 0. -1.
         24    2    1    2    0    0  0.89249493373E+01 -0.29583762939E+02 -0.86501945936E+03  0.86933011577E+03  0.80754760628E+02 0.  0.
         23    2    1    2    0    0  0.93023272275E+02  0.42318696790E+02  0.35519551911E+02  0.14140232088E+03  0.91042717997E+02 0.  0.
        -13    1    3    3    0    0  0.36037149497E+02 -0.30436413758E+01 -0.20100128681E+03  0.20422893330E+03  0.00000000000E+00 0.  1.
         14    1    3    3    0    0 -0.27112200160E+02 -0.26540121563E+02 -0.66401817255E+03  0.66510118247E+03  0.00000000000E+00 0. -1.
        -11    1    4    4    0    0  0.29638804018E+01  0.44501513174E+02  0.90855100249E-01  0.44600196373E+02  0.00000000000E+00 0.  1.
         11    1    4    4    0    0  0.90059391873E+02 -0.21828163840E+01  0.35428696810E+02  0.96802124509E+02  0.00000000000E+00 0. -1.
          1    1    1    2  501    0 -0.10194822161E+03 -0.12734933852E+02 -0.12265263292E+03  0.15999777121E+03  0.00000000000E+00 0. -1.
<scales pt_clust_5="13000.00000" pt_clust_6="13000.00000" pt_clust_7="13000.00000" pt_clust_8="13000.00000" pt_clust_9="13000.00000"></scales>
<clustering>
<clus scale="   80.755">  5  6 -1 -1</clus>
<clus scale="   86.465">  2  5  1 -1</clus>
<clus scale="   91.043">  7  8 -1 -1</clus>
<clus scale="  101.416">  7  9 -1 -1</clus>
<clus scale="  288.530">  1  5  2 -1</clus>
</clustering>
</event>
<event>
 9    2  0.2147756E-005  0.3613978E+03  0.7546771E-02  0.1086055E+00
         21   -1    0    0  501  502  0.00000000000E+00  0.00000000000E+00  0.63219982599E+02  0.63219982599E+02  0.00000000000E+00 0. -1.
          2   -1    0    0  502    0 -0.00000000000E+00 -0.00000000000E+00 -0.11081001466E+04  0.11081001466E+04  0.00000000000E+00 0. -1.
         24    2    1    2    0    0  0.14445398496E+03 -0.24942097074E+02 -0.33799627406E+03  0.37741005980E+03  0.81901220867E+02 0.  0.
         23    2    1    2    0    0 -0.53033422651E+02  0.15218130187E+03 -0.50764724419E+03  0.54044848363E+03  0.91690492232E+02 0.  0.
        -11    1    3    3    0    0  0.48388487605E+02 -0.28926907393E+02 -0.20932643959E+03  0.21678507794E+03  0.00000000000E+00 0.  1.
         12    1    3    3    0    0  0.96065497354E+02  0.39848103192E+01 -0.12866983447E+03  0.16062498186E+03  0.00000000000E+00 0. -1.
        -11    1    4    4    0    0 -0.54506136550E+02  0.83993936765E+02 -0.18190129737E+03  0.20763906743E+03  0.00000000000E+00 0.  1.
         11    1    4    4    0    0  0.14727138993E+01  0.68187365102E+02 -0.32574594682E+03  0.33280941621E+03  0.00000000000E+00 0. -1.
          1    1    1    2  501    0 -0.91420562308E+02 -0.12723920479E+03 -0.19923664571E+03  0.25346158573E+03  0.00000000000E+00 0. -1.
<scales pt_clust_5="13000.00000" pt_clust_6="13000.00000" pt_clust_7="13000.00000" pt_clust_8="13000.00000" pt_clust_9="13000.00000"></scales>
<clustering>
<clus scale="   81.901">  5  6 -1 -1</clus>
<clus scale="   91.690">  7  8 -1 -1</clus>
<clus scale="  156.677">  7  9 -1 -1</clus>
<clus scale="  167.919">  2  5  1 -1</clus>
<clus scale="  361.398">  1  5  2 -1</clus>
</clustering>
</event>
<event>
 9    2  0.2147756E-005  0.2152541E+03  0.7546771E-02  0.1143765E+00
         -3   -1    0    0    0  501 -0.00000000000E+00  0.00000000000E+00  0.40347187680E+03  0.40347187680E+03  0.00000000000E+00 0.  1.
         21   -1    0    0  501  502  0.00000000000E+00 -0.00000000000E+00 -0.25056257652E+03  0.25056257652E+03  0.00000000000E+00 0.  1.
         24    2    1    2    0    0 -0.12730271292E+03  0.11297286326E+03  0.32800108386E+03  0.37656109420E+03  0.72420287945E+02 0.  0.
         23    2    1    2    0    0  0.68690458334E+02 -0.60302003197E+02 -0.76297375856E+02  0.15110108808E+03  0.93035147133E+02 0.  0.
        -11    1    3    3    0    0 -0.35050423315E+02  0.71921907608E+02  0.10717991084E+03  0.13374911684E+03  0.00000000000E+00 0.  1.
         12    1    3    3    0    0 -0.92252289607E+02  0.41050955656E+02  0.22082117302E+03  0.24281197736E+03  0.00000000000E+00 0. -1.
        -13    1    4    4    0    0  0.49761246934E+02  0.63478541933E+01 -0.63030924637E+02  0.80556653418E+02  0.00000000000E+00 0.  1.
         13    1    4    4    0    0  0.18929211400E+02 -0.66649857391E+02 -0.13266451218E+02  0.70544434666E+02  0.00000000000E+00 0. -1.
         -4    1    1    2    0  502  0.58612254589E+02 -0.52670860067E+02 -0.98794407717E+02  0.12637227103E+03  0.00000000000E+00 0.  1.
<scales pt_clust_5="13000.00000" pt_clust_6="13000.00000" pt_clust_7="13000.00000" pt_clust_8="13000.00000" pt_clust_9="13000.00000"></scales>
<clustering>
<clus scale="   72.420">  5  6 -1 -1</clus>
<clus scale="   93.035">  7  8 -1 -1</clus>
<clus scale="   78.801">  7  9 -1 -1</clus>
<clus scale="  184.969">  1  5  2 -1</clus>
<clus scale="  215.254">  2  5  1 -1</clus>
</clustering>
</event>
<event>
 9    2  0.2147756E-005  0.2741490E+03  0.7546771E-02  0.1130925E+00
          2   -1    0    0  502    0 -0.00000000000E+00  0.00000000000E+00  0.11202876245E+04  0.11202876245E+04  0.00000000000E+00 0. -1.
         21   -1    0    0  501  502  0.00000000000E+00 -0.00000000000E+00 -0.42164193856E+02  0.42164193856E+02  0.00000000000E+00 0.  1.
         24    2    1    2    0    0  0.23034821506E+02  0.88952902670E+02  0.59078521297E+03  0.60329511227E+03  0.80589098078E+02 0.  0.
         23    2    1    2    0    0  0.30771677687E+02 -0.13291783618E+03  0.18619785644E+03  0.25010400524E+03  0.96272137056E+02 0.  0.
        -11    1    3    3    0    0 -0.90467332035E+01  0.64002781958E+02  0.19511986416E+03  0.20554795273E+03  0.00000000000E+00 0.  1.
         12    1    3    3    0    0  0.32081554709E+02  0.24950120712E+02  0.39566534881E+03  0.39774715955E+03  0.00000000000E+00 0. -1.
        -13    1    4    4    0    0  0.61038280597E+02 -0.79961216469E+02  0.83850962279E+02  0.13095973317E+03  0.00000000000E+00 0.  1.
         13    1    4    4    0    0 -0.30266602910E+02 -0.52956619710E+02  0.10234689416E+03  0.11914427207E+03  0.00000000000E+00 0. -1.
          1    1    1    2  501    0 -0.53806499192E+02  0.43964933509E+02  0.30114036121E+03  0.30905270082E+03  0.00000000000E+00 0. -1.
<scales pt_clust_5="13000.00000" pt_clust_6="13000.00000" pt_clust_7="13000.00000" pt_clust_8="13000.00000" pt_clust_9="13000.00000"></scales>
<clustering>
<clus scale="   80.589">  5  6 -1 -1</clus>
<clus scale="   96.272">  7  8 -1 -1</clus>
<clus scale="   69.484">  7  9 -1 -1</clus>
<clus scale="  122.220">  1  5  2 -1</clus>
<clus scale="  274.149">  2  5  1 -1</clus>
</clustering>
</event>
<event>
 9    2  0.2147756E-005  0.1804283E+03  0.7546771E-02  0.1177195E+00
         21   -1    0    0  501  502  0.00000000000E+00  0.00000000000E+00  0.18068934111E+02  0.18068934111E+02  0.00000000000E+00 0. -1.
          2   -1    0    0  502    0 -0.00000000000E+00 -0.00000000000E+00 -0.19225482057E+04  0.19225482057E+04  0.00000000000E+00 0. -1.
         24    2    1    2    0    0  0.91037292004E+02  0.76340497797E+02 -0.13460485748E+04  0.13537617650E+04  0.81905375834E+02 0.  0.
         23    2    1    2    0    0 -0.36435117956E+02 -0.16887911558E+02 -0.33613362955E+03  0.35035591701E+03  0.90281406152E+02 0.  0.
        -11    1    3    3    0    0  0.17695332529E+02  0.38019406464E+02 -0.18170545406E+03  0.18648182779E+03  0.00000000000E+00 0.  1.
         12    1    3    3    0    0  0.73341959475E+02  0.38321091333E+02 -0.11643431207E+04  0.11672799372E+04  0.00000000000E+00 0. -1.
        -13    1    4    4    0    0 -0.59107176969E+02  0.83904767170E+01 -0.26348098865E+03  0.27015974876E+03  0.00000000000E+00 0.  1.
         13    1    4    4    0    0  0.22672059013E+02 -0.25278388275E+02 -0.72652640898E+02  0.80196168257E+02  0.00000000000E+00 0. -1.
          1    1    1    2  501    0 -0.54602174047E+02 -0.59452586239E+02 -0.22229706726E+03  0.23649945779E+03  0.00000000000E+00 0. -1.
<scales pt_clust_5="13000.00000" pt_clust_6="13000.00000" pt_clust_7="13000.00000" pt_clust_8="13000.00000" pt_clust_9="13000.00000"></scales>
<clustering>
<clus scale="   81.905">  5  6 -1 -1</clus>
<clus scale="   90.281">  7  8 -1 -1</clus>
<clus scale="   80.722">  7  9 -1 -1</clus>
<clus scale="  144.306">  2  5  1 -1</clus>
<clus scale="  180.428">  1  5  2 -1</clus>
</clustering>
</event>
<event>
 9    2  0.2147756E-005  0.1633123E+03  0.7546771E-02  0.1215868E+00
         21   -1    0    0  501  502  0.00000000000E+00  0.00000000000E+00  0.30236170971E+02  0.30236170971E+02  0.00000000000E+00 0. -1.
          2   -1    0    0  502    0 -0.00000000000E+00 -0.00000000000E+00 -0.51933721842E+03  0.51933721842E+03  0.00000000000E+00 0. -1.
         24    2    1    2    0    0  0.14944928000E+00 -0.10807246782E+02 -0.12312429831E+03  0.14881174405E+03  0.82876555274E+02 0.  0.
         23    2    1    2    0    0  0.16927008003E+02 -0.10012715557E+02 -0.18672888633E+03  0.21950251441E+03  0.11369652048E+03 0.  0.
        -11    1    3    3    0    0  0.26087523153E+02  0.77292483545E+01 -0.11166812077E+03  0.11493506576E+03  0.00000000000E+00 0.  1.
         12    1    3    3    0    0 -0.25938073873E+02 -0.18536495137E+02 -0.11456177541E+02  0.33876678291E+02  0.00000000000E+00 0. -1.
        -11    1    4    4    0    0  0.31838881858E+02  0.30884343654E+02 -0.22763655722E+02  0.49857207129E+02  0.00000000000E+00 0. -1.
         11    1    4    4    0    0 -0.14911873855E+02 -0.40897059211E+02 -0.16396523061E+03  0.16964530728E+03  0.00000000000E+00 0.  1.
          1    1    1    2  501    0 -0.17076457283E+02  0.20819962339E+02 -0.17924786280E+03  0.18125913092E+03  0.00000000000E+00 0. -1.
<scales pt_clust_5="13000.00000" pt_clust_6="13000.00000" pt_clust_7="13000.00000" pt_clust_8="13000.00000" pt_clust_9="13000.00000"></scales>
<clustering>
<clus scale="   82.877">  5  6 -1 -1</clus>
<clus scale="   83.578">  2  5  1 -1</clus>
<clus scale="  113.697">  7  8 -1 -1</clus>
<clus scale="   23.171">  7  9 -1 -1</clus>
<clus scale="  163.312">  1  5  2 -1</clus>
</clustering>
</event>
<event>
 9    2  0.2147756E-005  0.6179600E+03  0.7546771E-02  0.1031473E+00
          2   -1    0    0  502    0 -0.00000000000E+00  0.00000000000E+00  0.53673334940E+03  0.53673334940E+03  0.00000000000E+00 0. -1.
         21   -1    0    0  501  502  0.00000000000E+00 -0.00000000000E+00 -0.28205920725E+03  0.28205920725E+03  0.00000000000E+00 0. -1.
         24    2    1    2    0    0 -0.10647904943E+03  0.79844879069E+02  0.15716936720E+02  0.15624063416E+03  0.80318870648E+02 0.  0.
         23    2    1    2    0    0 -0.56279492083E+02  0.23835396214E+03  0.96799440222E+02  0.27790965285E+03  0.88789926361E+02 0.  0.
        -11    1    3    3    0    0 -0.75004174579E+02  0.68243160010E+02 -0.24048013856E+02  0.10421641935E+03  0.00000000000E+00 0.  1.
         12    1    3    3    0    0 -0.31474874848E+02  0.11601719059E+02  0.39764950576E+02  0.52024214806E+02  0.00000000000E+00 0. -1.
        -11    1    4    4    0    0 -0.25770402630E+02  0.12801467916E+02  0.27957407842E+02  0.40119918816E+02  0.00000000000E+00 0.  1.
         11    1    4    4    0    0 -0.30509089453E+02  0.22555249423E+03  0.68842032380E+02  0.23778973404E+03  0.00000000000E+00 0. -1.
          1    1    1    2  501    0  0.16275854151E+03 -0.31819884121E+03  0.14215776522E+03  0.38464226964E+03  0.00000000000E+00 0. -1.
<scales pt_clust_5="13000.00000" pt_clust_6="13000.00000" pt_clust_7="13000.00000" pt_clust_8="13000.00000" pt_clust_9="13000.00000"></scales>
<clustering>
<clus scale="   80.319">  5  6 -1 -1</clus>
<clus scale="   88.790">  7  8 -1 -1</clus>
<clus scale="  155.448">  1  5  2 -1</clus>
<clus scale="  289.556">  7  9 -1 -1</clus>
<clus scale="  617.960">  2  5  1 -1</clus>
</clustering>
</event>
<event>
 9    2  0.2147756E-005  0.5440789E+03  0.7546771E-02  0.1068507E+00
         21   -1    0    0  501  502  0.00000000000E+00  0.00000000000E+00  0.27732815558E+02  0.27732815558E+02  0.00000000000E+00 0. -1.
          2   -1    0    0  502    0 -0.00000000000E+00 -0.00000000000E+00 -0.35174020653E+04  0.35174020653E+04  0.00000000000E+00 0. -1.
         24    2    1    2    0    0  0.38696746723E+01  0.39701523091E+01 -0.36916184289E+03  0.37755089855E+03  0.78952379667E+02 0.  0.
         23    2    1    2    0    0 -0.22610225089E+03 -0.12733100585E+03 -0.12433983028E+04  0.12733443441E+04  0.89616218211E+02 0.  0.
        -13    1    3    3    0    0 -0.26541141573E+02  0.29311768141E+02 -0.18037556410E+03  0.18465902651E+03  0.00000000000E+00 0.  1.
         14    1    3    3    0    0  0.30410816245E+02 -0.25341615832E+02 -0.18878627879E+03  0.19289187203E+03  0.00000000000E+00 0. -1.
        -13    1    4    4    0    0 -0.15373065218E+03 -0.49494837627E+02 -0.88106653570E+03  0.89574610951E+03  0.00000000000E+00 0. -1.
         13    1    4    4    0    0 -0.72371598714E+02 -0.77836168219E+02 -0.36233176705E+03  0.37759823463E+03  0.00000000000E+00 0.  1.
          1    1    1    2  501    0  0.22223257622E+03  0.12336085354E+03 -0.18771091041E+04  0.18942396381E+04  0.00000000000E+00 0. -1.
<scales pt_clust_5="13000.00000" pt_clust_6="13000.00000" pt_clust_7="13000.00000" pt_clust_8="13000.00000" pt_clust_9="13000.00000"></scales>
<clustering>
<clus scale="   78.952">  5  6 -1 -1</clus>
<clus scale="   79.147">  2  5  1 -1</clus>
<clus scale="   89.616">  7  8 -1 -1</clus>
<clus scale="  257.362">  7  9 -1 -1</clus>
<clus scale="  544.079">  1  5  2 -1</clus>
</clustering>
</event>
<event>
 9    2  0.2147756E-005  0.7895692E+03  0.7546771E-02  0.9659255E-01
         21   -1    0    0  501  502  0.00000000000E+00  0.00000000000E+00  0.43524946567E+03  0.43524946567E+03  0.00000000000E+00 0.  1.
          2   -1    0    0  502    0 -0.00000000000E+00 -0.00000000000E+00 -0.11647405299E+04  0.11647405299E+04  0.00000000000E+00 0. -1.
         24    2    1    2    0    0  0.45338500249E+03 -0.37315092540E+03 -0.50613370929E+03  0.77943648636E+03  0.80934115117E+02 0.  0.
         23    2    1    2    0    0  0.34524789446E+02 -0.75460409499E+02 -0.26919623037E+02  0.12925337367E+03  0.95370509138E+02 0.  0.
        -11    1    3    3    0    0  0.44640721048E+03 -0.34781348640E+03 -0.47624648827E+03  0.73963797664E+03  0.00000000000E+00 0.  1.
         12    1    3    3    0    0  0.69777920029E+01 -0.25337439000E+02 -0.29887221012E+02  0.39798509723E+02  0.00000000000E+00 0. -1.
        -13    1    4    4    0    0  0.62968548681E+02 -0.24000937247E+02 -0.18295135759E+02  0.69826893845E+02  0.00000000000E+00 0. -1.
         13    1    4    4    0    0 -0.28443759235E+02 -0.51459472252E+02 -0.86244872781E+01  0.59426479828E+02  0.00000000000E+00 0.  1.
          1    1    1    2  501    0 -0.48790979193E+03  0.44861133490E+03 -0.19643773189E+03  0.69130013552E+03  0.00000000000E+00 0. -1.
<scales pt_clust_5="13000.00000" pt_clust_6="13000.00000" pt_clust_7="13000.00000" pt_clust_8="13000.00000" pt_clust_9="13000.00000"></scales>
<clustering>
<clus scale="   80.934">  5  6 -1 -1</clus>
<clus scale="   95.371">  7  8 -1 -1</clus>
<clus scale="  592.748">  2  5  1 -1</clus>
<clus scale="  166.469">  7  9 -1 -1</clus>
<clus scale="  789.569">  1  5  2 -1</clus>
</clustering>
</event>
<event>
 9    2  0.2147756E-005  0.5815933E+03  0.7546771E-02  0.1046383E+00
          2   -1    0    0  502    0 -0.00000000000E+00  0.00000000000E+00  0.69950789801E+03  0.69950789801E+03  0.00000000000E+00 0. -1.
         21   -1    0    0  501  502  0.00000000000E+00 -0.00000000000E+00 -0.18494194985E+03  0.18494194985E+03  0.00000000000E+00 0. -1.
         24    2    1    2    0    0 -0.87953916406E+02  0.20461481753E+02  0.22901444892E+02  0.12288258398E+03  0.80131701723E+02 0.  0.
         23    2    1    2    0    0 -0.21333244642E+03  0.14108243248E+02  0.70924521796E+02  0.24292415892E+03  0.90950997640E+02 0.  0.
        -13    1    3    3    0    0 -0.38629489574E+02 -0.29070761192E+02 -0.27450283684E+01  0.48423979615E+02  0.00000000000E+00 0.  1.
         14    1    3    3    0    0 -0.49324426833E+02  0.49532242944E+02  0.25646473260E+02  0.74458604366E+02  0.00000000000E+00 0. -1.
        -11    1    4    4    0    0 -0.53932190163E+02 -0.82067585926E+01 -0.19951304056E+02  0.58086887986E+02  0.00000000000E+00 0.  1.
         11    1    4    4    0    0 -0.15940025625E+03  0.22315001840E+02  0.90875825852E+02  0.18483727093E+03  0.00000000000E+00 0. -1.
          1    1    1    2  501    0  0.30128636282E+03 -0.34569725000E+02  0.42073998148E+03  0.51864310496E+03  0.00000000000E+00 0. -1.
<scales pt_clust_5="13000.00000" pt_clust_6="13000.00000" pt_clust_7="13000.00000" pt_clust_8="13000.00000" pt_clust_9="13000.00000"></scales>
<clustering>
<clus scale="   80.132">  5  6 -1 -1</clus>
<clus scale="   90.951">  7  8 -1 -1</clus>
<clus scale="  120.730">  1  5  2 -1</clus>
<clus scale="  236.143">  7  9 -1 -1</clus>
<clus scale="  581.593">  2  5  1 -1</clus>
</clustering>
</event>
<event>
 9    2  0.2147756E-005  0.1762302E+03  0.7546771E-02  0.1203141E+00
          2   -1    0    0  502    0 -0.00000000000E+00  0.00000000000E+00  0.27731769001E+03  0.27731769001E+03  0.00000000000E+00 0. -1.
         21   -1    0    0  501  502  0.00000000000E+00 -0.00000000000E+00 -0.90461499222E+02  0.90461499222E+02  0.00000000000E+00 0.  1.
         24    2    1    2    0    0  0.26881467590E+02  0.21105445427E+02  0.16954291854E+03  0.19070059462E+03  0.80335934883E+02 0.  0.
         23    2    1    2    0    0 -0.48625485443E+02 -0.61677109538E+02 -0.14457409232E+02  0.12114793716E+03  0.91100506703E+02 0.  0.
        -13    1    3    3    0    0  0.50280125793E+01 -0.23601624519E+02  0.15165436961E+02  0.28501018730E+02  0.00000000000E+00 0.  1.
         14    1    3    3    0    0  0.21853455011E+02  0.44707069946E+02  0.15437748158E+03  0.16219957589E+03  0.00000000000E+00 0. -1.
        -13    1    4    4    0    0  0.82362737879E+01 -0.41364331510E+02 -0.37581122085E+02  0.56490573234E+02  0.00000000000E+00 0.  1.
         13    1    4    4    0    0 -0.56861759231E+02 -0.20312778028E+02  0.23123712853E+02  0.64657363928E+02  0.00000000000E+00 0. -1.
          1    1    1    2  501    0  0.21744017853E+02  0.40571664111E+02  0.31770681475E+02  0.55930657448E+02  0.00000000000E+00 0. -1.
<scales pt_clust_5="13000.00000" pt_clust_6="13000.00000" pt_clust_7="13000.00000" pt_clust_8="13000.00000" pt_clust_9="13000.00000"></scales>
<clustering>
<clus scale="   80.336">  5  6 -1 -1</clus>
<clus scale="   87.304">  1  5  2 -1</clus>
<clus scale="   91.101">  7  8 -1 -1</clus>
<clus scale="   60.470">  7  9 -1 -1</clus>
<clus scale="  176.230">  2  5  1 -1</clus>
</clustering>
</event>
<event>
 9    2  0.2147756E-005  0.3376667E+03  0.7546771E-02  0.1084434E+00
         21   -1    0    0  501  502  0.00000000000E+00  0.00000000000E+00  0.48084316205E+02  0.48084316205E+02  0.00000000000E+00 0.  1.
          2   -1    0    0  502    0 -0.00000000000E+00 -0.00000000000E+00 -0.17396373383E+04  0.17396373383E+04  0.00000000000E+00 0. -1.
         24    2    1    2    0    0  0.53722098735E+02 -0.19091630816E+03 -0.93238639718E+03  0.95684696911E+03  0.82925436646E+02 0.  0.
         23    2    1    2    0    0 -0.11937794316E+02 -0.15402298838E+01 -0.65317091139E+02  0.10961701808E+03  0.87204845146E+02 0.  0.
        -13    1    3    3    0    0 -0.90649205170E+01 -0.99398208570E+02 -0.53611156607E+03  0.54532356260E+03  0.00000000000E+00 0.  1.
         14    1    3    3    0    0  0.62787019252E+02 -0.91518099593E+02 -0.39627483110E+03  0.41152340651E+03  0.00000000000E+00 0. -1.
        -13    1    4    4    0    0  0.18895729575E+02  0.32647408037E+02 -0.46514419260E+02  0.59887336281E+02  0.00000000000E+00 0. -1.
         13    1    4    4    0    0 -0.30833523891E+02 -0.34187637921E+02 -0.18802671879E+02  0.49729681800E+02  0.00000000000E+00 0.  1.
          1    1    1    2  501    0 -0.41784304419E+02  0.19245653805E+03 -0.69384953379E+03  0.72125766732E+03  0.00000000000E+00 0. -1.
<scales pt_clust_5="13000.00000" pt_clust_6="13000.00000" pt_clust_7="13000.00000" pt_clust_8="13000.00000" pt_clust_9="13000.00000"></scales>
<clustering>
<clus scale="   82.925">  5  6 -1 -1</clus>
<clus scale="   87.205">  7  8 -1 -1</clus>
<clus scale="  196.940">  7  9 -1 -1</clus>
<clus scale="  214.969">  2  5  1 -1</clus>
<clus scale="  337.667">  1  5  2 -1</clus>
</clustering>
</event>
<event>
 9    2  0.2147756E-005  0.1597458E+03  0.7546771E-02  0.1214922E+00
         21   -1    0    0  501  502  0.00000000000E+00  0.00000000000E+00  0.17328317134E+03  0.17328317134E+03  0.00000000000E+00 0.  1.
         -1   -1    0    0    0  501 -0.00000000000E+00 -0.00000000000E+00 -0.21819360964E+03  0.21819360964E+03  0.00000000000E+00 0.  1.
         24    2    1    2    0    0 -0.29896996023E+02  0.15789271805E+02 -0.16712266421E+03  0.19034359873E+03  0.84602418474E+02 0.  0.
         23    2    1    2    0    0 -0.65730620765E+01 -0.54925641450E+02  0.83652375244E+02  0.13518939824E+03  0.90655514330E+02 0.  0.
        -11    1    3    3    0    0 -0.24939618448E+02  0.24215840358E+02 -0.17460535969E+03  0.17803208454E+03  0.00000000000E+00 0.  1.
         12    1    3    3    0    0 -0.49573775745E+01 -0.84265685532E+01  0.74826954849E+01  0.12311514193E+02  0.00000000000E+00 0. -1.
        -13    1    4    4    0    0 -0.35970481116E+02 -0.59895891403E+02  0.35037290923E+02  0.78160124577E+02  0.00000000000E+00 0.  1.
         13    1    4    4    0    0  0.29397419040E+02  0.49702499526E+01  0.48615084322E+02  0.57029273662E+02  0.00000000000E+00 0. -1.
         -2    1    1    2    0  502  0.36470058099E+02  0.39136369646E+02  0.38559850654E+02  0.65943784008E+02  0.00000000000E+00 0.  1.
<scales pt_clust_5="13000.00000" pt_clust_6="13000.00000" pt_clust_7="13000.00000" pt_clust_8="13000.00000" pt_clust_9="13000.00000"></scales>
<clustering>
<clus scale="   84.602">  5  6 -1 -1</clus>
<clus scale="   90.656">  7  8 -1 -1</clus>
<clus scale="   53.495">  7  9 -1 -1</clus>
<clus scale="   91.108">  2  5  1 -1</clus>
<clus scale="  159.746">  1  5  2 -1</clus>
</clustering>
</event>
<event>
 9    2  0.2147756E-005  0.4716350E+03  0.7546771E-02  0.1056856E+00
         21   -1    0    0  501  502  0.00000000000E+00  0.00000000000E+00  0.62389168367E+03  0.62389168367E+03  0.00000000000E+00 0. -1.
          4   -1    0    0  502    0 -0.00000000000E+00 -0.00000000000E+00 -0.22857714959E+03  0.22857714959E+03  0.00000000000E+00 0. -1.
         24    2    1    2    0    0  0.56012677309E+01  0.14630701474E+03 -0.77114152999E+02  0.18491473386E+03  0.82521206017E+02 0.  0.
         23    2    1    2    0    0  0.16571578964E+03  0.40223061156E+02  0.10081222431E+03  0.21784108116E+03  0.90620166019E+02 0.  0.
        -11    1    3    3    0    0  0.33986089442E+02  0.74610655838E+02 -0.98259835610E+01  0.82573326160E+02  0.00000000000E+00 0.  1.
         12    1    3    3    0    0 -0.28384821711E+02  0.71696358905E+02 -0.67288169438E+02  0.10234140770E+03  0.00000000000E+00 0. -1.
        -11    1    4    4    0    0  0.57735523991E+02 -0.18661578692E+02  0.30944308455E+01  0.60755417471E+02  0.00000000000E+00 0.  1.
         11    1    4    4    0    0  0.10798026565E+03  0.58884639848E+02  0.97717793461E+02  0.15708566369E+03  0.00000000000E+00 0. -1.
          3    1    1    2  501    0 -0.17131705737E+03 -0.18653007590E+03  0.37161646277E+03  0.44971301823E+03  0.00000000000E+00 0. -1.
<scales pt_clust_5="13000.00000" pt_clust_6="13000.00000" pt_clust_7="13000.00000" pt_clust_8="13000.00000" pt_clust_9="13000.00000"></scales>
<clustering>
<clus scale="   82.521">  5  6 -1 -1</clus>
<clus scale="   90.620">  7  8 -1 -1</clus>
<clus scale="  168.068">  2  5  1 -1</clus>
<clus scale="  212.046">  7  9 -1 -1</clus>
<clus scale="  471.635">  1  5  2 -1</clus>
</clustering>
</event>
<event>
 9    2  0.2147756E-005  0.1741092E+03  0.7546771E-02  0.1198382E+00
         21   -1    0    0  501  502  0.00000000000E+00  0.00000000000E+00  0.91445261934E+02  0.91445261934E+02  0.00000000000E+00 0. -1.
          2   -1    0    0  502    0 -0.00000000000E+00 -0.00000000000E+00 -0.90851373283E+03  0.90851373283E+03  0.00000000000E+00 0. -1.
         24    2    1    2    0    0 -0.16055181444E+02 -0.57509584072E+02 -0.81970669213E+03  0.82582985622E+03  0.80689337555E+02 0.  0.
         23    2    1    2    0    0  0.98271423670E+01 -0.82975269923E+01 -0.33623442214E+02  0.98735023570E+02  0.91938280013E+02 0.  0.
        -13    1    3    3    0    0 -0.23071555469E+02 -0.32460579055E+02 -0.13811427377E+03  0.14374122054E+03  0.00000000000E+00 0.  1.
         14    1    3    3    0    0  0.70163740249E+01 -0.25049005017E+02 -0.68159241836E+03  0.68208863568E+03  0.00000000000E+00 0. -1.
        -13    1    4    4    0    0 -0.55724255027E+01  0.38054360678E+02  0.16358875324E+01  0.38494966172E+02  0.00000000000E+00 0.  1.
         13    1    4    4    0    0  0.15399567870E+02 -0.46351887670E+02 -0.35259329746E+02  0.60240057398E+02  0.00000000000E+00 0. -1.
          1    1    1    2  501    0  0.62280390770E+01  0.65807111065E+02  0.36261663443E+02  0.75394114977E+02  0.00000000000E+00 0. -1.
<scales pt_clust_5="13000.00000" pt_clust_6="13000.00000" pt_clust_7="13000.00000" pt_clust_8="13000.00000" pt_clust_9="13000.00000"></scales>
<clustering>
<clus scale="   80.689">  5  6 -1 -1</clus>
<clus scale="   91.938">  7  8 -1 -1</clus>
<clus scale="   66.101">  7  9 -1 -1</clus>
<clus scale="  100.379">  2  5  1 -1</clus>
<clus scale="  174.109">  1  5  2 -1</clus>
</clustering>
</event>
<event>
 9    2  0.2147756E-005  0.4010076E+03  0.7546771E-02  0.1084411E+00
         21   -1    0    0  501  502  0.00000000000E+00  0.00000000000E+00  0.88402464829E+02  0.88402464829E+02  0.00000000000E+00 0.  1.
          2   -1    0    0  502    0 -0.00000000000E+00 -0.00000000000E+00 -0.80640594662E+03  0.80640594662E+03  0.00000000000E+00 0. -1.
         24    2    1    2    0    0 -0.71176877925E+02  0.59601522013E+02 -0.22751916951E+03  0.26126129471E+03  0.88735574842E+02 0.  0.
         23    2    1    2    0    0  0.30459218750E+02 -0.12233069945E+03 -0.23177207308E+02  0.16029368798E+03  0.96251334705E+02 0.  0.
        -13    1    3    3    0    0 -0.48108854949E+02 -0.14357239698E+02 -0.76017566469E+02  0.91100289068E+02  0.00000000000E+00 0.  1.
         14    1    3    3    0    0 -0.23068022976E+02  0.73958761712E+02 -0.15150160304E+03  0.17016100565E+03  0.00000000000E+00 0. -1.
        -13    1    4    4    0    0  0.60254850866E+02 -0.10632425775E+03 -0.59977297710E+01  0.12235794866E+03  0.00000000000E+00 0.  1.
         13    1    4    4    0    0 -0.29795632116E+02 -0.16006441705E+02 -0.17179477537E+02  0.37935739319E+02  0.00000000000E+00 0. -1.
          1    1    1    2  501    0  0.40717659175E+02  0.62729177439E+02 -0.46730710497E+03  0.47325342875E+03  0.00000000000E+00 0. -1.
<scales pt_clust_5="13000.00000" pt_clust_6="13000.00000" pt_clust_7="13000.00000" pt_clust_8="13000.00000" pt_clust_9="13000.00000"></scales>
<clustering>
<clus scale="   88.736">  5  6 -1 -1</clus>
<clus scale="   96.251">  7  8 -1 -1</clus>
<clus scale="   74.786">  7  9 -1 -1</clus>
<clus scale="  128.423">  2  5  1 -1</clus>
<clus scale="  401.008">  1  5  2 -1</clus>
</clustering>
</event>
<event>
 9    2  0.2147756E-005  0.4489703E+03  0.7546771E-02  0.1085254E+00
         21   -1    0    0  501  502  0.00000000000E+00  0.00000000000E+00  0.85361236118E+02  0.85361236118E+02  0.00000000000E+00 0. -1.
          2   -1    0    0  502    0 -0.00000000000E+00 -0.00000000000E+00 -0.10489249572E+04  0.10489249572E+04  0.00000000000E+00 0. -1.
         24    2    1    2    0    0 -0.14525208538E+02  0.35903435925E+02 -0.41929735171E+03  0.42873661680E+03  0.80652210385E+02 0.  0.
         23    2    1    2    0    0  0.16640955056E+03  0.59021387885E+02 -0.47237991087E+03  0.51255414021E+03  0.91614975322E+02 0.  0.
        -11    1    3    3    0    0 -0.27331987734E+02 -0.11940053680E+02 -0.72119004579E+02  0.78043278102E+02  0.00000000000E+00 0.  1.
         12    1    3    3    0    0  0.12806779196E+02  0.47843489605E+02 -0.34717834713E+03  0.35069333870E+03  0.00000000000E+00 0. -1.
        -11    1    4    4    0    0  0.39724713298E+02 -0.23890219112E+02 -0.13565022749E+03  0.14335194325E+03  0.00000000000E+00 0.  1.
         11    1    4    4    0    0  0.12668483726E+03  0.82911606997E+02 -0.33672968338E+03  0.36920219695E+03  0.00000000000E+00 0. -1.
          1    1    1    2  501    0 -0.15188434202E+03 -0.94924823810E+02 -0.71886458524E+02  0.19299543633E+03  0.00000000000E+00 0. -1.
<scales pt_clust_5="13000.00000" pt_clust_6="13000.00000" pt_clust_7="13000.00000" pt_clust_8="13000.00000" pt_clust_9="13000.00000"></scales>
<clustering>
<clus scale="   80.652">  5  6 -1 -1</clus>
<clus scale="   89.470">  2  5  1 -1</clus>
<clus scale="   91.615">  7  8 -1 -1</clus>
<clus scale="  177.869">  7  9 -1 -1</clus>
<clus scale="  448.970">  1  5  2 -1</clus>
</clustering>
</event>
<event>
 9    2  0.2147756E-005  0.2957581E+03  0.7546771E-02  0.1128918E+00
         21   -1    0    0  501  502  0.00000000000E+00  0.00000000000E+00  0.34584340778E+03  0.34584340778E+03  0.00000000000E+00 0. -1.
          2   -1    0    0  502    0 -0.00000000000E+00 -0.00000000000E+00 -0.53290312489E+03  0.53290312489E+03  0.00000000000E+00 0. -1.
         24    2    1    2    0    0 -0.63067430552E+02  0.24237841348E+01 -0.46305637951E+03  0.47421342594E+03  0.80459848475E+02 0.  0.
         23    2    1    2    0    0 -0.71580721320E+01 -0.10837282344E+03  0.22954729409E+03  0.26920253379E+03  0.89342806739E+02 0.  0.
        -13    1    3    3    0    0 -0.17454574721E+02  0.15689318114E+02 -0.27841499922E+02  0.36413816052E+02  0.00000000000E+00 0.  1.
         14    1    3    3    0    0 -0.45612855832E+02 -0.13265533979E+02 -0.43521487959E+03  0.43779960989E+03  0.00000000000E+00 0. -1.
        -13    1    4    4    0    0 -0.39801291531E+02 -0.45965358978E+02  0.59165558575E+02  0.84838201036E+02  0.00000000000E+00 0. -1.
         13    1    4    4    0    0  0.32643219399E+02 -0.62407464460E+02  0.17038173552E+03  0.18436433275E+03  0.00000000000E+00 0.  1.
          1    1    1    2  501    0  0.70225502684E+02  0.10594903930E+03  0.46449368301E+02  0.13533057294E+03  0.00000000000E+00 0. -1.
<scales pt_clust_5="13000.00000" pt_clust_6="13000.00000" pt_clust_7="13000.00000" pt_clust_8="13000.00000" pt_clust_9="13000.00000"></scales>
<clustering>
<clus scale="   80.460">  5  6 -1 -1</clus>
<clus scale="   89.343">  7  8 -1 -1</clus>
<clus scale="  102.260">  2  5  1 -1</clus>
<clus scale="  110.867">  7  9 -1 -1</clus>
<clus scale="  295.758">  1  5  2 -1</clus>
</clustering>
</event>
<event>
 9    2  0.2147756E-005  0.2330082E+03  0.7546771E-02  0.1160070E+00
         21   -1    0    0  501  502  0.00000000000E+00  0.00000000000E+00  0.21111456564E+03  0.21111456564E+03  0.00000000000E+00 0. -1.
          4   -1    0    0  502    0 -0.00000000000E+00 -0.00000000000E+00 -0.13706835741E+03  0.13706835741E+03  0.00000000000E+00 0. -1.
         24    2    1    2    0    0 -0.20582353475E+02  0.59917068826E+02 -0.11674169181E+02  0.99907255478E+02  0.76364160834E+02 0.  0.
         23    2    1    2    0    0  0.29608879999E+02  0.58848038468E+02  0.61703655521E+02  0.12677080421E+03  0.89015269971E+02 0.  0.
        -11    1    3    3    0    0 -0.41978958479E+02  0.23508451657E+02 -0.26770864141E+02  0.55059598811E+02  0.00000000000E+00 0.  1.
         12    1    3    3    0    0  0.21396605004E+02  0.36408617169E+02  0.15096694960E+02  0.44847656668E+02  0.00000000000E+00 0. -1.
        -11    1    4    4    0    0 -0.44157624294E+01  0.69763883572E+02  0.58026754394E+02  0.90849340308E+02  0.00000000000E+00 0. -1.
         11    1    4    4    0    0  0.34024642429E+02 -0.10915845104E+02  0.36769011271E+01  0.35921463899E+02  0.00000000000E+00 0.  1.
          3    1    1    2  501    0 -0.90265265243E+01 -0.11876510729E+03  0.24016721891E+02  0.12150486337E+03  0.00000000000E+00 0. -1.
<scales pt_clust_5="13000.00000" pt_clust_6="13000.00000" pt_clust_7="13000.00000" pt_clust_8="13000.00000" pt_clust_9="13000.00000"></scales>
<clustering>
<clus scale="   76.364">  5  6 -1 -1</clus>
<clus scale="   89.015">  7  8 -1 -1</clus>
<clus scale="   99.223">  2  5  1 -1</clus>
<clus scale="   85.544">  7  9 -1 -1</clus>
<clus scale="  233.008">  1  5  2 -1</clus>
</clustering>
</event>
<event>
 9    2  0.2147756E-005  0.8069062E+03  0.7546771E-02  0.9987009E-01
         21   -1    0    0  501  502  0.00000000000E+00  0.00000000000E+00  0.85161377196E+03  0.85161377196E+03  0.00000000000E+00 0.  1.
         -1   -1    0    0    0  501 -0.00000000000E+00 -0.00000000000E+00 -0.30447197039E+03  0.30447197039E+03  0.00000000000E+00 0.  1.
         24    2    1    2    0    0 -0.12965536121E+03 -0.11360168063E+03  0.17759332249E+02  0.19102438511E+03  0.80368322698E+02 0.  0.
         23    2    1    2    0    0 -0.23715517272E+03 -0.10902743692E+03 -0.86410571286E+01  0.27688768236E+03  0.91992188927E+02 0.  0.
        -13    1    3    3    0    0 -0.70143633708E+02 -0.10754690783E+02  0.12714234839E+02  0.72093304066E+02  0.00000000000E+00 0.  1.
         14    1    3    3    0    0 -0.59511727499E+02 -0.10284698985E+03  0.50450974106E+01  0.11893108105E+03  0.00000000000E+00 0. -1.
        -13    1    4    4    0    0 -0.13973891784E+03 -0.36437402834E+02 -0.42923791908E+02  0.15065557207E+03  0.00000000000E+00 0.  1.
         13    1    4    4    0    0 -0.97416254882E+02 -0.72590034084E+02  0.34282734779E+02  0.12623211029E+03  0.00000000000E+00 0. -1.
         -2    1    1    2    0  502  0.36681053393E+03  0.22262911755E+03  0.53802352645E+03  0.68817367488E+03  0.00000000000E+00 0.  1.
<scales pt_clust_5="13000.00000" pt_clust_6="13000.00000" pt_clust_7="13000.00000" pt_clust_8="13000.00000" pt_clust_9="13000.00000"></scales>
<clustering>
<clus scale="   80.368">  5  6 -1 -1</clus>
<clus scale="   91.992">  7  8 -1 -1</clus>
<clus scale="  190.197">  2  5  1 -1</clus>
<clus scale="  370.715">  7  9 -1 -1</clus>
<clus scale="  806.906">  1  5  2 -1</clus>
</clustering>
</event>
<event>
 9    2  0.2147756E-005  0.2155833E+03  0.7546771E-02  0.1170460E+00
         21   -1    0    0  501  502  0.00000000000E+00  0.00000000000E+00  0.75811961793E+03  0.75811961793E+03  0.00000000000E+00 0. -1.
         -1   -1    0    0    0  501 -0.00000000000E+00 -0.00000000000E+00 -0.37362391775E+02  0.37362391775E+02  0.00000000000E+00 0.  1.
         24    2    1    2    0    0 -0.29773536021E+02 -0.48166442382E+02  0.37733404452E+03  0.39000002926E+03  0.80700508332E+02 0.  0.
         23    2    1    2    0    0  0.86409555095E+01 -0.64840388119E+01  0.53768623435E+02  0.10996036679E+03  0.95307442143E+02 0.  0.
        -13    1    3    3    0    0 -0.40993105487E+02  0.61523867279E+01  0.19765431032E+03  0.20195423478E+03  0.00000000000E+00 0.  1.
         14    1    3    3    0    0  0.11219569466E+02 -0.54318829109E+02  0.17967973421E+03  0.18804579447E+03  0.00000000000E+00 0. -1.
        -11    1    4    4    0    0 -0.37245741659E+02  0.16164488116E+01  0.51144994308E+02  0.63290351724E+02  0.00000000000E+00 0. -1.
         11    1    4    4    0    0  0.45886697169E+02 -0.81004876235E+01  0.26236291267E+01  0.46670015070E+02  0.00000000000E+00 0.  1.
         -2    1    1    2    0  502  0.21132580511E+02  0.54650481193E+02  0.28965455820E+03  0.29552161366E+03  0.00000000000E+00 0.  1.
<scales pt_clust_5="13000.00000" pt_clust_6="13000.00000" pt_clust_7="13000.00000" pt_clust_8="13000.00000" pt_clust_9="13000.00000"></scales>
<clustering>
<clus scale="   80.701">  5  6 -1 -1</clus>
<clus scale="   95.307">  7  8 -1 -1</clus>
<clus scale="   58.594">  7  9 -1 -1</clus>
<clus scale="   98.585">  2  5  1 -1</clus>
<clus scale="  215.583">  1  5  2 -1</clus>
</clustering>
</event>
<event>
 9    2  0.2147756E-005  0.1351392E+03  0.7546771E-02  0.1240928E+00
         21   -1    0    0  501  502  0.00000000000E+00  0.00000000000E+00  0.36791973969E+02  0.36791973969E+02  0.00000000000E+00 0. -1.
          2   -1    0    0  502    0 -0.00000000000E+00 -0.00000000000E+00 -0.39297969610E+03  0.39297969610E+03  0.00000000000E+00 0. -1.
         24    2    1    2    0    0  0.69463668826E+01 -0.31846473171E+02 -0.66566534149E+02  0.11017343051E+03  0.81514608843E+02 0.  0.
         23    2    1    2    0    0  0.94756123204E+01  0.83271073570E+01 -0.14228287818E+03  0.16949354441E+03  0.91238786871E+02 0.  0.
        -11    1    3    3    0    0 -0.19456508571E+02 -0.11253219373E+02 -0.72732459359E+02  0.76126219639E+02  0.00000000000E+00 0.  1.
         12    1    3    3    0    0  0.26402875454E+02 -0.20593253797E+02  0.61659252107E+01  0.34047210868E+02  0.00000000000E+00 0. -1.
        -11    1    4    4    0    0  0.40575124148E+02  0.29397754084E+02 -0.10610174947E+03  0.11733775985E+03  0.00000000000E+00 0.  1.
         11    1    4    4    0    0 -0.31099511828E+02 -0.21070646727E+02 -0.36181128704E+02  0.52155784566E+02  0.00000000000E+00 0. -1.
          1    1    1    2  501    0 -0.16421979203E+02  0.23519365814E+02 -0.14733830981E+03  0.15010469515E+03  0.00000000000E+00 0. -1.
<scales pt_clust_5="13000.00000" pt_clust_6="13000.00000" pt_clust_7="13000.00000" pt_clust_8="13000.00000" pt_clust_9="13000.00000"></scales>
<clustering>
<clus scale="   81.515">  5  6 -1 -1</clus>
<clus scale="   87.790">  2  5  1 -1</clus>
<clus scale="   91.239">  7  8 -1 -1</clus>
<clus scale="   15.275">  7  9 -1 -1</clus>
<clus scale="  135.139">  1  5  2 -1</clus>
</clustering>
</event>
<event>
 9    2  0.2147756E-005  0.3242819E+03  0.7546771E-02  0.1098780E+00
         21   -1    0    0  501  502  0.00000000000E+00  0.00000000000E+00  0.41074439675E+03  0.41074439675E+03  0.00000000000E+00 0. -1.
          2   -1    0    0  502    0 -0.00000000000E+00 -0.00000000000E+00 -0.16637188712E+03  0.16637188712E+03  0.00000000000E+00 0. -1.
         24    2    1    2    0    0 -0.98167487955E+02  0.10784213039E+03  0.18266378971E+03  0.24701518281E+03  0.79897807790E+02 0.  0.
         23    2    1    2    0    0 -0.79693236835E+02 -0.22890910158E+02  0.96308108006E+00  0.12384596808E+03  0.91988534714E+02 0.  0.
        -11    1    3    3    0    0 -0.29543584090E+02  0.17272705020E+02  0.10220604802E+03  0.10778332873E+03  0.00000000000E+00 0.  1.
         12    1    3    3    0    0 -0.68623903865E+02  0.90569425373E+02  0.80457741689E+02  0.13923185408E+03  0.00000000000E+00 0. -1.
        -11    1    4    4    0    0 -0.58302230799E+02 -0.56826219689E+01 -0.42546391388E+02  0.72399155581E+02  0.00000000000E+00 0.  1.
         11    1    4    4    0    0 -0.21391006036E+02 -0.17208288189E+02  0.43509472469E+02  0.51446812497E+02  0.00000000000E+00 0. -1.
          1    1    1    2  501    0  0.17786072479E+03 -0.84951220236E+02  0.60745638837E+02  0.20625513298E+03  0.00000000000E+00 0. -1.
<scales pt_clust_5="13000.00000" pt_clust_6="13000.00000" pt_clust_7="13000.00000" pt_clust_8="13000.00000" pt_clust_9="13000.00000"></scales>
<clustering>
<clus scale="   79.898">  5  6 -1 -1</clus>
<clus scale="   91.989">  7  8 -1 -1</clus>
<clus scale="  166.284">  2  5  1 -1</clus>
<clus scale="  127.422">  7  9 -1 -1</clus>
<clus scale="  324.282">  1  5  2 -1</clus>
</clustering>
</event>
<event>
 9    2  0.2147756E-005  0.2111850E+03  0.7546771E-02  0.1166666E+00
          2   -1    0    0  502    0 -0.00000000000E+00  0.00000000000E+00  0.14595813937E+04  0.14595813937E+04  0.00000000000E+00 0. -1.
         21   -1    0    0  501  502  0.00000000000E+00 -0.00000000000E+00 -0.24739953924E+02  0.24739953924E+02  0.00000000000E+00 0. -1.
         24    2    1    2    0    0 -0.52289186825E+02 -0.62835477688E+02  0.93111039416E+03  0.93811254689E+03  0.80038292225E+02 0.  0.
         23    2    1    2    0    0 -0.28590810010E+02  0.47247727099E+01  0.26375497652E+03  0.28638782070E+03  0.10775684811E+03 0.  0.
        -13    1    3    3    0    0  0.22195276075E+01 -0.51211754755E+02  0.28257564610E+03  0.28718733589E+03  0.00000000000E+00 0.  1.
         14    1    3    3    0    0 -0.54508714432E+02 -0.11623722933E+02  0.64853474805E+03  0.65092521100E+03  0.00000000000E+00 0. -1.
        -11    1    4    4    0    0  0.10346963094E+02 -0.45524404954E+02  0.13394963326E+03  0.14185216016E+03  0.00000000000E+00 0.  1.
         11    1    4    4    0    0 -0.38937773104E+02  0.50249177664E+02  0.12980534326E+03  0.14453566055E+03  0.00000000000E+00 0. -1.
          1    1    1    2  501    0  0.80879996835E+02  0.58110704979E+02  0.23997606913E+03  0.25982098006E+03  0.00000000000E+00 0. -1.
<scales pt_clust_5="13000.00000" pt_clust_6="13000.00000" pt_clust_7="13000.00000" pt_clust_8="13000.00000" pt_clust_9="13000.00000"></scales>
<clustering>
<clus scale="   80.038">  5  6 -1 -1</clus>
<clus scale="  107.757">  7  8 -1 -1</clus>
<clus scale="   99.591">  7  9 -1 -1</clus>
<clus scale="  114.405">  1  5  2 -1</clus>
<clus scale="  211.185">  2  5  1 -1</clus>
</clustering>
</event>
<event>
 9    2  0.2147756E-005  0.4236002E+03  0.7546771E-02  0.1060053E+00
          2   -1    0    0  502    0 -0.00000000000E+00  0.00000000000E+00  0.16567648588E+03  0.16567648588E+03  0.00000000000E+00 0. -1.
         21   -1    0    0  501  502  0.00000000000E+00 -0.00000000000E+00 -0.85357897458E+03  0.85357897458E+03  0.00000000000E+00 0. -1.
         24    2    1    2    0    0 -0.61926028089E+02  0.18602460559E+03 -0.79070119358E+00  0.21206295648E+03  0.80808944214E+02 0.  0.
         23    2    1    2    0    0  0.14803623093E+03  0.29520592466E+02 -0.40388391260E+03  0.44100576396E+03  0.92615754290E+02 0.  0.
        -13    1    3    3    0    0  0.14212077966E+02  0.81414913360E+02 -0.20908373001E+01  0.82672503762E+02  0.00000000000E+00 0.  1.
         14    1    3    3    0    0 -0.76138106056E+02  0.10460969223E+03  0.13001361065E+01  0.12939045272E+03  0.00000000000E+00 0. -1.
        -13    1    4    4    0    0  0.61279998085E+02  0.12755150443E+02 -0.62816921875E+02  0.88678620321E+02  0.00000000000E+00 0.  1.
         13    1    4    4    0    0  0.86756232844E+02  0.16765442023E+02 -0.34106699072E+03  0.35232714364E+03  0.00000000000E+00 0. -1.
          1    1    1    2  501    0 -0.86110202839E+02 -0.21554519805E+03 -0.28322787491E+03  0.36618674002E+03  0.00000000000E+00 0. -1.
<scales pt_clust_5="13000.00000" pt_clust_6="13000.00000" pt_clust_7="13000.00000" pt_clust_8="13000.00000" pt_clust_9="13000.00000"></scales>
<clustering>
<clus scale="   80.809">  5  6 -1 -1</clus>
<clus scale="   92.616">  7  8 -1 -1</clus>
<clus scale="  212.061">  1  5  2 -1</clus>
<clus scale="  155.522">  7  9 -1 -1</clus>
<clus scale="  423.600">  2  5  1 -1</clus>
</clustering>
</event>
<event>
 9    2  0.2147756E-005  0.7024139E+03  0.7546771E-02  0.1010005E+00
         21   -1    0    0  501  502  0.00000000000E+00  0.00000000000E+00  0.67928201422E+03  0.67928201422E+03  0.00000000000E+00 0.  1.
         -3   -1    0    0    0  501 -0.00000000000E+00 -0.00000000000E+00 -0.34839816415E+03  0.34839816415E+03  0.00000000000E+00 0.  1.
         24    2    1    2    0    0 -0.10181710588E+03 -0.15655596403E+03  0.24828963865E+03  0.32042698171E+03  0.78416917970E+02 0.  0.
         23    2    1    2    0    0 -0.45397393377E+02 -0.11853781077E+03 -0.22090352005E+03  0.27198366323E+03  0.95208255870E+02 0.  0.
        -11    1    3    3    0    0 -0.34599930520E+02 -0.73859806191E+02  0.50999376270E+02  0.96194399746E+02  0.00000000000E+00 0.  1.
         12    1    3    3    0    0 -0.67217175355E+02 -0.82696157842E+02  0.19729026238E+03  0.22423258196E+03  0.00000000000E+00 0. -1.
        -13    1    4    4    0    0 -0.22972672161E+02 -0.12995181021E+03 -0.17008560438E+03  0.21527733151E+03  0.00000000000E+00 0.  1.
         13    1    4    4    0    0 -0.22424721216E+02  0.11413999436E+02 -0.50817915665E+02  0.56706331722E+02  0.00000000000E+00 0. -1.
         -4    1    1    2    0  502  0.14721449925E+03  0.27509377481E+03  0.30349773147E+03  0.43526953343E+03  0.00000000000E+00 0.  1.
<scales pt_clust_5="13000.00000" pt_clust_6="13000.00000" pt_clust_7="13000.00000" pt_clust_8="13000.00000" pt_clust_9="13000.00000"></scales>
<clustering>
<clus scale="   78.417">  5  6 -1 -1</clus>
<clus scale="   95.208">  7  8 -1 -1</clus>
<clus scale="  202.548">  2  5  1 -1</clus>
<clus scale="  272.776">  7  9 -1 -1</clus>
<clus scale="  702.414">  1  5  2 -1</clus>
</clustering>
</event>
<event>
 9    2  0.2147756E-005  0.5002607E+03  0.7546771E-02  0.1052749E+00
         21   -1    0    0  501  502  0.00000000000E+00  0.00000000000E+00  0.10318618768E+03  0.10318618768E+03  0.00000000000E+00 0. -1.
          2   -1    0    0  502    0 -0.00000000000E+00 -0.00000000000E+00 -0.12047869963E+04  0.12047869963E+04  0.00000000000E+00 0. -1.
         24    2    1    2    0    0  0.10312879517E+03  0.89215410217E+02 -0.50604643024E+03  0.53019059004E+03  0.80150698025E+02 0.  0.
         23    2    1    2    0    0 -0.58591813636E+02  0.18844959406E+03 -0.22664510140E+03  0.31391251301E+03  0.90701784477E+02 0.  0.
        -13    1    3    3    0    0  0.89951658466E+02  0.31181598237E+02 -0.25514476878E+03  0.27232782811E+03  0.00000000000E+00 0.  1.
         14    1    3    3    0    0  0.13177136709E+02  0.58033811981E+02 -0.25090166146E+03  0.25786276193E+03  0.00000000000E+00 0. -1.
        -11    1    4    4    0    0  0.47698325287E+01  0.56528881535E+02 -0.18900912955E+02  0.59795570576E+02  0.00000000000E+00 0.  1.
         11    1    4    4    0    0 -0.63361646165E+02  0.13192071253E+03 -0.20774418845E+03  0.25411694244E+03  0.00000000000E+00 0. -1.
          1    1    1    2  501    0 -0.44536981539E+02 -0.27766500428E+03 -0.36890927694E+03  0.46387008088E+03  0.00000000000E+00 0. -1.
<scales pt_clust_5="13000.00000" pt_clust_6="13000.00000" pt_clust_7="13000.00000" pt_clust_8="13000.00000" pt_clust_9="13000.00000"></scales>
<clustering>
<clus scale="   80.151">  5  6 -1 -1</clus>
<clus scale="   90.702">  7  8 -1 -1</clus>
<clus scale="  158.174">  2  5  1 -1</clus>
<clus scale="  224.289">  7  9 -1 -1</clus>
<clus scale="  500.261">  1  5  2 -1</clus>
</clustering>
</event>
<event>
 9    2  0.2147756E-005  0.2461608E+03  0.7546771E-02  0.1148488E+00
         21   -1    0    0  501  502  0.00000000000E+00  0.00000000000E+00  0.46189339070E+02  0.46189339070E+02  0.00000000000E+00 0. -1.
          2   -1    0    0  502    0 -0.00000000000E+00 -0.00000000000E+00 -0.69302879031E+03  0.69302879031E+03  0.00000000000E+00 0. -1.
         24    2    1    2    0    0  0.31143763578E+02  0.68443326188E+02 -0.22885612931E+03  0.25413544767E+03  0.80964652361E+02 0.  0.
         23    2    1    2    0    0  0.63195447448E+02  0.97898954221E+01 -0.27247923331E+03  0.29484135206E+03  0.92719920558E+02 0.  0.
        -11    1    3    3    0    0  0.47983166299E+02  0.14965966162E+02 -0.14317027039E+03  0.15173691283E+03  0.00000000000E+00 0.  1.
         12    1    3    3    0    0 -0.16839402721E+02  0.53477360026E+02 -0.85685858914E+02  0.10239853484E+03  0.00000000000E+00 0. -1.
        -11    1    4    4    0    0  0.42844369530E+02 -0.27246306040E+02 -0.61882610167E+02  0.80046602890E+02  0.00000000000E+00 0. -1.
         11    1    4    4    0    0  0.20351077918E+02  0.37036201462E+02 -0.21059662315E+03  0.21479474917E+03  0.00000000000E+00 0.  1.
          1    1    1    2  501    0 -0.94339211027E+02 -0.78233221610E+02 -0.14550408862E+03  0.19024132964E+03  0.00000000000E+00 0. -1.
<scales pt_clust_5="13000.00000" pt_clust_6="13000.00000" pt_clust_7="13000.00000" pt_clust_8="13000.00000" pt_clust_9="13000.00000"></scales>
<clustering>
<clus scale="   80.965">  5  6 -1 -1</clus>
<clus scale="   92.720">  7  8 -1 -1</clus>
<clus scale="  110.498">  2  5  1 -1</clus>
<clus scale="   98.162">  7  9 -1 -1</clus>
<clus scale="  246.161">  1  5  2 -1</clus>
</clustering>
</event>
<event>
 9    2  0.2147756E-005  0.1563829E+03  0.7546771E-02  0.1218019E+00
         21   -1    0    0  501  502  0.00000000000E+00  0.00000000000E+00  0.36674800912E+02  0.36674800912E+02  0.00000000000E+00 0. -1.
          2   -1    0    0  502    0 -0.00000000000E+00 -0.00000000000E+00 -0.42612405248E+03  0.42612405248E+03  0.00000000000E+00 0. -1.
         24    2    1    2    0    0  0.29756008040E+02 -0.29541552564E+02 -0.17692283879E+03  0.19893700619E+03  0.80722476443E+02 0.  0.
         23    2    1    2    0    0 -0.28988650414E+02 -0.17405131029E+02 -0.87858225793E+02  0.13064496845E+03  0.90585647338E+02 0.  0.
        -13    1    3    3    0    0 -0.10026296112E+02  0.19097509904E+02 -0.18176557094E+02  0.28206891464E+02  0.00000000000E+00 0.  1.
         14    1    3    3    0    0  0.39782304152E+02 -0.48639062468E+02 -0.15874628170E+03  0.17073011472E+03  0.00000000000E+00 0. -1.
        -11    1    4    4    0    0  0.27362082317E+02  0.15425207920E+02 -0.26369776493E+02  0.41012018975E+02  0.00000000000E+00 0.  1.
         11    1    4    4    0    0 -0.56350732731E+02 -0.32830338949E+02 -0.61488449300E+02  0.89632949479E+02  0.00000000000E+00 0. -1.
          1    1    1    2  501    0 -0.76735762565E+00  0.46946683594E+02 -0.12466818698E+03  0.13321687875E+03  0.00000000000E+00 0. -1.
<scales pt_clust_5="13000.00000" pt_clust_6="13000.00000" pt_clust_7="13000.00000" pt_clust_8="13000.00000" pt_clust_9="13000.00000"></scales>
<clustering>
<clus scale="   80.722">  5  6 -1 -1</clus>
<clus scale="   90.586">  7  8 -1 -1</clus>
<clus scale="   46.953">  7  9 -1 -1</clus>
<clus scale="   90.963">  2  5  1 -1</clus>
<clus scale="  156.383">  1  5  2 -1</clus>
</clustering>
</event>
<event>
 9    2  0.2147756E-005  0.4181230E+03  0.7546771E-02  0.1076080E+00
         -1   -1    0    0    0  501 -0.00000000000E+00  0.00000000000E+00  0.52368016257E+02  0.52368016257E+02  0.00000000000E+00 0.  1.
         21   -1    0    0  501  502  0.00000000000E+00 -0.00000000000E+00 -0.16392995617E+04  0.16392995617E+04  0.00000000000E+00 0.  1.
         24    2    1    2    0    0 -0.98953768519E+02  0.55398221997E+02 -0.21585680378E+03  0.25825458038E+03  0.85090876391E+02 0.  0.
         23    2    1    2    0    0 -0.79056856696E+02  0.11706368443E+03 -0.44330361049E+03  0.47310566985E+03  0.85772903426E+02 0.  0.
        -13    1    3    3    0    0 -0.10817639760E+03  0.66395597770E+02 -0.19990405176E+03  0.23679556227E+03  0.00000000000E+00 0.  1.
         14    1    3    3    0    0  0.92226290855E+01 -0.10997375773E+02 -0.15952752014E+02  0.21459018103E+02  0.00000000000E+00 0. -1.
        -13    1    4    4    0    0 -0.24061854148E+02  0.10445306277E+03 -0.25733944913E+03  0.27877052790E+03  0.00000000000E+00 0.  1.
         13    1    4    4    0    0 -0.54995002548E+02  0.12610621657E+02 -0.18596416137E+03  0.19433514195E+03  0.00000000000E+00 0. -1.
         -2    1    1    2    0  502  0.17801062522E+03 -0.17246190642E+03 -0.92777113118E+03  0.96030732774E+03  0.00000000000E+00 0.  1.
<scales pt_clust_5="13000.00000" pt_clust_6="13000.00000" pt_clust_7="13000.00000" pt_clust_8="13000.00000" pt_clust_9="13000.00000"></scales>
<clustering>
<clus scale="   85.091">  5  6 -1 -1</clus>
<clus scale="   85.773">  7  8 -1 -1</clus>
<clus scale="  141.779">  1  5  2 -1</clus>
<clus scale="  191.243">  7  9 -1 -1</clus>
<clus scale="  418.123">  2  5  1 -1</clus>
</clustering>
</event>
<event>
 9    2  0.2147756E-005  0.2214243E+03  0.7546771E-02  0.1166827E+00
         21   -1    0    0  501  502  0.00000000000E+00  0.00000000000E+00  0.58762108983E+02  0.58762108983E+02  0.00000000000E+00 0.  1.
          2   -1    0    0  502    0 -0.00000000000E+00 -0.00000000000E+00 -0.51474261732E+03  0.51474261732E+03  0.00000000000E+00 0. -1.
         24    2    1    2    0    0  0.37112791124E+02 -0.42975380449E+02 -0.25865264424E+03  0.27691237986E+03  0.80963159279E+02 0.  0.
         23    2    1    2    0    0  0.38254160510E+02  0.88259733811E+02 -0.10855828830E+03  0.17164880861E+03  0.91789161289E+02 0.  0.
        -11    1    3    3    0    0  0.30431974931E+02  0.14982753910E+02 -0.14782097879E+03  0.15166288202E+03  0.00000000000E+00 0.  1.
         12    1    3    3    0    0  0.66808161927E+01 -0.57958134359E+02 -0.11083166545E+03  0.12524949784E+03  0.00000000000E+00 0. -1.
        -13    1    4    4    0    0  0.64285038736E+02  0.54049830429E+02 -0.46044695901E+02  0.95781336362E+02  0.00000000000E+00 0.  1.
         13    1    4    4    0    0 -0.26030878226E+02  0.34209903382E+02 -0.62513592403E+02  0.75867472251E+02  0.00000000000E+00 0. -1.
          1    1    1    2  501    0 -0.75366951634E+02 -0.45284353362E+02 -0.88769575795E+02  0.12494353783E+03  0.00000000000E+00 0. -1.
<scales pt_clust_5="13000.00000" pt_clust_6="13000.00000" pt_clust_7="13000.00000" pt_clust_8="13000.00000" pt_clust_9="13000.00000"></scales>
<clustering>
<clus scale="   80.963">  5  6 -1 -1</clus>
<clus scale="   91.789">  7  8 -1 -1</clus>
<clus scale="   87.925">  7  9 -1 -1</clus>
<clus scale="   98.890">  2  5  1 -1</clus>
<clus scale="  221.424">  1  5  2 -1</clus>
</clustering>
</event>
<event>
 9    2  0.2147756E-005  0.2232881E+03  0.7546771E-02  0.1141867E+00
          2   -1    0    0  502    0 -0.00000000000E+00  0.00000000000E+00  0.12351018852E+04  0.12351018852E+04  0.00000000000E+00 0. -1.
         21   -1    0    0  501  502  0.00000000000E+00 -0.00000000000E+00 -0.41322568726E+02  0.41322568726E+02  0.00000000000E+00 0. -1.
         24    2    1    2    0    0  0.50760837260E+02 -0.14251182484E+03  0.84264161003E+03  0.86030517566E+03  0.84816445918E+02 0.  0.
         23    2    1    2    0    0 -0.31488710789E+02  0.19749233830E+02  0.14643522212E+03  0.17665075068E+03  0.91545848053E+02 0.  0.
        -13    1    3    3    0    0  0.85536912763E+01 -0.90675517739E+02  0.29885224717E+03  0.31242259968E+03  0.00000000000E+00 0.  1.
         14    1    3    3    0    0  0.42207145983E+02 -0.51836307102E+02  0.54378936286E+03  0.54788257598E+03  0.00000000000E+00 0. -1.
        -11    1    4    4    0    0  0.29492721405E+02  0.22597708524E+02  0.65059827600E+02  0.74921680532E+02  0.00000000000E+00 0.  1.
         11    1    4    4    0    0 -0.60981432194E+02 -0.28484746941E+01  0.81375394521E+02  0.10172907015E+03  0.00000000000E+00 0. -1.
          1    1    1    2  501    0 -0.19272126471E+02  0.12276259101E+03  0.20470248428E+03  0.23946852754E+03  0.00000000000E+00 0. -1.
<scales pt_clust_5="13000.00000" pt_clust_6="13000.00000" pt_clust_7="13000.00000" pt_clust_8="13000.00000" pt_clust_9="13000.00000"></scales>
<clustering>
<clus scale="   84.816">  5  6 -1 -1</clus>
<clus scale="   91.546">  7  8 -1 -1</clus>
<clus scale="  124.266">  7  9 -1 -1</clus>
<clus scale="  173.436">  1  5  2 -1</clus>
<clus scale="  223.288">  2  5  1 -1</clus>
</clustering>
</event>
<event>
 9    2  0.2147756E-005  0.1912987E+03  0.7546771E-02  0.1183023E+00
          2   -1    0    0  502    0 -0.00000000000E+00  0.00000000000E+00  0.76581365501E+03  0.76581365501E+03  0.00000000000E+00 0. -1.
         21   -1    0    0  501  502  0.00000000000E+00 -0.00000000000E+00 -0.29814194757E+02  0.29814194757E+02  0.00000000000E+00 0. -1.
         24    2    1    2    0    0 -0.71640926452E+02 -0.59703764248E+01  0.33302564591E+03  0.34955263437E+03  0.78185008966E+02 0.  0.
         23    2    1    2    0    0 -0.22271197426E+02  0.18752240614E+02  0.20374771989E+03  0.22545359412E+03  0.92024654180E+02 0.  0.
        -11    1    3    3    0    0 -0.55157348291E+02 -0.39109466717E+02  0.18497972765E+03  0.19695020462E+03  0.00000000000E+00 0.  1.
         12    1    3    3    0    0 -0.16483578161E+02  0.33139090293E+02  0.14804591825E+03  0.15260242975E+03  0.00000000000E+00 0. -1.
        -13    1    4    4    0    0  0.28614261671E+02  0.31160293148E+02  0.11322522307E+03  0.12087055465E+03  0.00000000000E+00 0.  1.
         13    1    4    4    0    0 -0.50885459098E+02 -0.12408052534E+02  0.90522496814E+02  0.10458303947E+03  0.00000000000E+00 0. -1.
          1    1    1    2  501    0  0.93912123879E+02 -0.12781864189E+02  0.19922609446E+03  0.22062162129E+03  0.00000000000E+00 0. -1.
<scales pt_clust_5="13000.00000" pt_clust_6="13000.00000" pt_clust_7="13000.00000" pt_clust_8="13000.00000" pt_clust_9="13000.00000"></scales>
<clustering>
<clus scale="   78.185">  5  6 -1 -1</clus>
<clus scale="   92.025">  7  8 -1 -1</clus>
<clus scale="   94.778">  7  9 -1 -1</clus>
<clus scale="  106.212">  1  5  2 -1</clus>
<clus scale="  191.299">  2  5  1 -1</clus>
</clustering>
</event>
<event>
 9    2  0.2147756E-005  0.1961189E+03  0.7546771E-02  0.1187620E+00
         21   -1    0    0  501  502  0.00000000000E+00  0.00000000000E+00  0.16389554891E+03  0.16389554891E+03  0.00000000000E+00 0.  1.
          2   -1    0    0  502    0 -0.00000000000E+00 -0.00000000000E+00 -0.12468506761E+03  0.12468506761E+03  0.00000000000E+00 0. -1.
         24    2    1    2    0    0  0.22358237396E+02 -0.27998875367E+02  0.22335251904E+01  0.89006257462E+02  0.81445057746E+02 0.  0.
         23    2    1    2    0    0 -0.68800338009E+02 -0.26671531681E+02  0.47454111771E+02  0.12707958058E+03  0.91937315401E+02 0.  0.
        -11    1    3    3    0    0  0.48663614584E+02 -0.37033988921E+02  0.22031838368E+01  0.61192464722E+02  0.00000000000E+00 0.  1.
         12    1    3    3    0    0 -0.26305377188E+02  0.90351135541E+01  0.30341353587E-01  0.27813792739E+02  0.00000000000E+00 0. -1.
        -11    1    4    4    0    0 -0.71004338650E+02  0.52918541153E+00 -0.15119001620E+01  0.71022404820E+02  0.00000000000E+00 0. -1.
         11    1    4    4    0    0  0.22040006408E+01 -0.27200717092E+02  0.48966011933E+02  0.56057175757E+02  0.00000000000E+00 0.  1.
          1    1    1    2  501    0  0.46442100613E+02  0.54670407048E+02 -0.10477155655E+02  0.72494778479E+02  0.00000000000E+00 0. -1.
<scales pt_clust_5="13000.00000" pt_clust_6="13000.00000" pt_clust_7="13000.00000" pt_clust_8="13000.00000" pt_clust_9="13000.00000"></scales>
<clustering>
<clus scale="   81.445">  5  6 -1 -1</clus>
<clus scale="   88.978">  2  5  1 -1</clus>
<clus scale="   91.937">  7  8 -1 -1</clus>
<clus scale="   70.552">  7  9 -1 -1</clus>
<clus scale="  196.119">  1  5  2 -1</clus>
</clustering>
</event>
<event>
 9    2  0.2147756E-005  0.3252148E+03  0.7546771E-02  0.1121217E+00
         21   -1    0    0  501  502  0.00000000000E+00  0.00000000000E+00  0.65810480662E+02  0.65810480662E+02  0.00000000000E+00 0. -1.
          2   -1    0    0  502    0 -0.00000000000E+00 -0.00000000000E+00 -0.66750951684E+03  0.66750951684E+03  0.00000000000E+00 0. -1.
         24    2    1    2    0    0 -0.26071684762E+02 -0.38247514429E+02 -0.11477140060E+03  0.14777480012E+03  0.80760832394E+02 0.  0.
         23    2    1    2    0    0 -0.75504702059E+02 -0.97874854655E+02 -0.25218886849E+03  0.29580505432E+03  0.92849111819E+02 0.  0.
        -11    1    3    3    0    0 -0.11184860242E+02  0.24258609105E+02 -0.20427218045E+02  0.33628149687E+02  0.00000000000E+00 0.  1.
         12    1    3    3    0    0 -0.14886824520E+02 -0.62506123534E+02 -0.94344182556E+02  0.11414665044E+03  0.00000000000E+00 0. -1.
        -11    1    4    4    0    0 -0.22240921066E+01 -0.50714606710E+02 -0.16459825654E+03  0.17224837873E+03  0.00000000000E+00 0.  1.
         11    1    4    4    0    0 -0.73280609952E+02 -0.47160247945E+02 -0.87590611947E+02  0.12355667559E+03  0.00000000000E+00 0. -1.
          1    1    1    2  501    0  0.10157638682E+03  0.13612236908E+03 -0.23473876708E+03  0.28974014305E+03  0.00000000000E+00 0. -1.
<scales pt_clust_5="13000.00000" pt_clust_6="13000.00000" pt_clust_7="13000.00000" pt_clust_8="13000.00000" pt_clust_9="13000.00000"></scales>
<clustering>
<clus scale="   80.761">  5  6 -1 -1</clus>
<clus scale="   92.849">  7  8 -1 -1</clus>
<clus scale="   93.086">  2  5  1 -1</clus>
<clus scale="  147.231">  7  9 -1 -1</clus>
<clus scale="  325.215">  1  5  2 -1</clus>
</clustering>
</event>
<event>
 9    2  0.2147756E-005  0.2942939E+03  0.7546771E-02  0.1138048E+00
         21   -1    0    0  501  502  0.00000000000E+00  0.00000000000E+00  0.91218910693E+02  0.91218910693E+02  0.00000000000E+00 0.  1.
         -1   -1    0    0    0  501 -0.00000000000E+00 -0.00000000000E+00 -0.41168848689E+03  0.41168848689E+03  0.00000000000E+00 0.  1.
         24    2    1    2    0    0  0.13737943285E+02 -0.14787002335E+02 -0.27111953697E+02  0.87374469032E+02  0.80572037839E+02 0.  0.
         23    2    1    2    0    0  0.83530344090E+02 -0.56650699404E+02 -0.51379352828E+02  0.14512962245E+03  0.90753232935E+02 0.  0.
        -13    1    3    3    0    0  0.31450311236E+02  0.23211023971E+02 -0.34638354471E+01  0.39241201136E+02  0.00000000000E+00 0.  1.
         14    1    3    3    0    0 -0.17712367950E+02 -0.37998026306E+02 -0.23648118250E+02  0.48133267896E+02  0.00000000000E+00 0. -1.
        -13    1    4    4    0    0  0.19507503819E+02  0.15632830614E+02 -0.40991034408E+02  0.48012425476E+02  0.00000000000E+00 0. -1.
         13    1    4    4    0    0  0.64022840271E+02 -0.72283530017E+02 -0.10388318420E+02  0.97117196972E+02  0.00000000000E+00 0.  1.
         -2    1    1    2    0  502 -0.97268287375E+02  0.71437701739E+02 -0.24197826967E+03  0.27040330610E+03  0.00000000000E+00 0.  1.
<scales pt_clust_5="13000.00000" pt_clust_6="13000.00000" pt_clust_7="13000.00000" pt_clust_8="13000.00000" pt_clust_9="13000.00000"></scales>
<clustering>
<clus scale="   80.572">  5  6 -1 -1</clus>
<clus scale="   83.062">  2  5  1 -1</clus>
<clus scale="   90.753">  7  8 -1 -1</clus>
<clus scale="  106.389">  7  9 -1 -1</clus>
<clus scale="  294.294">  1  5  2 -1</clus>
</clustering>
</event>
<event>
 9    2  0.2147756E-005  0.3251609E+03  0.7546771E-02  0.1108633E+00
         21   -1    0    0  501  502  0.00000000000E+00  0.00000000000E+00  0.35531120215E+02  0.35531120215E+02  0.00000000000E+00 0. -1.
          2   -1    0    0  502    0 -0.00000000000E+00 -0.00000000000E+00 -0.17083939014E+04  0.17083939014E+04  0.00000000000E+00 0. -1.
         24    2    1    2    0    0  0.98838282470E+02 -0.50062882307E+01 -0.21460715269E+03  0.24985705400E+03  0.81106402011E+02 0.  0.
         23    2    1    2    0    0  0.83972238990E+02  0.47639728036E+02 -0.49695182181E+03  0.51460775623E+03  0.92407515685E+02 0.  0.
        -11    1    3    3    0    0  0.10881452249E+03 -0.17482322803E+02 -0.19924557603E+03  0.22769504053E+03  0.00000000000E+00 0.  1.
         12    1    3    3    0    0 -0.99762400229E+01  0.12476034572E+02 -0.15361576658E+02  0.22162013470E+02  0.00000000000E+00 0. -1.
        -11    1    4    4    0    0 -0.14225039774E+00  0.31424924771E+02 -0.46761946718E+02  0.56340267952E+02  0.00000000000E+00 0.  1.
         11    1    4    4    0    0  0.84114489388E+02  0.16214803265E+02 -0.45018987510E+03  0.45826748827E+03  0.00000000000E+00 0. -1.
          1    1    1    2  501    0 -0.18281052146E+03 -0.42633439805E+02 -0.96130380668E+03  0.97946021138E+03  0.00000000000E+00 0. -1.
<scales pt_clust_5="13000.00000" pt_clust_6="13000.00000" pt_clust_7="13000.00000" pt_clust_8="13000.00000" pt_clust_9="13000.00000"></scales>
<clustering>
<clus scale="   81.106">  5  6 -1 -1</clus>
<clus scale="   92.408">  7  8 -1 -1</clus>
<clus scale="  127.954">  2  5  1 -1</clus>
<clus scale="  126.470">  7  9 -1 -1</clus>
<clus scale="  325.161">  1  5  2 -1</clus>
</clustering>
</event>
<event>
 9    2  0.2147756E-005  0.2766342E+03  0.7546771E-02  0.1109029E+00
         -1   -1    0    0    0  501 -0.00000000000E+00  0.00000000000E+00  0.14884136604E+03  0.14884136604E+03  0.00000000000E+00 0.  1.
         21   -1    0    0  501  502  0.00000000000E+00 -0.00000000000E+00 -0.39076714995E+03  0.39076714995E+03  0.00000000000E+00 0.  1.
         24    2    1    2    0    0 -0.16364329133E+03 -0.98910732744E+02 -0.10291221333E+03  0.23000999485E+03  0.75836760425E+02 0.  0.
         23    2    1    2    0    0  0.19683929842E+02  0.60765048726E+02 -0.11157488260E+02  0.11331666065E+03  0.92931844900E+02 0.  0.
        -13    1    3    3    0    0 -0.68187751390E+02 -0.43748172031E+01 -0.16561614457E+02  0.70306440236E+02  0.00000000000E+00 0.  1.
         14    1    3    3    0    0 -0.95455539936E+02 -0.94535915541E+02 -0.86350598872E+02  0.15970355462E+03  0.00000000000E+00 0. -1.
        -13    1    4    4    0    0  0.40973635628E+02  0.68945032360E+02 -0.28017473784E+02  0.84954312079E+02  0.00000000000E+00 0. -1.
         13    1    4    4    0    0 -0.21289705786E+02 -0.81799836342E+01  0.16859985524E+02  0.28362348573E+02  0.00000000000E+00 0.  1.
         -2    1    1    2    0  502  0.14395936148E+03  0.38145684018E+02 -0.12785608232E+03  0.19628186048E+03  0.00000000000E+00 0.  1.
<scales pt_clust_5="13000.00000" pt_clust_6="13000.00000" pt_clust_7="13000.00000" pt_clust_8="13000.00000" pt_clust_9="13000.00000"></scales>
<clustering>
<clus scale="   75.837">  5  6 -1 -1</clus>
<clus scale="   92.932">  7  8 -1 -1</clus>
<clus scale="  148.928">  7  9 -1 -1</clus>
<clus scale="  205.703">  1  5  2 -1</clus>
<clus scale="  276.634">  2  5  1 -1</clus>
</clustering>
</event>
<event>
 9    2  0.2147756E-005  0.2703018E+03  0.7546771E-02  0.1135409E+00
         21   -1    0    0  501  502  0.00000000000E+00  0.00000000000E+00  0.23919974870E+03  0.23919974870E+03  0.00000000000E+00 0. -1.
          2   -1    0    0  502    0 -0.00000000000E+00 -0.00000000000E+00 -0.15659585599E+03  0.15659585599E+03  0.00000000000E+00 0. -1.
         24    2    1    2    0    0  0.69384141842E-01 -0.93933213811E+02  0.45266709149E+02  0.12292728367E+03  0.65104444105E+02 0.  0.
         23    2    1    2    0    0 -0.70782236810E+02  0.14102510742E+03 -0.23916570440E+00  0.17997087218E+03  0.86552017093E+02 0.  0.
        -13    1    3    3    0    0 -0.13693163221E+01 -0.95365518377E+02  0.19836717228E+02  0.97416387086E+02  0.00000000000E+00 0.  1.
         14    1    3    3    0    0  0.14387004639E+01  0.14323045663E+01  0.25429991921E+02  0.25510896584E+02  0.00000000000E+00 0. -1.
        -11    1    4    4    0    0 -0.40494670752E+02  0.71363643446E+02 -0.43171906367E+02  0.92716780922E+02  0.00000000000E+00 0. -1.
         11    1    4    4    0    0 -0.30287566058E+02  0.69661463972E+02  0.42932740663E+02  0.87254091258E+02  0.00000000000E+00 0.  1.
          1    1    1    2  501    0  0.70712852669E+02 -0.47091893607E+02  0.37576349262E+02  0.92897448834E+02  0.00000000000E+00 0. -1.
<scales pt_clust_5="13000.00000" pt_clust_6="13000.00000" pt_clust_7="13000.00000" pt_clust_8="13000.00000" pt_clust_9="13000.00000"></scales>
<clustering>
<clus scale="   65.104">  5  6 -1 -1</clus>
<clus scale="   86.552">  7  8 -1 -1</clus>
<clus scale="   84.959">  7  9 -1 -1</clus>
<clus scale="  114.289">  2  5  1 -1</clus>
<clus scale="  270.302">  1  5  2 -1</clus>
</clustering>
</event>
<event>
 9    2  0.2147756E-005  0.3587603E+03  0.7546771E-02  0.1084698E+00
         21   -1    0    0  501  502  0.00000000000E+00  0.00000000000E+00  0.28099905853E+03  0.28099905853E+03  0.00000000000E+00 0. -1.
          2   -1    0    0  502    0 -0.00000000000E+00 -0.00000000000E+00 -0.27877794133E+03  0.27877794133E+03  0.00000000000E+00 0. -1.
         24    2    1    2    0    0  0.60175698325E+02 -0.14656095846E+03 -0.74442235345E+02  0.19291704712E+03  0.81080894495E+02 0.  0.
         23    2    1    2    0    0 -0.33530036572E+02 -0.98075512145E+01 -0.92723900227E+02  0.13479715195E+03  0.91389819384E+02 0.  0.
        -11    1    3    3    0    0  0.32211547817E+02 -0.72570176698E+02 -0.81153834968E+02  0.11353395655E+03  0.00000000000E+00 0.  1.
         12    1    3    3    0    0  0.27964150507E+02 -0.73990781763E+02  0.67115996236E+01  0.79383090574E+02  0.00000000000E+00 0. -1.
        -13    1    4    4    0    0  0.23647315183E+02 -0.13522301962E+02 -0.17675845478E+01  0.27297848283E+02  0.00000000000E+00 0.  1.
         13    1    4    4    0    0 -0.57177351756E+02  0.37147507472E+01 -0.90956315680E+02  0.10749930367E+03  0.00000000000E+00 0. -1.
          1    1    1    2  501    0 -0.26645661752E+02  0.15636850968E+03  0.16938725277E+03  0.23206280079E+03  0.00000000000E+00 0. -1.
<scales pt_clust_5="13000.00000" pt_clust_6="13000.00000" pt_clust_7="13000.00000" pt_clust_8="13000.00000" pt_clust_9="13000.00000"></scales>
<clustering>
<clus scale="   81.081">  5  6 -1 -1</clus>
<clus scale="   91.390">  7  8 -1 -1</clus>
<clus scale="  158.623">  7  9 -1 -1</clus>
<clus scale="  177.976">  2  5  1 -1</clus>
<clus scale="  358.760">  1  5  2 -1</clus>
</clustering>
</event>
<event>
 9    2  0.2147756E-005  0.3577397E+03  0.7546771E-02  0.1111467E+00
          2   -1    0    0  502    0 -0.00000000000E+00  0.00000000000E+00  0.35390296267E+03  0.35390296267E+03  0.00000000000E+00 0. -1.
         21   -1    0    0  501  502  0.00000000000E+00 -0.00000000000E+00 -0.14675805015E+03  0.14675805015E+03  0.00000000000E+00 0.  1.
         24    2    1    2    0    0 -0.25177682099E+02  0.28542435588E+02  0.44834510628E+01  0.89504891762E+02  0.80885338664E+02 0.  0.
         23    2    1    2    0    0 -0.71904597586E+02  0.41371213395E+02 -0.50327446153E+02  0.13130567043E+03  0.88467388328E+02 0.  0.
        -11    1    3    3    0    0 -0.24744732271E+02  0.49706210205E+02 -0.18245058567E+02  0.58445626614E+02  0.00000000000E+00 0.  1.
         12    1    3    3    0    0 -0.43294982831E+00 -0.21163774617E+02  0.22728509630E+02  0.31059265149E+02  0.00000000000E+00 0. -1.
        -13    1    4    4    0    0 -0.79333409703E+02  0.81326928159E+01 -0.55074075024E+02  0.96917925727E+02  0.00000000000E+00 0.  1.
         13    1    4    4    0    0  0.74288121167E+01  0.33238520579E+02  0.47466288708E+01  0.34387744698E+02  0.00000000000E+00 0. -1.
          1    1    1    2  501    0  0.97082279686E+02 -0.69913648983E+02  0.25298890761E+03  0.27985045063E+03  0.00000000000E+00 0. -1.
<scales pt_clust_5="13000.00000" pt_clust_6="13000.00000" pt_clust_7="13000.00000" pt_clust_8="13000.00000" pt_clust_9="13000.00000"></scales>
<clustering>
<clus scale="   80.885">  5  6 -1 -1</clus>
<clus scale="   88.467">  7  8 -1 -1</clus>
<clus scale="   89.393">  1  5  2 -1</clus>
<clus scale="   87.729">  7  9 -1 -1</clus>
<clus scale="  357.740">  2  5  1 -1</clus>
</clustering>
</event>
<event>
 9    2  0.2147756E-005  0.2020679E+03  0.7546771E-02  0.1163319E+00
         21   -1    0    0  501  502  0.00000000000E+00  0.00000000000E+00  0.15668119149E+03  0.15668119149E+03  0.00000000000E+00 0. -1.
          2   -1    0    0  502    0 -0.00000000000E+00 -0.00000000000E+00 -0.22026551594E+03  0.22026551594E+03  0.00000000000E+00 0. -1.
         24    2    1    2    0    0  0.33516355914E+02  0.11030584812E+03  0.44305297166E+02  0.14787989500E+03  0.81331283936E+02 0.  0.
         23    2    1    2    0    0 -0.57739948710E+02 -0.53532932783E+02 -0.21607533496E+02  0.12297937163E+03  0.91963926484E+02 0.  0.
        -13    1    3    3    0    0 -0.13820056812E+02  0.58655155445E+02  0.48990270615E+02  0.77662525361E+02  0.00000000000E+00 0.  1.
         14    1    3    3    0    0  0.47336412726E+02  0.51650692673E+02 -0.46849734486E+01  0.70217369643E+02  0.00000000000E+00 0. -1.
        -11    1    4    4    0    0  0.11846587625E+02  0.17402692536E+02  0.98283023935E+00  0.21075134665E+02  0.00000000000E+00 0.  1.
         11    1    4    4    0    0 -0.69586536335E+02 -0.70935625319E+02 -0.22590363735E+02  0.10190423697E+03  0.00000000000E+00 0. -1.
          1    1    1    2  501    0  0.24223592796E+02 -0.56772915334E+02 -0.86282088120E+02  0.10608744079E+03  0.00000000000E+00 0. -1.
<scales pt_clust_5="13000.00000" pt_clust_6="13000.00000" pt_clust_7="13000.00000" pt_clust_8="13000.00000" pt_clust_9="13000.00000"></scales>
<clustering>
<clus scale="   81.331">  5  6 -1 -1</clus>
<clus scale="   91.964">  7  8 -1 -1</clus>
<clus scale="   61.725">  7  9 -1 -1</clus>
<clus scale="  141.087">  2  5  1 -1</clus>
<clus scale="  202.068">  1  5  2 -1</clus>
</clustering>
</event>
<event>
 9    2  0.2147756E-005  0.3910437E+03  0.7546771E-02  0.1076851E+00
          2   -1    0    0  502    0 -0.00000000000E+00  0.00000000000E+00  0.41573194862E+03  0.41573194862E+03  0.00000000000E+00 0. -1.
         21   -1    0    0  501  502  0.00000000000E+00 -0.00000000000E+00 -0.28325069386E+03  0.28325069386E+03  0.00000000000E+00 0.  1.
         24    2    1    2    0    0  0.34967742821E+02 -0.14584003853E+03 -0.14193669250E+03  0.22125848722E+03  0.79481026731E+02 0.  0.
         23    2    1    2    0    0 -0.54689331984E+00 -0.75277699846E+02  0.21574598371E+03  0.24637971852E+03  0.92139052675E+02 0.  0.
        -11    1    3    3    0    0 -0.92932920393E+01 -0.73741474295E+02 -0.10571997950E+03  0.12923190154E+03  0.00000000000E+00 0.  1.
         12    1    3    3    0    0  0.44261034860E+02 -0.72098564236E+02 -0.36216712999E+02  0.92026585682E+02  0.00000000000E+00 0. -1.
        -13    1    4    4    0    0  0.19684285344E+02 -0.72305869073E+02  0.21293837428E+03  0.22573958677E+03  0.00000000000E+00 0.  1.
         13    1    4    4    0    0 -0.20231178664E+02 -0.29718307724E+01  0.28076094256E+01  0.20640131757E+02  0.00000000000E+00 0. -1.
          1    1    1    2  501    0 -0.34420849501E+02  0.22111773838E+03  0.58671963555E+02  0.23134443675E+03  0.00000000000E+00 0. -1.
<scales pt_clust_5="13000.00000" pt_clust_6="13000.00000" pt_clust_7="13000.00000" pt_clust_8="13000.00000" pt_clust_9="13000.00000"></scales>
<clustering>
<clus scale="   79.481">  5  6 -1 -1</clus>
<clus scale="   92.139">  7  8 -1 -1</clus>
<clus scale="  169.733">  1  5  2 -1</clus>
<clus scale="  166.208">  7  9 -1 -1</clus>
<clus scale="  391.044">  2  5  1 -1</clus>
</clustering>
</event>
<event>
 9    2  0.2147756E-005  0.1846515E+03  0.7546771E-02  0.1182576E+00
         -1   -1    0    0    0  501 -0.00000000000E+00  0.00000000000E+00  0.39606704031E+02  0.39606704031E+02  0.00000000000E+00 0.  1.
         21   -1    0    0  501  502  0.00000000000E+00 -0.00000000000E+00 -0.93893759383E+03  0.93893759383E+03  0.00000000000E+00 0.  1.
         24    2    1    2    0    0  0.79244347847E+02 -0.50657815825E+02 -0.92766714517E+02  0.15111335776E+03  0.73373718733E+02 0.  0.
         23    2    1    2    0    0 -0.30794864215E+02  0.78796952147E+02 -0.61022207380E+03  0.62325115592E+03  0.94412608617E+02 0.  0.
        -13    1    3    3    0    0  0.65579921297E+02 -0.42095495451E+02 -0.10508115919E+03  0.13082357139E+03  0.00000000000E+00 0.  1.
         14    1    3    3    0    0  0.13664426549E+02 -0.85623203745E+01  0.12314444675E+02  0.20289786366E+02  0.00000000000E+00 0. -1.
        -11    1    4    4    0    0  0.30283762198E+02  0.45964970185E+01 -0.15386161788E+03  0.15688094688E+03  0.00000000000E+00 0. -1.
         11    1    4    4    0    0 -0.61078626414E+02  0.74200455129E+02 -0.45636045593E+03  0.46637020904E+03  0.00000000000E+00 0.  1.
         -2    1    1    2    0  502 -0.48449483631E+02 -0.28139136322E+02 -0.19634210148E+03  0.20417978419E+03  0.00000000000E+00 0.  1.
<scales pt_clust_5="13000.00000" pt_clust_6="13000.00000" pt_clust_7="13000.00000" pt_clust_8="13000.00000" pt_clust_9="13000.00000"></scales>
<clustering>
<clus scale="   73.374">  5  6 -1 -1</clus>
<clus scale="   94.413">  7  8 -1 -1</clus>
<clus scale="   56.028">  7  9 -1 -1</clus>
<clus scale="  119.288">  1  5  2 -1</clus>
<clus scale="  184.652">  2  5  1 -1</clus>
</clustering>
</event>
<event>
 9    2  0.2758555E-005  0.1780398E+04  0.7546771E-02  0.9345980E-01
         21   -1    0    0  501  502  0.00000000000E+00  0.00000000000E+00  0.37255218050E+03  0.37255218050E+03  0.00000000000E+00 0. -1.
          2   -1    0    0  502    0 -0.00000000000E+00 -0.00000000000E+00 -0.30627883025E+04  0.30627883025E+04  0.00000000000E+00 0. -1.
         24    2    1    2    0    0 -0.37736801494E+02  0.12657460203E+03 -0.89026066047E+03  0.90359607734E+03  0.80477520671E+02 0.  0.
         23    2    1    2    0    0 -0.54769222213E+02  0.40348425919E+03 -0.19328065326E+04  0.19775207557E+04  0.95121141884E+02 0.  0.
        -13    1    3    3    0    0 -0.15726647147E+02  0.16910203159E+02 -0.41460096090E+02  0.47457580734E+02  0.00000000000E+00 0.  1.
         14    1    3    3    0    0 -0.22010154347E+02  0.10966439887E+03 -0.84880056438E+03  0.85613849660E+03  0.00000000000E+00 0. -1.
        -13    1    4    4    0    0 -0.57183174078E+02  0.10872853369E+03 -0.52408625435E+03  0.53829193885E+03  0.00000000000E+00 0. -1.
         13    1    4    4    0    0  0.24139518650E+01  0.29475572551E+03 -0.14087202783E+04  0.14392288168E+04  0.00000000000E+00 0.  1.
          1    1    1    2  501    0  0.92506023707E+02 -0.53005886123E+03  0.13283107104E+03  0.55422365000E+03  0.00000000000E+00 0. -1.
<scales pt_clust_5="13000.00000" pt_clust_6="13000.00000" pt_clust_7="13000.00000" pt_clust_8="13000.00000" pt_clust_9="13000.00000"></scales>
<clustering>
<clus scale="   80.478">  5  6 -1 -1</clus>
<clus scale="   95.121">  7  8 -1 -1</clus>
<clus scale="  154.667">  2  5  1 -1</clus>
<clus scale="  525.312">  7  9 -1 -1</clus>
<clus scale=" 1780.398">  1  5  2 -1</clus>
</clustering>
</event>
<event>
 9    2  0.2147756E-005  0.2975287E+03  0.7546771E-02  0.1106277E+00
         21   -1    0    0  501  502  0.00000000000E+00  0.00000000000E+00  0.35873396799E+03  0.35873396799E+03  0.00000000000E+00 0.  1.
         -3   -1    0    0    0  501 -0.00000000000E+00 -0.00000000000E+00 -0.19094705731E+03  0.19094705731E+03  0.00000000000E+00 0.  1.
         24    2    1    2    0    0  0.15593715056E+03  0.25547624909E+02 -0.46054576006E+02  0.18327756735E+03  0.80626091681E+02 0.  0.
         23    2    1    2    0    0  0.37521174961E+02 -0.19850559399E+02  0.10220330721E+03  0.14297189485E+03  0.90518304407E+02 0.  0.
        -13    1    3    3    0    0  0.12341006654E+03  0.46543026730E+02 -0.56023442944E+02  0.14330011870E+03  0.00000000000E+00 0.  1.
         14    1    3    3    0    0  0.32527084024E+02 -0.20995401821E+02  0.99688669385E+01  0.39977448653E+02  0.00000000000E+00 0. -1.
        -13    1    4    4    0    0 -0.19629333191E+02 -0.30727948855E+02  0.63092117733E+02  0.72870658584E+02  0.00000000000E+00 0.  1.
         13    1    4    4    0    0  0.57150508153E+02  0.10877389456E+02  0.39111189480E+02  0.70101236266E+02  0.00000000000E+00 0. -1.
         -4    1    1    2    0  502 -0.19345832552E+03 -0.56970655094E+01  0.11163817948E+03  0.22343156310E+03  0.00000000000E+00 0.  1.
<scales pt_clust_5="13000.00000" pt_clust_6="13000.00000" pt_clust_7="13000.00000" pt_clust_8="13000.00000" pt_clust_9="13000.00000"></scales>
<clustering>
<clus scale="   80.626">  5  6 -1 -1</clus>
<clus scale="   90.518">  7  8 -1 -1</clus>
<clus scale="  177.397">  2  5  1 -1</clus>
<clus scale="   80.255">  7  9 -1 -1</clus>
<clus scale="  297.529">  1  5  2 -1</clus>
</clustering>
</event>
<event>
 9    2  0.2147756E-005  0.2882900E+03  0.7546771E-02  0.1132425E+00
         21   -1    0    0  501  502  0.00000000000E+00  0.00000000000E+00  0.39975761071E+02  0.39975761071E+02  0.00000000000E+00 0.  1.
          2   -1    0    0  502    0 -0.00000000000E+00 -0.00000000000E+00 -0.99395784646E+03  0.99395784646E+03  0.00000000000E+00 0. -1.
         24    2    1    2    0    0 -0.46192062534E+02 -0.35472480862E+02 -0.16154950758E+03  0.19068957974E+03  0.82899148877E+02 0.  0.
         23    2    1    2    0    0 -0.10005336703E+01 -0.10569321679E+03 -0.40268191026E+03  0.42603846911E+03  0.90465458455E+02 0.  0.
        -13    1    3    3    0    0 -0.19272981960E+02 -0.59559352741E+02 -0.80666943826E+02  0.10210739522E+03  0.00000000000E+00 0.  1.
         14    1    3    3    0    0 -0.26919080573E+02  0.24086871879E+02 -0.80882563749E+02  0.88582184521E+02  0.00000000000E+00 0. -1.
        -11    1    4    4    0    0 -0.45538059006E+02 -0.47028490407E+02 -0.18726741513E+03  0.19837963227E+03  0.00000000000E+00 0. -1.
         11    1    4    4    0    0  0.44537525336E+02 -0.58664726379E+02 -0.21541449512E+03  0.22765883684E+03  0.00000000000E+00 0.  1.
          1    1    1    2  501    0  0.47192596204E+02  0.14116569765E+03 -0.38975066755E+03  0.41720555867E+03  0.00000000000E+00 0. -1.
<scales pt_clust_5="13000.00000" pt_clust_6="13000.00000" pt_clust_7="13000.00000" pt_clust_8="13000.00000" pt_clust_9="13000.00000"></scales>
<clustering>
<clus scale="   82.899">  5  6 -1 -1</clus>
<clus scale="   90.465">  7  8 -1 -1</clus>
<clus scale="  101.313">  2  5  1 -1</clus>
<clus scale="  126.050">  7  9 -1 -1</clus>
<clus scale="  288.290">  1  5  2 -1</clus>
</clustering>
</event>
<event>
 9    2  0.2147756E-005  0.1984949E+03  0.7546771E-02  0.1174692E+00
         -3   -1    0    0    0  501 -0.00000000000E+00  0.00000000000E+00  0.76818177653E+02  0.76818177653E+02  0.00000000000E+00 0.  1.
         21   -1    0    0  501  502  0.00000000000E+00 -0.00000000000E+00 -0.45330266642E+03  0.45330266642E+03  0.00000000000E+00 0.  1.
         24    2    1    2    0    0 -0.86722281948E+02 -0.91257134842E+01 -0.29324695530E+03  0.31487976875E+03  0.74508114614E+02 0.  0.
         23    2    1    2    0    0  0.60717562099E+01  0.35332642519E+02 -0.86839229350E+02  0.13036302960E+03  0.90378127235E+02 0.  0.
        -13    1    3    3    0    0 -0.78800193859E+02  0.20132576859E+02 -0.24243086187E+03  0.25570982381E+03  0.00000000000E+00 0.  1.
         14    1    3    3    0    0 -0.79220880888E+01 -0.29258290343E+02 -0.50816093426E+02  0.59169944943E+02  0.00000000000E+00 0. -1.
        -11    1    4    4    0    0 -0.85774504858E+00 -0.29178416815E+02 -0.12676444878E+02  0.31824644368E+02  0.00000000000E+00 0. -1.
         11    1    4    4    0    0  0.69295012585E+01  0.64511059334E+02 -0.74162784473E+02  0.98538385236E+02  0.00000000000E+00 0.  1.
         -4    1    1    2    0  502  0.80650525738E+02 -0.26206929035E+02  0.36016958853E+01  0.84878045716E+02  0.00000000000E+00 0.  1.
<scales pt_clust_5="13000.00000" pt_clust_6="13000.00000" pt_clust_7="13000.00000" pt_clust_8="13000.00000" pt_clust_9="13000.00000"></scales>
<clustering>
<clus scale="   74.508">  5  6 -1 -1</clus>
<clus scale="   90.378">  7  8 -1 -1</clus>
<clus scale="   84.802">  7  9 -1 -1</clus>
<clus scale="  114.697">  1  5  2 -1</clus>
<clus scale="  198.495">  2  5  1 -1</clus>
</clustering>
</event>
<event>
 9    2  0.2147756E-005  0.3260453E+03  0.7546771E-02  0.1111853E+00
         21   -1    0    0  501  502  0.00000000000E+00  0.00000000000E+00  0.38115918030E+02  0.38115918030E+02  0.00000000000E+00 0.  1.
          2   -1    0    0  502    0 -0.00000000000E+00 -0.00000000000E+00 -0.12871068377E+04  0.12871068377E+04  0.00000000000E+00 0. -1.
         24    2    1    2    0    0 -0.11373807993E+02 -0.79876550127E+02 -0.33475108992E+03  0.35458377235E+03  0.84627020770E+02 0.  0.
         23    2    1    2    0    0 -0.40462646230E+02 -0.87508943224E+02 -0.24108336467E+03  0.27504963049E+03  0.90752794051E+02 0.  0.
        -13    1    3    3    0    0 -0.42118497457E+02 -0.72346326114E+02 -0.26673145075E+03  0.27955969944E+03  0.00000000000E+00 0.  1.
         14    1    3    3    0    0  0.30744689464E+02 -0.75302240134E+01 -0.68019639171E+02  0.75024072916E+02  0.00000000000E+00 0. -1.
        -11    1    4    4    0    0 -0.25917685514E+02 -0.48694125183E+02 -0.36116871007E+02  0.65933850343E+02  0.00000000000E+00 0.  1.
         11    1    4    4    0    0 -0.14544960716E+02 -0.38814818040E+02 -0.20496649366E+03  0.20911578015E+03  0.00000000000E+00 0. -1.
          1    1    1    2  501    0  0.51836454223E+02  0.16738549335E+03 -0.67315646507E+03  0.69558935288E+03  0.00000000000E+00 0. -1.
<scales pt_clust_5="13000.00000" pt_clust_6="13000.00000" pt_clust_7="13000.00000" pt_clust_8="13000.00000" pt_clust_9="13000.00000"></scales>
<clustering>
<clus scale="   84.627">  5  6 -1 -1</clus>
<clus scale="   90.753">  7  8 -1 -1</clus>
<clus scale="  116.925">  2  5  1 -1</clus>
<clus scale="  117.742">  7  9 -1 -1</clus>
<clus scale="  326.045">  1  5  2 -1</clus>
</clustering>
</event>
<event>
 9    2  0.2147756E-005  0.1623760E+03  0.7546771E-02  0.1217659E+00
          2   -1    0    0  502    0 -0.00000000000E+00  0.00000000000E+00  0.31369839575E+03  0.31369839575E+03  0.00000000000E+00 0. -1.
         21   -1    0    0  501  502  0.00000000000E+00 -0.00000000000E+00 -0.49099712966E+02  0.49099712966E+02  0.00000000000E+00 0. -1.
         24    2    1    2    0    0 -0.21406729680E+02 -0.93921605703E+01  0.59542676948E+02  0.10123756897E+03  0.78468173396E+02 0.  0.
         23    2    1    2    0    0  0.38910008891E+02 -0.39385076077E+02  0.16354864232E+03  0.19516441920E+03  0.90971529102E+02 0.  0.
        -13    1    3    3    0    0 -0.50256990634E+02  0.26818178306E+01  0.40691986632E+02  0.64720901033E+02  0.00000000000E+00 0.  1.
         14    1    3    3    0    0  0.28850260954E+02 -0.12073978401E+02  0.18850690317E+02  0.36516667933E+02  0.00000000000E+00 0. -1.
        -11    1    4    4    0    0  0.66003420017E+02 -0.11562096312E+02  0.92890651318E+02  0.11453735909E+03  0.00000000000E+00 0.  1.
         11    1    4    4    0    0 -0.27093411125E+02 -0.27822979765E+02  0.70657990998E+02  0.80627060105E+02  0.00000000000E+00 0. -1.
          1    1    1    2  501    0 -0.17503279211E+02  0.48777236647E+02  0.41507363517E+02  0.66396120551E+02  0.00000000000E+00 0. -1.
<scales pt_clust_5="13000.00000" pt_clust_6="13000.00000" pt_clust_7="13000.00000" pt_clust_8="13000.00000" pt_clust_9="13000.00000"></scales>
<clustering>
<clus scale="   78.468">  5  6 -1 -1</clus>
<clus scale="   81.876">  1  5  2 -1</clus>
<clus scale="   90.972">  7  8 -1 -1</clus>
<clus scale="   51.732">  7  9 -1 -1</clus>
<clus scale="  162.376">  2  5  1 -1</clus>
</clustering>
</event>
<event>
 9    2  0.2147756E-005  0.6608243E+03  0.7546771E-02  0.1014143E+00
          2   -1    0    0  502    0 -0.00000000000E+00  0.00000000000E+00  0.28795399617E+03  0.28795399617E+03  0.00000000000E+00 0. -1.
         21   -1    0    0  501  502  0.00000000000E+00 -0.00000000000E+00 -0.71909769244E+03  0.71909769244E+03  0.00000000000E+00 0. -1.
         24    2    1    2    0    0  0.38107590025E+02  0.19479480539E+03 -0.23449921662E+03  0.31758972621E+03  0.80474511340E+02 0.  0.
         23    2    1    2    0    0 -0.14881626047E+03  0.11160279112E+03 -0.28436292146E+03  0.35207431904E+03  0.92155263889E+02 0.  0.
        -13    1    3    3    0    0 -0.13358920519E+02  0.35911635513E+02 -0.85828146784E+02  0.93992431094E+02  0.00000000000E+00 0.  1.
         14    1    3    3    0    0  0.51466510544E+02  0.15888316988E+03 -0.14867106984E+03  0.22359729512E+03  0.00000000000E+00 0. -1.
        -11    1    4    4    0    0 -0.32513518436E+02 -0.93202361456E+01 -0.21004975361E+02  0.39814628880E+02  0.00000000000E+00 0.  1.
         11    1    4    4    0    0 -0.11630274203E+03  0.12092302726E+03 -0.26335794610E+03  0.31225969016E+03  0.00000000000E+00 0. -1.
          1    1    1    2  501    0  0.11070867044E+03 -0.30639759651E+03  0.87718441803E+02  0.33738764336E+03  0.00000000000E+00 0. -1.
<scales pt_clust_5="13000.00000" pt_clust_6="13000.00000" pt_clust_7="13000.00000" pt_clust_8="13000.00000" pt_clust_9="13000.00000"></scales>
<clustering>
<clus scale="   80.475">  5  6 -1 -1</clus>
<clus scale="   92.155">  7  8 -1 -1</clus>
<clus scale="  214.181">  1  5  2 -1</clus>
<clus scale="  199.401">  7  9 -1 -1</clus>
<clus scale="  660.824">  2  5  1 -1</clus>
</clustering>
</event>
<event>
 9    2  0.2147756E-005  0.4235805E+03  0.7546771E-02  0.1053279E+00
         21   -1    0    0  501  502  0.00000000000E+00  0.00000000000E+00  0.16200822145E+03  0.16200822145E+03  0.00000000000E+00 0.  1.
          2   -1    0    0  502    0 -0.00000000000E+00 -0.00000000000E+00 -0.13510066006E+04  0.13510066006E+04  0.00000000000E+00 0. -1.
         24    2    1    2    0    0 -0.18908319676E+03 -0.14340094699E+03 -0.62999379932E+01  0.25675208976E+03  0.97804189482E+02 0.  0.
         23    2    1    2    0    0 -0.31673850115E+02  0.56429822844E+02 -0.10982124625E+03  0.15746196531E+03  0.92444614256E+02 0.  0.
        -11    1    3    3    0    0 -0.16496714318E+03 -0.13974635734E+03  0.24364008169E+02  0.21757023605E+03  0.00000000000E+00 0.  1.
         12    1    3    3    0    0 -0.24116053587E+02 -0.36545896456E+01 -0.30663946162E+02  0.39181853712E+02  0.00000000000E+00 0. -1.
        -11    1    4    4    0    0  0.14538272398E+02 -0.14020025749E+02 -0.15298622312E+01  0.20254949142E+02  0.00000000000E+00 0.  1.
         11    1    4    4    0    0 -0.46212122512E+02  0.70449848592E+02 -0.10829138402E+03  0.13720701617E+03  0.00000000000E+00 0. -1.
          1    1    1    2  501    0  0.22075704688E+03  0.86971124147E+02 -0.10728771949E+04  0.10988007670E+04  0.00000000000E+00 0. -1.
<scales pt_clust_5="13000.00000" pt_clust_6="13000.00000" pt_clust_7="13000.00000" pt_clust_8="13000.00000" pt_clust_9="13000.00000"></scales>
<clustering>
<clus scale="   92.445">  7  8 -1 -1</clus>
<clus scale="   97.804">  5  6 -1 -1</clus>
<clus scale="  237.271">  7  9 -1 -1</clus>
<clus scale="  256.675">  2  5  1 -1</clus>
<clus scale="  423.581">  1  5  2 -1</clus>
</clustering>
</event>
<event>
 9    2  0.2147756E-005  0.3116544E+03  0.7546771E-02  0.1131003E+00
         21   -1    0    0  501  502  0.00000000000E+00  0.00000000000E+00  0.66279004150E+02  0.66279004150E+02  0.00000000000E+00 0.  1.
          2   -1    0    0  502    0 -0.00000000000E+00 -0.00000000000E+00 -0.59329226750E+03  0.59329226750E+03  0.00000000000E+00 0. -1.
         24    2    1    2    0    0  0.63306935132E+01  0.21551472159E+02 -0.13876835075E+03  0.16171330546E+03  0.79937440289E+02 0.  0.
         23    2    1    2    0    0  0.11390667218E+03 -0.90785200269E+02 -0.22236108765E+03  0.28159937886E+03  0.92935861304E+02 0.  0.
        -13    1    3    3    0    0 -0.29202760464E+02 -0.12552609296E+02 -0.37914842413E+02  0.49476302348E+02  0.00000000000E+00 0.  1.
         14    1    3    3    0    0  0.35533453977E+02  0.34104081455E+02 -0.10085350834E+03  0.11223700311E+03  0.00000000000E+00 0. -1.
        -13    1    4    4    0    0  0.81104941149E+02 -0.45506459586E+02 -0.62001959343E+02  0.11177250246E+03  0.00000000000E+00 0.  1.
         13    1    4    4    0    0  0.32801731028E+02 -0.45278740683E+02 -0.16035912831E+03  0.16982687640E+03  0.00000000000E+00 0. -1.
          1    1    1    2  501    0 -0.12023736569E+03  0.69233728111E+02 -0.16588382495E+03  0.21625858734E+03  0.00000000000E+00 0. -1.
<scales pt_clust_5="13000.00000" pt_clust_6="13000.00000" pt_clust_7="13000.00000" pt_clust_8="13000.00000" pt_clust_9="13000.00000"></scales>
<clustering>
<clus scale="   79.937">  5  6 -1 -1</clus>
<clus scale="   83.033">  2  5  1 -1</clus>
<clus scale="   92.936">  7  8 -1 -1</clus>
<clus scale="  141.332">  7  9 -1 -1</clus>
<clus scale="  311.654">  1  5  2 -1</clus>
</clustering>
</event>
<event>
 9    2  0.2147756E-005  0.2488885E+03  0.7546771E-02  0.1141303E+00
         21   -1    0    0  501  502  0.00000000000E+00  0.00000000000E+00  0.50931497747E+03  0.50931497747E+03  0.00000000000E+00 0. -1.
          2   -1    0    0  502    0 -0.00000000000E+00 -0.00000000000E+00 -0.10631801947E+03  0.10631801947E+03  0.00000000000E+00 0. -1.
         24    2    1    2    0    0  0.98321555540E+02  0.31620957385E+01 -0.16345186224E+02  0.12799242015E+03  0.80235698856E+02 0.  0.
         23    2    1    2    0    0 -0.67343953531E+01  0.55019141220E+02  0.85220860845E+02  0.13634256050E+03  0.90852851899E+02 0.  0.
        -13    1    3    3    0    0  0.23286545558E+02  0.30852441735E+02  0.15845961265E+02  0.41775960234E+02  0.00000000000E+00 0.  1.
         14    1    3    3    0    0  0.75035009983E+02 -0.27690345997E+02 -0.32191147489E+02  0.86216459920E+02  0.00000000000E+00 0. -1.
        -11    1    4    4    0    0 -0.23168498477E+02 -0.18074572278E+02  0.12496041319E+02  0.31931497512E+02  0.00000000000E+00 0.  1.
         11    1    4    4    0    0  0.16434103124E+02  0.73093713498E+02  0.72724819526E+02  0.10441106298E+03  0.00000000000E+00 0. -1.
          1    1    1    2  501    0 -0.91587160187E+02 -0.58181236959E+02  0.33412128337E+03  0.35129801629E+03  0.00000000000E+00 0. -1.
<scales pt_clust_5="13000.00000" pt_clust_6="13000.00000" pt_clust_7="13000.00000" pt_clust_8="13000.00000" pt_clust_9="13000.00000"></scales>
<clustering>
<clus scale="   80.236">  5  6 -1 -1</clus>
<clus scale="   90.853">  7  8 -1 -1</clus>
<clus scale="  108.505">  7  9 -1 -1</clus>
<clus scale="  126.944">  2  5  1 -1</clus>
<clus scale="  248.889">  1  5  2 -1</clus>
</clustering>
</event>
<event>
 9    2  0.2147756E-005  0.2111481E+03  0.7546771E-02  0.1181595E+00
         21   -1    0    0  501  502  0.00000000000E+00  0.00000000000E+00  0.27947871087E+03  0.27947871087E+03  0.00000000000E+00 0.  1.
         -1   -1    0    0    0  501 -0.00000000000E+00 -0.00000000000E+00 -0.14125323288E+03  0.14125323288E+03  0.00000000000E+00 0.  1.
         24    2    1    2    0    0 -0.97713810382E+01 -0.29531569142E+02 -0.81991263266E+02  0.11564356602E+03  0.75387489984E+02 0.  0.
         23    2    1    2    0    0 -0.43880846687E+02 -0.28785583507E+02  0.11702289398E+03  0.17497910846E+03  0.11903441586E+03 0.  0.
        -11    1    3    3    0    0 -0.29847551329E+02 -0.38655137760E+02 -0.79699871304E+02  0.93472806107E+02  0.00000000000E+00 0.  1.
         12    1    3    3    0    0  0.20076170291E+02  0.91235686189E+01 -0.22913919611E+01  0.22170759911E+02  0.00000000000E+00 0. -1.
        -11    1    4    4    0    0 -0.20694214784E+02 -0.69274174753E+02  0.10377517385E+03  0.12647706718E+03  0.00000000000E+00 0.  1.
         11    1    4    4    0    0 -0.23186631903E+02  0.40488591246E+02  0.13247720126E+02  0.48502041283E+02  0.00000000000E+00 0. -1.
         -2    1    1    2    0  502  0.53652227725E+02  0.58317152649E+02  0.10319384728E+03  0.13010926927E+03  0.00000000000E+00 0.  1.
<scales pt_clust_5="13000.00000" pt_clust_6="13000.00000" pt_clust_7="13000.00000" pt_clust_8="13000.00000" pt_clust_9="13000.00000"></scales>
<clustering>
<clus scale="   75.387">  5  6 -1 -1</clus>
<clus scale="   81.553">  2  5  1 -1</clus>
<clus scale="  119.034">  7  8 -1 -1</clus>
<clus scale="   70.370">  7  9 -1 -1</clus>
<clus scale="  211.148">  1  5  2 -1</clus>
</clustering>
</event>
<event>
 9    2  0.2147756E-005  0.4215122E+03  0.7546771E-02  0.1088799E+00
          2   -1    0    0  502    0 -0.00000000000E+00  0.00000000000E+00  0.12068831292E+04  0.12068831292E+04  0.00000000000E+00 0. -1.
         21   -1    0    0  501  502  0.00000000000E+00 -0.00000000000E+00 -0.58357413156E+02  0.58357413156E+02  0.00000000000E+00 0. -1.
         24    2    1    2    0    0  0.47885064049E+02 -0.30233152893E+02  0.33287559143E+03  0.34711330767E+03  0.80464067128E+02 0.  0.
         23    2    1    2    0    0 -0.21161224544E+03  0.86592018733E+02  0.43952946469E+03  0.50406242997E+03  0.92816285430E+02 0.  0.
        -13    1    3    3    0    0  0.41508191556E+02  0.21154017542E+02  0.15371424547E+03  0.16061908879E+03  0.00000000000E+00 0.  1.
         14    1    3    3    0    0  0.63768724927E+01 -0.51387170435E+02  0.17916134597E+03  0.18649421888E+03  0.00000000000E+00 0. -1.
        -11    1    4    4    0    0 -0.27269944525E+02  0.31784509548E+02  0.29667227515E+02  0.51322990073E+02  0.00000000000E+00 0.  1.
         11    1    4    4    0    0 -0.18434230092E+03  0.54807509185E+02  0.40986223718E+03  0.45273943989E+03  0.00000000000E+00 0. -1.
          1    1    1    2  501    0  0.16372718139E+03 -0.56358865841E+02  0.37612065989E+03  0.41406480468E+03  0.00000000000E+00 0. -1.
<scales pt_clust_5="13000.00000" pt_clust_6="13000.00000" pt_clust_7="13000.00000" pt_clust_8="13000.00000" pt_clust_9="13000.00000"></scales>
<clustering>
<clus scale="   80.464">  5  6 -1 -1</clus>
<clus scale="   92.816">  7  8 -1 -1</clus>
<clus scale="   98.395">  1  5  2 -1</clus>
<clus scale="  198.365">  7  9 -1 -1</clus>
<clus scale="  421.512">  2  5  1 -1</clus>
</clustering>
</event>
<event>
 9    2  0.2147756E-005  0.3168154E+03  0.7546771E-02  0.1094196E+00
         21   -1    0    0  501  502  0.00000000000E+00  0.00000000000E+00  0.62272639728E+03  0.62272639728E+03  0.00000000000E+00 0. -1.
          2   -1    0    0  502    0 -0.00000000000E+00 -0.00000000000E+00 -0.28321427720E+03  0.28321427720E+03  0.00000000000E+00 0. -1.
         24    2    1    2    0    0 -0.17997111578E+03 -0.39525642957E+02 -0.19791329927E+03  0.28208324541E+03  0.80308183557E+02 0.  0.
         23    2    1    2    0    0 -0.34499957979E+02  0.21014631470E+01  0.15830977181E+03  0.18667659129E+03  0.92690358921E+02 0.  0.
        -11    1    3    3    0    0 -0.36154983503E+02  0.16958155645E+02 -0.15033691196E+02  0.42670525494E+02  0.00000000000E+00 0.  1.
         12    1    3    3    0    0 -0.14381613228E+03 -0.56483798602E+02 -0.18287960808E+03  0.23941271992E+03  0.00000000000E+00 0. -1.
        -11    1    4    4    0    0 -0.11652169390E+02  0.46432889835E+02  0.91941933963E+02  0.10365860085E+03  0.00000000000E+00 0. -1.
         11    1    4    4    0    0 -0.22847788589E+02 -0.44331426688E+02  0.66367837843E+02  0.83017990433E+02  0.00000000000E+00 0.  1.
          1    1    1    2  501    0  0.21447107376E+03  0.37424179810E+02  0.37911564755E+03  0.43718083779E+03  0.00000000000E+00 0. -1.
<scales pt_clust_5="13000.00000" pt_clust_6="13000.00000" pt_clust_7="13000.00000" pt_clust_8="13000.00000" pt_clust_9="13000.00000"></scales>
<clustering>
<clus scale="   80.308">  5  6 -1 -1</clus>
<clus scale="   92.690">  7  8 -1 -1</clus>
<clus scale="  201.001">  2  5  1 -1</clus>
<clus scale="   94.196">  7  9 -1 -1</clus>
<clus scale="  316.815">  1  5  2 -1</clus>
</clustering>
</event>
<event>
 9    2  0.2147756E-005  0.4096904E+03  0.7546771E-02  0.1077631E+00
         21   -1    0    0  501  502  0.00000000000E+00  0.00000000000E+00  0.44638176323E+02  0.44638176323E+02  0.00000000000E+00 0.  1.
          2   -1    0    0  502    0 -0.00000000000E+00 -0.00000000000E+00 -0.17274551234E+04  0.17274551234E+04  0.00000000000E+00 0. -1.
         24    2    1    2    0    0 -0.15868056584E+02  0.12350931951E+03 -0.38993995376E+03  0.41585692395E+03  0.73331210505E+02 0.  0.
         23    2    1    2    0    0  0.38959232061E+02  0.11214041505E+03 -0.30261668565E+03  0.33806179511E+03  0.92820387970E+02 0.  0.
        -11    1    3    3    0    0  0.28411894369E+02  0.32068500023E+02 -0.12166184159E+03  0.12898537953E+03  0.00000000000E+00 0.  1.
         12    1    3    3    0    0 -0.44279950953E+02  0.91440819486E+02 -0.26827811217E+03  0.28687154442E+03  0.00000000000E+00 0. -1.
        -11    1    4    4    0    0  0.40063306330E+01  0.89514237194E+02 -0.11450328150E+03  0.14539549793E+03  0.00000000000E+00 0.  1.
         11    1    4    4    0    0  0.34952901428E+02  0.22626177857E+02 -0.18811340416E+03  0.19266629717E+03  0.00000000000E+00 0. -1.
          1    1    1    2  501    0 -0.23091175477E+02 -0.23564973456E+03 -0.99026030767E+03  0.10181745807E+04  0.00000000000E+00 0. -1.
<scales pt_clust_5="13000.00000" pt_clust_6="13000.00000" pt_clust_7="13000.00000" pt_clust_8="13000.00000" pt_clust_9="13000.00000"></scales>
<clustering>
<clus scale="   73.331">  5  6 -1 -1</clus>
<clus scale="   92.820">  7  8 -1 -1</clus>
<clus scale="  144.512">  2  5  1 -1</clus>
<clus scale="  146.289">  7  9 -1 -1</clus>
<clus scale="  409.690">  1  5  2 -1</clus>
</clustering>
</event>
<event>
 9    2  0.2147756E-005  0.3475878E+03  0.7546771E-02  0.1098436E+00
          2   -1    0    0  502    0 -0.00000000000E+00  0.00000000000E+00  0.42079089151E+03  0.42079089151E+03  0.00000000000E+00 0. -1.
         21   -1    0    0  501  502  0.00000000000E+00 -0.00000000000E+00 -0.15900604794E+03  0.15900604794E+03  0.00000000000E+00 0. -1.
         24    2    1    2    0    0  0.60245502266E+02 -0.91874601894E+02  0.17455443513E+03  0.22143060926E+03  0.80571712628E+02 0.  0.
         23    2    1    2    0    0  0.81179923933E+02 -0.57635673801E+02  0.67933922756E+02  0.15166164211E+03  0.92055335972E+02 0.  0.
        -11    1    3    3    0    0  0.63850171932E+02 -0.24585875579E+02  0.96809315019E+02  0.11854683972E+03  0.00000000000E+00 0.  1.
         12    1    3    3    0    0 -0.36046696659E+01 -0.67288726316E+02  0.77745120111E+02  0.10288376953E+03  0.00000000000E+00 0. -1.
        -13    1    4    4    0    0  0.65622371698E+02 -0.79502005023E+02  0.34320760514E+02  0.10864980015E+03  0.00000000000E+00 0. -1.
         13    1    4    4    0    0  0.15557552235E+02  0.21866331222E+02  0.33613162243E+02  0.43011841958E+02  0.00000000000E+00 0.  1.
          1    1    1    2  501    0 -0.14142542620E+03  0.14951027570E+03  0.19296485685E+02  0.20670468808E+03  0.00000000000E+00 0. -1.
<scales pt_clust_5="13000.00000" pt_clust_6="13000.00000" pt_clust_7="13000.00000" pt_clust_8="13000.00000" pt_clust_9="13000.00000"></scales>
<clustering>
<clus scale="   80.572">  5  6 -1 -1</clus>
<clus scale="   92.055">  7  8 -1 -1</clus>
<clus scale="  136.243">  1  5  2 -1</clus>
<clus scale="  151.272">  7  9 -1 -1</clus>
<clus scale="  347.588">  2  5  1 -1</clus>
</clustering>
</event>
<event>
 9    2  0.2147756E-005  0.1529243E+03  0.7546771E-02  0.1210792E+00
         21   -1    0    0  501  502  0.00000000000E+00  0.00000000000E+00  0.29315693345E+02  0.29315693345E+02  0.00000000000E+00 0. -1.
          2   -1    0    0  502    0 -0.00000000000E+00 -0.00000000000E+00 -0.60531537186E+03  0.60531537186E+03  0.00000000000E+00 0. -1.
         24    2    1    2    0    0  0.70514094208E+02 -0.18853506207E+02 -0.23588101595E+03  0.26171480499E+03  0.86758822537E+02 0.  0.
         23    2    1    2    0    0 -0.45774415637E+02  0.27695871788E+02 -0.15683283604E+03  0.18775704945E+03  0.88282573125E+02 0.  0.
        -11    1    3    3    0    0 -0.92066799215E+01 -0.17904918593E+02 -0.10622832645E+02  0.22763866948E+02  0.00000000000E+00 0.  1.
         12    1    3    3    0    0  0.79720774130E+02 -0.94858761336E+00 -0.22525818330E+03  0.23895093804E+03  0.00000000000E+00 0. -1.
        -11    1    4    4    0    0  0.21762065177E+02 -0.83768457795E+01 -0.59581188835E+02  0.63981849684E+02  0.00000000000E+00 0.  1.
         11    1    4    4    0    0 -0.67536480814E+02  0.36072717568E+02 -0.97251647204E+02  0.12377519977E+03  0.00000000000E+00 0. -1.
          1    1    1    2  501    0 -0.24739678571E+02 -0.88423655815E+01 -0.18328582653E+03  0.18515921077E+03  0.00000000000E+00 0. -1.
<scales pt_clust_5="13000.00000" pt_clust_6="13000.00000" pt_clust_7="13000.00000" pt_clust_8="13000.00000" pt_clust_9="13000.00000"></scales>
<clustering>
<clus scale="   86.759">  5  6 -1 -1</clus>
<clus scale="   88.283">  7  8 -1 -1</clus>
<clus scale="   26.272">  7  9 -1 -1</clus>
<clus scale="  113.379">  2  5  1 -1</clus>
<clus scale="  152.924">  1  5  2 -1</clus>
</clustering>
</event>
<event>
 9    2  0.2147756E-005  0.1821850E+03  0.7546771E-02  0.1203015E+00
         21   -1    0    0  501  502  0.00000000000E+00  0.00000000000E+00  0.41773192540E+02  0.41773192540E+02  0.00000000000E+00 0.  1.
          2   -1    0    0  502    0 -0.00000000000E+00 -0.00000000000E+00 -0.52242531274E+03  0.52242531274E+03  0.00000000000E+00 0. -1.
         24    2    1    2    0    0  0.13793327085E+02 -0.21132567516E+01 -0.28944097266E+03  0.30009040880E+03  0.77996506808E+02 0.  0.
         23    2    1    2    0    0 -0.70217241130E+02  0.17303488806E+02 -0.90983702819E+02  0.14809110677E+03  0.91777285034E+02 0.  0.
        -13    1    3    3    0    0 -0.20445127523E+02 -0.16899378506E+02 -0.40776761381E+02  0.48645004903E+02  0.00000000000E+00 0.  1.
         14    1    3    3    0    0  0.34238454609E+02  0.14786121755E+02 -0.24866421128E+03  0.25144540390E+03  0.00000000000E+00 0. -1.
        -11    1    4    4    0    0 -0.29859256836E+01  0.28644226663E+02 -0.71650803489E+02  0.77222050698E+02  0.00000000000E+00 0. -1.
         11    1    4    4    0    0 -0.67231315446E+02 -0.11340737857E+02 -0.19332899330E+02  0.70869056070E+02  0.00000000000E+00 0.  1.
          1    1    1    2  501    0  0.56423914044E+02 -0.15190232055E+02 -0.10022744472E+03  0.11601698971E+03  0.00000000000E+00 0. -1.
<scales pt_clust_5="13000.00000" pt_clust_6="13000.00000" pt_clust_7="13000.00000" pt_clust_8="13000.00000" pt_clust_9="13000.00000"></scales>
<clustering>
<clus scale="   77.997">  5  6 -1 -1</clus>
<clus scale="   79.235">  2  5  1 -1</clus>
<clus scale="   91.777">  7  8 -1 -1</clus>
<clus scale="   65.024">  7  9 -1 -1</clus>
<clus scale="  182.185">  1  5  2 -1</clus>
</clustering>
</event>
<event>
 9    2  0.2147756E-005  0.8205880E+03  0.7546771E-02  0.9668714E-01
          2   -1    0    0  502    0 -0.00000000000E+00  0.00000000000E+00  0.18507745706E+04  0.18507745706E+04  0.00000000000E+00 0. -1.
         21   -1    0    0  501  502  0.00000000000E+00 -0.00000000000E+00 -0.25827127660E+03  0.25827127660E+03  0.00000000000E+00 0. -1.
         24    2    1    2    0    0 -0.49675833109E+03 -0.92052669950E+02  0.90062559822E+03  0.10357055478E+04  0.79479430963E+02 0.  0.
         23    2    1    2    0    0 -0.69326605624E+02  0.19634309756E+02 -0.58960303451E+02  0.13023146396E+03  0.91061695866E+02 0.  0.
        -11    1    3    3    0    0 -0.24626987152E+03 -0.70250004342E+02  0.51820964370E+03  0.57803559367E+03  0.00000000000E+00 0.  1.
         12    1    3    3    0    0 -0.25048845958E+03 -0.21802665609E+02  0.38241595451E+03  0.45766995409E+03  0.00000000000E+00 0. -1.
        -11    1    4    4    0    0 -0.21716867423E+02  0.42828638143E+02 -0.60511146786E+02  0.77249682596E+02  0.00000000000E+00 0. -1.
         11    1    4    4    0    0 -0.47609738201E+02 -0.23194328387E+02  0.15508433353E+01  0.52981781359E+02  0.00000000000E+00 0.  1.
          1    1    1    2  501    0  0.56608493672E+03  0.72418360195E+02  0.75083799927E+03  0.94310883551E+03  0.00000000000E+00 0. -1.
<scales pt_clust_5="13000.00000" pt_clust_6="13000.00000" pt_clust_7="13000.00000" pt_clust_8="13000.00000" pt_clust_9="13000.00000"></scales>
<clustering>
<clus scale="   79.479">  5  6 -1 -1</clus>
<clus scale="   91.062">  7  8 -1 -1</clus>
<clus scale="  511.429">  1  5  2 -1</clus>
<clus scale="   90.790">  7  9 -1 -1</clus>
<clus scale="  820.588">  2  5  1 -1</clus>
</clustering>
</event>
<event>
 9    2  0.2147756E-005  0.1978593E+03  0.7546771E-02  0.1174761E+00
          2   -1    0    0  502    0 -0.00000000000E+00  0.00000000000E+00  0.91781529971E+03  0.91781529971E+03  0.00000000000E+00 0. -1.
         21   -1    0    0  501  502  0.00000000000E+00 -0.00000000000E+00 -0.27434085356E+02  0.27434085356E+02  0.00000000000E+00 0. -1.
         24    2    1    2    0    0  0.37702174676E+02  0.74660710268E+02  0.40237138040E+03  0.41865475774E+03  0.79833594322E+02 0.  0.
         23    2    1    2    0    0  0.42708197569E+02 -0.42060668087E+02  0.31291559304E+03  0.33118074881E+03  0.90395962712E+02 0.  0.
        -13    1    3    3    0    0  0.24235021234E+02 -0.11967552409E+02  0.11904329213E+03  0.12207319102E+03  0.00000000000E+00 0.  1.
         14    1    3    3    0    0  0.13467153443E+02  0.86628262677E+02  0.28332808826E+03  0.29658156672E+03  0.00000000000E+00 0. -1.
        -13    1    4    4    0    0  0.41659360764E+01  0.24903231990E+02  0.38073660933E+02  0.45685114028E+02  0.00000000000E+00 0. -1.
         13    1    4    4    0    0  0.38542261493E+02 -0.66963900077E+02  0.27484193211E+03  0.28549563478E+03  0.00000000000E+00 0.  1.
          1    1    1    2  501    0 -0.80410372246E+02 -0.32600042181E+02  0.17509424092E+03  0.19541387852E+03  0.00000000000E+00 0. -1.
<scales pt_clust_5="13000.00000" pt_clust_6="13000.00000" pt_clust_7="13000.00000" pt_clust_8="13000.00000" pt_clust_9="13000.00000"></scales>
<clustering>
<clus scale="   79.834">  5  6 -1 -1</clus>
<clus scale="   90.396">  7  8 -1 -1</clus>
<clus scale="   86.767">  7  9 -1 -1</clus>
<clus scale="  115.625">  1  5  2 -1</clus>
<clus scale="  197.859">  2  5  1 -1</clus>
</clustering>
</event>
<event>
 9    2  0.2147756E-005  0.2393081E+03  0.7546771E-02  0.1140236E+00
         21   -1    0    0  501  502  0.00000000000E+00  0.00000000000E+00  0.65491870383E+02  0.65491870383E+02  0.00000000000E+00 0.  1.
          2   -1    0    0  502    0 -0.00000000000E+00 -0.00000000000E+00 -0.57067600780E+03  0.57067600780E+03  0.00000000000E+00 0. -1.
         24    2    1    2    0    0 -0.88242326243E+02  0.77495282314E+02 -0.17206917215E+03  0.22600457655E+03  0.87624435503E+02 0.  0.
         23    2    1    2    0    0  0.17876277397E+02 -0.12258775319E+03 -0.24449160808E+03  0.28834864241E+03  0.89562685514E+02 0.  0.
        -13    1    3    3    0    0 -0.53655699513E+02 -0.77732722915E+01 -0.70814040635E+02  0.89185123218E+02  0.00000000000E+00 0.  1.
         14    1    3    3    0    0 -0.34586626731E+02  0.85268554605E+02 -0.10125513151E+03  0.13681945334E+03  0.00000000000E+00 0. -1.
        -11    1    4    4    0    0 -0.17812118361E+01 -0.61088627520E+02 -0.37921810032E+02  0.71923965436E+02  0.00000000000E+00 0.  1.
         11    1    4    4    0    0  0.19657489233E+02 -0.61499125670E+02 -0.20656979804E+03  0.21642467698E+03  0.00000000000E+00 0. -1.
          1    1    1    2  501    0  0.70366048846E+02  0.45092470876E+02 -0.88623357192E+02  0.12181465922E+03  0.00000000000E+00 0. -1.
<scales pt_clust_5="13000.00000" pt_clust_6="13000.00000" pt_clust_7="13000.00000" pt_clust_8="13000.00000" pt_clust_9="13000.00000"></scales>
<clustering>
<clus scale="   87.624">  5  6 -1 -1</clus>
<clus scale="   89.563">  7  8 -1 -1</clus>
<clus scale="   83.575">  7  9 -1 -1</clus>
<clus scale="  146.527">  2  5  1 -1</clus>
<clus scale="  239.308">  1  5  2 -1</clus>
</clustering>
</event>
<event>
 9    2  0.2147756E-005  0.5312313E+03  0.7546771E-02  0.1036470E+00
         21   -1    0    0  501  502  0.00000000000E+00  0.00000000000E+00  0.42882360605E+03  0.42882360605E+03  0.00000000000E+00 0. -1.
          2   -1    0    0  502    0 -0.00000000000E+00 -0.00000000000E+00 -0.44295570066E+03  0.44295570066E+03  0.00000000000E+00 0. -1.
         24    2    1    2    0    0  0.17723355582E+03  0.81621332144E+02  0.20757231013E+03  0.29614095455E+03  0.80866716629E+02 0.  0.
         23    2    1    2    0    0  0.98292284833E+02 -0.18834168478E+03 -0.60059196749E+02  0.23884034771E+03  0.91124316719E+02 0.  0.
        -11    1    3    3    0    0  0.11901447002E+03  0.58154087244E+02  0.82097073266E+02  0.15584053188E+03  0.00000000000E+00 0.  1.
         12    1    3    3    0    0  0.58219085796E+02  0.23467244900E+02  0.12547523687E+03  0.14030042267E+03  0.00000000000E+00 0. -1.
        -13    1    4    4    0    0 -0.43193834493E+00 -0.57835385781E+02  0.13554661632E+02  0.59404101468E+02  0.00000000000E+00 0.  1.
         13    1    4    4    0    0  0.98724223178E+02 -0.13050629900E+03 -0.73613858381E+02  0.17943624625E+03  0.00000000000E+00 0. -1.
          1    1    1    2  501    0 -0.27552584065E+03  0.10672035264E+03 -0.16164520799E+03  0.33679800445E+03  0.00000000000E+00 0. -1.
<scales pt_clust_5="13000.00000" pt_clust_6="13000.00000" pt_clust_7="13000.00000" pt_clust_8="13000.00000" pt_clust_9="13000.00000"></scales>
<clustering>
<clus scale="   80.867">  5  6 -1 -1</clus>
<clus scale="   91.124">  7  8 -1 -1</clus>
<clus scale="  211.218">  2  5  1 -1</clus>
<clus scale="  228.079">  7  9 -1 -1</clus>
<clus scale="  531.231">  1  5  2 -1</clus>
</clustering>
</event>
<event>
 9    2  0.2147756E-005  0.4210981E+03  0.7546771E-02  0.1057161E+00
          2   -1    0    0  502    0 -0.00000000000E+00  0.00000000000E+00  0.22515587078E+04  0.22515587078E+04  0.00000000000E+00 0. -1.
         21   -1    0    0  501  502  0.00000000000E+00 -0.00000000000E+00 -0.48412869095E+02  0.48412869095E+02  0.00000000000E+00 0.  1.
         24    2    1    2    0    0 -0.19174941267E+03  0.10945677208E+03  0.92896477767E+03  0.95800994295E+03  0.77838746367E+02 0.  0.
         23    2    1    2    0    0 -0.73117040379E+02 -0.85533032097E+02  0.59925962939E+03  0.61653381384E+03  0.91322719051E+02 0.  0.
        -11    1    3    3    0    0 -0.62451537039E+02  0.25031169801E+02  0.15793853977E+03  0.17167217679E+03  0.00000000000E+00 0.  1.
         12    1    3    3    0    0 -0.12929787564E+03  0.84425602277E+02  0.77102623790E+03  0.78633776616E+03  0.00000000000E+00 0. -1.
        -13    1    4    4    0    0 -0.84603311018E+02 -0.47282837916E+02  0.50411261877E+03  0.51334483479E+03  0.00000000000E+00 0.  1.
         13    1    4    4    0    0  0.11486270638E+02 -0.38250194182E+02  0.95147010617E+02  0.10318897905E+03  0.00000000000E+00 0. -1.
          1    1    1    2  501    0  0.26486645305E+03 -0.23923739981E+02  0.67492143168E+03  0.72542782013E+03  0.00000000000E+00 0. -1.
<scales pt_clust_5="13000.00000" pt_clust_6="13000.00000" pt_clust_7="13000.00000" pt_clust_8="13000.00000" pt_clust_9="13000.00000"></scales>
<clustering>
<clus scale="   77.839">  5  6 -1 -1</clus>
<clus scale="   91.323">  7  8 -1 -1</clus>
<clus scale="  234.110">  1  5  2 -1</clus>
<clus scale="  165.891">  7  9 -1 -1</clus>
<clus scale="  421.098">  2  5  1 -1</clus>
</clustering>
</event>
<event>
 9    2  0.2147756E-005  0.3249042E+03  0.7546771E-02  0.1126140E+00
         21   -1    0    0  501  502  0.00000000000E+00  0.00000000000E+00  0.32880258180E+02  0.32880258180E+02  0.00000000000E+00 0. -1.
          2   -1    0    0  502    0 -0.00000000000E+00 -0.00000000000E+00 -0.16247382760E+04  0.16247382760E+04  0.00000000000E+00 0. -1.
         24    2    1    2    0    0 -0.17292790557E+02 -0.23904742561E+02 -0.76136240904E+03  0.76583061644E+03  0.77157876248E+02 0.  0.
         23    2    1    2    0    0 -0.11874275235E+03 -0.25326109408E+02 -0.60890142071E+03  0.62714980652E+03  0.88400716189E+02 0.  0.
        -11    1    3    3    0    0 -0.25315067170E+01 -0.37098080429E+02 -0.16493170577E+03  0.16907141587E+03  0.00000000000E+00 0.  1.
         12    1    3    3    0    0 -0.14761283840E+02  0.13193337868E+02 -0.59643070327E+03  0.59675920057E+03  0.00000000000E+00 0. -1.
        -11    1    4    4    0    0 -0.39150627753E+02  0.30131190832E+02 -0.14410564221E+03  0.15233875551E+03  0.00000000000E+00 0. -1.
         11    1    4    4    0    0 -0.79592124595E+02 -0.55457300240E+02 -0.46479577850E+03  0.47481105101E+03  0.00000000000E+00 0.  1.
          1    1    1    2  501    0  0.13603554290E+03  0.49230851969E+02 -0.22159418806E+03  0.26463811120E+03  0.00000000000E+00 0. -1.
<scales pt_clust_5="13000.00000" pt_clust_6="13000.00000" pt_clust_7="13000.00000" pt_clust_8="13000.00000" pt_clust_9="13000.00000"></scales>
<clustering>
<clus scale="   77.158">  5  6 -1 -1</clus>
<clus scale="   82.606">  2  5  1 -1</clus>
<clus scale="   88.401">  7  8 -1 -1</clus>
<clus scale="  137.862">  7  9 -1 -1</clus>
<clus scale="  324.904">  1  5  2 -1</clus>
</clustering>
</event>
<event>
 9    2  0.2147756E-005  0.2766452E+03  0.7546771E-02  0.1114256E+00
         21   -1    0    0  501  502  0.00000000000E+00  0.00000000000E+00  0.51673829628E+02  0.51673829628E+02  0.00000000000E+00 0. -1.
          2   -1    0    0  502    0 -0.00000000000E+00 -0.00000000000E+00 -0.10700939791E+04  0.10700939791E+04  0.00000000000E+00 0. -1.
         24    2    1    2    0    0 -0.77300398654E+02  0.14156184760E+03 -0.27689263906E+03  0.33031621389E+03  0.80150853149E+02 0.  0.
         23    2    1    2    0    0 -0.47757772324E+02 -0.61102131361E+02 -0.23857267571E+03  0.26697387577E+03  0.91344695903E+02 0.  0.
        -11    1    3    3    0    0 -0.49868626888E+02  0.45377167548E+02 -0.17498658165E+03  0.18752672087E+03  0.00000000000E+00 0.  1.
         12    1    3    3    0    0 -0.27431771767E+02  0.96184680048E+02 -0.10190605742E+03  0.14278949302E+03  0.00000000000E+00 0. -1.
        -11    1    4    4    0    0  0.21503478555E+02  0.70756820832E+01 -0.44739591530E+02  0.50140761035E+02  0.00000000000E+00 0.  1.
         11    1    4    4    0    0 -0.69261250878E+02 -0.68177813444E+02 -0.19383308418E+03  0.21683311473E+03  0.00000000000E+00 0. -1.
          1    1    1    2  501    0  0.12505817098E+03 -0.80459716236E+02 -0.50295483466E+03  0.52447771905E+03  0.00000000000E+00 0. -1.
<scales pt_clust_5="13000.00000" pt_clust_6="13000.00000" pt_clust_7="13000.00000" pt_clust_8="13000.00000" pt_clust_9="13000.00000"></scales>
<clustering>
<clus scale="   80.151">  5  6 -1 -1</clus>
<clus scale="   91.345">  7  8 -1 -1</clus>
<clus scale="  148.706">  7  9 -1 -1</clus>
<clus scale="  180.109">  2  5  1 -1</clus>
<clus scale="  276.645">  1  5  2 -1</clus>
</clustering>
</event>
<event>
 9    2  0.2147756E-005  0.3028257E+03  0.7546771E-02  0.1111117E+00
         21   -1    0    0  501  502  0.00000000000E+00  0.00000000000E+00  0.73392113403E+02  0.73392113403E+02  0.00000000000E+00 0.  1.
          2   -1    0    0  502    0 -0.00000000000E+00 -0.00000000000E+00 -0.12451694292E+04  0.12451694292E+04  0.00000000000E+00 0. -1.
         24    2    1    2    0    0 -0.69587097962E+02 -0.11841756334E+03 -0.50378833783E+02  0.15699451905E+03  0.56957603616E+02 0.  0.
         23    2    1    2    0    0 -0.29220819912E+02  0.16617210698E+03 -0.65740439382E+03  0.68477145420E+03  0.90908646567E+02 0.  0.
        -11    1    3    3    0    0 -0.50558866716E+02 -0.11698519765E+03 -0.34136275187E+02  0.13193566901E+03  0.00000000000E+00 0.  1.
         12    1    3    3    0    0 -0.19028231246E+02 -0.14323656868E+01 -0.16242558596E+02  0.25058850045E+02  0.00000000000E+00 0. -1.
        -13    1    4    4    0    0 -0.60810620162E+02  0.12749333443E+03 -0.50581394736E+03  0.52516686034E+03  0.00000000000E+00 0.  1.
         13    1    4    4    0    0  0.31589800250E+02  0.38678772548E+02 -0.15159044646E+03  0.15960459387E+03  0.00000000000E+00 0. -1.
          1    1    1    2  501    0  0.98807917874E+02 -0.47754543645E+02 -0.46399408817E+03  0.47679556932E+03  0.00000000000E+00 0. -1.
<scales pt_clust_5="13000.00000" pt_clust_6="13000.00000" pt_clust_7="13000.00000" pt_clust_8="13000.00000" pt_clust_9="13000.00000"></scales>
<clustering>
<clus scale="   56.958">  5  6 -1 -1</clus>
<clus scale="   90.909">  7  8 -1 -1</clus>
<clus scale="  109.743">  7  9 -1 -1</clus>
<clus scale="  148.692">  2  5  1 -1</clus>
<clus scale="  302.826">  1  5  2 -1</clus>
</clustering>
</event>
<event>
 9    2  0.2147756E-005  0.7545583E+03  0.7546771E-02  0.1003762E+00
         -3   -1    0    0    0  501 -0.00000000000E+00  0.00000000000E+00  0.82676977633E+03  0.82676977633E+03  0.00000000000E+00 0.  1.
         21   -1    0    0  501  502  0.00000000000E+00 -0.00000000000E+00 -0.28582593789E+03  0.28582593789E+03  0.00000000000E+00 0.  1.
         24    2    1    2    0    0  0.17192864492E+03 -0.57068297443E+02  0.20929295604E+03  0.28836845145E+03  0.80849074373E+02 0.  0.
         23    2    1    2    0    0  0.10192654047E+03  0.30809930333E+03  0.30134181814E+03  0.45149160864E+03  0.87883906066E+02 0.  0.
        -11    1    3    3    0    0  0.13371681958E+03 -0.15728222395E+02  0.18036483168E+03  0.22507562580E+03  0.00000000000E+00 0.  1.
         12    1    3    3    0    0  0.38211825335E+02 -0.41340075048E+02  0.28928124355E+02  0.63292825653E+02  0.00000000000E+00 0. -1.
        -13    1    4    4    0    0  0.44154295923E+02  0.44760419706E+02  0.85521619909E+02  0.10614633528E+03  0.00000000000E+00 0. -1.
         13    1    4    4    0    0  0.57772244547E+02  0.26333888363E+03  0.21582019823E+03  0.34534527337E+03  0.00000000000E+00 0.  1.
         -4    1    1    2    0  502 -0.27385518539E+03 -0.25103100589E+03  0.30309064266E+02  0.37273565413E+03  0.00000000000E+00 0.  1.
<scales pt_clust_5="13000.00000" pt_clust_6="13000.00000" pt_clust_7="13000.00000" pt_clust_8="13000.00000" pt_clust_9="13000.00000"></scales>
<clustering>
<clus scale="   80.849">  5  6 -1 -1</clus>
<clus scale="   87.884">  7  8 -1 -1</clus>
<clus scale="  198.375">  1  5  2 -1</clus>
<clus scale="  345.194">  7  9 -1 -1</clus>
<clus scale="  754.558">  2  5  1 -1</clus>
</clustering>
</event>
<event>
 9    2  0.2147756E-005  0.7591084E+03  0.7546771E-02  0.1028315E+00
          2   -1    0    0  502    0 -0.00000000000E+00  0.00000000000E+00  0.12865021128E+04  0.12865021128E+04  0.00000000000E+00 0. -1.
         21   -1    0    0  501  502  0.00000000000E+00 -0.00000000000E+00 -0.14094157251E+03  0.14094157251E+03  0.00000000000E+00 0. -1.
         24    2    1    2    0    0  0.17233518551E+02 -0.43980136684E+02  0.13846246983E+03  0.16629657760E+03  0.79066108949E+02 0.  0.
         23    2    1    2    0    0 -0.85263549326E+02 -0.13503247341E+03 -0.49085578115E+02  0.18774247796E+03  0.85639957567E+02 0.  0.
        -13    1    3    3    0    0 -0.30763116269E+02 -0.71702969050E+01  0.45597716885E+02  0.55470120475E+02  0.00000000000E+00 0.  1.
         14    1    3    3    0    0  0.47996634820E+02 -0.36809839779E+02  0.92864752947E+02  0.11082645712E+03  0.00000000000E+00 0. -1.
        -13    1    4    4    0    0 -0.40548515830E+02 -0.40498683346E+01  0.41408881876E+00  0.40752362375E+02  0.00000000000E+00 0.  1.
         13    1    4    4    0    0 -0.44715033496E+02 -0.13098260507E+03 -0.49499666934E+02  0.14699011558E+03  0.00000000000E+00 0. -1.
          1    1    1    2  501    0  0.68030030776E+02  0.17901261009E+03  0.10561836485E+04  0.10734046297E+04  0.00000000000E+00 0. -1.
<scales pt_clust_5="13000.00000" pt_clust_6="13000.00000" pt_clust_7="13000.00000" pt_clust_8="13000.00000" pt_clust_9="13000.00000"></scales>
<clustering>
<clus scale="   79.066">  5  6 -1 -1</clus>
<clus scale="   85.640">  7  8 -1 -1</clus>
<clus scale="   92.102">  1  5  2 -1</clus>
<clus scale="  161.426">  7  9 -1 -1</clus>
<clus scale="  759.108">  2  5  1 -1</clus>
</clustering>
</event>
<event>
 9    2  0.2147756E-005  0.1723898E+03  0.7546771E-02  0.1206030E+00
         21   -1    0    0  501  502  0.00000000000E+00  0.00000000000E+00  0.10373089868E+03  0.10373089868E+03  0.00000000000E+00 0. -1.
          2   -1    0    0  502    0 -0.00000000000E+00 -0.00000000000E+00 -0.16692888117E+03  0.16692888117E+03  0.00000000000E+00 0. -1.
         24    2    1    2    0    0 -0.26942740659E+02 -0.17100483692E+02 -0.41302243513E+02  0.96885009380E+02  0.81624089010E+02 0.  0.
         23    2    1    2    0    0 -0.17812282100E+02 -0.10011172340E+01  0.25990321306E+02  0.10577657352E+03  0.10096983250E+03 0.  0.
        -13    1    3    3    0    0  0.24283955387E+02  0.51773755506E+01  0.37614798364E+01  0.25113033217E+02  0.00000000000E+00 0.  1.
         14    1    3    3    0    0 -0.51226696046E+02 -0.22277859242E+02 -0.45063723350E+02  0.71771976163E+02  0.00000000000E+00 0. -1.
        -13    1    4    4    0    0  0.19106515708E+02 -0.30147750396E+02  0.42886946367E+02  0.55796379498E+02  0.00000000000E+00 0. -1.
         13    1    4    4    0    0 -0.36918797808E+02  0.29146633162E+02 -0.16896625061E+02  0.49980194025E+02  0.00000000000E+00 0.  1.
          1    1    1    2  501    0  0.44755022760E+02  0.18101600926E+02 -0.47886060284E+02  0.67998196945E+02  0.00000000000E+00 0. -1.
<scales pt_clust_5="13000.00000" pt_clust_6="13000.00000" pt_clust_7="13000.00000" pt_clust_8="13000.00000" pt_clust_9="13000.00000"></scales>
<clustering>
<clus scale="   81.624">  5  6 -1 -1</clus>
<clus scale="   87.640">  2  5  1 -1</clus>
<clus scale="  100.970">  7  8 -1 -1</clus>
<clus scale="   29.882">  7  9 -1 -1</clus>
<clus scale="  172.390">  1  5  2 -1</clus>
</clustering>
</event>
<event>
 9    2  0.2147756E-005  0.1423199E+03  0.7546771E-02  0.1236804E+00
         21   -1    0    0  501  502  0.00000000000E+00  0.00000000000E+00  0.20961415026E+03  0.20961415026E+03  0.00000000000E+00 0.  1.
          2   -1    0    0  502    0 -0.00000000000E+00 -0.00000000000E+00 -0.47020652927E+03  0.47020652927E+03  0.00000000000E+00 0. -1.
         24    2    1    2    0    0 -0.13278477258E+02 -0.35872355121E+01  0.19024007079E+03  0.20705767852E+03  0.80575501743E+02 0.  0.
         23    2    1    2    0    0  0.46512976885E+02  0.21756748399E+02 -0.34696887579E+03  0.36220846619E+03  0.90392251283E+02 0.  0.
        -11    1    3    3    0    0 -0.14148226978E+02  0.35444013675E+02  0.12816407907E+03  0.13372539623E+03  0.00000000000E+00 0.  1.
         12    1    3    3    0    0  0.86974971949E+00 -0.39031249187E+02  0.62075991719E+02  0.73332282288E+02  0.00000000000E+00 0. -1.
        -13    1    4    4    0    0  0.52415838215E+02 -0.22842967310E+02 -0.16020710752E+03  0.17010449303E+03  0.00000000000E+00 0.  1.
         13    1    4    4    0    0 -0.59028613309E+01  0.44599715709E+02 -0.18676176828E+03  0.19210397316E+03  0.00000000000E+00 0. -1.
          1    1    1    2  501    0 -0.33234499626E+02 -0.18169512887E+02 -0.10386357402E+03  0.11055453483E+03  0.00000000000E+00 0. -1.
<scales pt_clust_5="13000.00000" pt_clust_6="13000.00000" pt_clust_7="13000.00000" pt_clust_8="13000.00000" pt_clust_9="13000.00000"></scales>
<clustering>
<clus scale="   80.576">  5  6 -1 -1</clus>
<clus scale="   81.741">  2  5  1 -1</clus>
<clus scale="   90.392">  7  8 -1 -1</clus>
<clus scale="   40.988">  7  9 -1 -1</clus>
<clus scale="  142.320">  1  5  2 -1</clus>
</clustering>
</event>
<event>
 9    2  0.2147756E-005  0.3857776E+03  0.7546771E-02  0.1074028E+00
         21   -1    0    0  501  502  0.00000000000E+00  0.00000000000E+00  0.16757207234E+03  0.16757207234E+03  0.00000000000E+00 0. -1.
          2   -1    0    0  502    0 -0.00000000000E+00 -0.00000000000E+00 -0.55702892314E+03  0.55702892314E+03  0.00000000000E+00 0. -1.
         24    2    1    2    0    0  0.86777441408E+02 -0.15012015738E+03 -0.24968368499E+03  0.31428292513E+03  0.79783635467E+02 0.  0.
         23    2    1    2    0    0  0.32708578636E+02 -0.66849371281E+02 -0.10925730336E+03  0.16075063815E+03  0.91459935330E+02 0.  0.
        -11    1    3    3    0    0  0.67248896737E+02 -0.13741397659E+03 -0.24738928040E+03  0.29087191534E+03  0.00000000000E+00 0.  1.
         12    1    3    3    0    0  0.19528544671E+02 -0.12706180788E+02 -0.22944045942E+01  0.23411009795E+02  0.00000000000E+00 0. -1.
        -11    1    4    4    0    0  0.61141677321E+02 -0.30757408620E+02 -0.45591458994E+02  0.82236877518E+02  0.00000000000E+00 0.  1.
         11    1    4    4    0    0 -0.28433098685E+02 -0.36091962661E+02 -0.63665844363E+02  0.78513760628E+02  0.00000000000E+00 0. -1.
          1    1    1    2  501    0 -0.11948602004E+03  0.21696952866E+03 -0.30515862449E+02  0.24956743220E+03  0.00000000000E+00 0. -1.
<scales pt_clust_5="13000.00000" pt_clust_6="13000.00000" pt_clust_7="13000.00000" pt_clust_8="13000.00000" pt_clust_9="13000.00000"></scales>
<clustering>
<clus scale="   79.784">  5  6 -1 -1</clus>
<clus scale="   91.460">  7  8 -1 -1</clus>
<clus scale="  190.871">  2  5  1 -1</clus>
<clus scale="  159.438">  7  9 -1 -1</clus>
<clus scale="  385.778">  1  5  2 -1</clus>
</clustering>
</event>
<event>
 9    2  0.2147756E-005  0.4098938E+03  0.7546771E-02  0.1092070E+00
         21   -1    0    0  501  502  0.00000000000E+00  0.00000000000E+00  0.10469414574E+03  0.10469414574E+03  0.00000000000E+00 0.  1.
          2   -1    0    0  502    0 -0.00000000000E+00 -0.00000000000E+00 -0.10187222852E+04  0.10187222852E+04  0.00000000000E+00 0. -1.
         24    2    1    2    0    0  0.87841159466E+01  0.56440591274E+02 -0.59756960787E+03  0.60557577615E+03  0.79811549069E+02 0.  0.
         23    2    1    2    0    0 -0.15644057108E+03 -0.12909774168E+03 -0.93484473391E+02  0.24071447256E+03  0.89801065401E+02 0.  0.
        -13    1    3    3    0    0 -0.14773431252E+02 -0.15044494887E+02 -0.88807978385E+02  0.91276766607E+02  0.00000000000E+00 0.  1.
         14    1    3    3    0    0  0.23557547199E+02  0.71485086161E+02 -0.50876162949E+03  0.51429900954E+03  0.00000000000E+00 0. -1.
        -13    1    4    4    0    0 -0.86339183675E+01 -0.34828387256E+02 -0.47397235925E+02  0.59447952686E+02  0.00000000000E+00 0. -1.
         13    1    4    4    0    0 -0.14780665271E+03 -0.94269354427E+02 -0.46087237466E+02  0.18126651987E+03  0.00000000000E+00 0.  1.
          1    1    1    2  501    0  0.14765645513E+03  0.72657150409E+02 -0.22297405819E+03  0.27712618222E+03  0.00000000000E+00 0. -1.
<scales pt_clust_5="13000.00000" pt_clust_6="13000.00000" pt_clust_7="13000.00000" pt_clust_8="13000.00000" pt_clust_9="13000.00000"></scales>
<clustering>
<clus scale="   79.812">  5  6 -1 -1</clus>
<clus scale="   89.801">  7  8 -1 -1</clus>
<clus scale="   98.146">  2  5  1 -1</clus>
<clus scale="  186.347">  7  9 -1 -1</clus>
<clus scale="  409.894">  1  5  2 -1</clus>
</clustering>
</event>
<event>
 9    2  0.2147756E-005  0.4924528E+03  0.7546771E-02  0.1078575E+00
         -1   -1    0    0    0  501 -0.00000000000E+00  0.00000000000E+00  0.10483197612E+04  0.10483197612E+04  0.00000000000E+00 0.  1.
         21   -1    0    0  501  502  0.00000000000E+00 -0.00000000000E+00 -0.78472730677E+02  0.78472730677E+02  0.00000000000E+00 0.  1.
         24    2    1    2    0    0 -0.17496556106E+01 -0.18240085072E+02  0.13112871030E+03  0.15418868360E+03  0.79016767123E+02 0.  0.
         23    2    1    2    0    0 -0.18676842537E+03 -0.89857354082E+02  0.22601555601E+03  0.32250473853E+03  0.99847313521E+02 0.  0.
        -13    1    3    3    0    0  0.99307661308E+01 -0.42491662619E+02  0.11453773052E+03  0.12256856539E+03  0.00000000000E+00 0.  1.
         14    1    3    3    0    0 -0.11680421741E+02  0.24251577547E+02  0.16590979775E+02  0.31620118207E+02  0.00000000000E+00 0. -1.
        -13    1    4    4    0    0 -0.15844612307E+03 -0.10751149835E+03  0.16413774762E+03  0.25220050830E+03  0.00000000000E+00 0.  1.
         13    1    4    4    0    0 -0.28322302301E+02  0.17654144264E+02  0.61877808386E+02  0.70304230227E+02  0.00000000000E+00 0. -1.
         -2    1    1    2    0  502  0.18851808098E+03  0.10809743915E+03  0.61270276418E+03  0.65009906971E+03  0.00000000000E+00 0.  1.
<scales pt_clust_5="13000.00000" pt_clust_6="13000.00000" pt_clust_7="13000.00000" pt_clust_8="13000.00000" pt_clust_9="13000.00000"></scales>
<clustering>
<clus scale="   79.017">  5  6 -1 -1</clus>
<clus scale="   81.114">  1  5  2 -1</clus>
<clus scale="   99.847">  7  8 -1 -1</clus>
<clus scale="  210.186">  7  9 -1 -1</clus>
<clus scale="  492.453">  2  5  1 -1</clus>
</clustering>
</event>
<event>
 9    2  0.2147756E-005  0.1798133E+03  0.7546771E-02  0.1186290E+00
          2   -1    0    0  502    0 -0.00000000000E+00  0.00000000000E+00  0.25737650213E+03  0.25737650213E+03  0.00000000000E+00 0. -1.
         21   -1    0    0  501  502  0.00000000000E+00 -0.00000000000E+00 -0.11576453399E+03  0.11576453399E+03  0.00000000000E+00 0.  1.
         24    2    1    2    0    0 -0.30652621601E+02 -0.81280049470E+02 -0.32057432820E+02  0.12315327680E+03  0.81197419509E+02 0.  0.
         23    2    1    2    0    0 -0.32779875285E+02  0.55542531737E+02  0.11030448829E+03  0.15670746323E+03  0.90722962037E+02 0.  0.
        -13    1    3    3    0    0 -0.38981360058E+02 -0.70878963562E+02 -0.54157614555E+02  0.97346911209E+02  0.00000000000E+00 0.  1.
         14    1    3    3    0    0  0.83287384568E+01 -0.10401085908E+02  0.22100181735E+02  0.25806365592E+02  0.00000000000E+00 0. -1.
        -13    1    4    4    0    0 -0.69949283790E+01  0.71689918321E+02  0.45718281958E+02  0.85314328909E+02  0.00000000000E+00 0. -1.
         13    1    4    4    0    0 -0.25784946906E+02 -0.16147386584E+02  0.64586206329E+02  0.71393134323E+02  0.00000000000E+00 0.  1.
          1    1    1    2  501    0  0.63432496886E+02  0.25737517733E+02  0.63364912674E+02  0.93280296089E+02  0.00000000000E+00 0. -1.
<scales pt_clust_5="13000.00000" pt_clust_6="13000.00000" pt_clust_7="13000.00000" pt_clust_8="13000.00000" pt_clust_9="13000.00000"></scales>
<clustering>
<clus scale="   81.197">  5  6 -1 -1</clus>
<clus scale="   90.723">  7  8 -1 -1</clus>
<clus scale="   68.455">  7  9 -1 -1</clus>
<clus scale="  118.908">  1  5  2 -1</clus>
<clus scale="  179.813">  2  5  1 -1</clus>
</clustering>
</event>
<event>
 9    2  0.2147756E-005  0.3633768E+03  0.7546771E-02  0.1112803E+00
         21   -1    0    0  501  502  0.00000000000E+00  0.00000000000E+00  0.77037468882E+02  0.77037468882E+02  0.00000000000E+00 0. -1.
          2   -1    0    0  502    0 -0.00000000000E+00 -0.00000000000E+00 -0.64759594179E+03  0.64759594179E+03  0.00000000000E+00 0. -1.
         24    2    1    2    0    0  0.18874080816E+02  0.77747920985E+01 -0.12398580147E+03  0.14889924127E+03  0.79886336551E+02 0.  0.
         23    2    1    2    0    0 -0.19108961201E+02 -0.14960539859E+03 -0.10133449627E+03  0.20249781841E+03  0.89385449827E+02 0.  0.
        -11    1    3    3    0    0  0.40239978073E+02 -0.11783401484E+02 -0.10791326165E+03  0.11577295204E+03  0.00000000000E+00 0.  1.
         12    1    3    3    0    0 -0.21365897257E+02  0.19558193582E+02 -0.16072539820E+02  0.33126289229E+02  0.00000000000E+00 0. -1.
        -11    1    4    4    0    0 -0.24355134904E+02 -0.12121448516E+03 -0.32475541588E+02  0.12783107920E+03  0.00000000000E+00 0. -1.
         11    1    4    4    0    0  0.52461737028E+01 -0.28390913433E+02 -0.68858954685E+02  0.74666739211E+02  0.00000000000E+00 0.  1.
          1    1    1    2  501    0  0.23488038500E+00  0.14183060649E+03 -0.34523817517E+03  0.37323635099E+03  0.00000000000E+00 0. -1.
<scales pt_clust_5="13000.00000" pt_clust_6="13000.00000" pt_clust_7="13000.00000" pt_clust_8="13000.00000" pt_clust_9="13000.00000"></scales>
<clustering>
<clus scale="   79.886">  5  6 -1 -1</clus>
<clus scale="   82.453">  2  5  1 -1</clus>
<clus scale="   89.385">  7  8 -1 -1</clus>
<clus scale="  147.912">  7  9 -1 -1</clus>
<clus scale="  363.377">  1  5  2 -1</clus>
</clustering>
</event>
<event>
 9    2  0.2147756E-005  0.1549703E+03  0.7546771E-02  0.1224636E+00
         21   -1    0    0  501  502  0.00000000000E+00  0.00000000000E+00  0.23247972765E+03  0.23247972765E+03  0.00000000000E+00 0. -1.
         -3   -1    0    0    0  501 -0.00000000000E+00 -0.00000000000E+00 -0.94122993585E+02  0.94122993585E+02  0.00000000000E+00 0.  1.
         24    2    1    2    0    0 -0.12266024043E+02 -0.12138186942E+02 -0.39708726809E+02  0.90545277487E+02  0.79522785178E+02 0.  0.
         23    2    1    2    0    0 -0.31283612054E+02  0.32432872561E+01  0.16197820037E+03  0.18878705138E+03  0.91730202647E+02 0.  0.
        -13    1    3    3    0    0 -0.31869634819E+02 -0.29065195312E+02 -0.46846640412E+02  0.63679407346E+02  0.00000000000E+00 0.  1.
         14    1    3    3    0    0  0.19603610776E+02  0.16927008371E+02  0.71379136030E+01  0.26865870141E+02  0.00000000000E+00 0. -1.
        -13    1    4    4    0    0 -0.30874752205E+02 -0.37590851833E+02  0.50745712867E+02  0.70295446791E+02  0.00000000000E+00 0.  1.
         13    1    4    4    0    0 -0.40885984917E+00  0.40834139089E+02  0.11123248750E+03  0.11849160459E+03  0.00000000000E+00 0. -1.
         -4    1    1    2    0  502  0.43549636097E+02  0.88948996854E+01  0.16087260510E+02  0.47270392375E+02  0.00000000000E+00 0.  1.
<scales pt_clust_5="13000.00000" pt_clust_6="13000.00000" pt_clust_7="13000.00000" pt_clust_8="13000.00000" pt_clust_9="13000.00000"></scales>
<clustering>
<clus scale="   79.523">  5  6 -1 -1</clus>
<clus scale="   81.374">  2  5  1 -1</clus>
<clus scale="   91.730">  7  8 -1 -1</clus>
<clus scale="   37.030">  7  9 -1 -1</clus>
<clus scale="  154.970">  1  5  2 -1</clus>
</clustering>
</event>
<event>
 9    2  0.2147756E-005  0.2103079E+03  0.7546771E-02  0.1176256E+00
          2   -1    0    0  502    0 -0.00000000000E+00  0.00000000000E+00  0.34205751492E+02  0.34205751492E+02  0.00000000000E+00 0. -1.
         21   -1    0    0  501  502  0.00000000000E+00 -0.00000000000E+00 -0.69608458425E+03  0.69608458425E+03  0.00000000000E+00 0.  1.
         24    2    1    2    0    0 -0.18555300100E+02  0.45166227194E+02 -0.26924280834E+03  0.28487765300E+03  0.79242034899E+02 0.  0.
         23    2    1    2    0    0 -0.33794014745E+02  0.14096068153E+02 -0.32849659000E+03  0.34359747041E+03  0.93853489335E+02 0.  0.
        -13    1    3    3    0    0 -0.33034671469E+02  0.62253872908E+02 -0.19590866535E+03  0.20819951818E+03  0.00000000000E+00 0.  1.
         14    1    3    3    0    0  0.14479371369E+02 -0.17087645714E+02 -0.73334142996E+02  0.76678134825E+02  0.00000000000E+00 0. -1.
        -13    1    4    4    0    0 -0.66129483969E+02  0.16855735398E+02 -0.21769900432E+03  0.22814486834E+03  0.00000000000E+00 0. -1.
         13    1    4    4    0    0  0.32335469224E+02 -0.27596672450E+01 -0.11079758568E+03  0.11545260208E+03  0.00000000000E+00 0.  1.
          1    1    1    2  501    0  0.52349314846E+02 -0.59262295347E+02 -0.64139434411E+02  0.10181521233E+03  0.00000000000E+00 0. -1.
<scales pt_clust_5="13000.00000" pt_clust_6="13000.00000" pt_clust_7="13000.00000" pt_clust_8="13000.00000" pt_clust_9="13000.00000"></scales>
<clustering>
<clus scale="   79.242">  5  6 -1 -1</clus>
<clus scale="   93.078">  1  5  2 -1</clus>
<clus scale="   93.853">  7  8 -1 -1</clus>
<clus scale="   47.530">  7  9 -1 -1</clus>
<clus scale="  210.308">  2  5  1 -1</clus>
</clustering>
</event>
<event>
 9    2  0.2147756E-005  0.1940027E+03  0.7546771E-02  0.1164235E+00
         21   -1    0    0  501  502  0.00000000000E+00  0.00000000000E+00  0.50171547475E+02  0.50171547475E+02  0.00000000000E+00 0. -1.
          2   -1    0    0  502    0 -0.00000000000E+00 -0.00000000000E+00 -0.61721282346E+03  0.61721282346E+03  0.00000000000E+00 0. -1.
         24    2    1    2    0    0 -0.12516452459E+03  0.45503107118E+02 -0.21908433548E+03  0.26899877944E+03  0.81398441698E+02 0.  0.
         23    2    1    2    0    0  0.35756257417E+02 -0.18329371669E+02 -0.16791306085E+03  0.19553577331E+03  0.91787618071E+02 0.  0.
        -11    1    3    3    0    0 -0.73241838090E+02  0.58149826452E+02 -0.17981980483E+03  0.20268431457E+03  0.00000000000E+00 0.  1.
         12    1    3    3    0    0 -0.51922686501E+02 -0.12646719334E+02 -0.39264530657E+02  0.66314464871E+02  0.00000000000E+00 0. -1.
        -13    1    4    4    0    0  0.32331649116E+02  0.34108454711E+02 -0.68229349120E+02  0.82849057319E+02  0.00000000000E+00 0. -1.
         13    1    4    4    0    0  0.34246083007E+01 -0.52437826380E+02 -0.99683711727E+02  0.11268671599E+03  0.00000000000E+00 0.  1.
          1    1    1    2  501    0  0.89408267175E+02 -0.27173735449E+02 -0.18004387966E+03  0.20284981819E+03  0.00000000000E+00 0. -1.
<scales pt_clust_5="13000.00000" pt_clust_6="13000.00000" pt_clust_7="13000.00000" pt_clust_8="13000.00000" pt_clust_9="13000.00000"></scales>
<clustering>
<clus scale="   81.398">  5  6 -1 -1</clus>
<clus scale="   91.788">  7  8 -1 -1</clus>
<clus scale="   93.447">  7  9 -1 -1</clus>
<clus scale="  156.085">  2  5  1 -1</clus>
<clus scale="  194.003">  1  5  2 -1</clus>
</clustering>
</event>
<event>
 9    2  0.2147756E-005  0.1862053E+03  0.7546771E-02  0.1192217E+00
          2   -1    0    0  502    0 -0.00000000000E+00  0.00000000000E+00  0.12163099940E+04  0.12163099940E+04  0.00000000000E+00 0. -1.
         21   -1    0    0  501  502  0.00000000000E+00 -0.00000000000E+00 -0.20026804976E+02  0.20026804976E+02  0.00000000000E+00 0. -1.
         24    2    1    2    0    0 -0.44960021803E+02 -0.39299454030E+02  0.69997853962E+03  0.70625121094E+03  0.72491146929E+02 0.  0.
         23    2    1    2    0    0  0.19238997531E+02 -0.17739641066E+02  0.42422643593E+03  0.43463770532E+03  0.90868212544E+02 0.  0.
        -11    1    3    3    0    0 -0.21923563308E+02 -0.40767735706E+02  0.18319948298E+03  0.18895687727E+03  0.00000000000E+00 0.  1.
         12    1    3    3    0    0 -0.23036458495E+02  0.14682816759E+01  0.51677905664E+03  0.51729433367E+03  0.00000000000E+00 0. -1.
        -11    1    4    4    0    0  0.54650217177E+02 -0.21637888449E+02  0.25177126239E+03  0.25854131782E+03  0.00000000000E+00 0.  1.
         11    1    4    4    0    0 -0.35411219646E+02  0.38982473838E+01  0.17245517353E+03  0.17609638749E+03  0.00000000000E+00 0. -1.
          1    1    1    2  501    0  0.25721024272E+02  0.57039095096E+02  0.72078213514E+02  0.95447882755E+02  0.00000000000E+00 0. -1.
<scales pt_clust_5="13000.00000" pt_clust_6="13000.00000" pt_clust_7="13000.00000" pt_clust_8="13000.00000" pt_clust_9="13000.00000"></scales>
<clustering>
<clus scale="   72.491">  5  6 -1 -1</clus>
<clus scale="   90.868">  7  8 -1 -1</clus>
<clus scale="   62.570">  7  9 -1 -1</clus>
<clus scale="   93.919">  1  5  2 -1</clus>
<clus scale="  186.205">  2  5  1 -1</clus>
</clustering>
</event>
<event>
 9    2  0.2147756E-005  0.2736741E+03  0.7546771E-02  0.1106097E+00
         -3   -1    0    0    0  501 -0.00000000000E+00  0.00000000000E+00  0.11024361880E+03  0.11024361880E+03  0.00000000000E+00 0.  1.
         21   -1    0    0  501  502  0.00000000000E+00 -0.00000000000E+00 -0.62419002759E+03  0.62419002759E+03  0.00000000000E+00 0.  1.
         24    2    1    2    0    0 -0.19422872690E+03 -0.91338322320E+02 -0.13124541555E+03  0.26394712553E+03  0.79845090619E+02 0.  0.
         23    2    1    2    0    0  0.76560170725E+02  0.79799602239E+02 -0.14504622373E+03  0.20504571645E+03  0.93679787345E+02 0.  0.
        -13    1    3    3    0    0 -0.19907556364E+03 -0.76291298118E+02 -0.12246075678E+03  0.24586191075E+03  0.00000000000E+00 0.  1.
         14    1    3    3    0    0  0.48468367458E+01 -0.15047024202E+02 -0.87846587690E+01  0.18085214775E+02  0.00000000000E+00 0. -1.
        -11    1    4    4    0    0  0.50366589095E+02  0.92431708255E+02 -0.14058323451E+03  0.17562476993E+03  0.00000000000E+00 0.  1.
         11    1    4    4    0    0  0.26193581630E+02 -0.12632106016E+02 -0.44629892126E+01  0.29420946513E+02  0.00000000000E+00 0. -1.
         -4    1    1    2    0  502  0.11766855617E+03  0.11538720081E+02 -0.23765476952E+03  0.26544080442E+03  0.00000000000E+00 0.  1.
<scales pt_clust_5="13000.00000" pt_clust_6="13000.00000" pt_clust_7="13000.00000" pt_clust_8="13000.00000" pt_clust_9="13000.00000"></scales>
<clustering>
<clus scale="   79.845">  5  6 -1 -1</clus>
<clus scale="   93.680">  7  8 -1 -1</clus>
<clus scale="  118.233">  7  9 -1 -1</clus>
<clus scale="  229.004">  1  5  2 -1</clus>
<clus scale="  273.674">  2  5  1 -1</clus>
</clustering>
</event>
<event>
 9    2  0.2147756E-005  0.3353998E+03  0.7546771E-02  0.1104756E+00
         21   -1    0    0  501  502  0.00000000000E+00  0.00000000000E+00  0.16308135839E+03  0.16308135839E+03  0.00000000000E+00 0. -1.
          2   -1    0    0  502    0 -0.00000000000E+00 -0.00000000000E+00 -0.38392405543E+03  0.38392405543E+03  0.00000000000E+00 0. -1.
         24    2    1    2    0    0 -0.10078631018E+03  0.14857745010E+02 -0.16124288995E+03  0.20635142385E+03  0.78759175073E+02 0.  0.
         23    2    1    2    0    0  0.12727038609E+03 -0.86921619713E+02  0.68371808940E+02  0.19141812691E+03  0.90626022216E+02 0.  0.
        -11    1    3    3    0    0 -0.40069519339E+01 -0.20084010489E+02 -0.84764595373E+01  0.22164690555E+02  0.00000000000E+00 0.  1.
         12    1    3    3    0    0 -0.96779358248E+02  0.34941755499E+02 -0.15276643042E+03  0.18418673330E+03  0.00000000000E+00 0. -1.
        -13    1    4    4    0    0 -0.65532020136E+01 -0.32140419831E+02  0.22260948532E+02  0.39642160298E+02  0.00000000000E+00 0.  1.
         13    1    4    4    0    0  0.13382358810E+03 -0.54781199882E+02  0.46110860408E+02  0.15177596661E+03  0.00000000000E+00 0. -1.
          1    1    1    2  501    0 -0.26484075906E+02  0.72063874702E+02 -0.12797161603E+03  0.14923586306E+03  0.00000000000E+00 0. -1.
<scales pt_clust_5="13000.00000" pt_clust_6="13000.00000" pt_clust_7="13000.00000" pt_clust_8="13000.00000" pt_clust_9="13000.00000"></scales>
<clustering>
<clus scale="   78.759">  5  6 -1 -1</clus>
<clus scale="   90.626">  7  8 -1 -1</clus>
<clus scale="   76.776">  7  9 -1 -1</clus>
<clus scale="  128.770">  2  5  1 -1</clus>
<clus scale="  335.400">  1  5  2 -1</clus>
</clustering>
</event>
<event>
 9    2  0.2147756E-005  0.3181551E+03  0.7546771E-02  0.1119902E+00
         21   -1    0    0  501  502  0.00000000000E+00  0.00000000000E+00  0.19426133904E+03  0.19426133904E+03  0.00000000000E+00 0.  1.
          2   -1    0    0  502    0 -0.00000000000E+00 -0.00000000000E+00 -0.24746635979E+03  0.24746635979E+03  0.00000000000E+00 0. -1.
         24    2    1    2    0    0  0.86593549329E+01 -0.62826435293E+02  0.39920494393E+02  0.11022354620E+03  0.80829690494E+02 0.  0.
         23    2    1    2    0    0  0.97384676025E+02 -0.35286254246E+02  0.30820914601E+02  0.14115144370E+03  0.90801467045E+02 0.  0.
        -11    1    3    3    0    0 -0.27575197188E+02 -0.38535030464E+02  0.46164806061E+02  0.66155342879E+02  0.00000000000E+00 0.  1.
         12    1    3    3    0    0  0.36234552121E+02 -0.24291404830E+02 -0.62443116674E+01  0.44068203324E+02  0.00000000000E+00 0. -1.
        -13    1    4    4    0    0  0.93861725836E+01 -0.47932231637E+02  0.11072246245E+02  0.50081869997E+02  0.00000000000E+00 0. -1.
         13    1    4    4    0    0  0.87998503441E+02  0.12645977391E+02  0.19748668355E+02  0.91069573700E+02  0.00000000000E+00 0.  1.
          1    1    1    2  501    0 -0.10604403096E+03  0.98112689539E+02 -0.12394642975E+03  0.19035270893E+03  0.00000000000E+00 0. -1.
<scales pt_clust_5="13000.00000" pt_clust_6="13000.00000" pt_clust_7="13000.00000" pt_clust_8="13000.00000" pt_clust_9="13000.00000"></scales>
<clustering>
<clus scale="   80.830">  5  6 -1 -1</clus>
<clus scale="   90.801">  7  8 -1 -1</clus>
<clus scale="  102.740">  2  5  1 -1</clus>
<clus scale="  112.208">  7  9 -1 -1</clus>
<clus scale="  318.155">  1  5  2 -1</clus>
</clustering>
</event>
<event>
 9    2  0.2147756E-005  0.4659882E+03  0.7546771E-02  0.1076762E+00
          2   -1    0    0  502    0 -0.00000000000E+00  0.00000000000E+00  0.85388864466E+03  0.85388864466E+03  0.00000000000E+00 0. -1.
         21   -1    0    0  501  502  0.00000000000E+00 -0.00000000000E+00 -0.10391462983E+03  0.10391462983E+03  0.00000000000E+00 0. -1.
         24    2    1    2    0    0 -0.59904504701E+02  0.15110542882E+02  0.27325144115E+03  0.29116288929E+03  0.79325908893E+02 0.  0.
         23    2    1    2    0    0 -0.42163925034E+02 -0.21336182644E+03  0.18754783502E+03  0.30147800314E+03  0.91726388809E+02 0.  0.
        -13    1    3    3    0    0 -0.16161622511E+02  0.18085144004E+02  0.13542195240E+02  0.27778796370E+02  0.00000000000E+00 0.  1.
         14    1    3    3    0    0 -0.43742882190E+02 -0.29746011218E+01  0.25970924591E+03  0.26338409292E+03  0.00000000000E+00 0. -1.
        -13    1    4    4    0    0  0.85518268513E+01 -0.16302270350E+03  0.11527966610E+03  0.19984728424E+03  0.00000000000E+00 0.  1.
         13    1    4    4    0    0 -0.50715751886E+02 -0.50339122938E+02  0.72268168916E+02  0.10163071891E+03  0.00000000000E+00 0. -1.
          1    1    1    2  501    0  0.10206842974E+03  0.19825128356E+03  0.28917473867E+03  0.36516238205E+03  0.00000000000E+00 0. -1.
<scales pt_clust_5="13000.00000" pt_clust_6="13000.00000" pt_clust_7="13000.00000" pt_clust_8="13000.00000" pt_clust_9="13000.00000"></scales>
<clustering>
<clus scale="   79.326">  5  6 -1 -1</clus>
<clus scale="   91.726">  7  8 -1 -1</clus>
<clus scale="  100.546">  1  5  2 -1</clus>
<clus scale="  217.720">  7  9 -1 -1</clus>
<clus scale="  465.988">  2  5  1 -1</clus>
</clustering>
</event>
<event>
 9    2  0.2147756E-005  0.1858464E+03  0.7546771E-02  0.1190315E+00
         21   -1    0    0  501  502  0.00000000000E+00  0.00000000000E+00  0.56150951044E+02  0.56150951044E+02  0.00000000000E+00 0. -1.
          2   -1    0    0  502    0 -0.00000000000E+00 -0.00000000000E+00 -0.53851169164E+03  0.53851169164E+03  0.00000000000E+00 0. -1.
         24    2    1    2    0    0  0.24468672947E+02 -0.52441627309E+02 -0.35736152601E+03  0.37069016180E+03  0.79718853166E+02 0.  0.
         23    2    1    2    0    0 -0.72609057966E+02  0.46421382432E+02 -0.12133859668E+03  0.17531921644E+03  0.92664732025E+02 0.  0.
        -11    1    3    3    0    0 -0.14529801034E+02  0.14140571640E+02 -0.98868945417E+02  0.10092640513E+03  0.00000000000E+00 0.  1.
         12    1    3    3    0    0  0.38998473982E+02 -0.66582198950E+02 -0.25849258059E+03  0.26976375667E+03  0.00000000000E+00 0. -1.
        -11    1    4    4    0    0 -0.20154021815E+02  0.46612431488E+02 -0.93254183267E+01  0.51632032611E+02  0.00000000000E+00 0. -1.
         11    1    4    4    0    0 -0.52455036151E+02 -0.19104905540E+00 -0.11201317836E+03  0.12368718383E+03  0.00000000000E+00 0.  1.
          1    1    1    2  501    0  0.48140385019E+02  0.60202448771E+01 -0.36606179025E+01  0.48653264450E+02  0.00000000000E+00 0. -1.
<scales pt_clust_5="13000.00000" pt_clust_6="13000.00000" pt_clust_7="13000.00000" pt_clust_8="13000.00000" pt_clust_9="13000.00000"></scales>
<clustering>
<clus scale="   79.719">  5  6 -1 -1</clus>
<clus scale="   92.665">  7  8 -1 -1</clus>
<clus scale="   48.515">  7  9 -1 -1</clus>
<clus scale="   98.509">  2  5  1 -1</clus>
<clus scale="  185.846">  1  5  2 -1</clus>
</clustering>
</event>
<event>
 9    2  0.2147756E-005  0.2575186E+03  0.7546771E-02  0.1152855E+00
         -1   -1    0    0    0  501 -0.00000000000E+00  0.00000000000E+00  0.15450714996E+03  0.15450714996E+03  0.00000000000E+00 0.  1.
         21   -1    0    0  501  502  0.00000000000E+00 -0.00000000000E+00 -0.21568308328E+03  0.21568308328E+03  0.00000000000E+00 0. -1.
         24    2    1    2    0    0  0.75846297301E+01  0.40185931380E+02 -0.71239808578E+02  0.11247501412E+03  0.76831522093E+02 0.  0.
         23    2    1    2    0    0 -0.24836230742E+02  0.24758429952E+02  0.10568047728E+03  0.14084810489E+03  0.86255476135E+02 0.  0.
        -11    1    3    3    0    0 -0.34442051937E+02  0.23951260530E+02 -0.35891474921E+02  0.55209743656E+02  0.00000000000E+00 0.  1.
         12    1    3    3    0    0  0.42026681667E+02  0.16234670849E+02 -0.35348333657E+02  0.57265270469E+02  0.00000000000E+00 0. -1.
        -11    1    4    4    0    0 -0.38685147351E+01  0.25588644965E+02 -0.65315108647E+01  0.26690912154E+02  0.00000000000E+00 0. -1.
         11    1    4    4    0    0 -0.20967716006E+02 -0.83021501346E+00  0.11221198814E+03  0.11415719274E+03  0.00000000000E+00 0.  1.
         -2    1    1    2    0  502  0.17251601011E+02 -0.64944361332E+02 -0.95616602015E+02  0.11686711422E+03  0.00000000000E+00 0.  1.
<scales pt_clust_5="13000.00000" pt_clust_6="13000.00000" pt_clust_7="13000.00000" pt_clust_8="13000.00000" pt_clust_9="13000.00000"></scales>
<clustering>
<clus scale="   76.832">  5  6 -1 -1</clus>
<clus scale="   86.255">  7  8 -1 -1</clus>
<clus scale="   67.197">  7  9 -1 -1</clus>
<clus scale="   87.037">  1  5  2 -1</clus>
<clus scale="  257.519">  2  5  1 -1</clus>
</clustering>
</event>
<event>
 9    2  0.2147756E-005  0.3625815E+03  0.7546771E-02  0.1105141E+00
         21   -1    0    0  501  502  0.00000000000E+00  0.00000000000E+00  0.40899019103E+02  0.40899019103E+02  0.00000000000E+00 0.  1.
          2   -1    0    0  502    0 -0.00000000000E+00 -0.00000000000E+00 -0.13548545318E+04  0.13548545318E+04  0.00000000000E+00 0. -1.
         24    2    1    2    0    0 -0.50085587159E+02 -0.26284986819E+02 -0.39922667290E+03  0.41178495550E+03  0.83578984495E+02 0.  0.
         23    2    1    2    0    0 -0.37346102348E+02  0.15066022183E+03 -0.29287709670E+03  0.34380214064E+03  0.91267104322E+02 0.  0.
        -11    1    3    3    0    0 -0.61796027296E+02 -0.19785543373E+02 -0.39037549937E+03  0.39573128159E+03  0.00000000000E+00 0.  1.
         12    1    3    3    0    0  0.11710440137E+02 -0.64994434456E+01 -0.88511735251E+01  0.16053673912E+02  0.00000000000E+00 0. -1.
        -11    1    4    4    0    0  0.45027306237E+01  0.29837864766E+02 -0.14591107038E+03  0.14899870206E+03  0.00000000000E+00 0. -1.
         11    1    4    4    0    0 -0.41848832971E+02  0.12082235707E+03 -0.14696602633E+03  0.19480343858E+03  0.00000000000E+00 0.  1.
          1    1    1    2  501    0  0.87431689506E+02 -0.12437523501E+03 -0.62185174312E+03  0.64016645478E+03  0.00000000000E+00 0. -1.
<scales pt_clust_5="13000.00000" pt_clust_6="13000.00000" pt_clust_7="13000.00000" pt_clust_8="13000.00000" pt_clust_9="13000.00000"></scales>
<clustering>
<clus scale="   83.579">  5  6 -1 -1</clus>
<clus scale="   91.267">  7  8 -1 -1</clus>
<clus scale="  100.920">  2  5  1 -1</clus>
<clus scale="  151.828">  7  9 -1 -1</clus>
<clus scale="  362.582">  1  5  2 -1</clus>
</clustering>
</event>
<event>
 9    2  0.2147756E-005  0.2199690E+03  0.7546771E-02  0.1168314E+00
         21   -1    0    0  501  502  0.00000000000E+00  0.00000000000E+00  0.55837163539E+03  0.55837163539E+03  0.00000000000E+00 0.  1.
         -1   -1    0    0    0  501 -0.00000000000E+00 -0.00000000000E+00 -0.23227250247E+03  0.23227250247E+03  0.00000000000E+00 0.  1.
         24    2    1    2    0    0  0.51404949453E+02 -0.20743719059E+02  0.50051425815E+03  0.50991829789E+03  0.80183397266E+02 0.  0.
         23    2    1    2    0    0  0.22199101028E+01 -0.61078761991E+01 -0.19651620643E+03  0.21681111929E+03  0.91357582643E+02 0.  0.
        -13    1    3    3    0    0  0.69989619421E+02 -0.66135320576E+00  0.37112393900E+03  0.37766646967E+03  0.00000000000E+00 0.  1.
         14    1    3    3    0    0 -0.18584669968E+02 -0.20082365853E+02  0.12939031915E+03  0.13225182822E+03  0.00000000000E+00 0. -1.
        -13    1    4    4    0    0  0.63697874443E+01  0.40211011866E+02 -0.12536659126E+03  0.13181153922E+03  0.00000000000E+00 0.  1.
         13    1    4    4    0    0 -0.41498773415E+01 -0.46318888065E+02 -0.71149615169E+02  0.84999580071E+02  0.00000000000E+00 0. -1.
         -2    1    1    2    0  502 -0.53624859556E+02  0.26851595258E+02  0.22101081185E+02  0.63914720682E+02  0.00000000000E+00 0.  1.
<scales pt_clust_5="13000.00000" pt_clust_6="13000.00000" pt_clust_7="13000.00000" pt_clust_8="13000.00000" pt_clust_9="13000.00000"></scales>
<clustering>
<clus scale="   80.183">  5  6 -1 -1</clus>
<clus scale="   91.358">  7  8 -1 -1</clus>
<clus scale="   59.972">  7  9 -1 -1</clus>
<clus scale="   97.479">  2  5  1 -1</clus>
<clus scale="  219.969">  1  5  2 -1</clus>
</clustering>
</event>
<event>
 9    2  0.2147756E-005  0.4027741E+03  0.7546771E-02  0.1089542E+00
         21   -1    0    0  501  502  0.00000000000E+00  0.00000000000E+00  0.48003036086E+03  0.48003036086E+03  0.00000000000E+00 0. -1.
          2   -1    0    0  502    0 -0.00000000000E+00 -0.00000000000E+00 -0.15151905178E+03  0.15151905178E+03  0.00000000000E+00 0. -1.
         24    2    1    2    0    0  0.55626909648E+02  0.51150874571E+02 -0.18899569438E+01  0.11059650460E+03  0.80729485610E+02 0.  0.
         23    2    1    2    0    0 -0.78122764578E+02  0.15317563811E+03  0.12821031889E+03  0.23261878522E+03  0.90042606086E+02 0.  0.
        -11    1    3    3    0    0  0.30943370320E+02  0.25051176618E+02  0.39299972076E+02  0.55942304402E+02  0.00000000000E+00 0.  1.
         12    1    3    3    0    0  0.24683539328E+02  0.26099697952E+02 -0.41189929019E+02  0.54654200201E+02  0.00000000000E+00 0. -1.
        -11    1    4    4    0    0 -0.13915220535E+01  0.10161445545E+03  0.69076060609E+02  0.12287772800E+03  0.00000000000E+00 0.  1.
         11    1    4    4    0    0 -0.76731242524E+02  0.51561182667E+02  0.59134258277E+02  0.10974105722E+03  0.00000000000E+00 0. -1.
          1    1    1    2  501    0  0.22495854930E+02 -0.20432651268E+03  0.20219094714E+03  0.28833412281E+03  0.00000000000E+00 0. -1.
<scales pt_clust_5="13000.00000" pt_clust_6="13000.00000" pt_clust_7="13000.00000" pt_clust_8="13000.00000" pt_clust_9="13000.00000"></scales>
<clustering>
<clus scale="   80.729">  5  6 -1 -1</clus>
<clus scale="   90.043">  7  8 -1 -1</clus>
<clus scale="  110.580">  2  5  1 -1</clus>
<clus scale="  187.361">  7  9 -1 -1</clus>
<clus scale="  402.774">  1  5  2 -1</clus>
</clustering>
</event>
<event>
 9    2  0.2147756E-005  0.2585642E+03  0.7546771E-02  0.1138300E+00
          2   -1    0    0  502    0 -0.00000000000E+00  0.00000000000E+00  0.80422970562E+03  0.80422970562E+03  0.00000000000E+00 0. -1.
         21   -1    0    0  501  502  0.00000000000E+00 -0.00000000000E+00 -0.54205289604E+02  0.54205289604E+02  0.00000000000E+00 0.  1.
         24    2    1    2    0    0 -0.41128950966E+02  0.81599951437E+02  0.95593758213E+02  0.15477675269E+03  0.80420979123E+02 0.  0.
         23    2    1    2    0    0  0.74631407055E+02  0.45592539268E+02  0.36222862524E+03  0.38321733988E+03  0.89428329337E+02 0.  0.
        -11    1    3    3    0    0  0.13371996417E+02  0.35304755825E+02  0.31222834183E+01  0.37881192243E+02  0.00000000000E+00 0.  1.
         12    1    3    3    0    0 -0.54500947382E+02  0.46295195612E+02  0.92471474795E+02  0.11689556045E+03  0.00000000000E+00 0. -1.
        -11    1    4    4    0    0 -0.99513894651E+00  0.35425027743E+02  0.46880182974E+02  0.58767971274E+02  0.00000000000E+00 0.  1.
         11    1    4    4    0    0  0.75626546002E+02  0.10167511525E+02  0.31534844226E+03  0.32444936860E+03  0.00000000000E+00 0. -1.
          1    1    1    2  501    0 -0.33502456089E+02 -0.12719249070E+03  0.29220203257E+03  0.32044090266E+03  0.00000000000E+00 0. -1.
<scales pt_clust_5="13000.00000" pt_clust_6="13000.00000" pt_clust_7="13000.00000" pt_clust_8="13000.00000" pt_clust_9="13000.00000"></scales>
<clustering>
<clus scale="   80.421">  5  6 -1 -1</clus>
<clus scale="   89.428">  7  8 -1 -1</clus>
<clus scale="  121.728">  1  5  2 -1</clus>
<clus scale="  104.301">  7  9 -1 -1</clus>
<clus scale="  258.564">  2  5  1 -1</clus>
</clustering>
</event>
<event>
 9    2  0.2147756E-005  0.4794684E+03  0.7546771E-02  0.1034981E+00
         21   -1    0    0  501  502  0.00000000000E+00  0.00000000000E+00  0.90430280840E+02  0.90430280840E+02  0.00000000000E+00 0. -1.
          2   -1    0    0  502    0 -0.00000000000E+00 -0.00000000000E+00 -0.16802099275E+04  0.16802099275E+04  0.00000000000E+00 0. -1.
         24    2    1    2    0    0  0.14766997094E+03  0.24868057420E+03 -0.60577547988E+03  0.67603792751E+03  0.80093065285E+02 0.  0.
         23    2    1    2    0    0  0.71095856007E+02 -0.36083108384E+02 -0.77994296940E+02  0.13861585114E+03  0.82308154999E+02 0.  0.
        -13    1    3    3    0    0  0.88192219788E+02  0.75989344915E+02 -0.20879002184E+03  0.23905129448E+03  0.00000000000E+00 0.  1.
         14    1    3    3    0    0  0.59477751157E+02  0.17269122928E+03 -0.39698545804E+03  0.43698663303E+03  0.00000000000E+00 0. -1.
        -13    1    4    4    0    0  0.53155676785E+02 -0.61407756155E+02 -0.43204794009E+02  0.91995068976E+02  0.00000000000E+00 0. -1.
         13    1    4    4    0    0  0.17940179222E+02  0.25324647771E+02 -0.34789502930E+02  0.46620782161E+02  0.00000000000E+00 0.  1.
          1    1    1    2  501    0 -0.21876582695E+03 -0.21259746581E+03 -0.90600986987E+03  0.95598642972E+03  0.00000000000E+00 0. -1.
<scales pt_clust_5="13000.00000" pt_clust_6="13000.00000" pt_clust_7="13000.00000" pt_clust_8="13000.00000" pt_clust_9="13000.00000"></scales>
<clustering>
<clus scale="   80.093">  5  6 -1 -1</clus>
<clus scale="   82.308">  7  8 -1 -1</clus>
<clus scale="  300.106">  2  5  1 -1</clus>
<clus scale="   87.080">  7  9 -1 -1</clus>
<clus scale="  479.468">  1  5  2 -1</clus>
</clustering>
</event>
<event>
 9    2  0.2147756E-005  0.2176489E+03  0.7546771E-02  0.1143272E+00
          2   -1    0    0  502    0 -0.00000000000E+00  0.00000000000E+00  0.11895607410E+03  0.11895607410E+03  0.00000000000E+00 0. -1.
         21   -1    0    0  501  502  0.00000000000E+00 -0.00000000000E+00 -0.36070726709E+03  0.36070726709E+03  0.00000000000E+00 0. -1.
         24    2    1    2    0    0 -0.16164170957E+03  0.12319191844E+02 -0.45697231842E+02  0.18673296027E+03  0.80629750675E+02 0.  0.
         23    2    1    2    0    0  0.59680348057E+02 -0.74947267118E+01 -0.50602185454E+02  0.11523509748E+03  0.84265245780E+02 0.  0.
        -11    1    3    3    0    0 -0.39778216877E+02  0.39316311004E+02 -0.19202538073E+02  0.59133884680E+02  0.00000000000E+00 0.  1.
         12    1    3    3    0    0 -0.12186349269E+03 -0.26997119161E+02 -0.26494693770E+02  0.12759907559E+03  0.00000000000E+00 0. -1.
        -11    1    4    4    0    0  0.58529372162E+01  0.34080374619E+02 -0.98832479751E+01  0.35963973623E+02  0.00000000000E+00 0. -1.
         11    1    4    4    0    0  0.53827410841E+02 -0.41575101331E+02 -0.40718937479E+02  0.79271123859E+02  0.00000000000E+00 0.  1.
          1    1    1    2  501    0  0.10196136151E+03 -0.48244651318E+01 -0.14545177569E+03  0.17769528344E+03  0.00000000000E+00 0. -1.
<scales pt_clust_5="13000.00000" pt_clust_6="13000.00000" pt_clust_7="13000.00000" pt_clust_8="13000.00000" pt_clust_9="13000.00000"></scales>
<clustering>
<clus scale="   80.630">  5  6 -1 -1</clus>
<clus scale="   84.265">  7  8 -1 -1</clus>
<clus scale="  102.075">  7  9 -1 -1</clus>
<clus scale="  181.055">  1  5  2 -1</clus>
<clus scale="  217.649">  2  5  1 -1</clus>
</clustering>
</event>
<event>
 9    2  0.2147756E-005  0.1813537E+03  0.7546771E-02  0.1182449E+00
         21   -1    0    0  501  502  0.00000000000E+00  0.00000000000E+00  0.55230558623E+02  0.55230558623E+02  0.00000000000E+00 0. -1.
         -1   -1    0    0    0  501 -0.00000000000E+00 -0.00000000000E+00 -0.50350796874E+03  0.50350796874E+03  0.00000000000E+00 0.  1.
         24    2    1    2    0    0  0.85378847691E+02 -0.44216835111E+02 -0.29644258732E+03  0.32221586454E+03  0.81854625065E+02 0.  0.
         23    2    1    2    0    0 -0.64646586520E+02  0.61423999823E+02 -0.16358842557E+03  0.20712775937E+03  0.90491142213E+02 0.  0.
        -11    1    3    3    0    0  0.51676468995E+02 -0.37116620840E+02 -0.27356886389E+03  0.28087011995E+03  0.00000000000E+00 0.  1.
         12    1    3    3    0    0  0.33702378696E+02 -0.71002142704E+01 -0.22873723436E+02  0.41345744597E+02  0.00000000000E+00 0. -1.
        -11    1    4    4    0    0 -0.74232413290E+01  0.64225122859E+02 -0.57338590580E+02  0.86415767587E+02  0.00000000000E+00 0.  1.
         11    1    4    4    0    0 -0.57223345191E+02 -0.28011230360E+01 -0.10624983499E+03  0.12071199179E+03  0.00000000000E+00 0. -1.
         -2    1    1    2    0  502 -0.20732261171E+02 -0.17207164712E+02  0.11753602774E+02  0.29394903450E+02  0.00000000000E+00 0.  1.
<scales pt_clust_5="13000.00000" pt_clust_6="13000.00000" pt_clust_7="13000.00000" pt_clust_8="13000.00000" pt_clust_9="13000.00000"></scales>
<clustering>
<clus scale="   81.855">  5  6 -1 -1</clus>
<clus scale="   90.491">  7  8 -1 -1</clus>
<clus scale="   26.943">  7  9 -1 -1</clus>
<clus scale="  126.273">  2  5  1 -1</clus>
<clus scale="  181.354">  1  5  2 -1</clus>
</clustering>
</event>
<event>
 9    2  0.2147756E-005  0.2178757E+03  0.7546771E-02  0.1165173E+00
          2   -1    0    0  502    0 -0.00000000000E+00  0.00000000000E+00  0.19346236801E+03  0.19346236801E+03  0.00000000000E+00 0. -1.
         21   -1    0    0  501  502  0.00000000000E+00 -0.00000000000E+00 -0.20518154867E+03  0.20518154867E+03  0.00000000000E+00 0. -1.
         24    2    1    2    0    0  0.15670530348E+01 -0.69928432555E+02  0.10582289972E+03  0.15108391763E+03  0.82069621217E+02 0.  0.
         23    2    1    2    0    0 -0.77612187261E+02  0.30781791997E+02 -0.94038056801E+02  0.15885959865E+03  0.97067222202E+02 0.  0.
        -13    1    3    3    0    0  0.32278074774E+02 -0.56460567694E+02  0.37746505524E+02  0.75196200002E+02  0.00000000000E+00 0.  1.
         14    1    3    3    0    0 -0.30711021739E+02 -0.13467864862E+02  0.68076394199E+02  0.75887717632E+02  0.00000000000E+00 0. -1.
        -11    1    4    4    0    0 -0.24989665050E+02 -0.28279121505E+02 -0.24178091436E+01  0.37815841568E+02  0.00000000000E+00 0.  1.
         11    1    4    4    0    0 -0.52622522211E+02  0.59060913502E+02 -0.91620247657E+02  0.12104375708E+03  0.00000000000E+00 0. -1.
          1    1    1    2  501    0  0.76045134227E+02  0.39146640559E+02 -0.23504023585E+02  0.88700400401E+02  0.00000000000E+00 0. -1.
<scales pt_clust_5="13000.00000" pt_clust_6="13000.00000" pt_clust_7="13000.00000" pt_clust_8="13000.00000" pt_clust_9="13000.00000"></scales>
<clustering>
<clus scale="   82.070">  5  6 -1 -1</clus>
<clus scale="   97.067">  7  8 -1 -1</clus>
<clus scale="   85.530">  7  9 -1 -1</clus>
<clus scale="  107.833">  1  5  2 -1</clus>
<clus scale="  217.876">  2  5  1 -1</clus>
</clustering>
</event>
<event>
 9    2  0.2147756E-005  0.5077298E+03  0.7546771E-02  0.1052263E+00
          2   -1    0    0  502    0 -0.00000000000E+00  0.00000000000E+00  0.18085888795E+04  0.18085888795E+04  0.00000000000E+00 0. -1.
         21   -1    0    0  501  502  0.00000000000E+00 -0.00000000000E+00 -0.61570949834E+02  0.61570949834E+02  0.00000000000E+00 0. -1.
         24    2    1    2    0    0 -0.12929592601E+03 -0.20729780241E+02  0.52252930364E+03  0.54457998523E+03  0.79895725019E+02 0.  0.
         23    2    1    2    0    0 -0.14267988841E+03 -0.93090104652E-01  0.14313940744E+03  0.21035763841E+03  0.58342838892E+02 0.  0.
        -13    1    3    3    0    0 -0.12351289713E+03 -0.42466424102E+02  0.45701408478E+03  0.47531116821E+03  0.00000000000E+00 0.  1.
         14    1    3    3    0    0 -0.57830288787E+01  0.21736643861E+02  0.65515218860E+02  0.69268817022E+02  0.00000000000E+00 0. -1.
        -11    1    4    4    0    0 -0.57717573767E+02 -0.21794434884E+02  0.85443285040E+02  0.10538913925E+03  0.00000000000E+00 0. -1.
         11    1    4    4    0    0 -0.84962314641E+02  0.21701344779E+02  0.57696122404E+02  0.10496849915E+03  0.00000000000E+00 0.  1.
          1    1    1    2  501    0  0.27197581442E+03  0.20822870346E+02  0.10813492186E+04  0.11152222057E+04  0.00000000000E+00 0. -1.
<scales pt_clust_5="13000.00000" pt_clust_6="13000.00000" pt_clust_7="13000.00000" pt_clust_8="13000.00000" pt_clust_9="13000.00000"></scales>
<clustering>
<clus scale="   58.343">  7  8 -1 -1</clus>
<clus scale="   79.896">  5  6 -1 -1</clus>
<clus scale="  153.397">  1  5  2 -1</clus>
<clus scale="  160.631">  7  9 -1 -1</clus>
<clus scale="  507.730">  2  5  1 -1</clus>
</clustering>
</event>
<event>
 9    2  0.2147756E-005  0.3431184E+03  0.7546771E-02  0.1093303E+00
          2   -1    0    0  502    0 -0.00000000000E+00  0.00000000000E+00  0.11463719291E+04  0.11463719291E+04  0.00000000000E+00 0. -1.
         21   -1    0    0  501  502  0.00000000000E+00 -0.00000000000E+00 -0.57223088376E+02  0.57223088376E+02  0.00000000000E+00 0.  1.
         24    2    1    2    0    0 -0.14041351429E+03  0.17251578924E+02  0.26098753641E+03  0.30716800802E+03  0.78893086005E+02 0.  0.
         23    2    1    2    0    0 -0.40898454637E+02  0.88017113116E+02  0.34698883962E+03  0.37156277140E+03  0.90763111891E+02 0.  0.
        -11    1    3    3    0    0 -0.14785497857E+03  0.72685400227E+01  0.25010547921E+03  0.29063151428E+03  0.00000000000E+00 0.  1.
         12    1    3    3    0    0  0.74414642796E+01  0.99830389017E+01  0.10882057202E+02  0.16536493742E+02  0.00000000000E+00 0. -1.
        -13    1    4    4    0    0 -0.28285173954E+02  0.10424437532E+03  0.31933295788E+03  0.33710603501E+03  0.00000000000E+00 0.  1.
         13    1    4    4    0    0 -0.12613280683E+02 -0.16227262202E+02  0.27655881734E+02  0.34456736390E+02  0.00000000000E+00 0. -1.
          1    1    1    2  501    0  0.18131196893E+03 -0.10526869204E+03  0.48117246467E+03  0.52486423802E+03  0.00000000000E+00 0. -1.
<scales pt_clust_5="13000.00000" pt_clust_6="13000.00000" pt_clust_7="13000.00000" pt_clust_8="13000.00000" pt_clust_9="13000.00000"></scales>
<clustering>
<clus scale="   78.893">  5  6 -1 -1</clus>
<clus scale="   90.763">  7  8 -1 -1</clus>
<clus scale="  161.981">  1  5  2 -1</clus>
<clus scale="  137.640">  7  9 -1 -1</clus>
<clus scale="  343.118">  2  5  1 -1</clus>
</clustering>
</event>
<event>
 9    2  0.2147756E-005  0.4244847E+03  0.7546771E-02  0.1052088E+00
         21   -1    0    0  501  502  0.00000000000E+00  0.00000000000E+00  0.70167508602E+02  0.70167508602E+02  0.00000000000E+00 0. -1.
          2   -1    0    0  502    0 -0.00000000000E+00 -0.00000000000E+00 -0.17016933087E+04  0.17016933087E+04  0.00000000000E+00 0. -1.
         24    2    1    2    0    0  0.24867488468E+03 -0.37215287822E+02 -0.70436470617E+03  0.75214763383E+03  0.79826360670E+02 0.  0.
         23    2    1    2    0    0  0.77892441721E+01 -0.15406775215E+02 -0.51502415312E+02  0.10575418421E+03  0.90738126755E+02 0.  0.
        -13    1    3    3    0    0  0.56010199830E+02 -0.15273224249E+02 -0.83445600128E+02  0.10165422787E+03  0.00000000000E+00 0.  1.
         14    1    3    3    0    0  0.19266468485E+03 -0.21942063573E+02 -0.62091910604E+03  0.65049340595E+03  0.00000000000E+00 0. -1.
        -13    1    4    4    0    0 -0.30379321101E+02 -0.30055367358E+02 -0.37605410387E+01  0.42899532940E+02  0.00000000000E+00 0. -1.
         13    1    4    4    0    0  0.38168565273E+02  0.14648592143E+02 -0.47741874274E+02  0.62854651267E+02  0.00000000000E+00 0.  1.
          1    1    1    2  501    0 -0.25646412885E+03  0.52622063037E+02 -0.87565867859E+03  0.91395899924E+03  0.00000000000E+00 0. -1.
<scales pt_clust_5="13000.00000" pt_clust_6="13000.00000" pt_clust_7="13000.00000" pt_clust_8="13000.00000" pt_clust_9="13000.00000"></scales>
<clustering>
<clus scale="   79.826">  5  6 -1 -1</clus>
<clus scale="   90.738">  7  8 -1 -1</clus>
<clus scale="  261.807">  7  9 -1 -1</clus>
<clus scale="  263.811">  2  5  1 -1</clus>
<clus scale="  424.485">  1  5  2 -1</clus>
</clustering>
</event>
<event>
 9    2  0.2147756E-005  0.2450078E+03  0.7546771E-02  0.1147746E+00
         21   -1    0    0  501  502  0.00000000000E+00  0.00000000000E+00  0.16065853374E+03  0.16065853374E+03  0.00000000000E+00 0. -1.
          2   -1    0    0  502    0 -0.00000000000E+00 -0.00000000000E+00 -0.23388820216E+03  0.23388820216E+03  0.00000000000E+00 0. -1.
         24    2    1    2    0    0 -0.70705037026E+02 -0.48713490950E+02 -0.95181631419E+02  0.14855747549E+03  0.75083780553E+02 0.  0.
         23    2    1    2    0    0  0.52092959702E+02 -0.68715759860E+02  0.18428454364E+02  0.12704198856E+03  0.91457787109E+02 0.  0.
        -11    1    3    3    0    0 -0.32690675141E+02  0.17966073962E+02 -0.31686012434E+02  0.48943471870E+02  0.00000000000E+00 0.  1.
         12    1    3    3    0    0 -0.38014361885E+02 -0.66679564911E+02 -0.63495618985E+02  0.99614003617E+02  0.00000000000E+00 0. -1.
        -13    1    4    4    0    0  0.72285463212E+02 -0.49918900053E+02 -0.87924696843E+01  0.88285855591E+02  0.00000000000E+00 0.  1.
         13    1    4    4    0    0 -0.20192503509E+02 -0.18796859807E+02  0.27220924048E+02  0.38756132968E+02  0.00000000000E+00 0. -1.
          1    1    1    2  501    0  0.18612077324E+02  0.11742925081E+03  0.35235086387E+01  0.11894727185E+03  0.00000000000E+00 0. -1.
<scales pt_clust_5="13000.00000" pt_clust_6="13000.00000" pt_clust_7="13000.00000" pt_clust_8="13000.00000" pt_clust_9="13000.00000"></scales>
<clustering>
<clus scale="   75.084">  5  6 -1 -1</clus>
<clus scale="   91.458">  7  8 -1 -1</clus>
<clus scale="  114.060">  2  5  1 -1</clus>
<clus scale="   94.035">  7  9 -1 -1</clus>
<clus scale="  245.008">  1  5  2 -1</clus>
</clustering>
</event>
<event>
 9    2  0.2147756E-005  0.2778669E+03  0.7546771E-02  0.1117324E+00
         21   -1    0    0  501  502  0.00000000000E+00  0.00000000000E+00  0.20885272014E+03  0.20885272014E+03  0.00000000000E+00 0. -1.
          2   -1    0    0  502    0 -0.00000000000E+00 -0.00000000000E+00 -0.23784422870E+03  0.23784422870E+03  0.00000000000E+00 0. -1.
         24    2    1    2    0    0 -0.80854661266E+02 -0.11872624641E+03 -0.37339961806E+02  0.16870465340E+03  0.80209659610E+02 0.  0.
         23    2    1    2    0    0  0.16831760758E+01 -0.40677677618E+02  0.23839182628E+01  0.99909980934E+02  0.91207536344E+02 0.  0.
        -11    1    3    3    0    0 -0.42166459139E+02 -0.34831005404E+02  0.21947451926E+02  0.58931314765E+02  0.00000000000E+00 0.  1.
         12    1    3    3    0    0 -0.38688202127E+02 -0.83895241007E+02 -0.59287413732E+02  0.10977333863E+03  0.00000000000E+00 0. -1.
        -11    1    4    4    0    0 -0.35460944659E+02 -0.40578416332E+01 -0.22422812040E+02  0.42151241673E+02  0.00000000000E+00 0.  1.
         11    1    4    4    0    0  0.37144120735E+02 -0.36619835985E+02  0.24806730303E+02  0.57758739261E+02  0.00000000000E+00 0. -1.
          1    1    1    2  501    0  0.79171485190E+02  0.15940392403E+03  0.59645349811E+01  0.17808231451E+03  0.00000000000E+00 0. -1.
<scales pt_clust_5="13000.00000" pt_clust_6="13000.00000" pt_clust_7="13000.00000" pt_clust_8="13000.00000" pt_clust_9="13000.00000"></scales>
<clustering>
<clus scale="   80.210">  5  6 -1 -1</clus>
<clus scale="   91.208">  7  8 -1 -1</clus>
<clus scale="  164.520">  2  5  1 -1</clus>
<clus scale="   88.044">  7  9 -1 -1</clus>
<clus scale="  277.867">  1  5  2 -1</clus>
</clustering>
</event>
<event>
 9    2  0.2147756E-005  0.4066652E+03  0.7546771E-02  0.1092288E+00
         21   -1    0    0  501  502  0.00000000000E+00  0.00000000000E+00  0.27578988811E+03  0.27578988811E+03  0.00000000000E+00 0.  1.
          2   -1    0    0  502    0 -0.00000000000E+00 -0.00000000000E+00 -0.23537279660E+03  0.23537279660E+03  0.00000000000E+00 0. -1.
         24    2    1    2    0    0  0.54317831891E+02  0.23681414266E+02 -0.13894229772E+02  0.10088677469E+03  0.80460272456E+02 0.  0.
         23    2    1    2    0    0  0.20125712411E+02  0.15437990447E+03  0.11008274227E+03  0.20938259028E+03  0.86513928157E+02 0.  0.
        -11    1    3    3    0    0  0.36783173209E+02 -0.27338811055E+02 -0.90990670713E+01  0.46724784032E+02  0.00000000000E+00 0.  1.
         12    1    3    3    0    0  0.17534658682E+02  0.51020225321E+02 -0.47951627010E+01  0.54161990660E+02  0.00000000000E+00 0. -1.
        -11    1    4    4    0    0  0.51782670684E+02  0.12048467074E+03  0.73669682916E+02  0.15041683100E+03  0.00000000000E+00 0. -1.
         11    1    4    4    0    0 -0.31656958274E+02  0.33895233723E+02  0.36413059355E+02  0.58965759283E+02  0.00000000000E+00 0.  1.
          1    1    1    2  501    0 -0.74443544302E+02 -0.17806131873E+03 -0.55771420985E+02  0.20089331974E+03  0.00000000000E+00 0. -1.
<scales pt_clust_5="13000.00000" pt_clust_6="13000.00000" pt_clust_7="13000.00000" pt_clust_8="13000.00000" pt_clust_9="13000.00000"></scales>
<clustering>
<clus scale="   80.460">  5  6 -1 -1</clus>
<clus scale="   86.514">  7  8 -1 -1</clus>
<clus scale="   99.925">  2  5  1 -1</clus>
<clus scale="  164.806">  7  9 -1 -1</clus>
<clus scale="  406.665">  1  5  2 -1</clus>
</clustering>
</event>
<event>
 9    2  0.2147756E-005  0.3414636E+03  0.7546771E-02  0.1101654E+00
         21   -1    0    0  501  502  0.00000000000E+00  0.00000000000E+00  0.37034731585E+02  0.37034731585E+02  0.00000000000E+00 0. -1.
          2   -1    0    0  502    0 -0.00000000000E+00 -0.00000000000E+00 -0.15248529790E+04  0.15248529790E+04  0.00000000000E+00 0. -1.
         24    2    1    2    0    0  0.34039573301E+02 -0.99474278081E+02 -0.47535056646E+03  0.49338961860E+03  0.80133202592E+02 0.  0.
         23    2    1    2    0    0  0.24754285137E+02 -0.15210670242E+02 -0.73433851342E+02  0.12066166711E+03  0.91228111156E+02 0.  0.
        -11    1    3    3    0    0  0.38180926910E+02 -0.11151874005E+02 -0.20885009236E+03  0.21260411227E+03  0.00000000000E+00 0.  1.
         12    1    3    3    0    0 -0.41413536097E+01 -0.88322404076E+02 -0.26650047410E+03  0.28078550633E+03  0.00000000000E+00 0. -1.
        -13    1    4    4    0    0 -0.34163288543E+02 -0.77619539657E+01 -0.17842873567E+02  0.39315980855E+02  0.00000000000E+00 0.  1.
         13    1    4    4    0    0  0.58917573679E+02 -0.74487162761E+01 -0.55590977774E+02  0.81345686255E+02  0.00000000000E+00 0. -1.
          1    1    1    2  501    0 -0.58793858437E+02  0.11468494832E+03 -0.93903382957E+03  0.94783642483E+03  0.00000000000E+00 0. -1.
<scales pt_clust_5="13000.00000" pt_clust_6="13000.00000" pt_clust_7="13000.00000" pt_clust_8="13000.00000" pt_clust_9="13000.00000"></scales>
<clustering>
<clus scale="   80.133">  5  6 -1 -1</clus>
<clus scale="   91.228">  7  8 -1 -1</clus>
<clus scale="  128.877">  7  9 -1 -1</clus>
<clus scale="  132.194">  2  5  1 -1</clus>
<clus scale="  341.464">  1  5  2 -1</clus>
</clustering>
</event>
<event>
 9    2  0.2147756E-005  0.3236029E+03  0.7546771E-02  0.1100667E+00
          2   -1    0    0  502    0 -0.00000000000E+00  0.00000000000E+00  0.40945529227E+03  0.40945529227E+03  0.00000000000E+00 0. -1.
         21   -1    0    0  501  502  0.00000000000E+00 -0.00000000000E+00 -0.23030976616E+03  0.23030976616E+03  0.00000000000E+00 0. -1.
         24    2    1    2    0    0 -0.35955738688E+02 -0.13320973814E+03  0.26116288500E+03  0.30593028650E+03  0.79684617195E+02 0.  0.
         23    2    1    2    0    0 -0.64392427505E+02 -0.18408360304E+02  0.34845030373E+02  0.11769911949E+03  0.90297586559E+02 0.  0.
        -13    1    3    3    0    0 -0.56686299874E+01 -0.74574352581E+02  0.65429588044E+02  0.99370510818E+02  0.00000000000E+00 0.  1.
         14    1    3    3    0    0 -0.30287108700E+02 -0.58635385561E+02  0.19573329695E+03  0.20655977568E+03  0.00000000000E+00 0. -1.
        -11    1    4    4    0    0 -0.31653020175E+02  0.21415620201E+02  0.50948079908E+02  0.63688690685E+02  0.00000000000E+00 0.  1.
         11    1    4    4    0    0 -0.32739407330E+02 -0.39823980505E+02 -0.16103049535E+02  0.54010428807E+02  0.00000000000E+00 0. -1.
          1    1    1    2  501    0  0.10034816619E+03  0.15161809845E+03 -0.11686238925E+03  0.21613565244E+03  0.00000000000E+00 0. -1.
<scales pt_clust_5="13000.00000" pt_clust_6="13000.00000" pt_clust_7="13000.00000" pt_clust_8="13000.00000" pt_clust_9="13000.00000"></scales>
<clustering>
<clus scale="   79.685">  5  6 -1 -1</clus>
<clus scale="   90.298">  7  8 -1 -1</clus>
<clus scale="  159.334">  1  5  2 -1</clus>
<clus scale="  131.329">  7  9 -1 -1</clus>
<clus scale="  323.603">  2  5  1 -1</clus>
</clustering>
</event>
<event>
 9    2  0.2147756E-005  0.1566011E+03  0.7546771E-02  0.1213777E+00
         21   -1    0    0  501  502  0.00000000000E+00  0.00000000000E+00  0.90683898671E+02  0.90683898671E+02  0.00000000000E+00 0. -1.
          2   -1    0    0  502    0 -0.00000000000E+00 -0.00000000000E+00 -0.12953697724E+04  0.12953697724E+04  0.00000000000E+00 0. -1.
         24    2    1    2    0    0  0.30297352194E+02  0.49105568316E+02 -0.12242342128E+04  0.12282372091E+04  0.80547797526E+02 0.  0.
         23    2    1    2    0    0 -0.47226801110E+02 -0.72875371867E+02  0.21771723838E+02  0.12854953108E+03  0.92248487322E+02 0.  0.
        -11    1    3    3    0    0  0.27944478300E+02  0.34407020771E+01 -0.12845797360E+03  0.13150735066E+03  0.00000000000E+00 0.  1.
         12    1    3    3    0    0  0.23528738939E+01  0.45664866238E+02 -0.10957762392E+04  0.10967298585E+04  0.00000000000E+00 0. -1.
        -11    1    4    4    0    0 -0.69963671344E+02 -0.28801714061E+02  0.22554912895E+02  0.78950479013E+02  0.00000000000E+00 0. -1.
         11    1    4    4    0    0  0.22736870234E+02 -0.44073657806E+02 -0.78318905634E+00  0.49599052063E+02  0.00000000000E+00 0.  1.
          1    1    1    2  501    0  0.16929448916E+02  0.23769803551E+02 -0.22233847394E+01  0.29266930847E+02  0.00000000000E+00 0. -1.
<scales pt_clust_5="13000.00000" pt_clust_6="13000.00000" pt_clust_7="13000.00000" pt_clust_8="13000.00000" pt_clust_9="13000.00000"></scales>
<clustering>
<clus scale="   80.548">  5  6 -1 -1</clus>
<clus scale="   92.248">  7  8 -1 -1</clus>
<clus scale="   29.182">  7  9 -1 -1</clus>
<clus scale="   99.082">  2  5  1 -1</clus>
<clus scale="  156.601">  1  5  2 -1</clus>
</clustering>
</event>
<event>
 9    2  0.2147756E-005  0.2564541E+03  0.7546771E-02  0.1125487E+00
          2   -1    0    0  502    0 -0.00000000000E+00  0.00000000000E+00  0.17129767829E+04  0.17129767829E+04  0.00000000000E+00 0. -1.
         21   -1    0    0  501  502  0.00000000000E+00 -0.00000000000E+00 -0.28565865807E+02  0.28565865807E+02  0.00000000000E+00 0. -1.
         24    2    1    2    0    0  0.30854141402E+02  0.14701125120E+03  0.46225496609E+03  0.49276969896E+03  0.81105095488E+02 0.  0.
         23    2    1    2    0    0  0.12465644226E+02 -0.21882776655E+00  0.31181539129E+03  0.32565618895E+03  0.93100349012E+02 0.  0.
        -11    1    3    3    0    0  0.45563404784E+02  0.34301965985E+02  0.15146309655E+03  0.16184473530E+03  0.00000000000E+00 0.  1.
         12    1    3    3    0    0 -0.14709263383E+02  0.11270928521E+03  0.31079186954E+03  0.33092496366E+03  0.00000000000E+00 0. -1.
        -13    1    4    4    0    0 -0.36566535003E+02 -0.67114219792E+01  0.19947367187E+03  0.20290860119E+03  0.00000000000E+00 0.  1.
         13    1    4    4    0    0  0.49032179229E+02  0.64925942127E+01  0.11234171942E+03  0.12274758776E+03  0.00000000000E+00 0. -1.
          1    1    1    2  501    0 -0.43319785627E+02 -0.14679242343E+03  0.91034055968E+03  0.92311676077E+03  0.00000000000E+00 0. -1.
<scales pt_clust_5="13000.00000" pt_clust_6="13000.00000" pt_clust_7="13000.00000" pt_clust_8="13000.00000" pt_clust_9="13000.00000"></scales>
<clustering>
<clus scale="   81.105">  5  6 -1 -1</clus>
<clus scale="   93.100">  7  8 -1 -1</clus>
<clus scale="  153.051">  7  9 -1 -1</clus>
<clus scale="  170.711">  1  5  2 -1</clus>
<clus scale="  256.454">  2  5  1 -1</clus>
</clustering>
</event>
<event>
 9    2  0.2147756E-005  0.6462047E+03  0.7546771E-02  0.1002314E+00
         -3   -1    0    0    0  501 -0.00000000000E+00  0.00000000000E+00  0.35154079062E+03  0.35154079062E+03  0.00000000000E+00 0.  1.
         21   -1    0    0  501  502  0.00000000000E+00 -0.00000000000E+00 -0.73699253410E+03  0.73699253410E+03  0.00000000000E+00 0.  1.
         24    2    1    2    0    0 -0.15947997513E+03  0.27776982409E+03 -0.28129130261E+03  0.43398778058E+03  0.81428859291E+02 0.  0.
         23    2    1    2    0    0 -0.18390888614E+03 -0.15156684491E+02  0.14188978111E+02  0.20634005989E+03  0.91228776859E+02 0.  0.
        -13    1    3    3    0    0 -0.11719557144E+03  0.24054710537E+03 -0.19563728383E+03  0.33146894076E+03  0.00000000000E+00 0.  1.
         14    1    3    3    0    0 -0.42284403683E+02  0.37222718728E+02 -0.85654018782E+02  0.10251883982E+03  0.00000000000E+00 0. -1.
        -13    1    4    4    0    0 -0.15064918029E+03  0.15443313039E+02  0.36739772608E+02  0.15583158322E+03  0.00000000000E+00 0.  1.
         13    1    4    4    0    0 -0.33259705859E+02 -0.30599997530E+02 -0.22550794497E+02  0.50508476666E+02  0.00000000000E+00 0. -1.
         -4    1    1    2    0  502  0.34338886127E+03 -0.26261313960E+03 -0.11834941898E+03  0.44820548425E+03  0.00000000000E+00 0.  1.
<scales pt_clust_5="13000.00000" pt_clust_6="13000.00000" pt_clust_7="13000.00000" pt_clust_8="13000.00000" pt_clust_9="13000.00000"></scales>
<clustering>
<clus scale="   81.429">  5  6 -1 -1</clus>
<clus scale="   91.229">  7  8 -1 -1</clus>
<clus scale="  330.486">  1  5  2 -1</clus>
<clus scale="  265.806">  7  9 -1 -1</clus>
<clus scale="  646.205">  2  5  1 -1</clus>
</clustering>
</event>
<event>
 9    2  0.2147756E-005  0.5802662E+03  0.7546771E-02  0.1012647E+00
          2   -1    0    0  502    0 -0.00000000000E+00  0.00000000000E+00  0.43106472528E+03  0.43106472528E+03  0.00000000000E+00 0. -1.
         21   -1    0    0  501  502  0.00000000000E+00 -0.00000000000E+00 -0.49425942397E+03  0.49425942397E+03  0.00000000000E+00 0. -1.
         24    2    1    2    0    0  0.26421549994E+03 -0.18167318290E+03 -0.93905938316E+02  0.34424583320E+03  0.82896879521E+02 0.  0.
         23    2    1    2    0    0 -0.29212278516E+03 -0.45206360359E+02  0.12489823186E+03  0.33384495822E+03  0.92051893953E+02 0.  0.
        -13    1    3    3    0    0  0.14829461523E+03 -0.57767671787E+02 -0.65990625545E+02  0.17228801313E+03  0.00000000000E+00 0.  1.
         14    1    3    3    0    0  0.11592088471E+03 -0.12390551112E+03 -0.27915312771E+02  0.17195782007E+03  0.00000000000E+00 0. -1.
        -11    1    4    4    0    0 -0.19929537088E+03 -0.72442583128E+02  0.96828192932E+02  0.23311428881E+03  0.00000000000E+00 0.  1.
         11    1    4    4    0    0 -0.92827414286E+02  0.27236222769E+02  0.28070038924E+02  0.10073066941E+03  0.00000000000E+00 0. -1.
          1    1    1    2  501    0  0.27907285225E+02  0.22687954326E+03 -0.94186992231E+02  0.24723335783E+03  0.00000000000E+00 0. -1.
<scales pt_clust_5="13000.00000" pt_clust_6="13000.00000" pt_clust_7="13000.00000" pt_clust_8="13000.00000" pt_clust_9="13000.00000"></scales>
<clustering>
<clus scale="   82.897">  5  6 -1 -1</clus>
<clus scale="   92.052">  7  8 -1 -1</clus>
<clus scale="  228.590">  7  9 -1 -1</clus>
<clus scale="  331.190">  1  5  2 -1</clus>
<clus scale="  580.266">  2  5  1 -1</clus>
</clustering>
</event>
<event>
 9    2  0.2147756E-005  0.2390102E+03  0.7546771E-02  0.1153941E+00
         -3   -1    0    0    0  501 -0.00000000000E+00  0.00000000000E+00  0.26183089688E+03  0.26183089688E+03  0.00000000000E+00 0.  1.
         21   -1    0    0  501  502  0.00000000000E+00 -0.00000000000E+00 -0.11782153830E+03  0.11782153830E+03  0.00000000000E+00 0.  1.
         24    2    1    2    0    0 -0.63476749509E+02  0.35315706214E+02  0.77991748018E+02  0.13169235620E+03  0.77354166583E+02 0.  0.
         23    2    1    2    0    0  0.17069792676E+02  0.73186010298E+02  0.51901428591E+02  0.12910935445E+03  0.91257313082E+02 0.  0.
        -11    1    3    3    0    0  0.76990544509E+01  0.21543704790E+02  0.48122984290E+02  0.53284409281E+02  0.00000000000E+00 0.  1.
         12    1    3    3    0    0 -0.71175803960E+02  0.13772001424E+02  0.29868763728E+02  0.78407946914E+02  0.00000000000E+00 0. -1.
        -11    1    4    4    0    0  0.60910080896E+01  0.93065870634E+02  0.31102909520E+02  0.98314534210E+02  0.00000000000E+00 0.  1.
         11    1    4    4    0    0  0.10978784586E+02 -0.19879860336E+02  0.20798519071E+02  0.30794820238E+02  0.00000000000E+00 0. -1.
         -4    1    1    2    0  502  0.46406956834E+02 -0.10850171651E+03  0.14116181976E+02  0.11885072453E+03  0.00000000000E+00 0.  1.
<scales pt_clust_5="13000.00000" pt_clust_6="13000.00000" pt_clust_7="13000.00000" pt_clust_8="13000.00000" pt_clust_9="13000.00000"></scales>
<clustering>
<clus scale="   77.354">  5  6 -1 -1</clus>
<clus scale="   91.257">  7  8 -1 -1</clus>
<clus scale="  106.114">  1  5  2 -1</clus>
<clus scale="   95.562">  7  9 -1 -1</clus>
<clus scale="  239.010">  2  5  1 -1</clus>
</clustering>
</event>
<event>
 9    2  0.2147756E-005  0.2097000E+03  0.7546771E-02  0.1153032E+00
         -1   -1    0    0    0  501 -0.00000000000E+00  0.00000000000E+00  0.22260087439E+03  0.22260087439E+03  0.00000000000E+00 0.  1.
         21   -1    0    0  501  502  0.00000000000E+00 -0.00000000000E+00 -0.15393662445E+03  0.15393662445E+03  0.00000000000E+00 0.  1.
         24    2    1    2    0    0  0.10794723497E+03 -0.88767910602E+02  0.28729746676E+02  0.16306891423E+03  0.78953941976E+02 0.  0.
         23    2    1    2    0    0 -0.66165091471E+02  0.12400447114E+02 -0.70092135556E+01  0.11456737358E+03  0.92438972278E+02 0.  0.
        -13    1    3    3    0    0  0.70787859901E+02 -0.98517787391E+02  0.28659462474E+02  0.12465167601E+03  0.00000000000E+00 0.  1.
         14    1    3    3    0    0  0.37159375066E+02  0.97498767889E+01  0.70284201262E-01  0.38417238221E+02  0.00000000000E+00 0. -1.
        -13    1    4    4    0    0 -0.79155353301E+02 -0.50558505423E+01 -0.28213353369E+02  0.84185063338E+02  0.00000000000E+00 0.  1.
         13    1    4    4    0    0  0.12990261830E+02  0.17456297656E+02  0.21204139814E+02  0.30382310240E+02  0.00000000000E+00 0. -1.
         -2    1    1    2    0  502 -0.41782143496E+02  0.76367463488E+02  0.46943716826E+02  0.98901211035E+02  0.00000000000E+00 0.  1.
<scales pt_clust_5="13000.00000" pt_clust_6="13000.00000" pt_clust_7="13000.00000" pt_clust_8="13000.00000" pt_clust_9="13000.00000"></scales>
<clustering>
<clus scale="   78.954">  5  6 -1 -1</clus>
<clus scale="   92.439">  7  8 -1 -1</clus>
<clus scale="   87.050">  7  9 -1 -1</clus>
<clus scale="  160.518">  1  5  2 -1</clus>
<clus scale="  209.700">  2  5  1 -1</clus>
</clustering>
</event>
<event>
 9    2  0.2147756E-005  0.4874806E+03  0.7546771E-02  0.1072366E+00
         21   -1    0    0  501  502  0.00000000000E+00  0.00000000000E+00  0.20485451596E+03  0.20485451596E+03  0.00000000000E+00 0.  1.
          2   -1    0    0  502    0 -0.00000000000E+00 -0.00000000000E+00 -0.55746484455E+03  0.55746484455E+03  0.00000000000E+00 0. -1.
         24    2    1    2    0    0 -0.50498283065E+01 -0.57223872728E+02  0.66658133476E+02  0.11933926453E+03  0.80613156022E+02 0.  0.
         23    2    1    2    0    0 -0.19377566108E+03  0.78801647567E+02 -0.68202581699E+02  0.23894491440E+03  0.93189985955E+02 0.  0.
        -13    1    3    3    0    0  0.37573237900E+02 -0.29190510179E+02  0.26873310776E+02  0.54644386015E+02  0.00000000000E+00 0.  1.
         14    1    3    3    0    0 -0.42623066207E+02 -0.28033362549E+02  0.39784822700E+02  0.64694878514E+02  0.00000000000E+00 0. -1.
        -11    1    4    4    0    0 -0.71510557845E+02 -0.23840858033E+01 -0.57498039024E+02  0.91790349384E+02  0.00000000000E+00 0. -1.
         11    1    4    4    0    0 -0.12226510324E+03  0.81185733371E+02 -0.10704542675E+02  0.14715456502E+03  0.00000000000E+00 0.  1.
          1    1    1    2  501    0  0.19882548939E+03 -0.21577774839E+02 -0.35106588037E+03  0.40403518158E+03  0.00000000000E+00 0. -1.
<scales pt_clust_5="13000.00000" pt_clust_6="13000.00000" pt_clust_7="13000.00000" pt_clust_8="13000.00000" pt_clust_9="13000.00000"></scales>
<clustering>
<clus scale="   80.613">  5  6 -1 -1</clus>
<clus scale="   93.190">  7  8 -1 -1</clus>
<clus scale="   98.988">  2  5  1 -1</clus>
<clus scale="  204.921">  7  9 -1 -1</clus>
<clus scale="  487.481">  1  5  2 -1</clus>
</clustering>
</event>
<event>
 9    2  0.2147756E-005  0.1632815E+03  0.7546771E-02  0.1219998E+00
         21   -1    0    0  501  502  0.00000000000E+00  0.00000000000E+00  0.29623573995E+02  0.29623573995E+02  0.00000000000E+00 0.  1.
          2   -1    0    0  502    0 -0.00000000000E+00 -0.00000000000E+00 -0.10265958216E+04  0.10265958216E+04  0.00000000000E+00 0. -1.
         24    2    1    2    0    0 -0.10826403805E+02  0.11294424059E+02 -0.78458907676E+03  0.78832489388E+03  0.75042280777E+02 0.  0.
         23    2    1    2    0    0  0.44383032609E+02  0.33519395163E+02 -0.11926626493E+03  0.15924329879E+03  0.89669297004E+02 0.  0.
        -13    1    3    3    0    0  0.23352239303E+02  0.73334977340E+01 -0.10301708827E+03  0.10588497412E+03  0.00000000000E+00 0.  1.
         14    1    3    3    0    0 -0.34178643108E+02  0.39609263255E+01 -0.68157198849E+03  0.68243991976E+03  0.00000000000E+00 0. -1.
        -11    1    4    4    0    0  0.17455132613E+02  0.40881991664E+02 -0.12327114695E+03  0.13104119416E+03  0.00000000000E+00 0. -1.
         11    1    4    4    0    0  0.26927899997E+02 -0.73625965014E+01  0.40048820253E+01  0.28202104629E+02  0.00000000000E+00 0.  1.
          1    1    1    2  501    0 -0.33556628804E+02 -0.44813819222E+02 -0.93116905957E+02  0.10865120296E+03  0.00000000000E+00 0. -1.
<scales pt_clust_5="13000.00000" pt_clust_6="13000.00000" pt_clust_7="13000.00000" pt_clust_8="13000.00000" pt_clust_9="13000.00000"></scales>
<clustering>
<clus scale="   75.042">  5  6 -1 -1</clus>
<clus scale="   76.656">  2  5  1 -1</clus>
<clus scale="   89.669">  7  8 -1 -1</clus>
<clus scale="   55.295">  7  9 -1 -1</clus>
<clus scale="  163.282">  1  5  2 -1</clus>
</clustering>
</event>
<event>
 9    2  0.2147756E-005  0.3828535E+03  0.7546771E-02  0.1106460E+00
          2   -1    0    0  502    0 -0.00000000000E+00  0.00000000000E+00  0.10436525878E+03  0.10436525878E+03  0.00000000000E+00 0. -1.
         21   -1    0    0  501  502  0.00000000000E+00 -0.00000000000E+00 -0.51977058792E+03  0.51977058792E+03  0.00000000000E+00 0.  1.
         24    2    1    2    0    0  0.98029543210E+01  0.17169721277E+02 -0.78693670605E+02  0.11428140011E+03  0.80477620339E+02 0.  0.
         23    2    1    2    0    0  0.13377751393E+03  0.10764203996E+03 -0.17945082197E+03  0.26302596905E+03  0.86584241552E+02 0.  0.
        -13    1    3    3    0    0 -0.36232469603E+01 -0.27671575270E+02 -0.55322296133E+02  0.61962895719E+02  0.00000000000E+00 0.  1.
         14    1    3    3    0    0  0.13426201281E+02  0.44841296547E+02 -0.23371374473E+02  0.52318504390E+02  0.00000000000E+00 0. -1.
        -13    1    4    4    0    0  0.33132955061E+02 -0.12557981459E+02 -0.36384575140E+02  0.50787133385E+02  0.00000000000E+00 0. -1.
         13    1    4    4    0    0  0.10064455887E+03  0.12020002142E+03 -0.14306624684E+03  0.21223883566E+03  0.00000000000E+00 0.  1.
          1    1    1    2  501    0 -0.14358046825E+03 -0.12481176124E+03 -0.15726083656E+03  0.24682847754E+03  0.00000000000E+00 0. -1.
<scales pt_clust_5="13000.00000" pt_clust_6="13000.00000" pt_clust_7="13000.00000" pt_clust_8="13000.00000" pt_clust_9="13000.00000"></scales>
<clustering>
<clus scale="   80.478">  5  6 -1 -1</clus>
<clus scale="   82.871">  1  5  2 -1</clus>
<clus scale="   86.584">  7  8 -1 -1</clus>
<clus scale="  180.623">  7  9 -1 -1</clus>
<clus scale="  382.854">  2  5  1 -1</clus>
</clustering>
</event>
<event>
 9    2  0.2147756E-005  0.1290233E+03  0.7546771E-02  0.1247974E+00
          2   -1    0    0  502    0 -0.00000000000E+00  0.00000000000E+00  0.96952539776E+02  0.96952539776E+02  0.00000000000E+00 0. -1.
         21   -1    0    0  501  502  0.00000000000E+00 -0.00000000000E+00 -0.12165074128E+03  0.12165074128E+03  0.00000000000E+00 0.  1.
         24    2    1    2    0    0  0.25891989548E+02 -0.22342679436E+02 -0.16224644153E+01  0.87532647035E+02  0.80558931591E+02 0.  0.
         23    2    1    2    0    0 -0.35086467329E+02 -0.98060005482E+01 -0.32471483657E+02  0.96337996629E+02  0.83062593910E+02 0.  0.
        -11    1    3    3    0    0  0.46262754878E+02 -0.13899699823E+01  0.20756692038E+02  0.50724893000E+02  0.00000000000E+00 0.  1.
         12    1    3    3    0    0 -0.20370765331E+02 -0.20952709453E+02 -0.22379156453E+02  0.36807754036E+02  0.00000000000E+00 0. -1.
        -11    1    4    4    0    0 -0.36181638020E+02  0.21921420554E+02  0.98471414545E+01  0.43435305959E+02  0.00000000000E+00 0. -1.
         11    1    4    4    0    0  0.10951706910E+01 -0.31727421103E+02 -0.42318625112E+02  0.52902690669E+02  0.00000000000E+00 0.  1.
          1    1    1    2  501    0  0.91944777818E+01  0.32148679984E+02  0.93957465713E+01  0.34732637389E+02  0.00000000000E+00 0. -1.
<scales pt_clust_5="13000.00000" pt_clust_6="13000.00000" pt_clust_7="13000.00000" pt_clust_8="13000.00000" pt_clust_9="13000.00000"></scales>
<clustering>
<clus scale="   80.559">  5  6 -1 -1</clus>
<clus scale="   83.063">  7  8 -1 -1</clus>
<clus scale="   33.438">  7  9 -1 -1</clus>
<clus scale="   87.518">  1  5  2 -1</clus>
<clus scale="  129.023">  2  5  1 -1</clus>
</clustering>
</event>
<event>
 9    2  0.2147756E-005  0.4201527E+03  0.7546771E-02  0.1085094E+00
          2   -1    0    0  502    0 -0.00000000000E+00  0.00000000000E+00  0.34250039342E+03  0.34250039342E+03  0.00000000000E+00 0. -1.
         21   -1    0    0  501  502  0.00000000000E+00 -0.00000000000E+00 -0.26266185086E+03  0.26266185086E+03  0.00000000000E+00 0. -1.
         24    2    1    2    0    0  0.70415058474E+02 -0.21138981447E+02  0.14310110114E+03  0.18027351982E+03  0.81335599862E+02 0.  0.
         23    2    1    2    0    0  0.74910991958E+02 -0.12171026948E+03  0.69401577912E+02  0.18173169180E+03  0.88231413753E+02 0.  0.
        -13    1    3    3    0    0 -0.11921456715E+02 -0.24034143829E+02  0.42250112337E+02  0.50048308586E+02  0.00000000000E+00 0.  1.
         14    1    3    3    0    0  0.82336515190E+02  0.28951623823E+01  0.10085098880E+03  0.13022521123E+03  0.00000000000E+00 0. -1.
        -11    1    4    4    0    0  0.29943663719E+02  0.64084706218E+01  0.35564786540E+01  0.30827585586E+02  0.00000000000E+00 0.  1.
         11    1    4    4    0    0  0.44967328239E+02 -0.12811874010E+03  0.65845099258E+02  0.15090410621E+03  0.00000000000E+00 0. -1.
          1    1    1    2  501    0 -0.14532605043E+03  0.14284925093E+03 -0.13266413649E+03  0.24315703267E+03  0.00000000000E+00 0. -1.
<scales pt_clust_5="13000.00000" pt_clust_6="13000.00000" pt_clust_7="13000.00000" pt_clust_8="13000.00000" pt_clust_9="13000.00000"></scales>
<clustering>
<clus scale="   81.336">  5  6 -1 -1</clus>
<clus scale="   88.231">  7  8 -1 -1</clus>
<clus scale="  109.639">  1  5  2 -1</clus>
<clus scale="  184.205">  7  9 -1 -1</clus>
<clus scale="  420.153">  2  5  1 -1</clus>
</clustering>
</event>
<event>
 9    2  0.2147756E-005  0.5707216E+03  0.7546771E-02  0.1045502E+00
          2   -1    0    0  502    0 -0.00000000000E+00  0.00000000000E+00  0.10024570811E+04  0.10024570811E+04  0.00000000000E+00 0. -1.
         21   -1    0    0  501  502  0.00000000000E+00 -0.00000000000E+00 -0.12306394903E+03  0.12306394903E+03  0.00000000000E+00 0. -1.
         24    2    1    2    0    0  0.71009003189E+02  0.68097079910E+02  0.14504626521E+03  0.19547347216E+03  0.86556157741E+02 0.  0.
         23    2    1    2    0    0  0.21550349838E+03 -0.11856003072E+03  0.46362114900E+03  0.53264557349E+03  0.90931284259E+02 0.  0.
        -13    1    3    3    0    0  0.61588302374E+02  0.54544334205E+01  0.42813519758E+02  0.75205500512E+02  0.00000000000E+00 0.  1.
         14    1    3    3    0    0  0.94207008160E+01  0.62642646489E+02  0.10223274545E+03  0.12026797165E+03  0.00000000000E+00 0. -1.
        -11    1    4    4    0    0  0.13043060978E+03 -0.78767200196E+02  0.36948844636E+03  0.39967252569E+03  0.00000000000E+00 0. -1.
         11    1    4    4    0    0  0.85072888593E+02 -0.39792830527E+02  0.94132702641E+02  0.13297304780E+03  0.00000000000E+00 0.  1.
          1    1    1    2  501    0 -0.28651250157E+03  0.50462950813E+02  0.27072571788E+03  0.39740198449E+03  0.00000000000E+00 0. -1.
<scales pt_clust_5="13000.00000" pt_clust_6="13000.00000" pt_clust_7="13000.00000" pt_clust_8="13000.00000" pt_clust_9="13000.00000"></scales>
<clustering>
<clus scale="   86.556">  5  6 -1 -1</clus>
<clus scale="   90.931">  7  8 -1 -1</clus>
<clus scale="  131.040">  1  5  2 -1</clus>
<clus scale="  269.482">  7  9 -1 -1</clus>
<clus scale="  570.722">  2  5  1 -1</clus>
</clustering>
</event>
<event>
 9    2  0.2147756E-005  0.4056623E+03  0.7546771E-02  0.1087048E+00
         21   -1    0    0  501  502  0.00000000000E+00  0.00000000000E+00  0.83399872963E+02  0.83399872963E+02  0.00000000000E+00 0.  1.
          2   -1    0    0  502    0 -0.00000000000E+00 -0.00000000000E+00 -0.85850242862E+03  0.85850242862E+03  0.00000000000E+00 0. -1.
         24    2    1    2    0    0 -0.37624367449E+02 -0.72670892720E+02 -0.93455525970E+02  0.14867813350E+03  0.81698227479E+02 0.  0.
         23    2    1    2    0    0  0.11657592486E+03  0.34628913002E+02 -0.68895017071E+03  0.70528170673E+03  0.89335548675E+02 0.  0.
        -13    1    3    3    0    0  0.14898777075E+02 -0.59251965584E+02 -0.55083762646E+02  0.82261715829E+02  0.00000000000E+00 0.  1.
         14    1    3    3    0    0 -0.52523144524E+02 -0.13418927136E+02 -0.38371763324E+02  0.66416417675E+02  0.00000000000E+00 0. -1.
        -11    1    4    4    0    0  0.70765239785E+02  0.64495693622E+02 -0.46450395287E+03  0.47426926518E+03  0.00000000000E+00 0.  1.
         11    1    4    4    0    0  0.45810685072E+02 -0.29866780620E+02 -0.22444621784E+03  0.23101244156E+03  0.00000000000E+00 0. -1.
          1    1    1    2  501    0 -0.78951557408E+02  0.38041979719E+02  0.73031410277E+01  0.87942461342E+02  0.00000000000E+00 0. -1.
<scales pt_clust_5="13000.00000" pt_clust_6="13000.00000" pt_clust_7="13000.00000" pt_clust_8="13000.00000" pt_clust_9="13000.00000"></scales>
<clustering>
<clus scale="   81.698">  5  6 -1 -1</clus>
<clus scale="   89.336">  7  8 -1 -1</clus>
<clus scale="   87.639">  7  9 -1 -1</clus>
<clus scale="  115.634">  2  5  1 -1</clus>
<clus scale="  405.662">  1  5  2 -1</clus>
</clustering>
</event>
<event>
 9    2  0.2147756E-005  0.2367944E+03  0.7546771E-02  0.1163533E+00
          2   -1    0    0  502    0 -0.00000000000E+00  0.00000000000E+00  0.89512200237E+03  0.89512200237E+03  0.00000000000E+00 0. -1.
         21   -1    0    0  501  502  0.00000000000E+00 -0.00000000000E+00 -0.31224197584E+02  0.31224197584E+02  0.00000000000E+00 0. -1.
         24    2    1    2    0    0 -0.30554424294E+02  0.32211522650E+01  0.34687653845E+03  0.35767884506E+03  0.81650931469E+02 0.  0.
         23    2    1    2    0    0  0.19112799389E+02  0.80113567472E+02  0.15967812002E+03  0.20155741153E+03  0.91349906064E+02 0.  0.
        -13    1    3    3    0    0 -0.47940980749E+01 -0.32892550631E+02  0.72722507707E+02  0.79959154513E+02  0.00000000000E+00 0.  1.
         14    1    3    3    0    0 -0.25760326220E+02  0.36113702896E+02  0.27415403074E+03  0.27771969055E+03  0.00000000000E+00 0. -1.
        -13    1    4    4    0    0  0.37173233760E+02  0.10910227929E+02  0.10380585288E+03  0.11079953734E+03  0.00000000000E+00 0.  1.
         13    1    4    4    0    0 -0.18060434370E+02  0.69203339543E+02  0.55872267136E+02  0.90757874196E+02  0.00000000000E+00 0. -1.
          1    1    1    2  501    0  0.11441624905E+02 -0.83334719737E+02  0.35734314631E+03  0.36710994336E+03  0.00000000000E+00 0. -1.
<scales pt_clust_5="13000.00000" pt_clust_6="13000.00000" pt_clust_7="13000.00000" pt_clust_8="13000.00000" pt_clust_9="13000.00000"></scales>
<clustering>
<clus scale="   81.651">  5  6 -1 -1</clus>
<clus scale="   87.240">  1  5  2 -1</clus>
<clus scale="   91.350">  7  8 -1 -1</clus>
<clus scale="   81.677">  7  9 -1 -1</clus>
<clus scale="  236.794">  2  5  1 -1</clus>
</clustering>
</event>
<event>
 9    2  0.2147756E-005  0.1442103E+03  0.7546771E-02  0.1221723E+00
          4   -1    0    0  502    0 -0.00000000000E+00  0.00000000000E+00  0.24834070034E+03  0.24834070034E+03  0.00000000000E+00 0. -1.
         21   -1    0    0  501  502  0.00000000000E+00 -0.00000000000E+00 -0.66126952155E+02  0.66126952155E+02  0.00000000000E+00 0.  1.
         24    2    1    2    0    0  0.30709716351E+02 -0.64053874625E+02  0.10811712845E+03  0.15233520735E+03  0.80440763307E+02 0.  0.
         23    2    1    2    0    0 -0.51318014995E+02  0.45940258077E+02  0.44668243132E+02  0.12189770360E+03  0.90109667759E+02 0.  0.
        -13    1    3    3    0    0  0.25414230277E+02  0.12715346248E+02  0.17173609469E+02  0.33203855092E+02  0.00000000000E+00 0.  1.
         14    1    3    3    0    0  0.52954860740E+01 -0.76769220873E+02  0.90943518977E+02  0.11913135226E+03  0.00000000000E+00 0. -1.
        -11    1    4    4    0    0 -0.60810528340E+02  0.17240530414E+02 -0.53725946783E+01  0.63435171786E+02  0.00000000000E+00 0.  1.
         11    1    4    4    0    0  0.94925133446E+01  0.28699727663E+02  0.50040837811E+02  0.58462531816E+02  0.00000000000E+00 0. -1.
          3    1    1    2  501    0  0.20608298644E+02  0.18113616548E+02  0.29428376604E+02  0.40234741542E+02  0.00000000000E+00 0. -1.
<scales pt_clust_5="13000.00000" pt_clust_6="13000.00000" pt_clust_7="13000.00000" pt_clust_8="13000.00000" pt_clust_9="13000.00000"></scales>
<clustering>
<clus scale="   80.441">  5  6 -1 -1</clus>
<clus scale="   90.110">  7  8 -1 -1</clus>
<clus scale="   27.437">  7  9 -1 -1</clus>
<clus scale="  107.316">  1  5  2 -1</clus>
<clus scale="  144.210">  2  5  1 -1</clus>
</clustering>
</event>
<event>
 9    2  0.2147756E-005  0.7394037E+03  0.7546771E-02  0.9664387E-01
         21   -1    0    0  501  502  0.00000000000E+00  0.00000000000E+00  0.15421098169E+03  0.15421098169E+03  0.00000000000E+00 0. -1.
          2   -1    0    0  502    0 -0.00000000000E+00 -0.00000000000E+00 -0.34030509665E+04  0.34030509665E+04  0.00000000000E+00 0. -1.
         24    2    1    2    0    0  0.27967631351E+02 -0.70543288943E+03 -0.16104934730E+04  0.17597923031E+04  0.69007053950E+02 0.  0.
         23    2    1    2    0    0  0.71183375747E+02  0.35277206104E+03 -0.76925541495E+03  0.85432600986E+03  0.92756873953E+02 0.  0.
        -11    1    3    3    0    0  0.47565018183E+00 -0.10584919254E+03 -0.18596994760E+03  0.21398387607E+03  0.00000000000E+00 0.  1.
         12    1    3    3    0    0  0.27491981169E+02 -0.59958369689E+03 -0.14245235254E+04  0.15458084271E+04  0.00000000000E+00 0. -1.
        -11    1    4    4    0    0  0.38612323749E+02  0.17636809370E+03 -0.27939487097E+03  0.33265313758E+03  0.00000000000E+00 0.  1.
         11    1    4    4    0    0  0.32571051997E+02  0.17640396733E+03 -0.48986054398E+03  0.52167287228E+03  0.00000000000E+00 0. -1.
          1    1    1    2  501    0 -0.99151007098E+02  0.35266082839E+03 -0.86909109683E+03  0.94314363523E+03  0.00000000000E+00 0. -1.
<scales pt_clust_5="13000.00000" pt_clust_6="13000.00000" pt_clust_7="13000.00000" pt_clust_8="13000.00000" pt_clust_9="13000.00000"></scales>
<clustering>
<clus scale="   69.007">  5  6 -1 -1</clus>
<clus scale="   92.757">  7  8 -1 -1</clus>
<clus scale="  366.334">  7  9 -1 -1</clus>
<clus scale="  709.352">  2  5  1 -1</clus>
<clus scale="  739.404">  1  5  2 -1</clus>
</clustering>
</event>
<event>
 9    2  0.2147756E-005  0.2862099E+03  0.7546771E-02  0.1140652E+00
          2   -1    0    0  502    0 -0.00000000000E+00  0.00000000000E+00  0.33853874824E+03  0.33853874824E+03  0.00000000000E+00 0. -1.
         21   -1    0    0  501  502  0.00000000000E+00 -0.00000000000E+00 -0.10218385119E+03  0.10218385119E+03  0.00000000000E+00 0. -1.
         24    2    1    2    0    0 -0.60314189523E+01 -0.97909826899E+01  0.40924549501E+02  0.94154986622E+02  0.84012507386E+02 0.  0.
         23    2    1    2    0    0 -0.95948131053E+02 -0.76706074106E+02  0.10611285470E+03  0.18575970260E+03  0.90315355957E+02 0.  0.
        -13    1    3    3    0    0  0.70385786193E+01 -0.44556309840E+02  0.10928298541E+02  0.46413726898E+02  0.00000000000E+00 0.  1.
         14    1    3    3    0    0 -0.13069997572E+02  0.34765327150E+02  0.29996250960E+02  0.47741259724E+02  0.00000000000E+00 0. -1.
        -13    1    4    4    0    0 -0.57886746146E+02 -0.11080939826E+02  0.90978620329E+02  0.10840097769E+03  0.00000000000E+00 0.  1.
         13    1    4    4    0    0 -0.38061384907E+02 -0.65625134280E+02  0.15134234366E+02  0.77358724913E+02  0.00000000000E+00 0. -1.
          1    1    1    2  501    0  0.10197955000E+03  0.86497056796E+02  0.89317492861E+02  0.16080791021E+03  0.00000000000E+00 0. -1.
<scales pt_clust_5="13000.00000" pt_clust_6="13000.00000" pt_clust_7="13000.00000" pt_clust_8="13000.00000" pt_clust_9="13000.00000"></scales>
<clustering>
<clus scale="   84.013">  5  6 -1 -1</clus>
<clus scale="   84.796">  1  5  2 -1</clus>
<clus scale="   90.315">  7  8 -1 -1</clus>
<clus scale="  128.687">  7  9 -1 -1</clus>
<clus scale="  286.210">  2  5  1 -1</clus>
</clustering>
</event>
<event>
 9    2  0.2147756E-005  0.4276498E+03  0.7546771E-02  0.1062971E+00
          2   -1    0    0  502    0 -0.00000000000E+00  0.00000000000E+00  0.35115354669E+03  0.35115354669E+03  0.00000000000E+00 0. -1.
         21   -1    0    0  501  502  0.00000000000E+00 -0.00000000000E+00 -0.28459270801E+03  0.28459270801E+03  0.00000000000E+00 0. -1.
         24    2    1    2    0    0  0.14734768022E+03 -0.87705354801E+02 -0.41925820899E+02  0.19455051483E+03  0.81783618381E+02 0.  0.
         23    2    1    2    0    0 -0.19637253258E+03 -0.96555539770E+02  0.65360993091E+02  0.24570830670E+03  0.90638671375E+02 0.  0.
        -11    1    3    3    0    0  0.83179061966E+00 -0.30941800007E+02 -0.17436175111E+02  0.35526146228E+02  0.00000000000E+00 0.  1.
         12    1    3    3    0    0  0.14651588960E+03 -0.56763554794E+02 -0.24489645788E+02  0.15902436860E+03  0.00000000000E+00 0. -1.
        -11    1    4    4    0    0 -0.51187568975E+02 -0.29887346282E+02  0.62195390820E+02  0.85916746474E+02  0.00000000000E+00 0.  1.
         11    1    4    4    0    0 -0.14518496361E+03 -0.66668193487E+02  0.31656022706E+01  0.15979156022E+03  0.00000000000E+00 0. -1.
          1    1    1    2  501    0  0.49024852360E+02  0.18426089457E+03  0.43125666497E+02  0.19548743317E+03  0.00000000000E+00 0. -1.
<scales pt_clust_5="13000.00000" pt_clust_6="13000.00000" pt_clust_7="13000.00000" pt_clust_8="13000.00000" pt_clust_9="13000.00000"></scales>
<clustering>
<clus scale="   81.784">  5  6 -1 -1</clus>
<clus scale="   90.639">  7  8 -1 -1</clus>
<clus scale="  189.979">  1  5  2 -1</clus>
<clus scale="  184.763">  7  9 -1 -1</clus>
<clus scale="  427.650">  2  5  1 -1</clus>
</clustering>
</event>
<event>
 9    2  0.2147756E-005  0.1591726E+03  0.7546771E-02  0.1217341E+00
          2   -1    0    0  502    0 -0.00000000000E+00  0.00000000000E+00  0.31375196039E+03  0.31375196039E+03  0.00000000000E+00 0. -1.
         21   -1    0    0  501  502  0.00000000000E+00 -0.00000000000E+00 -0.17923560720E+03  0.17923560720E+03  0.00000000000E+00 0.  1.
         24    2    1    2    0    0  0.11221806275E+02 -0.29740679385E+02  0.27008488504E+03  0.28390683288E+03  0.81527956451E+02 0.  0.
         23    2    1    2    0    0  0.38615887636E-01  0.58334157752E+02 -0.53186088847E+02  0.12115320189E+03  0.91904639872E+02 0.  0.
        -13    1    3    3    0    0  0.87648823705E+01  0.22633999760E+02  0.32262132291E+02  0.40372840971E+02  0.00000000000E+00 0.  1.
         14    1    3    3    0    0  0.24569239050E+01 -0.52374679145E+02  0.23782275274E+03  0.24353399191E+03  0.00000000000E+00 0. -1.
        -13    1    4    4    0    0  0.21741655163E+01 -0.22480724521E+02  0.28839289810E+01  0.22768992447E+02  0.00000000000E+00 0. -1.
         13    1    4    4    0    0 -0.21355496286E+01  0.80814882272E+02 -0.56070017828E+02  0.98384209445E+02  0.00000000000E+00 0.  1.
          1    1    1    2  501    0 -0.11260422163E+02 -0.28593478367E+02 -0.82382443006E+02  0.87927532822E+02  0.00000000000E+00 0. -1.
<scales pt_clust_5="13000.00000" pt_clust_6="13000.00000" pt_clust_7="13000.00000" pt_clust_8="13000.00000" pt_clust_9="13000.00000"></scales>
<clustering>
<clus scale="   81.528">  5  6 -1 -1</clus>
<clus scale="   87.506">  1  5  2 -1</clus>
<clus scale="   91.905">  7  8 -1 -1</clus>
<clus scale="   32.548">  7  9 -1 -1</clus>
<clus scale="  159.173">  2  5  1 -1</clus>
</clustering>
</event>
<event>
 9    2  0.2147756E-005  0.2701397E+03  0.7546771E-02  0.1141578E+00
         21   -1    0    0  501  502  0.00000000000E+00  0.00000000000E+00  0.77082502012E+02  0.77082502012E+02  0.00000000000E+00 0. -1.
          2   -1    0    0  502    0 -0.00000000000E+00 -0.00000000000E+00 -0.51636963427E+03  0.51636963427E+03  0.00000000000E+00 0. -1.
         24    2    1    2    0    0  0.50544502984E+02 -0.14663621534E+02 -0.23471383889E+03  0.25459273907E+03  0.83409280310E+02 0.  0.
         23    2    1    2    0    0 -0.64636321859E+02 -0.68042979184E+02 -0.21756175194E+03  0.25396145130E+03  0.91408980525E+02 0.  0.
        -13    1    3    3    0    0 -0.20411531332E+02 -0.18621704140E+01 -0.22362001104E+02  0.30334096053E+02  0.00000000000E+00 0.  1.
         14    1    3    3    0    0  0.70956034315E+02 -0.12801451120E+02 -0.21235183779E+03  0.22425864302E+03  0.00000000000E+00 0. -1.
        -13    1    4    4    0    0 -0.52177340574E+02 -0.10511534605E+02 -0.17044425420E+03  0.17856150486E+03  0.00000000000E+00 0.  1.
         13    1    4    4    0    0 -0.12458981284E+02 -0.57531444579E+02 -0.47117497746E+02  0.75399946445E+02  0.00000000000E+00 0. -1.
          1    1    1    2  501    0  0.14091818875E+02  0.82706600719E+02  0.12988458584E+02  0.84897945900E+02  0.00000000000E+00 0. -1.
<scales pt_clust_5="13000.00000" pt_clust_6="13000.00000" pt_clust_7="13000.00000" pt_clust_8="13000.00000" pt_clust_9="13000.00000"></scales>
<clustering>
<clus scale="   83.409">  5  6 -1 -1</clus>
<clus scale="   91.409">  7  8 -1 -1</clus>
<clus scale="   83.899">  7  9 -1 -1</clus>
<clus scale="   98.625">  2  5  1 -1</clus>
<clus scale="  270.140">  1  5  2 -1</clus>
</clustering>
</event>
<event>
 9    2  0.2147756E-005  0.2536510E+03  0.7546771E-02  0.1130327E+00
          2   -1    0    0  502    0 -0.00000000000E+00  0.00000000000E+00  0.10771455475E+04  0.10771455475E+04  0.00000000000E+00 0. -1.
         21   -1    0    0  501  502  0.00000000000E+00 -0.00000000000E+00 -0.39743049120E+02  0.39743049120E+02  0.00000000000E+00 0. -1.
         24    2    1    2    0    0 -0.53683726446E+02  0.12411439215E+03  0.46919669445E+03  0.49463731959E+03  0.78957045410E+02 0.  0.
         23    2    1    2    0    0 -0.26342238405E+02 -0.75354188401E+02  0.15238758274E+03  0.19600427635E+03  0.93933666702E+02 0.  0.
        -11    1    3    3    0    0 -0.45382513464E+02  0.38118880299E+02  0.28619002727E+03  0.29226247325E+03  0.00000000000E+00 0.  1.
         12    1    3    3    0    0 -0.83012129819E+01  0.85995511853E+02  0.18300666719E+03  0.20237484634E+03  0.00000000000E+00 0. -1.
        -13    1    4    4    0    0  0.12426377306E+02  0.17909102630E+02  0.20856531515E+02  0.30168621394E+02  0.00000000000E+00 0.  1.
         13    1    4    4    0    0 -0.38768615711E+02 -0.93263291031E+02  0.13153105122E+03  0.16583565495E+03  0.00000000000E+00 0. -1.
          1    1    1    2  501    0  0.80025964851E+02 -0.48760203750E+02  0.41581822123E+03  0.42624700072E+03  0.00000000000E+00 0. -1.
<scales pt_clust_5="13000.00000" pt_clust_6="13000.00000" pt_clust_7="13000.00000" pt_clust_8="13000.00000" pt_clust_9="13000.00000"></scales>
<clustering>
<clus scale="   78.957">  5  6 -1 -1</clus>
<clus scale="   93.934">  7  8 -1 -1</clus>
<clus scale="   93.711">  7  9 -1 -1</clus>
<clus scale="  156.590">  1  5  2 -1</clus>
<clus scale="  253.651">  2  5  1 -1</clus>
</clustering>
</event>
<event>
 9    2  0.2147756E-005  0.2183558E+03  0.7546771E-02  0.1159229E+00
          2   -1    0    0  502    0 -0.00000000000E+00  0.00000000000E+00  0.71124580688E+03  0.71124580688E+03  0.00000000000E+00 0. -1.
         21   -1    0    0  501  502  0.00000000000E+00 -0.00000000000E+00 -0.85630403781E+02  0.85630403781E+02  0.00000000000E+00 0. -1.
         24    2    1    2    0    0 -0.35456040993E+02 -0.86101831029E+02 -0.11393807639E+02  0.12348183496E+03  0.80295009573E+02 0.  0.
         23    2    1    2    0    0 -0.53309508484E+02  0.21974133241E+02  0.33673823795E+03  0.35377844760E+03  0.91879175353E+02 0.  0.
        -11    1    3    3    0    0 -0.21279861167E+02 -0.72053010750E+02  0.27306518784E+02  0.79938193734E+02  0.00000000000E+00 0.  1.
         12    1    3    3    0    0 -0.14176179826E+02 -0.14048820279E+02 -0.38700326423E+02  0.43543641223E+02  0.00000000000E+00 0. -1.
        -13    1    4    4    0    0 -0.67707609969E+01  0.45887033026E+02  0.86735518695E+02  0.98359103329E+02  0.00000000000E+00 0.  1.
         13    1    4    4    0    0 -0.46538747487E+02 -0.23912899786E+02  0.25000271926E+03  0.25541934428E+03  0.00000000000E+00 0. -1.
          1    1    1    2  501    0  0.88765549477E+02  0.64127697788E+02  0.30027097278E+03  0.31961592810E+03  0.00000000000E+00 0. -1.
<scales pt_clust_5="13000.00000" pt_clust_6="13000.00000" pt_clust_7="13000.00000" pt_clust_8="13000.00000" pt_clust_9="13000.00000"></scales>
<clustering>
<clus scale="   80.295">  5  6 -1 -1</clus>
<clus scale="   91.879">  7  8 -1 -1</clus>
<clus scale="  109.507">  7  9 -1 -1</clus>
<clus scale="  122.955">  1  5  2 -1</clus>
<clus scale="  218.356">  2  5  1 -1</clus>
</clustering>
</event>
<event>
 9    2  0.2147756E-005  0.1597177E+03  0.7546771E-02  0.1207769E+00
         21   -1    0    0  501  502  0.00000000000E+00  0.00000000000E+00  0.66194768935E+02  0.66194768935E+02  0.00000000000E+00 0.  1.
         -1   -1    0    0    0  501 -0.00000000000E+00 -0.00000000000E+00 -0.26929305364E+03  0.26929305364E+03  0.00000000000E+00 0.  1.
         24    2    1    2    0    0 -0.54251590408E+02 -0.43868110093E+02 -0.96485248695E+02  0.14345636924E+03  0.80016751460E+02 0.  0.
         23    2    1    2    0    0  0.25737103326E+02  0.32200030383E+02 -0.32964285824E+02  0.11219813660E+03  0.99007763696E+02 0.  0.
        -13    1    3    3    0    0 -0.10650725534E+02 -0.47697333438E+02 -0.85255698386E+02  0.98270075195E+02  0.00000000000E+00 0.  1.
         14    1    3    3    0    0 -0.43600864874E+02  0.38292233450E+01 -0.11229550309E+02  0.45186294042E+02  0.00000000000E+00 0. -1.
        -11    1    4    4    0    0  0.51907451074E+02  0.38340750332E+02  0.60550724432E+01  0.64815588521E+02  0.00000000000E+00 0.  1.
         11    1    4    4    0    0 -0.26170347748E+02 -0.61407199488E+01 -0.39019358267E+02  0.47382548078E+02  0.00000000000E+00 0. -1.
         -2    1    1    2    0  502  0.28514487082E+02  0.11668079710E+02 -0.73648750184E+02  0.79833316738E+02  0.00000000000E+00 0.  1.
<scales pt_clust_5="13000.00000" pt_clust_6="13000.00000" pt_clust_7="13000.00000" pt_clust_8="13000.00000" pt_clust_9="13000.00000"></scales>
<clustering>
<clus scale="   80.017">  5  6 -1 -1</clus>
<clus scale="   99.008">  7  8 -1 -1</clus>
<clus scale="   30.809">  7  9 -1 -1</clus>
<clus scale="  106.162">  2  5  1 -1</clus>
<clus scale="  159.718">  1  5  2 -1</clus>
</clustering>
</event>
<event>
 9    2  0.2147756E-005  0.4347597E+03  0.7546771E-02  0.1067585E+00
         21   -1    0    0  501  502  0.00000000000E+00  0.00000000000E+00  0.70679462629E+02  0.70679462629E+02  0.00000000000E+00 0. -1.
          2   -1    0    0  502    0 -0.00000000000E+00 -0.00000000000E+00 -0.14205796567E+04  0.14205796567E+04  0.00000000000E+00 0. -1.
         24    2    1    2    0    0  0.59953242063E+02  0.12635638365E+03 -0.63421261219E+03  0.65386753330E+03  0.75873491496E+02 0.  0.
         23    2    1    2    0    0  0.16032538185E+02  0.51888291896E+02 -0.23457555499E+02  0.11855404348E+03  0.10273931672E+03 0.  0.
        -11    1    3    3    0    0 -0.38441578290E+00  0.51928254755E+02 -0.11923539566E+03  0.13005295458E+03  0.00000000000E+00 0.  1.
         12    1    3    3    0    0  0.60337657846E+02  0.74428128892E+02 -0.51497721654E+03  0.52381457872E+03  0.00000000000E+00 0. -1.
        -11    1    4    4    0    0 -0.30638767796E+02  0.44717633583E+02 -0.41225862582E+02  0.68102662143E+02  0.00000000000E+00 0. -1.
         11    1    4    4    0    0  0.46671305981E+02  0.71706583134E+01  0.17768307082E+02  0.50451381341E+02  0.00000000000E+00 0.  1.
          1    1    1    2  501    0 -0.75985780247E+02 -0.17824467554E+03 -0.69223002639E+03  0.71883754256E+03  0.00000000000E+00 0. -1.
<scales pt_clust_5="13000.00000" pt_clust_6="13000.00000" pt_clust_7="13000.00000" pt_clust_8="13000.00000" pt_clust_9="13000.00000"></scales>
<clustering>
<clus scale="   75.873">  5  6 -1 -1</clus>
<clus scale="  102.739">  7  8 -1 -1</clus>
<clus scale="  159.114">  2  5  1 -1</clus>
<clus scale="   66.991">  7  9 -1 -1</clus>
<clus scale="  434.760">  1  5  2 -1</clus>
</clustering>
</event>
<event>
 9    2  0.2147756E-005  0.1972273E+03  0.7546771E-02  0.1186529E+00
          2   -1    0    0  502    0 -0.00000000000E+00  0.00000000000E+00  0.50002614098E+03  0.50002614098E+03  0.00000000000E+00 0. -1.
         21   -1    0    0  501  502  0.00000000000E+00 -0.00000000000E+00 -0.26874224830E+03  0.26874224830E+03  0.00000000000E+00 0.  1.
         24    2    1    2    0    0  0.37657854427E+02  0.24502610890E+02  0.45891138040E+03  0.46758259560E+03  0.77558601776E+02 0.  0.
         23    2    1    2    0    0 -0.77497198779E+02 -0.35457412459E+02 -0.22816588523E+03  0.25986423867E+03  0.90590879462E+02 0.  0.
        -11    1    3    3    0    0 -0.10285604005E+02  0.23686430915E+02  0.54164648987E+02  0.60005415248E+02  0.00000000000E+00 0.  1.
         12    1    3    3    0    0  0.47943458433E+02  0.81617997512E+00  0.40474673141E+03  0.40757718035E+03  0.00000000000E+00 0. -1.
        -11    1    4    4    0    0 -0.78394038949E+02  0.17907139617E+00 -0.19873173144E+03  0.21363510594E+03  0.00000000000E+00 0.  1.
         11    1    4    4    0    0  0.89684017025E+00 -0.35636483855E+02 -0.29434153789E+02  0.46229132732E+02  0.00000000000E+00 0. -1.
          1    1    1    2  501    0  0.39839344351E+02  0.10954801569E+02  0.53839750870E+00  0.41321555000E+02  0.00000000000E+00 0. -1.
<scales pt_clust_5="13000.00000" pt_clust_6="13000.00000" pt_clust_7="13000.00000" pt_clust_8="13000.00000" pt_clust_9="13000.00000"></scales>
<clustering>
<clus scale="   77.559">  5  6 -1 -1</clus>
<clus scale="   89.632">  1  5  2 -1</clus>
<clus scale="   90.591">  7  8 -1 -1</clus>
<clus scale="   66.135">  7  9 -1 -1</clus>
<clus scale="  197.227">  2  5  1 -1</clus>
</clustering>
</event>
<event>
 9    2  0.2147756E-005  0.3771313E+03  0.7546771E-02  0.1085358E+00
          2   -1    0    0  502    0 -0.00000000000E+00  0.00000000000E+00  0.49098255473E+02  0.49098255473E+02  0.00000000000E+00 0. -1.
         21   -1    0    0  501  502  0.00000000000E+00 -0.00000000000E+00 -0.14587795679E+04  0.14587795679E+04  0.00000000000E+00 0. -1.
         24    2    1    2    0    0 -0.10217348036E+03 -0.79886448843E+02 -0.52523666662E+03  0.54638400957E+03  0.76424244554E+02 0.  0.
         23    2    1    2    0    0  0.38812148454E+01  0.19748054990E+03 -0.60354237029E+03  0.64150032879E+03  0.90805548687E+02 0.  0.
        -11    1    3    3    0    0 -0.25687507919E+02 -0.63675895223E+02 -0.30642389618E+03  0.31402240659E+03  0.00000000000E+00 0.  1.
         12    1    3    3    0    0 -0.76485972439E+02 -0.16210553620E+02 -0.21881277044E+03  0.23236160297E+03  0.00000000000E+00 0. -1.
        -13    1    4    4    0    0 -0.26507922249E+02  0.11726950873E+02 -0.71957290538E+02  0.77576046434E+02  0.00000000000E+00 0.  1.
         13    1    4    4    0    0  0.30389137094E+02  0.18575359903E+03 -0.53158507976E+03  0.56392428235E+03  0.00000000000E+00 0. -1.
          1    1    1    2  501    0  0.98292265512E+02 -0.11759410106E+03 -0.28090227551E+03  0.31999348501E+03  0.00000000000E+00 0. -1.
<scales pt_clust_5="13000.00000" pt_clust_6="13000.00000" pt_clust_7="13000.00000" pt_clust_8="13000.00000" pt_clust_9="13000.00000"></scales>
<clustering>
<clus scale="   76.424">  5  6 -1 -1</clus>
<clus scale="   90.806">  7  8 -1 -1</clus>
<clus scale="  150.539">  1  5  2 -1</clus>
<clus scale="  164.807">  7  9 -1 -1</clus>
<clus scale="  377.131">  2  5  1 -1</clus>
</clustering>
</event>
<event>
 9    2  0.2147756E-005  0.2570817E+03  0.7546771E-02  0.1115472E+00
         21   -1    0    0  501  502  0.00000000000E+00  0.00000000000E+00  0.51938801931E+02  0.51938801931E+02  0.00000000000E+00 0. -1.
          2   -1    0    0  502    0 -0.00000000000E+00 -0.00000000000E+00 -0.11694868138E+04  0.11694868138E+04  0.00000000000E+00 0. -1.
         24    2    1    2    0    0 -0.16205598540E+03  0.12033506300E+03 -0.67954321215E+03  0.71354847732E+03  0.81423476358E+02 0.  0.
         23    2    1    2    0    0  0.83668694202E+02 -0.35202321259E+02 -0.15250293635E+03  0.19981307832E+03  0.91806682007E+02 0.  0.
        -11    1    3    3    0    0 -0.32858172248E+02 -0.82279083001E+01 -0.78995573741E+02  0.85951489976E+02  0.00000000000E+00 0.  1.
         12    1    3    3    0    0 -0.12919781315E+03  0.12856297130E+03 -0.60054763841E+03  0.62759698734E+03  0.00000000000E+00 0. -1.
        -13    1    4    4    0    0  0.13286814194E+02  0.29620837029E+02 -0.49767268939E+02  0.59419815511E+02  0.00000000000E+00 0.  1.
         13    1    4    4    0    0  0.70381880009E+02 -0.64823158288E+02 -0.10273566741E+03  0.14039326281E+03  0.00000000000E+00 0. -1.
          1    1    1    2  501    0  0.78387291199E+02 -0.85132741737E+02 -0.28550186335E+03  0.30806406008E+03  0.00000000000E+00 0. -1.
<scales pt_clust_5="13000.00000" pt_clust_6="13000.00000" pt_clust_7="13000.00000" pt_clust_8="13000.00000" pt_clust_9="13000.00000"></scales>
<clustering>
<clus scale="   81.423">  5  6 -1 -1</clus>
<clus scale="   91.807">  7  8 -1 -1</clus>
<clus scale="  115.725">  7  9 -1 -1</clus>
<clus scale="  217.652">  2  5  1 -1</clus>
<clus scale="  257.082">  1  5  2 -1</clus>
</clustering>
</event>
<event>
 9    2  0.2147756E-005  0.2541745E+03  0.7546771E-02  0.1143931E+00
         21   -1    0    0  501  502  0.00000000000E+00  0.00000000000E+00  0.52850448116E+02  0.52850448116E+02  0.00000000000E+00 0. -1.
          2   -1    0    0  502    0 -0.00000000000E+00 -0.00000000000E+00 -0.92195555373E+03  0.92195555373E+03  0.00000000000E+00 0. -1.
         24    2    1    2    0    0  0.32207012319E+02  0.71702259559E+02 -0.57632933149E+03  0.58709173345E+03  0.79641066501E+02 0.  0.
         23    2    1    2    0    0 -0.50902958761E+02  0.56092869426E+02 -0.98565416404E+02  0.15447877271E+03  0.91711660631E+02 0.  0.
        -11    1    3    3    0    0  0.47763250281E+02  0.23841277794E+02 -0.18526851959E+03  0.19280601379E+03  0.00000000000E+00 0.  1.
         12    1    3    3    0    0 -0.15556237962E+02  0.47860981765E+02 -0.39106081191E+03  0.39428571966E+03  0.00000000000E+00 0. -1.
        -11    1    4    4    0    0 -0.57995744863E+02  0.28961584193E+02 -0.15283625152E+02  0.66602319622E+02  0.00000000000E+00 0. -1.
         11    1    4    4    0    0  0.70927861022E+01  0.27131285233E+02 -0.83281791252E+02  0.87876453088E+02  0.00000000000E+00 0.  1.
          1    1    1    2  501    0  0.18695946442E+02 -0.12779512899E+03 -0.19421035772E+03  0.23323549569E+03  0.00000000000E+00 0. -1.
<scales pt_clust_5="13000.00000" pt_clust_6="13000.00000" pt_clust_7="13000.00000" pt_clust_8="13000.00000" pt_clust_9="13000.00000"></scales>
<clustering>
<clus scale="   79.641">  5  6 -1 -1</clus>
<clus scale="   91.712">  7  8 -1 -1</clus>
<clus scale="  111.898">  2  5  1 -1</clus>
<clus scale="   91.454">  7  9 -1 -1</clus>
<clus scale="  254.175">  1  5  2 -1</clus>
</clustering>
</event>
<event>
 9    2  0.2147756E-005  0.4408632E+03  0.7546771E-02  0.1061270E+00
          2   -1    0    0  502    0 -0.00000000000E+00  0.00000000000E+00  0.21684184805E+04  0.21684184805E+04  0.00000000000E+00 0. -1.
         21   -1    0    0  501  502  0.00000000000E+00 -0.00000000000E+00 -0.49571427691E+02  0.49571427691E+02  0.00000000000E+00 0. -1.
         24    2    1    2    0    0 -0.13686509921E+03 -0.90880120574E+02  0.98126238294E+03  0.99796564593E+03  0.77899387651E+02 0.  0.
         23    2    1    2    0    0  0.53433225239E+01 -0.14339340319E+03  0.36287477878E+03  0.40005019130E+03  0.88157990628E+02 0.  0.
        -13    1    3    3    0    0  0.26181754238E+00 -0.32758504283E+02  0.19172733344E+03  0.19450593446E+03  0.00000000000E+00 0.  1.
         14    1    3    3    0    0 -0.13712691675E+03 -0.58121616291E+02  0.78953504950E+03  0.80345971148E+03  0.00000000000E+00 0. -1.
        -13    1    4    4    0    0  0.23684414225E+01 -0.96794676241E+02  0.32737826612E+03  0.34139617454E+03  0.00000000000E+00 0. -1.
         13    1    4    4    0    0  0.29748811014E+01 -0.46598726953E+02  0.35496512658E+02  0.58654016760E+02  0.00000000000E+00 0.  1.
          1    1    1    2  501    0  0.13152177669E+03  0.23427352377E+03  0.77470989107E+03  0.81997407093E+03  0.00000000000E+00 0. -1.
<scales pt_clust_5="13000.00000" pt_clust_6="13000.00000" pt_clust_7="13000.00000" pt_clust_8="13000.00000" pt_clust_9="13000.00000"></scales>
<clustering>
<clus scale="   77.899">  5  6 -1 -1</clus>
<clus scale="   88.158">  7  8 -1 -1</clus>
<clus scale="  181.823">  1  5  2 -1</clus>
<clus scale="  177.137">  7  9 -1 -1</clus>
<clus scale="  440.863">  2  5  1 -1</clus>
</clustering>
</event>
<event>
 9    2  0.2147756E-005  0.4810692E+03  0.7546771E-02  0.1056737E+00
         21   -1    0    0  501  502  0.00000000000E+00  0.00000000000E+00  0.16649821556E+03  0.16649821556E+03  0.00000000000E+00 0. -1.
          4   -1    0    0  502    0 -0.00000000000E+00 -0.00000000000E+00 -0.12358958544E+04  0.12358958544E+04  0.00000000000E+00 0. -1.
         24    2    1    2    0    0 -0.12322772534E+03  0.59790345069E+02 -0.86538481217E+03  0.87985338378E+03  0.80567649535E+02 0.  0.
         23    2    1    2    0    0 -0.15927271625E+03 -0.71203113820E+02 -0.96475720070E+02  0.22004939688E+03  0.93147683502E+02 0.  0.
        -13    1    3    3    0    0 -0.65086088180E+02  0.62175873269E+02 -0.35798667744E+03  0.36912938018E+03  0.00000000000E+00 0.  1.
         14    1    3    3    0    0 -0.58141637165E+02 -0.23855282005E+01 -0.50739813473E+03  0.51072400359E+03  0.00000000000E+00 0. -1.
        -11    1    4    4    0    0 -0.11313470403E+03 -0.11289109359E+02 -0.25894440372E+02  0.11660800697E+03  0.00000000000E+00 0.  1.
         11    1    4    4    0    0 -0.46138012220E+02 -0.59914004461E+02 -0.70581279698E+02  0.10344138991E+03  0.00000000000E+00 0. -1.
          3    1    1    2  501    0  0.28250044160E+03  0.11412768751E+02 -0.10753710656E+03  0.30249128926E+03  0.00000000000E+00 0. -1.
<scales pt_clust_5="13000.00000" pt_clust_6="13000.00000" pt_clust_7="13000.00000" pt_clust_8="13000.00000" pt_clust_9="13000.00000"></scales>
<clustering>
<clus scale="   80.568">  5  6 -1 -1</clus>
<clus scale="   93.148">  7  8 -1 -1</clus>
<clus scale="  158.906">  2  5  1 -1</clus>
<clus scale="  217.692">  7  9 -1 -1</clus>
<clus scale="  481.069">  1  5  2 -1</clus>
</clustering>
</event>
<event>
 9    2  0.2147756E-005  0.1538909E+03  0.7546771E-02  0.1224453E+00
         -3   -1    0    0    0  501 -0.00000000000E+00  0.00000000000E+00  0.52461405636E+02  0.52461405636E+02  0.00000000000E+00 0.  1.
         21   -1    0    0  501  502  0.00000000000E+00 -0.00000000000E+00 -0.27331469629E+03  0.27331469629E+03  0.00000000000E+00 0.  1.
         24    2    1    2    0    0  0.70108827164E+01 -0.24413992528E-01 -0.57264771103E+02  0.10117954981E+03  0.83119758284E+02 0.  0.
         23    2    1    2    0    0 -0.10071804565E+02 -0.41457511760E+02 -0.14779462385E+03  0.18010423202E+03  0.93670256877E+02 0.  0.
        -11    1    3    3    0    0  0.24771397632E+02  0.33755480076E+02 -0.44095859480E+02  0.60807067016E+02  0.00000000000E+00 0.  1.
         12    1    3    3    0    0 -0.17760514916E+02 -0.33779894069E+02 -0.13168911623E+02  0.40372482791E+02  0.00000000000E+00 0. -1.
        -11    1    4    4    0    0 -0.48175653211E+02 -0.43398968042E+01 -0.85073968923E+02  0.97863723896E+02  0.00000000000E+00 0. -1.
         11    1    4    4    0    0  0.38103848646E+02 -0.37117614956E+02 -0.62720654926E+02  0.82240508121E+02  0.00000000000E+00 0.  1.
         -4    1    1    2    0  502  0.30609218485E+01  0.41481925753E+02 -0.15793895704E+02  0.44492320104E+02  0.00000000000E+00 0.  1.
<scales pt_clust_5="13000.00000" pt_clust_6="13000.00000" pt_clust_7="13000.00000" pt_clust_8="13000.00000" pt_clust_9="13000.00000"></scales>
<clustering>
<clus scale="   83.120">  5  6 -1 -1</clus>
<clus scale="   83.415">  1  5  2 -1</clus>
<clus scale="   93.670">  7  8 -1 -1</clus>
<clus scale="   41.955">  7  9 -1 -1</clus>
<clus scale="  153.891">  2  5  1 -1</clus>
</clustering>
</event>
<event>
 9    2  0.2147756E-005  0.1519713E+03  0.7546771E-02  0.1222883E+00
          2   -1    0    0  502    0 -0.00000000000E+00  0.00000000000E+00  0.22160478741E+03  0.22160478741E+03  0.00000000000E+00 0. -1.
         21   -1    0    0  501  502  0.00000000000E+00 -0.00000000000E+00 -0.64828475779E+03  0.64828475779E+03  0.00000000000E+00 0.  1.
         24    2    1    2    0    0 -0.30073042035E+02  0.19361011864E+02  0.20314605938E+03  0.22198823480E+03  0.82044002295E+02 0.  0.
         23    2    1    2    0    0  0.52284797979E+02 -0.45066960373E+02 -0.43610819695E+03  0.45122707050E+03  0.93009562333E+02 0.  0.
        -11    1    3    3    0    0 -0.49141358533E+02 -0.65502407236E+01  0.75286640266E+02  0.90143535401E+02  0.00000000000E+00 0.  1.
         12    1    3    3    0    0  0.19068316499E+02  0.25911252588E+02  0.12785941911E+03  0.13184469940E+03  0.00000000000E+00 0. -1.
        -13    1    4    4    0    0 -0.19972076086E+01 -0.58834779098E+02 -0.19449192925E+03  0.20320588233E+03  0.00000000000E+00 0.  1.
         13    1    4    4    0    0  0.54282005587E+02  0.13767818724E+02 -0.24161626770E+03  0.24802118817E+03  0.00000000000E+00 0. -1.
          1    1    1    2  501    0 -0.22211755944E+02  0.25705948509E+02 -0.19371783281E+03  0.19667423990E+03  0.00000000000E+00 0. -1.
<scales pt_clust_5="13000.00000" pt_clust_6="13000.00000" pt_clust_7="13000.00000" pt_clust_8="13000.00000" pt_clust_9="13000.00000"></scales>
<clustering>
<clus scale="   82.044">  5  6 -1 -1</clus>
<clus scale="   89.501">  1  5  2 -1</clus>
<clus scale="   93.010">  7  8 -1 -1</clus>
<clus scale="   39.619">  7  9 -1 -1</clus>
<clus scale="  151.971">  2  5  1 -1</clus>
</clustering>
</event>
<event>
 9    2  0.2147756E-005  0.3348447E+03  0.7546771E-02  0.1091674E+00
         -3   -1    0    0    0  501 -0.00000000000E+00  0.00000000000E+00  0.17734547820E+04  0.17734547820E+04  0.00000000000E+00 0.  1.
         21   -1    0    0  501  502  0.00000000000E+00 -0.00000000000E+00 -0.37695749649E+02  0.37695749649E+02  0.00000000000E+00 0.  1.
         24    2    1    2    0    0 -0.90210594292E+02 -0.13563398659E+03  0.64309386915E+03  0.66833027802E+03  0.81000656423E+02 0.  0.
         23    2    1    2    0    0  0.11509302745E+03 -0.42569050922E+02  0.55746084951E+03  0.57817955775E+03  0.92035173660E+02 0.  0.
        -13    1    3    3    0    0 -0.44044469958E+02 -0.11962976752E+03  0.53030882204E+03  0.54541602777E+03  0.00000000000E+00 0.  1.
         14    1    3    3    0    0 -0.46166124334E+02 -0.16004219067E+02  0.11278504710E+03  0.12291425025E+03  0.00000000000E+00 0. -1.
        -11    1    4    4    0    0 -0.56313993998E+01 -0.27277046847E+02  0.61581782326E+02  0.67587468205E+02  0.00000000000E+00 0. -1.
         11    1    4    4    0    0  0.12072442685E+03 -0.15292004075E+02  0.49587906719E+03  0.51059208954E+03  0.00000000000E+00 0.  1.
         -4    1    1    2    0  502 -0.24882433157E+02  0.17820303751E+03  0.53520431367E+03  0.56464069587E+03  0.00000000000E+00 0.  1.
<scales pt_clust_5="13000.00000" pt_clust_6="13000.00000" pt_clust_7="13000.00000" pt_clust_8="13000.00000" pt_clust_9="13000.00000"></scales>
<clustering>
<clus scale="   81.001">  5  6 -1 -1</clus>
<clus scale="   92.035">  7  8 -1 -1</clus>
<clus scale="  179.932">  7  9 -1 -1</clus>
<clus scale="  181.922">  1  5  2 -1</clus>
<clus scale="  334.845">  2  5  1 -1</clus>
</clustering>
</event>
<event>
 9    2  0.2147756E-005  0.2142132E+03  0.7546771E-02  0.1154952E+00
         21   -1    0    0  501  502  0.00000000000E+00  0.00000000000E+00  0.67152209148E+03  0.67152209148E+03  0.00000000000E+00 0.  1.
         -3   -1    0    0    0  501 -0.00000000000E+00 -0.00000000000E+00 -0.82241072441E+02  0.82241072441E+02  0.00000000000E+00 0.  1.
         24    2    1    2    0    0  0.60052358764E+02 -0.10333511368E+03  0.50238315199E+03  0.52259543472E+03  0.80204273465E+02 0.  0.
         23    2    1    2    0    0  0.27923332725E+02  0.66992931762E+02  0.29943744612E+02  0.12024321188E+03  0.91071602296E+02 0.  0.
        -13    1    3    3    0    0  0.67116534314E+02 -0.35871017880E+02  0.26483953220E+03  0.27555641331E+03  0.00000000000E+00 0.  1.
         14    1    3    3    0    0 -0.70641755497E+01 -0.67464095802E+02  0.23754361979E+03  0.24703902141E+03  0.00000000000E+00 0. -1.
        -13    1    4    4    0    0 -0.71305946781E+01  0.79027634029E+02  0.21949617790E+02  0.82328597958E+02  0.00000000000E+00 0.  1.
         13    1    4    4    0    0  0.35053927403E+02 -0.12034702266E+02  0.79941268216E+01  0.37914613920E+02  0.00000000000E+00 0. -1.
         -4    1    1    2    0  502 -0.87975691489E+02  0.36342181919E+02  0.56954122444E+02  0.11092451732E+03  0.00000000000E+00 0.  1.
<scales pt_clust_5="13000.00000" pt_clust_6="13000.00000" pt_clust_7="13000.00000" pt_clust_8="13000.00000" pt_clust_9="13000.00000"></scales>
<clustering>
<clus scale="   80.204">  5  6 -1 -1</clus>
<clus scale="   91.072">  7  8 -1 -1</clus>
<clus scale="   95.187">  7  9 -1 -1</clus>
<clus scale="  143.935">  2  5  1 -1</clus>
<clus scale="  214.213">  1  5  2 -1</clus>
</clustering>
</event>
<event>
 9    2  0.2147756E-005  0.2742493E+03  0.7546771E-02  0.1125042E+00
         21   -1    0    0  501  502  0.00000000000E+00  0.00000000000E+00  0.95981675649E+02  0.95981675649E+02  0.00000000000E+00 0. -1.
          2   -1    0    0  502    0 -0.00000000000E+00 -0.00000000000E+00 -0.50300418653E+03  0.50300418653E+03  0.00000000000E+00 0. -1.
         24    2    1    2    0    0 -0.71560190762E+02  0.90221876832E+02 -0.23839487407E+03  0.27704184342E+03  0.81604038275E+02 0.  0.
         23    2    1    2    0    0 -0.20504952215E+02 -0.90145195273E+00  0.21039932635E+02  0.92972588767E+02  0.88204069157E+02 0.  0.
        -11    1    3    3    0    0 -0.18893485050E+02  0.68742656555E+02 -0.18794990952E+03  0.20101662890E+03  0.00000000000E+00 0.  1.
         12    1    3    3    0    0 -0.52666705712E+02  0.21479220277E+02 -0.50444964557E+02  0.76025214524E+02  0.00000000000E+00 0. -1.
        -13    1    4    4    0    0  0.49315516971E+01 -0.41818051783E+02  0.62109026220E+01  0.42563422894E+02  0.00000000000E+00 0.  1.
         13    1    4    4    0    0 -0.25436503912E+02  0.40916599830E+02  0.14829030013E+02  0.50409165873E+02  0.00000000000E+00 0. -1.
          1    1    1    2  501    0  0.92065142977E+02 -0.89320424880E+02 -0.18966756944E+03  0.22897142999E+03  0.00000000000E+00 0. -1.
<scales pt_clust_5="13000.00000" pt_clust_6="13000.00000" pt_clust_7="13000.00000" pt_clust_8="13000.00000" pt_clust_9="13000.00000"></scales>
<clustering>
<clus scale="   81.604">  5  6 -1 -1</clus>
<clus scale="   88.204">  7  8 -1 -1</clus>
<clus scale="  128.274">  7  9 -1 -1</clus>
<clus scale="  141.138">  2  5  1 -1</clus>
<clus scale="  274.249">  1  5  2 -1</clus>
</clustering>
</event>
<event>
 9    2  0.2147756E-005  0.3044021E+03  0.7546771E-02  0.1123078E+00
         21   -1    0    0  501  502  0.00000000000E+00  0.00000000000E+00  0.64582132485E+02  0.64582132485E+02  0.00000000000E+00 0. -1.
          2   -1    0    0  502    0 -0.00000000000E+00 -0.00000000000E+00 -0.72341016669E+03  0.72341016669E+03  0.00000000000E+00 0. -1.
         24    2    1    2    0    0  0.47813947242E+02  0.54357426460E+02 -0.29110867920E+03  0.31062641260E+03  0.80644911426E+02 0.  0.
         23    2    1    2    0    0 -0.95884739957E+02 -0.14830992632E+03 -0.22666521804E+03  0.30120078532E+03  0.90305450603E+02 0.  0.
        -11    1    3    3    0    0 -0.97590354687E+01  0.44510229682E+02 -0.85530466902E+02  0.96911609667E+02  0.00000000000E+00 0.  1.
         12    1    3    3    0    0  0.57572982711E+02  0.98471967772E+01 -0.20557821230E+03  0.21371480294E+03  0.00000000000E+00 0. -1.
        -13    1    4    4    0    0  0.95483050525E+01 -0.59337900129E+02 -0.76491766381E+02  0.97278707049E+02  0.00000000000E+00 0.  1.
         13    1    4    4    0    0 -0.10543304501E+03 -0.88972026194E+02 -0.15017345165E+03  0.20392207827E+03  0.00000000000E+00 0. -1.
          1    1    1    2  501    0  0.48070792715E+02  0.93952499863E+02 -0.14105413697E+03  0.17616510126E+03  0.00000000000E+00 0. -1.
<scales pt_clust_5="13000.00000" pt_clust_6="13000.00000" pt_clust_7="13000.00000" pt_clust_8="13000.00000" pt_clust_9="13000.00000"></scales>
<clustering>
<clus scale="   80.645">  5  6 -1 -1</clus>
<clus scale="   90.305">  7  8 -1 -1</clus>
<clus scale="  105.536">  7  9 -1 -1</clus>
<clus scale="  108.372">  2  5  1 -1</clus>
<clus scale="  304.402">  1  5  2 -1</clus>
</clustering>
</event>
<event>
 9    2  0.2147756E-005  0.2044366E+03  0.7546771E-02  0.1176452E+00
         21   -1    0    0  501  502  0.00000000000E+00  0.00000000000E+00  0.33859105739E+03  0.33859105739E+03  0.00000000000E+00 0. -1.
         -1   -1    0    0    0  501 -0.00000000000E+00 -0.00000000000E+00 -0.21918607974E+03  0.21918607974E+03  0.00000000000E+00 0.  1.
         24    2    1    2    0    0 -0.41707486101E+02 -0.41579854420E+02 -0.17343230987E+03  0.20063852080E+03  0.81906356484E+02 0.  0.
         23    2    1    2    0    0  0.44886492541E+02 -0.47910744012E+02  0.19366706544E+03  0.22352197726E+03  0.90249130063E+02 0.  0.
        -13    1    3    3    0    0 -0.88147531585E+01 -0.61482363264E+02 -0.99171512975E+02  0.11701610937E+03  0.00000000000E+00 0.  1.
         14    1    3    3    0    0 -0.32892732942E+02  0.19902508844E+02 -0.74260796891E+02  0.83622411431E+02  0.00000000000E+00 0. -1.
        -13    1    4    4    0    0  0.13930312086E+02 -0.54018228159E+02  0.18120423381E+03  0.18959693278E+03  0.00000000000E+00 0. -1.
         13    1    4    4    0    0  0.30956180454E+02  0.61074841478E+01  0.12462831635E+02  0.33925044485E+02  0.00000000000E+00 0.  1.
         -2    1    1    2    0  502 -0.31790064397E+01  0.89490598432E+02  0.99170222074E+02  0.13361663907E+03  0.00000000000E+00 0.  1.
<scales pt_clust_5="13000.00000" pt_clust_6="13000.00000" pt_clust_7="13000.00000" pt_clust_8="13000.00000" pt_clust_9="13000.00000"></scales>
<clustering>
<clus scale="   81.906">  5  6 -1 -1</clus>
<clus scale="   90.249">  7  8 -1 -1</clus>
<clus scale="   89.547">  7  9 -1 -1</clus>
<clus scale="  100.881">  2  5  1 -1</clus>
<clus scale="  204.437">  1  5  2 -1</clus>
</clustering>
</event>
<event>
 9    2  0.2147756E-005  0.3633101E+03  0.7546771E-02  0.1097006E+00
         21   -1    0    0  501  502  0.00000000000E+00  0.00000000000E+00  0.14307606304E+03  0.14307606304E+03  0.00000000000E+00 0. -1.
         -1   -1    0    0    0  501 -0.00000000000E+00 -0.00000000000E+00 -0.41541884629E+03  0.41541884629E+03  0.00000000000E+00 0.  1.
         24    2    1    2    0    0  0.80074922164E+01  0.94694800191E+02 -0.79703267163E+02  0.14727211545E+03  0.79405541851E+02 0.  0.
         23    2    1    2    0    0  0.37512433393E+02  0.11323694436E+03 -0.92993614428E+02  0.17619730646E+03  0.90376381057E+02 0.  0.
        -11    1    3    3    0    0  0.37072349874E+02  0.74727454107E+02 -0.74080788899E+02  0.11156394940E+03  0.00000000000E+00 0.  1.
         12    1    3    3    0    0 -0.29064857658E+02  0.19967346084E+02 -0.56224782636E+01  0.35708166043E+02  0.00000000000E+00 0. -1.
        -13    1    4    4    0    0  0.62216828508E+02  0.44313658490E+02 -0.45054591096E+02  0.88682299571E+02  0.00000000000E+00 0. -1.
         13    1    4    4    0    0 -0.24704395115E+02  0.68923285868E+02 -0.47939023331E+02  0.87515006889E+02  0.00000000000E+00 0.  1.
         -2    1    1    2    0  502 -0.45519925610E+02 -0.20793174455E+03 -0.99645901662E+02  0.23502548742E+03  0.00000000000E+00 0.  1.
<scales pt_clust_5="13000.00000" pt_clust_6="13000.00000" pt_clust_7="13000.00000" pt_clust_8="13000.00000" pt_clust_9="13000.00000"></scales>
<clustering>
<clus scale="   79.406">  5  6 -1 -1</clus>
<clus scale="   90.376">  7  8 -1 -1</clus>
<clus scale="  123.840">  2  5  1 -1</clus>
<clus scale="  160.787">  7  9 -1 -1</clus>
<clus scale="  363.310">  1  5  2 -1</clus>
</clustering>
</event>
<event>
 9    2  0.2147756E-005  0.1911354E+03  0.7546771E-02  0.1186134E+00
          2   -1    0    0  502    0 -0.00000000000E+00  0.00000000000E+00  0.89533798940E+03  0.89533798940E+03  0.00000000000E+00 0. -1.
         21   -1    0    0  501  502  0.00000000000E+00 -0.00000000000E+00 -0.67070638289E+02  0.67070638289E+02  0.00000000000E+00 0. -1.
         24    2    1    2    0    0 -0.18526502709E+01 -0.58608036292E+02  0.74888179776E+03  0.75544295721E+03  0.80198381284E+02 0.  0.
         23    2    1    2    0    0 -0.32234647297E+02 -0.31961435551E+02  0.38121549699E+02  0.10176352657E+03  0.82716122607E+02 0.  0.
        -11    1    3    3    0    0 -0.79942989954E+01 -0.55002676205E+02  0.23394025992E+03  0.24045217491E+03  0.00000000000E+00 0.  1.
         12    1    3    3    0    0  0.61416487245E+01 -0.36053600866E+01  0.51494153784E+03  0.51499078231E+03  0.00000000000E+00 0. -1.
        -11    1    4    4    0    0 -0.34980540871E+02  0.52274660772E+01  0.51215417640E+02  0.62241333897E+02  0.00000000000E+00 0.  1.
         11    1    4    4    0    0  0.27458935746E+01 -0.37188901628E+02 -0.13093867941E+02  0.39522192670E+02  0.00000000000E+00 0. -1.
          1    1    1    2  501    0  0.34087297568E+02  0.90569471843E+02  0.41264003656E+02  0.10520214391E+03  0.00000000000E+00 0. -1.
<scales pt_clust_5="13000.00000" pt_clust_6="13000.00000" pt_clust_7="13000.00000" pt_clust_8="13000.00000" pt_clust_9="13000.00000"></scales>
<clustering>
<clus scale="   80.198">  5  6 -1 -1</clus>
<clus scale="   82.716">  7  8 -1 -1</clus>
<clus scale="   96.772">  7  9 -1 -1</clus>
<clus scale="   99.348">  1  5  2 -1</clus>
<clus scale="  191.135">  2  5  1 -1</clus>
</clustering>
</event>
<event>
 9    2  0.2147756E-005  0.3456653E+03  0.7546771E-02  0.1085498E+00
         21   -1    0    0  501  502  0.00000000000E+00  0.00000000000E+00  0.40741312825E+03  0.40741312825E+03  0.00000000000E+00 0.  1.
         -1   -1    0    0    0  501 -0.00000000000E+00 -0.00000000000E+00 -0.18353497769E+03  0.18353497769E+03  0.00000000000E+00 0.  1.
         24    2    1    2    0    0 -0.14696754880E+03 -0.99703661146E+02  0.12493139578E+03  0.23139988008E+03  0.79986063814E+02 0.  0.
         23    2    1    2    0    0  0.51089492646E+02  0.18368339491E+03  0.17185483190E+02  0.20812133635E+03  0.81666541437E+02 0.  0.
        -11    1    3    3    0    0 -0.87844026624E+02 -0.79055827165E+02  0.12024750125E+03  0.16859969863E+03  0.00000000000E+00 0.  1.
         12    1    3    3    0    0 -0.59123522176E+02 -0.20647833981E+02  0.46838945368E+01  0.62800181454E+02  0.00000000000E+00 0. -1.
        -13    1    4    4    0    0  0.42605735786E+01  0.14066311046E+03  0.28360374766E+02  0.14355686674E+03  0.00000000000E+00 0.  1.
         13    1    4    4    0    0  0.46828919067E+02  0.43020284449E+02 -0.11174891576E+02  0.64564469616E+02  0.00000000000E+00 0. -1.
         -2    1    1    2    0  502  0.95878056154E+02 -0.83979733761E+02  0.81761271584E+02  0.15142688951E+03  0.00000000000E+00 0.  1.
<scales pt_clust_5="13000.00000" pt_clust_6="13000.00000" pt_clust_7="13000.00000" pt_clust_8="13000.00000" pt_clust_9="13000.00000"></scales>
<clustering>
<clus scale="   79.986">  5  6 -1 -1</clus>
<clus scale="   81.667">  7  8 -1 -1</clus>
<clus scale="  127.457">  7  9 -1 -1</clus>
<clus scale="  194.777">  2  5  1 -1</clus>
<clus scale="  345.665">  1  5  2 -1</clus>
</clustering>
</event>
<event>
 9    2  0.2147756E-005  0.3882718E+03  0.7546771E-02  0.1091518E+00
         21   -1    0    0  501  502  0.00000000000E+00  0.00000000000E+00  0.13405261870E+03  0.13405261870E+03  0.00000000000E+00 0.  1.
          2   -1    0    0  502    0 -0.00000000000E+00 -0.00000000000E+00 -0.47651927046E+03  0.47651927046E+03  0.00000000000E+00 0. -1.
         24    2    1    2    0    0 -0.51232580522E+02 -0.68921448825E+02 -0.82990410296E+02  0.14357841308E+03  0.79702001780E+02 0.  0.
         23    2    1    2    0    0 -0.43886850173E+02 -0.78239718714E+02  0.26591120501E+02  0.13152566702E+03  0.92435946431E+02 0.  0.
        -11    1    3    3    0    0 -0.68132902491E+02 -0.29597789224E+02 -0.50111834567E+02  0.89606458988E+02  0.00000000000E+00 0.  1.
         12    1    3    3    0    0  0.16900321969E+02 -0.39323659601E+02 -0.32878575729E+02  0.53971954096E+02  0.00000000000E+00 0. -1.
        -11    1    4    4    0    0 -0.20755287761E+02 -0.46491911290E+02  0.60894220940E+02  0.79374970421E+02  0.00000000000E+00 0.  1.
         11    1    4    4    0    0 -0.23131562412E+02 -0.31747807424E+02 -0.34303100439E+02  0.52150696597E+02  0.00000000000E+00 0. -1.
          1    1    1    2  501    0  0.95119430695E+02  0.14716116754E+03 -0.28606736197E+03  0.33546780905E+03  0.00000000000E+00 0. -1.
<scales pt_clust_5="13000.00000" pt_clust_6="13000.00000" pt_clust_7="13000.00000" pt_clust_8="13000.00000" pt_clust_9="13000.00000"></scales>
<clustering>
<clus scale="   79.702">  5  6 -1 -1</clus>
<clus scale="   92.436">  7  8 -1 -1</clus>
<clus scale="  117.164">  2  5  1 -1</clus>
<clus scale="  102.023">  7  9 -1 -1</clus>
<clus scale="  388.272">  1  5  2 -1</clus>
</clustering>
</event>
<event>
 9    2  0.2147756E-005  0.5116261E+03  0.7546771E-02  0.1040600E+00
          2   -1    0    0  502    0 -0.00000000000E+00  0.00000000000E+00  0.17938953460E+03  0.17938953460E+03  0.00000000000E+00 0. -1.
         21   -1    0    0  501  502  0.00000000000E+00 -0.00000000000E+00 -0.72492883557E+03  0.72492883557E+03  0.00000000000E+00 0. -1.
         24    2    1    2    0    0 -0.18015430457E+03  0.75321114674E+02 -0.15614689159E+03  0.26136604870E+03  0.76167682722E+02 0.  0.
         23    2    1    2    0    0 -0.58863290656E+02 -0.56666555269E+02  0.56869520637E+02  0.13636855387E+03  0.93200078510E+02 0.  0.
        -11    1    3    3    0    0 -0.10912667178E+03  0.75729802905E+02 -0.71445959554E+02  0.15082492725E+03  0.00000000000E+00 0.  1.
         12    1    3    3    0    0 -0.71027632788E+02 -0.40868823067E+00 -0.84700932033E+02  0.11054112146E+03  0.00000000000E+00 0. -1.
        -11    1    4    4    0    0 -0.48203231939E-01  0.22180401670E+02 -0.10698971156E+01  0.22206242853E+02  0.00000000000E+00 0.  1.
         11    1    4    4    0    0 -0.58815087424E+02 -0.78846956940E+02  0.57939417753E+02  0.11416231102E+03  0.00000000000E+00 0. -1.
          1    1    1    2  501    0  0.23901759523E+03 -0.18654559405E+02 -0.44626193002E+03  0.50658376760E+03  0.00000000000E+00 0. -1.
<scales pt_clust_5="13000.00000" pt_clust_6="13000.00000" pt_clust_7="13000.00000" pt_clust_8="13000.00000" pt_clust_9="13000.00000"></scales>
<clustering>
<clus scale="   76.168">  5  6 -1 -1</clus>
<clus scale="   93.200">  7  8 -1 -1</clus>
<clus scale="  209.596">  1  5  2 -1</clus>
<clus scale="  196.160">  7  9 -1 -1</clus>
<clus scale="  511.626">  2  5  1 -1</clus>
</clustering>
</event>
<event>
 9    2  0.2147756E-005  0.1691286E+03  0.7546771E-02  0.1197725E+00
         -3   -1    0    0    0  501 -0.00000000000E+00  0.00000000000E+00  0.18067683795E+03  0.18067683795E+03  0.00000000000E+00 0.  1.
         21   -1    0    0  501  502  0.00000000000E+00 -0.00000000000E+00 -0.17842106152E+03  0.17842106152E+03  0.00000000000E+00 0. -1.
         24    2    1    2    0    0 -0.78108419057E+02  0.32436450694E+01  0.11178784488E+03  0.15759913746E+03  0.78927305189E+02 0.  0.
         23    2    1    2    0    0  0.33898614149E+02  0.36920320242E+02 -0.43906825392E+02  0.11276137708E+03  0.90967536834E+02 0.  0.
        -13    1    3    3    0    0 -0.90449449864E+02 -0.10288710982E+02  0.10241732248E+03  0.13702652480E+03  0.00000000000E+00 0.  1.
         14    1    3    3    0    0  0.12341030807E+02  0.13532356051E+02  0.93705223976E+01  0.20572612660E+02  0.00000000000E+00 0. -1.
        -13    1    4    4    0    0  0.39368675825E+02  0.43859622016E+00 -0.60603320346E+02  0.72269270370E+02  0.00000000000E+00 0. -1.
         13    1    4    4    0    0 -0.54700616753E+01  0.36481724022E+02  0.16696494954E+02  0.40492106714E+02  0.00000000000E+00 0.  1.
         -4    1    1    2    0  502  0.44209804908E+02 -0.40163965312E+02 -0.65625243053E+02  0.88737384936E+02  0.00000000000E+00 0.  1.
<scales pt_clust_5="13000.00000" pt_clust_6="13000.00000" pt_clust_7="13000.00000" pt_clust_8="13000.00000" pt_clust_9="13000.00000"></scales>
<clustering>
<clus scale="   78.927">  5  6 -1 -1</clus>
<clus scale="   90.968">  7  8 -1 -1</clus>
<clus scale="   59.730">  7  9 -1 -1</clus>
<clus scale="  111.090">  1  5  2 -1</clus>
<clus scale="  169.129">  2  5  1 -1</clus>
</clustering>
</event>
<event>
 9    2  0.2147756E-005  0.2647655E+03  0.7546771E-02  0.1140140E+00
          2   -1    0    0  502    0 -0.00000000000E+00  0.00000000000E+00  0.15413452257E+04  0.15413452257E+04  0.00000000000E+00 0. -1.
         21   -1    0    0  501  502  0.00000000000E+00 -0.00000000000E+00 -0.96777062154E+02  0.96777062154E+02  0.00000000000E+00 0. -1.
         24    2    1    2    0    0  0.84358230241E+01  0.70371028053E+02  0.13539391118E+04  0.13582752395E+04  0.82080831929E+02 0.  0.
         23    2    1    2    0    0 -0.57273694217E+02  0.43200456474E+02  0.10337923251E+03  0.15556435900E+03  0.91468292800E+02 0.  0.
        -13    1    3    3    0    0 -0.26457813586E+02  0.17244418927E+02  0.19040641785E+03  0.19300774555E+03  0.00000000000E+00 0.  1.
         14    1    3    3    0    0  0.34893636610E+02  0.53126609126E+02  0.11635326940E+04  0.11652674940E+04  0.00000000000E+00 0. -1.
        -11    1    4    4    0    0  0.20327640876E+02  0.16955904527E+02  0.39961752790E+01  0.26770974931E+02  0.00000000000E+00 0.  1.
         11    1    4    4    0    0 -0.77601335093E+02  0.26244551947E+02  0.99383057232E+02  0.12879338407E+03  0.00000000000E+00 0. -1.
          1    1    1    2  501    0  0.48837871193E+02 -0.11357148453E+03 -0.12750180812E+02  0.12428268935E+03  0.00000000000E+00 0. -1.
<scales pt_clust_5="13000.00000" pt_clust_6="13000.00000" pt_clust_7="13000.00000" pt_clust_8="13000.00000" pt_clust_9="13000.00000"></scales>
<clustering>
<clus scale="   82.081">  5  6 -1 -1</clus>
<clus scale="   91.468">  7  8 -1 -1</clus>
<clus scale="  108.446">  1  5  2 -1</clus>
<clus scale="  105.711">  7  9 -1 -1</clus>
<clus scale="  264.765">  2  5  1 -1</clus>
</clustering>
</event>
<event>
 9    2  0.2147756E-005  0.1345379E+03  0.7546771E-02  0.1241033E+00
         21   -1    0    0  501  502  0.00000000000E+00  0.00000000000E+00  0.51483783789E+02  0.51483783789E+02  0.00000000000E+00 0. -1.
          4   -1    0    0  502    0 -0.00000000000E+00 -0.00000000000E+00 -0.50501616432E+03  0.50501616432E+03  0.00000000000E+00 0. -1.
         24    2    1    2    0    0  0.23930757010E+02  0.28075630861E+02 -0.40319323795E+03  0.41285288420E+03  0.80757629272E+02 0.  0.
         23    2    1    2    0    0  0.18295200368E+01 -0.17135625649E+02 -0.10262639033E+02  0.94765556933E+02  0.92618638572E+02 0.  0.
        -11    1    3    3    0    0 -0.25204660140E+02  0.30133362362E+02 -0.16177399707E+03  0.16647558544E+03  0.00000000000E+00 0.  1.
         12    1    3    3    0    0  0.49135417149E+02 -0.20577315013E+01 -0.24141924087E+03  0.24637729875E+03  0.00000000000E+00 0. -1.
        -13    1    4    4    0    0 -0.63656812115E+01 -0.40839315402E+02  0.27346984067E+02  0.49560358326E+02  0.00000000000E+00 0. -1.
         13    1    4    4    0    0  0.81952012484E+01  0.23703689753E+02 -0.37609623100E+02  0.45205198607E+02  0.00000000000E+00 0.  1.
          3    1    1    2  501    0 -0.25760277046E+02 -0.10940005212E+02 -0.40076503554E+02  0.48881506981E+02  0.00000000000E+00 0. -1.
<scales pt_clust_5="13000.00000" pt_clust_6="13000.00000" pt_clust_7="13000.00000" pt_clust_8="13000.00000" pt_clust_9="13000.00000"></scales>
<clustering>
<clus scale="   80.758">  5  6 -1 -1</clus>
<clus scale="   88.785">  2  5  1 -1</clus>
<clus scale="   92.619">  7  8 -1 -1</clus>
<clus scale="   14.912">  7  9 -1 -1</clus>
<clus scale="  134.538">  1  5  2 -1</clus>
</clustering>
</event>
<event>
 9    2  0.2147756E-005  0.5956993E+03  0.7546771E-02  0.1051969E+00
         21   -1    0    0  501  502  0.00000000000E+00  0.00000000000E+00  0.87856037980E+03  0.87856037980E+03  0.00000000000E+00 0. -1.
          2   -1    0    0  502    0 -0.00000000000E+00 -0.00000000000E+00 -0.15215935948E+03  0.15215935948E+03  0.00000000000E+00 0. -1.
         24    2    1    2    0    0  0.45261659210E+02 -0.66566646424E+01  0.60512392996E+01  0.95967677732E+02  0.84144213667E+02 0.  0.
         23    2    1    2    0    0 -0.28055190587E+02 -0.11334837593E+03 -0.38250758118E+02  0.16652549971E+03  0.11239516677E+03 0.  0.
        -13    1    3    3    0    0  0.47404973343E+02  0.20963268203E+02 -0.22211604375E+02  0.56391891973E+02  0.00000000000E+00 0.  1.
         14    1    3    3    0    0 -0.21433141335E+01 -0.27619932846E+02  0.28262843674E+02  0.39575785759E+02  0.00000000000E+00 0. -1.
        -11    1    4    4    0    0  0.31801279946E+02 -0.69905755071E+02  0.11121445181E+02  0.77600402971E+02  0.00000000000E+00 0.  1.
         11    1    4    4    0    0 -0.59856470533E+02 -0.43442620856E+02 -0.49372203299E+02  0.88925096740E+02  0.00000000000E+00 0. -1.
          1    1    1    2  501    0 -0.17206468623E+02  0.12000504057E+03  0.75860053914E+03  0.76822656184E+03  0.00000000000E+00 0. -1.
<scales pt_clust_5="13000.00000" pt_clust_6="13000.00000" pt_clust_7="13000.00000" pt_clust_8="13000.00000" pt_clust_9="13000.00000"></scales>
<clustering>
<clus scale="   84.144">  5  6 -1 -1</clus>
<clus scale="   95.777">  2  5  1 -1</clus>
<clus scale="  112.395">  7  8 -1 -1</clus>
<clus scale="  120.664">  7  9 -1 -1</clus>
<clus scale="  595.699">  1  5  2 -1</clus>
</clustering>
</event>
<event>
 9    2  0.2147756E-005  0.3483811E+03  0.7546771E-02  0.1100271E+00
         21   -1    0    0  501  502  0.00000000000E+00  0.00000000000E+00  0.57057848813E+02  0.57057848813E+02  0.00000000000E+00 0.  1.
          2   -1    0    0  502    0 -0.00000000000E+00 -0.00000000000E+00 -0.10307568701E+04  0.10307568701E+04  0.00000000000E+00 0. -1.
         24    2    1    2    0    0 -0.10896382740E+03 -0.19893578112E+02 -0.35583551586E+03  0.37850186040E+03  0.66150388081E+02 0.  0.
         23    2    1    2    0    0 -0.80847190307E+02 -0.35268913444E+02 -0.12844710462E+03  0.18148756896E+03  0.93053288845E+02 0.  0.
        -13    1    3    3    0    0 -0.52462162744E+02  0.23419052969E+02 -0.17325759062E+03  0.18253471798E+03  0.00000000000E+00 0.  1.
         14    1    3    3    0    0 -0.56501664660E+02 -0.43312631081E+02 -0.18257792524E+03  0.19596714241E+03  0.00000000000E+00 0. -1.
        -13    1    4    4    0    0 -0.55796811239E+02  0.23003593670E+02 -0.39086402629E+02  0.71904077330E+02  0.00000000000E+00 0. -1.
         13    1    4    4    0    0 -0.25050379068E+02 -0.58272507114E+02 -0.89360701996E+02  0.10958349163E+03  0.00000000000E+00 0.  1.
          1    1    1    2  501    0  0.18981101771E+03  0.55162491556E+02 -0.48941640076E+03  0.52782528952E+03  0.00000000000E+00 0. -1.
<scales pt_clust_5="13000.00000" pt_clust_6="13000.00000" pt_clust_7="13000.00000" pt_clust_8="13000.00000" pt_clust_9="13000.00000"></scales>
<clustering>
<clus scale="   66.150">  5  6 -1 -1</clus>
<clus scale="   93.053">  7  8 -1 -1</clus>
<clus scale="  129.015">  2  5  1 -1</clus>
<clus scale="  113.541">  7  9 -1 -1</clus>
<clus scale="  348.381">  1  5  2 -1</clus>
</clustering>
</event>
<event>
 9    2  0.2147756E-005  0.3453442E+03  0.7546771E-02  0.1116484E+00
         21   -1    0    0  501  502  0.00000000000E+00  0.00000000000E+00  0.45728661305E+03  0.45728661305E+03  0.00000000000E+00 0. -1.
          2   -1    0    0  502    0 -0.00000000000E+00 -0.00000000000E+00 -0.10396074175E+03  0.10396074175E+03  0.00000000000E+00 0. -1.
         24    2    1    2    0    0 -0.96955688361E+01 -0.34912046155E+02  0.45618563105E+02  0.98703968970E+02  0.79677883813E+02 0.  0.
         23    2    1    2    0    0 -0.13193657277E+03  0.89195151210E+02  0.11005939858E+03  0.21340283273E+03  0.89803471898E+02 0.  0.
        -11    1    3    3    0    0  0.17597839297E+02  0.18106557170E+02  0.25201410437E+02  0.35674114543E+02  0.00000000000E+00 0.  1.
         12    1    3    3    0    0 -0.27293408133E+02 -0.53018603325E+02  0.20417152668E+02  0.63029854427E+02  0.00000000000E+00 0. -1.
        -11    1    4    4    0    0 -0.11937060520E+03  0.10747567532E+03  0.95549290068E+02  0.18689577043E+03  0.00000000000E+00 0. -1.
         11    1    4    4    0    0 -0.12565967567E+02 -0.18280524107E+02  0.14510108516E+02  0.26507062298E+02  0.00000000000E+00 0.  1.
          1    1    1    2  501    0  0.14163214161E+03 -0.54283105055E+02  0.19764790961E+03  0.24914055311E+03  0.00000000000E+00 0. -1.
<scales pt_clust_5="13000.00000" pt_clust_6="13000.00000" pt_clust_7="13000.00000" pt_clust_8="13000.00000" pt_clust_9="13000.00000"></scales>
<clustering>
<clus scale="   79.678">  5  6 -1 -1</clus>
<clus scale="   87.530">  2  5  1 -1</clus>
<clus scale="   89.803">  7  8 -1 -1</clus>
<clus scale="  153.293">  7  9 -1 -1</clus>
<clus scale="  345.344">  1  5  2 -1</clus>
</clustering>
</event>
<event>
 9    2  0.2147756E-005  0.1711810E+03  0.7546771E-02  0.1196567E+00
         21   -1    0    0  501  502  0.00000000000E+00  0.00000000000E+00  0.15215178395E+03  0.15215178395E+03  0.00000000000E+00 0. -1.
         -1   -1    0    0    0  501 -0.00000000000E+00 -0.00000000000E+00 -0.15180110395E+03  0.15180110395E+03  0.00000000000E+00 0.  1.
         24    2    1    2    0    0  0.39161288913E+02 -0.63258780732E+02 -0.56524812018E+02  0.12357061952E+03  0.80866332583E+02 0.  0.
         23    2    1    2    0    0 -0.58564921515E+02  0.32013336009E+01  0.51949533244E+02  0.11707616295E+03  0.86994111060E+02 0.  0.
        -13    1    3    3    0    0  0.14893337255E+02 -0.64920048782E+02 -0.69279696836E+02  0.96104633718E+02  0.00000000000E+00 0.  1.
         14    1    3    3    0    0  0.24267951658E+02  0.16612680503E+01  0.12754884818E+02  0.27465985799E+02  0.00000000000E+00 0. -1.
        -13    1    4    4    0    0  0.34971927573E+01  0.31902750430E+02  0.15495142796E+01  0.32131243933E+02  0.00000000000E+00 0.  1.
         13    1    4    4    0    0 -0.62062114272E+02 -0.28701416830E+02  0.50400018964E+02  0.84944919021E+02  0.00000000000E+00 0. -1.
         -2    1    1    2    0  502  0.19403632602E+02  0.60057447131E+02  0.49259587724E+01  0.63306105423E+02  0.00000000000E+00 0.  1.
<scales pt_clust_5="13000.00000" pt_clust_6="13000.00000" pt_clust_7="13000.00000" pt_clust_8="13000.00000" pt_clust_9="13000.00000"></scales>
<clustering>
<clus scale="   80.866">  5  6 -1 -1</clus>
<clus scale="   86.994">  7  8 -1 -1</clus>
<clus scale="   63.114">  7  9 -1 -1</clus>
<clus scale="  109.885">  2  5  1 -1</clus>
<clus scale="  171.181">  1  5  2 -1</clus>
</clustering>
</event>
<event>
 9    2  0.2147756E-005  0.5333104E+03  0.7546771E-02  0.1051931E+00
         -3   -1    0    0    0  501 -0.00000000000E+00  0.00000000000E+00  0.11459541290E+04  0.11459541290E+04  0.00000000000E+00 0.  1.
         21   -1    0    0  501  502  0.00000000000E+00 -0.00000000000E+00 -0.16321567271E+03  0.16321567271E+03  0.00000000000E+00 0.  1.
         24    2    1    2    0    0 -0.97745888903E+02 -0.46695427695E+02  0.68594160098E+03  0.69883519407E+03  0.78230599847E+02 0.  0.
         23    2    1    2    0    0 -0.43981963263E+02  0.18372302084E+03  0.34669475159E+03  0.40697987955E+03  0.98725934294E+02 0.  0.
        -11    1    3    3    0    0 -0.10010591570E+03 -0.61887722731E+02  0.62497292162E+03  0.63595788960E+03  0.00000000000E+00 0.  1.
         12    1    3    3    0    0  0.23600267977E+01  0.15192295037E+02  0.60968679360E+02  0.62877304473E+02  0.00000000000E+00 0. -1.
        -11    1    4    4    0    0 -0.27490086486E+02  0.13789026183E+03  0.15534110552E+03  0.20952395621E+03  0.00000000000E+00 0.  1.
         11    1    4    4    0    0 -0.16491876777E+02  0.45832759010E+02  0.19135364607E+03  0.19745592334E+03  0.00000000000E+00 0. -1.
         -4    1    1    2    0  502  0.14172785217E+03 -0.13702759314E+03 -0.49897896323E+02  0.20335472805E+03  0.00000000000E+00 0.  1.
<scales pt_clust_5="13000.00000" pt_clust_6="13000.00000" pt_clust_7="13000.00000" pt_clust_8="13000.00000" pt_clust_9="13000.00000"></scales>
<clustering>
<clus scale="   78.231">  5  6 -1 -1</clus>
<clus scale="   98.726">  7  8 -1 -1</clus>
<clus scale="  133.622">  1  5  2 -1</clus>
<clus scale="  191.512">  7  9 -1 -1</clus>
<clus scale="  533.310">  2  5  1 -1</clus>
</clustering>
</event>
<event>
 9    2  0.2147756E-005  0.6873357E+03  0.7546771E-02  0.1037000E+00
         -1   -1    0    0    0  501 -0.00000000000E+00  0.00000000000E+00  0.10680274511E+04  0.10680274511E+04  0.00000000000E+00 0.  1.
         21   -1    0    0  501  502  0.00000000000E+00 -0.00000000000E+00 -0.18789059868E+03  0.18789059868E+03  0.00000000000E+00 0.  1.
         24    2    1    2    0    0 -0.30042597228E+02 -0.42122710495E+02 -0.42832767247E+02  0.10513430282E+03  0.80880747355E+02 0.  0.
         23    2    1    2    0    0 -0.21328963782E+03 -0.18564183849E+03  0.22788050560E+03  0.37991660996E+03  0.11158738233E+03 0.  0.
        -13    1    3    3    0    0 -0.54938179201E+02 -0.14943483029E+02 -0.14797534635E+02  0.58825829788E+02  0.00000000000E+00 0.  1.
         14    1    3    3    0    0  0.24895581972E+02 -0.27179227466E+02 -0.28035232612E+02  0.46308473037E+02  0.00000000000E+00 0. -1.
        -11    1    4    4    0    0 -0.13801157365E+03 -0.17872094046E+03  0.19125014966E+03  0.29591381983E+03  0.00000000000E+00 0.  1.
         11    1    4    4    0    0 -0.75278064164E+02 -0.69208980281E+01  0.36630355937E+02  0.84002790132E+02  0.00000000000E+00 0. -1.
         -2    1    1    2    0  502  0.24333223505E+03  0.22776454899E+03  0.69508911410E+03  0.77086713701E+03  0.00000000000E+00 0.  1.
<scales pt_clust_5="13000.00000" pt_clust_6="13000.00000" pt_clust_7="13000.00000" pt_clust_8="13000.00000" pt_clust_9="13000.00000"></scales>
<clustering>
<clus scale="   80.881">  5  6 -1 -1</clus>
<clus scale="   96.013">  1  5  2 -1</clus>
<clus scale="  111.587">  7  8 -1 -1</clus>
<clus scale="  297.532">  7  9 -1 -1</clus>
<clus scale="  687.336">  2  5  1 -1</clus>
</clustering>
</event>
<event>
 9    2  0.2147756E-005  0.2351629E+04  0.7546771E-02  0.9284227E-01
          2   -1    0    0  502    0 -0.00000000000E+00  0.00000000000E+00  0.12808833591E+04  0.12808833591E+04  0.00000000000E+00 0. -1.
         21   -1    0    0  501  502  0.00000000000E+00 -0.00000000000E+00 -0.11825917543E+04  0.11825917543E+04  0.00000000000E+00 0. -1.
         24    2    1    2    0    0 -0.15532281816E+02 -0.20935155920E+02  0.73600572308E+02  0.11171683221E+03  0.79900399392E+02 0.  0.
         23    2    1    2    0    0 -0.30404488393E+03  0.10679974344E+03  0.11399182495E+04  0.11884724015E+04  0.95935170810E+02 0.  0.
        -11    1    3    3    0    0 -0.39715998940E+01 -0.35688605530E+02  0.14663237582E+00  0.35909214298E+02  0.00000000000E+00 0.  1.
         12    1    3    3    0    0 -0.11560681922E+02  0.14753449611E+02  0.73453939932E+02  0.75807617912E+02  0.00000000000E+00 0. -1.
        -13    1    4    4    0    0 -0.94523343349E+02  0.67024854378E+02  0.29213006075E+03  0.31427212083E+03  0.00000000000E+00 0.  1.
         13    1    4    4    0    0 -0.20952154058E+03  0.39774889063E+02  0.84778818875E+03  0.87420028068E+03  0.00000000000E+00 0. -1.
          1    1    1    2  501    0  0.31957716574E+03 -0.85864587522E+02 -0.11152272170E+04  0.11632858797E+04  0.00000000000E+00 0. -1.
<scales pt_clust_5="13000.00000" pt_clust_6="13000.00000" pt_clust_7="13000.00000" pt_clust_8="13000.00000" pt_clust_9="13000.00000"></scales>
<clustering>
<clus scale="   79.900">  5  6 -1 -1</clus>
<clus scale="   84.045">  1  5  2 -1</clus>
<clus scale="   95.935">  7  8 -1 -1</clus>
<clus scale="  330.718">  7  9 -1 -1</clus>
<clus scale=" 2351.629">  2  5  1 -1</clus>
</clustering>
</event>
<event>
 9    2  0.2147756E-005  0.2359487E+03  0.7546771E-02  0.1147850E+00
         21   -1    0    0  501  502  0.00000000000E+00  0.00000000000E+00  0.85142217023E+02  0.85142217023E+02  0.00000000000E+00 0.  1.
          2   -1    0    0  502    0 -0.00000000000E+00 -0.00000000000E+00 -0.52104946159E+03  0.52104946159E+03  0.00000000000E+00 0. -1.
         24    2    1    2    0    0 -0.31572069813E+02 -0.10126011626E+03 -0.31769699503E+03  0.34228741175E+03  0.70561213517E+02 0.  0.
         23    2    1    2    0    0 -0.40194654190E+02  0.21608100530E+02  0.58261210933E+01  0.99953275642E+02  0.88736651901E+02 0.  0.
        -11    1    3    3    0    0 -0.47169714089E+02 -0.33493481454E+02 -0.14288569307E+03  0.15415289978E+03  0.00000000000E+00 0.  1.
         12    1    3    3    0    0  0.15597644275E+02 -0.67766634805E+02 -0.17481130196E+03  0.18813451196E+03  0.00000000000E+00 0. -1.
        -13    1    4    4    0    0 -0.22944001737E+01  0.31439525759E+02  0.37930384847E+02  0.49319591916E+02  0.00000000000E+00 0.  1.
         13    1    4    4    0    0 -0.37900254016E+02 -0.98314252288E+01 -0.32104263754E+02  0.50633683726E+02  0.00000000000E+00 0. -1.
          1    1    1    2  501    0  0.71766724004E+02  0.79652015729E+02 -0.12403637063E+03  0.16395099122E+03  0.00000000000E+00 0. -1.
<scales pt_clust_5="13000.00000" pt_clust_6="13000.00000" pt_clust_7="13000.00000" pt_clust_8="13000.00000" pt_clust_9="13000.00000"></scales>
<clustering>
<clus scale="   70.561">  5  6 -1 -1</clus>
<clus scale="   88.737">  7  8 -1 -1</clus>
<clus scale="  107.214">  7  9 -1 -1</clus>
<clus scale="  127.394">  2  5  1 -1</clus>
<clus scale="  235.949">  1  5  2 -1</clus>
</clustering>
</event>
<event>
 9    2  0.2147756E-005  0.2135425E+03  0.7546771E-02  0.1177187E+00
         21   -1    0    0  501  502  0.00000000000E+00  0.00000000000E+00  0.47191017086E+03  0.47191017086E+03  0.00000000000E+00 0. -1.
         -3   -1    0    0    0  501 -0.00000000000E+00 -0.00000000000E+00 -0.72773966823E+02  0.72773966823E+02  0.00000000000E+00 0.  1.
         24    2    1    2    0    0 -0.29580539882E+02  0.12143183287E+02  0.29408450055E+03  0.30670037805E+03  0.80975077576E+02 0.  0.
         23    2    1    2    0    0 -0.18304568253E+02 -0.10268245359E+02 -0.27189710010E+02  0.97327119494E+02  0.91064777916E+02 0.  0.
        -13    1    3    3    0    0 -0.56927900029E+02  0.88055720423E+01  0.16675237020E+03  0.17642187185E+03  0.00000000000E+00 0.  1.
         14    1    3    3    0    0  0.27347360147E+02  0.33376112446E+01  0.12733213036E+03  0.13027850620E+03  0.00000000000E+00 0. -1.
        -11    1    4    4    0    0 -0.78925385411E+01 -0.46097907511E+02 -0.35963808989E+02  0.58997498239E+02  0.00000000000E+00 0.  1.
         11    1    4    4    0    0 -0.10412029712E+02  0.35829662151E+02  0.87740989797E+01  0.38329621254E+02  0.00000000000E+00 0. -1.
         -4    1    1    2    0  502  0.47885108134E+02 -0.18749379274E+01  0.13224141350E+03  0.14065664014E+03  0.00000000000E+00 0.  1.
<scales pt_clust_5="13000.00000" pt_clust_6="13000.00000" pt_clust_7="13000.00000" pt_clust_8="13000.00000" pt_clust_9="13000.00000"></scales>
<clustering>
<clus scale="   80.975">  5  6 -1 -1</clus>
<clus scale="   87.060">  2  5  1 -1</clus>
<clus scale="   91.065">  7  8 -1 -1</clus>
<clus scale="   46.026">  7  9 -1 -1</clus>
<clus scale="  213.543">  1  5  2 -1</clus>
</clustering>
</event>
<event>
 9    2  0.2147756E-005  0.1181183E+03  0.7546771E-02  0.1263213E+00
          2   -1    0    0  502    0 -0.00000000000E+00  0.00000000000E+00  0.46713563130E+03  0.46713563130E+03  0.00000000000E+00 0. -1.
         21   -1    0    0  501  502  0.00000000000E+00 -0.00000000000E+00 -0.25364220250E+02  0.25364220250E+02  0.00000000000E+00 0.  1.
         24    2    1    2    0    0 -0.11727797986E+02 -0.18307042458E+02  0.99651559083E+02  0.13056348211E+03  0.81508898807E+02 0.  0.
         23    2    1    2    0    0 -0.13989010513E+02  0.84592085651E+01  0.25790276327E+03  0.27333133515E+03  0.89044555419E+02 0.  0.
        -11    1    3    3    0    0  0.32064416483E+02 -0.36467309429E+01  0.18515931763E+02  0.37205714346E+02  0.00000000000E+00 0.  1.
         12    1    3    3    0    0 -0.43792214469E+02 -0.14660311515E+02  0.81135627320E+02  0.93357767767E+02  0.00000000000E+00 0. -1.
        -11    1    4    4    0    0 -0.43476374433E+02  0.24565978591E+02  0.20223899613E+03  0.20831297125E+03  0.00000000000E+00 0.  1.
         11    1    4    4    0    0  0.29487363920E+02 -0.16106770026E+02  0.55663767140E+02  0.65018363897E+02  0.00000000000E+00 0. -1.
          1    1    1    2  501    0  0.25716808499E+02  0.98478338930E+01  0.84217088702E+02  0.88605034288E+02  0.00000000000E+00 0. -1.
<scales pt_clust_5="13000.00000" pt_clust_6="13000.00000" pt_clust_7="13000.00000" pt_clust_8="13000.00000" pt_clust_9="13000.00000"></scales>
<clustering>
<clus scale="   81.509">  5  6 -1 -1</clus>
<clus scale="   84.359">  1  5  2 -1</clus>
<clus scale="   89.045">  7  8 -1 -1</clus>
<clus scale="   23.457">  7  9 -1 -1</clus>
<clus scale="  118.118">  2  5  1 -1</clus>
</clustering>
</event>
<event>
 9    2  0.2147756E-005  0.3156515E+03  0.7546771E-02  0.1108670E+00
         -1   -1    0    0    0  501 -0.00000000000E+00  0.00000000000E+00  0.33660011724E+03  0.33660011724E+03  0.00000000000E+00 0.  1.
         21   -1    0    0  501  502  0.00000000000E+00 -0.00000000000E+00 -0.16694347499E+03  0.16694347499E+03  0.00000000000E+00 0.  1.
         24    2    1    2    0    0  0.67068000427E+02  0.92031859817E+02  0.11962999857E+03  0.18395234628E+03  0.80988574769E+02 0.  0.
         23    2    1    2    0    0  0.26706073123E+02  0.74200523871E+02  0.47649104284E+02  0.12871842192E+03  0.89883607623E+02 0.  0.
        -11    1    3    3    0    0  0.21532741555E+02  0.46141246279E+02  0.34975772911E+01  0.51038285767E+02  0.00000000000E+00 0.  1.
         12    1    3    3    0    0  0.45535258872E+02  0.45890613537E+02  0.11613242128E+03  0.13291406052E+03  0.00000000000E+00 0. -1.
        -13    1    4    4    0    0 -0.26216088687E+02  0.57751135970E+02  0.32501861960E+02  0.71266037091E+02  0.00000000000E+00 0.  1.
         13    1    4    4    0    0  0.52922161810E+02  0.16449387900E+02  0.15147242324E+02  0.57452384833E+02  0.00000000000E+00 0. -1.
         -2    1    1    2    0  502 -0.93774073550E+02 -0.16623238369E+03  0.23775393979E+01  0.19087282402E+03  0.00000000000E+00 0.  1.
<scales pt_clust_5="13000.00000" pt_clust_6="13000.00000" pt_clust_7="13000.00000" pt_clust_8="13000.00000" pt_clust_9="13000.00000"></scales>
<clustering>
<clus scale="   80.989">  5  6 -1 -1</clus>
<clus scale="   89.884">  7  8 -1 -1</clus>
<clus scale="  139.740">  1  5  2 -1</clus>
<clus scale="  131.901">  7  9 -1 -1</clus>
<clus scale="  315.652">  2  5  1 -1</clus>
</clustering>
</event>
<event>
 9    2  0.2147756E-005  0.2341746E+03  0.7546771E-02  0.1160455E+00
          2   -1    0    0  502    0 -0.00000000000E+00  0.00000000000E+00  0.62971535895E+03  0.62971535895E+03  0.00000000000E+00 0. -1.
         21   -1    0    0  501  502  0.00000000000E+00 -0.00000000000E+00 -0.43699697672E+02  0.43699697672E+02  0.00000000000E+00 0. -1.
         24    2    1    2    0    0  0.43354395000E+02 -0.32189894241E+02  0.15179723068E+03  0.18007601289E+03  0.80431202399E+02 0.  0.
         23    2    1    2    0    0  0.67781632604E+02  0.38496601535E+02  0.25953137962E+03  0.28620006390E+03  0.92073891616E+02 0.  0.
        -13    1    3    3    0    0 -0.19903633985E+02 -0.16249638986E+02  0.75174795777E+02  0.79444668374E+02  0.00000000000E+00 0.  1.
         14    1    3    3    0    0  0.63258028985E+02 -0.15940255255E+02  0.76622434903E+02  0.10063134452E+03  0.00000000000E+00 0. -1.
        -13    1    4    4    0    0  0.59421185470E+02  0.60481677317E+02  0.24322432555E+03  0.25757908128E+03  0.00000000000E+00 0.  1.
         13    1    4    4    0    0  0.83604471349E+01 -0.21985075783E+02  0.16307054076E+02  0.28620982619E+02  0.00000000000E+00 0. -1.
          1    1    1    2  501    0 -0.11113602760E+03 -0.63067072937E+01  0.17468705098E+03  0.20713897984E+03  0.00000000000E+00 0. -1.
<scales pt_clust_5="13000.00000" pt_clust_6="13000.00000" pt_clust_7="13000.00000" pt_clust_8="13000.00000" pt_clust_9="13000.00000"></scales>
<clustering>
<clus scale="   80.431">  5  6 -1 -1</clus>
<clus scale="   92.074">  7  8 -1 -1</clus>
<clus scale="   96.876">  1  5  2 -1</clus>
<clus scale="   95.317">  7  9 -1 -1</clus>
<clus scale="  234.175">  2  5  1 -1</clus>
</clustering>
</event>
<event>
 9    2  0.2147756E-005  0.2591930E+03  0.7546771E-02  0.1126205E+00
         21   -1    0    0  501  502  0.00000000000E+00  0.00000000000E+00  0.64108574173E+02  0.64108574173E+02  0.00000000000E+00 0. -1.
          2   -1    0    0  502    0 -0.00000000000E+00 -0.00000000000E+00 -0.69801636137E+03  0.69801636137E+03  0.00000000000E+00 0. -1.
         24    2    1    2    0    0  0.14111040152E+03 -0.63180198819E+01 -0.27530352586E+03  0.31965685448E+03  0.80227242707E+02 0.  0.
         23    2    1    2    0    0  0.47890319136E+01 -0.47889434984E+02 -0.15037837133E+03  0.18250055596E+03  0.91523032903E+02 0.  0.
        -11    1    3    3    0    0  0.25424182586E+02 -0.34784656221E+02 -0.65903806085E+02  0.78738002420E+02  0.00000000000E+00 0.  1.
         12    1    3    3    0    0  0.11568621893E+03  0.28466636339E+02 -0.20939971978E+03  0.24091885206E+03  0.00000000000E+00 0. -1.
        -11    1    4    4    0    0 -0.24657853831E+02 -0.45401099691E+02 -0.32643585027E+02  0.61113609386E+02  0.00000000000E+00 0. -1.
         11    1    4    4    0    0  0.29446885745E+02 -0.24883352933E+01 -0.11773478630E+03  0.12138694657E+03  0.00000000000E+00 0.  1.
          1    1    1    2  501    0 -0.14589943343E+03  0.54207454866E+02 -0.20822589000E+03  0.25996752510E+03  0.00000000000E+00 0. -1.
<scales pt_clust_5="13000.00000" pt_clust_6="13000.00000" pt_clust_7="13000.00000" pt_clust_8="13000.00000" pt_clust_9="13000.00000"></scales>
<clustering>
<clus scale="   80.227">  5  6 -1 -1</clus>
<clus scale="   91.523">  7  8 -1 -1</clus>
<clus scale="  155.644">  7  9 -1 -1</clus>
<clus scale="  162.445">  2  5  1 -1</clus>
<clus scale="  259.193">  1  5  2 -1</clus>
</clustering>
</event>
<event>
 9    2  0.2147756E-005  0.3161031E+03  0.7546771E-02  0.1111293E+00
         21   -1    0    0  501  502  0.00000000000E+00  0.00000000000E+00  0.13878457945E+03  0.13878457945E+03  0.00000000000E+00 0. -1.
          2   -1    0    0  502    0 -0.00000000000E+00 -0.00000000000E+00 -0.41965181811E+03  0.41965181811E+03  0.00000000000E+00 0. -1.
         24    2    1    2    0    0 -0.24186658988E+01 -0.10159848412E+03 -0.18859274712E+03  0.22914056599E+03  0.81302354195E+02 0.  0.
         23    2    1    2    0    0 -0.34531507554E+02 -0.82693756101E+02 -0.35549233188E+01  0.12144947747E+03  0.81894174316E+02 0.  0.
        -11    1    3    3    0    0  0.71295696640E+01 -0.31147444064E+02 -0.51016662103E+01  0.32357704391E+02  0.00000000000E+00 0.  1.
         12    1    3    3    0    0 -0.95482355628E+01 -0.70451040053E+02 -0.18349108091E+03  0.19678286160E+03  0.00000000000E+00 0. -1.
        -11    1    4    4    0    0 -0.54320883976E+02 -0.71850333582E+02  0.16127947125E+02  0.91505953633E+02  0.00000000000E+00 0. -1.
         11    1    4    4    0    0  0.19789376423E+02 -0.10843422519E+02 -0.19682870443E+02  0.29943523841E+02  0.00000000000E+00 0.  1.
          1    1    1    2  501    0  0.36950173452E+02  0.18429224022E+03 -0.88719568227E+02  0.20784635409E+03  0.00000000000E+00 0. -1.
<scales pt_clust_5="13000.00000" pt_clust_6="13000.00000" pt_clust_7="13000.00000" pt_clust_8="13000.00000" pt_clust_9="13000.00000"></scales>
<clustering>
<clus scale="   81.302">  5  6 -1 -1</clus>
<clus scale="   81.894">  7  8 -1 -1</clus>
<clus scale="  130.147">  2  5  1 -1</clus>
<clus scale="  118.198">  7  9 -1 -1</clus>
<clus scale="  316.103">  1  5  2 -1</clus>
</clustering>
</event>
<event>
 9    2  0.2147756E-005  0.5634382E+03  0.7546771E-02  0.1043184E+00
         21   -1    0    0  501  502  0.00000000000E+00  0.00000000000E+00  0.63021037731E+03  0.63021037731E+03  0.00000000000E+00 0. -1.
          2   -1    0    0  502    0 -0.00000000000E+00 -0.00000000000E+00 -0.30089912944E+03  0.30089912944E+03  0.00000000000E+00 0. -1.
         24    2    1    2    0    0 -0.74738989504E+02 -0.95113903782E+02 -0.13685582241E+03  0.19982681180E+03  0.81047315446E+02 0.  0.
         23    2    1    2    0    0 -0.12468011426E+03 -0.17096183436E+03  0.22506423205E+03  0.32055790147E+03  0.85617638071E+02 0.  0.
        -11    1    3    3    0    0 -0.47218527699E+02 -0.44784216145E+02 -0.17481534295E+02  0.67385602432E+02  0.00000000000E+00 0.  1.
         12    1    3    3    0    0 -0.27520461805E+02 -0.50329687637E+02 -0.11937428811E+03  0.13244120936E+03  0.00000000000E+00 0. -1.
        -11    1    4    4    0    0 -0.22476883021E+02 -0.13271349864E+02  0.77048560754E+02  0.81349982863E+02  0.00000000000E+00 0.  1.
         11    1    4    4    0    0 -0.10220323124E+03 -0.15769048450E+03  0.14801567129E+03  0.23920791861E+03  0.00000000000E+00 0. -1.
          1    1    1    2  501    0  0.19941910377E+03  0.26607573814E+03  0.24110283823E+03  0.41072479348E+03  0.00000000000E+00 0. -1.
<scales pt_clust_5="13000.00000" pt_clust_6="13000.00000" pt_clust_7="13000.00000" pt_clust_8="13000.00000" pt_clust_9="13000.00000"></scales>
<clustering>
<clus scale="   81.047">  5  6 -1 -1</clus>
<clus scale="   85.618">  7  8 -1 -1</clus>
<clus scale="  145.606">  2  5  1 -1</clus>
<clus scale="  255.145">  7  9 -1 -1</clus>
<clus scale="  563.438">  1  5  2 -1</clus>
</clustering>
</event>
<event>
 9    2  0.2147756E-005  0.3123675E+03  0.7546771E-02  0.1114790E+00
          2   -1    0    0  502    0 -0.00000000000E+00  0.00000000000E+00  0.16427362233E+03  0.16427362233E+03  0.00000000000E+00 0. -1.
         21   -1    0    0  501  502  0.00000000000E+00 -0.00000000000E+00 -0.29180213222E+03  0.29180213222E+03  0.00000000000E+00 0.  1.
         24    2    1    2    0    0  0.90940995862E+02  0.14726639295E+02 -0.56387204466E+02  0.13570945493E+03  0.82160822150E+02 0.  0.
         23    2    1    2    0    0  0.42619348935E+02 -0.10107920556E+03 -0.73030088275E+02  0.16131065243E+03  0.93028587505E+02 0.  0.
        -13    1    3    3    0    0  0.70129274131E+02  0.38806011107E+02 -0.64482902955E+02  0.10286917109E+03  0.00000000000E+00 0.  1.
         14    1    3    3    0    0  0.20811721731E+02 -0.24079371813E+02  0.80956984890E+01  0.32840283834E+02  0.00000000000E+00 0. -1.
        -13    1    4    4    0    0  0.45567411906E+02 -0.27373667908E+02 -0.69450991017E+02  0.87459401300E+02  0.00000000000E+00 0. -1.
         13    1    4    4    0    0 -0.29480629710E+01 -0.73705537656E+02 -0.35790972577E+01  0.73851251131E+02  0.00000000000E+00 0.  1.
          1    1    1    2  501    0 -0.13356034480E+03  0.86352566269E+02  0.18887828487E+01  0.15905564719E+03  0.00000000000E+00 0. -1.
<scales pt_clust_5="13000.00000" pt_clust_6="13000.00000" pt_clust_7="13000.00000" pt_clust_8="13000.00000" pt_clust_9="13000.00000"></scales>
<clustering>
<clus scale="   82.161">  5  6 -1 -1</clus>
<clus scale="   93.029">  7  8 -1 -1</clus>
<clus scale="  123.440">  1  5  2 -1</clus>
<clus scale="  121.612">  7  9 -1 -1</clus>
<clus scale="  312.368">  2  5  1 -1</clus>
</clustering>
</event>
<event>
 9    2  0.2147756E-005  0.3280050E+03  0.7546771E-02  0.1135610E+00
          2   -1    0    0  502    0 -0.00000000000E+00  0.00000000000E+00  0.75811044212E+02  0.75811044212E+02  0.00000000000E+00 0. -1.
         21   -1    0    0  501  502  0.00000000000E+00 -0.00000000000E+00 -0.55543984792E+03  0.55543984792E+03  0.00000000000E+00 0. -1.
         24    2    1    2    0    0  0.25268621201E+02 -0.48285081685E+01 -0.20254884033E+02  0.66793904869E+02  0.58218104503E+02 0.  0.
         23    2    1    2    0    0 -0.76839754285E+02  0.59098984453E+02 -0.41186194248E+02  0.13962073638E+03  0.91654839641E+02 0.  0.
        -11    1    3    3    0    0  0.19523378841E+02 -0.21984500097E+02  0.10409176044E+02  0.31190247062E+02  0.00000000000E+00 0.  1.
         12    1    3    3    0    0  0.57452423601E+01  0.17155991928E+02 -0.30664060077E+02  0.35603657807E+02  0.00000000000E+00 0. -1.
        -13    1    4    4    0    0 -0.97389873149E+02  0.45101507975E+02 -0.25809982736E+02  0.11038608890E+03  0.00000000000E+00 0. -1.
         13    1    4    4    0    0  0.20550118864E+02  0.13997476478E+02 -0.15376211512E+02  0.29234647484E+02  0.00000000000E+00 0.  1.
          1    1    1    2  501    0  0.51571133085E+02 -0.54270476285E+02 -0.41818772543E+03  0.42483625088E+03  0.00000000000E+00 0. -1.
<scales pt_clust_5="13000.00000" pt_clust_6="13000.00000" pt_clust_7="13000.00000" pt_clust_8="13000.00000" pt_clust_9="13000.00000"></scales>
<clustering>
<clus scale="   58.218">  5  6 -1 -1</clus>
<clus scale="   63.649">  1  5  2 -1</clus>
<clus scale="   91.655">  7  8 -1 -1</clus>
<clus scale="   76.194">  7  9 -1 -1</clus>
<clus scale="  328.005">  2  5  1 -1</clus>
</clustering>
</event>
<event>
 9    2  0.2147756E-005  0.2251257E+03  0.7546771E-02  0.1150011E+00
         21   -1    0    0  501  502  0.00000000000E+00  0.00000000000E+00  0.22624920287E+03  0.22624920287E+03  0.00000000000E+00 0.  1.
          2   -1    0    0  502    0 -0.00000000000E+00 -0.00000000000E+00 -0.15501579470E+03  0.15501579470E+03  0.00000000000E+00 0. -1.
         24    2    1    2    0    0 -0.46847019892E+01 -0.11584456278E+03 -0.15113327821E+02  0.14014810922E+03  0.77273350395E+02 0.  0.
         23    2    1    2    0    0  0.10333179322E+02  0.15628852185E+03  0.53225701282E+02  0.18853721489E+03  0.90445726630E+02 0.  0.
        -11    1    3    3    0    0  0.26846199953E+02 -0.15014439491E+02  0.84662617683E+01  0.31903439211E+02  0.00000000000E+00 0.  1.
         12    1    3    3    0    0 -0.31530901943E+02 -0.10083012329E+03 -0.23579589589E+02  0.10824467001E+03  0.00000000000E+00 0. -1.
        -11    1    4    4    0    0 -0.37537471815E+02  0.66016980819E+02  0.66186531975E+01  0.76230637652E+02  0.00000000000E+00 0. -1.
         11    1    4    4    0    0  0.47870651137E+02  0.90271541028E+02  0.46607048085E+02  0.11230657724E+03  0.00000000000E+00 0.  1.
          1    1    1    2  501    0 -0.56484773325E+01 -0.40443959068E+02  0.33121034704E+02  0.52579673459E+02  0.00000000000E+00 0. -1.
<scales pt_clust_5="13000.00000" pt_clust_6="13000.00000" pt_clust_7="13000.00000" pt_clust_8="13000.00000" pt_clust_9="13000.00000"></scales>
<clustering>
<clus scale="   77.273">  5  6 -1 -1</clus>
<clus scale="   90.446">  7  8 -1 -1</clus>
<clus scale="   40.837">  7  9 -1 -1</clus>
<clus scale="  139.331">  2  5  1 -1</clus>
<clus scale="  225.126">  1  5  2 -1</clus>
</clustering>
</event>
<event>
 9    2  0.2147756E-005  0.2249384E+03  0.7546771E-02  0.1147614E+00
          2   -1    0    0  502    0 -0.00000000000E+00  0.00000000000E+00  0.14706530730E+03  0.14706530730E+03  0.00000000000E+00 0. -1.
         21   -1    0    0  501  502  0.00000000000E+00 -0.00000000000E+00 -0.24276342393E+03  0.24276342393E+03  0.00000000000E+00 0.  1.
         24    2    1    2    0    0 -0.28432511329E+02  0.12092765779E+03 -0.69473112215E+02  0.16336668912E+03  0.80188874999E+02 0.  0.
         23    2    1    2    0    0 -0.15104124923E+02 -0.88802944367E+01 -0.55547961176E+02  0.10272891750E+03  0.84620684713E+02 0.  0.
        -13    1    3    3    0    0 -0.38017589148E+02  0.16707425403E+02 -0.31147915807E+02  0.51910189821E+02  0.00000000000E+00 0.  1.
         14    1    3    3    0    0  0.95850778185E+01  0.10422023239E+03 -0.38325196408E+02  0.11145649930E+03  0.00000000000E+00 0. -1.
        -13    1    4    4    0    0  0.13523319976E+02 -0.25117024983E+02 -0.62846801774E+02  0.69017864502E+02  0.00000000000E+00 0.  1.
         13    1    4    4    0    0 -0.28627444899E+02  0.16236730546E+02  0.72988405984E+01  0.33711052999E+02  0.00000000000E+00 0. -1.
          1    1    1    2  501    0  0.43536636252E+02 -0.11204736336E+03  0.29322956760E+02  0.12373312461E+03  0.00000000000E+00 0. -1.
<scales pt_clust_5="13000.00000" pt_clust_6="13000.00000" pt_clust_7="13000.00000" pt_clust_8="13000.00000" pt_clust_9="13000.00000"></scales>
<clustering>
<clus scale="   80.189">  5  6 -1 -1</clus>
<clus scale="   84.621">  7  8 -1 -1</clus>
<clus scale="  120.208">  7  9 -1 -1</clus>
<clus scale="  147.859">  1  5  2 -1</clus>
<clus scale="  224.938">  2  5  1 -1</clus>
</clustering>
</event>
<event>
 9    2  0.2147756E-005  0.7322081E+03  0.7546771E-02  0.1018692E+00
         21   -1    0    0  501  502  0.00000000000E+00  0.00000000000E+00  0.13194603873E+03  0.13194603873E+03  0.00000000000E+00 0. -1.
          2   -1    0    0  502    0 -0.00000000000E+00 -0.00000000000E+00 -0.14390502853E+04  0.14390502853E+04  0.00000000000E+00 0. -1.
         24    2    1    2    0    0 -0.80874045218E+02 -0.63042978593E+02 -0.24941902749E+03  0.28459564655E+03  0.90938454030E+02 0.  0.
         23    2    1    2    0    0  0.68947285539E+02 -0.26996537098E+03 -0.17184757010E+03  0.33996253961E+03  0.91694663307E+02 0.  0.
        -13    1    3    3    0    0 -0.22521580662E+02 -0.67215888169E+02 -0.18208602614E+03  0.19539835755E+03  0.00000000000E+00 0.  1.
         14    1    3    3    0    0 -0.58352464556E+02  0.41729095757E+01 -0.67333001350E+02  0.89197289000E+02  0.00000000000E+00 0. -1.
        -13    1    4    4    0    0 -0.22407487199E+02 -0.56873092540E+02 -0.29191090285E+02  0.67740415482E+02  0.00000000000E+00 0.  1.
         13    1    4    4    0    0  0.91354772739E+02 -0.21309227844E+03 -0.14265647981E+03  0.27222212413E+03  0.00000000000E+00 0. -1.
          1    1    1    2  501    0  0.11926759679E+02  0.33300834957E+03 -0.88583764902E+03  0.94643813792E+03  0.00000000000E+00 0. -1.
<scales pt_clust_5="13000.00000" pt_clust_6="13000.00000" pt_clust_7="13000.00000" pt_clust_8="13000.00000" pt_clust_9="13000.00000"></scales>
<clustering>
<clus scale="   90.938">  5  6 -1 -1</clus>
<clus scale="   91.695">  7  8 -1 -1</clus>
<clus scale="  137.058">  2  5  1 -1</clus>
<clus scale="  288.329">  7  9 -1 -1</clus>
<clus scale="  732.208">  1  5  2 -1</clus>
</clustering>
</event>
<event>
 9    2  0.2147756E-005  0.1987620E+03  0.7546771E-02  0.1186208E+00
          2   -1    0    0  502    0 -0.00000000000E+00  0.00000000000E+00  0.14620289809E+04  0.14620289809E+04  0.00000000000E+00 0. -1.
         21   -1    0    0  501  502  0.00000000000E+00 -0.00000000000E+00 -0.15746872013E+02  0.15746872013E+02  0.00000000000E+00 0.  1.
         24    2    1    2    0    0 -0.31206261619E+02 -0.29462642122E+01  0.69781505152E+03  0.70336686665E+03  0.82441444237E+02 0.  0.
         23    2    1    2    0    0  0.41041790862E+02 -0.69910982979E+02  0.41199235413E+03  0.42999623676E+03  0.92666550761E+02 0.  0.
        -11    1    3    3    0    0  0.19563613244E+02  0.19451412574E+02  0.13291509200E+03  0.13574798008E+03  0.00000000000E+00 0.  1.
         12    1    3    3    0    0 -0.50769874863E+02 -0.22397676787E+02  0.56489995952E+03  0.56761888657E+03  0.00000000000E+00 0. -1.
        -13    1    4    4    0    0  0.38685524050E+02 -0.92539287080E+02  0.34135925389E+03  0.35578958619E+03  0.00000000000E+00 0.  1.
         13    1    4    4    0    0  0.23562668121E+01  0.22628304101E+02  0.70633100244E+02  0.74206650577E+02  0.00000000000E+00 0. -1.
          1    1    1    2  501    0 -0.98355292427E+01  0.72857247191E+02  0.33647470321E+03  0.34441274948E+03  0.00000000000E+00 0. -1.
<scales pt_clust_5="13000.00000" pt_clust_6="13000.00000" pt_clust_7="13000.00000" pt_clust_8="13000.00000" pt_clust_9="13000.00000"></scales>
<clustering>
<clus scale="   82.441">  5  6 -1 -1</clus>
<clus scale="   88.199">  1  5  2 -1</clus>
<clus scale="   92.667">  7  8 -1 -1</clus>
<clus scale="   75.391">  7  9 -1 -1</clus>
<clus scale="  198.762">  2  5  1 -1</clus>
</clustering>
</event>
<event>
 9    2  0.2147756E-005  0.3452119E+03  0.7546771E-02  0.1067048E+00
         21   -1    0    0  501  502  0.00000000000E+00  0.00000000000E+00  0.96888227670E+02  0.96888227670E+02  0.00000000000E+00 0. -1.
          2   -1    0    0  502    0 -0.00000000000E+00 -0.00000000000E+00 -0.11586901362E+04  0.11586901362E+04  0.00000000000E+00 0. -1.
         24    2    1    2    0    0 -0.14871606615E+03  0.27369626616E+03 -0.56526133271E+03  0.65082734714E+03  0.83843587047E+02 0.  0.
         23    2    1    2    0    0  0.69778056566E+02 -0.97140133467E+02 -0.19838342933E+03  0.24936255131E+03  0.92306631708E+02 0.  0.
        -11    1    3    3    0    0 -0.61739200336E+02  0.13421419892E+03 -0.18641387831E+03  0.23785565806E+03  0.00000000000E+00 0.  1.
         12    1    3    3    0    0 -0.86976865810E+02  0.13948206725E+03 -0.37884745441E+03  0.41297168908E+03  0.00000000000E+00 0. -1.
        -11    1    4    4    0    0  0.65119114655E+02 -0.12618770408E+02 -0.82634265876E+02  0.10596298579E+03  0.00000000000E+00 0.  1.
         11    1    4    4    0    0  0.46589419109E+01 -0.84521363060E+02 -0.11574916345E+03  0.14339956552E+03  0.00000000000E+00 0. -1.
          1    1    1    2  501    0  0.78938009580E+02 -0.17655613269E+03 -0.29815714651E+03  0.35538846543E+03  0.00000000000E+00 0. -1.
<scales pt_clust_5="13000.00000" pt_clust_6="13000.00000" pt_clust_7="13000.00000" pt_clust_8="13000.00000" pt_clust_9="13000.00000"></scales>
<clustering>
<clus scale="   83.844">  5  6 -1 -1</clus>
<clus scale="   92.307">  7  8 -1 -1</clus>
<clus scale="  193.399">  7  9 -1 -1</clus>
<clus scale="  322.577">  2  5  1 -1</clus>
<clus scale="  345.212">  1  5  2 -1</clus>
</clustering>
</event>
<event>
 9    2  0.2147756E-005  0.1859978E+03  0.7546771E-02  0.1197347E+00
         21   -1    0    0  501  502  0.00000000000E+00  0.00000000000E+00  0.52855994785E+02  0.52855994785E+02  0.00000000000E+00 0. -1.
         -1   -1    0    0    0  501 -0.00000000000E+00 -0.00000000000E+00 -0.47340257905E+03  0.47340257905E+03  0.00000000000E+00 0.  1.
         24    2    1    2    0    0 -0.18455188290E+02 -0.98684548977E+01 -0.22914785572E+02  0.87275396805E+02  0.81571607271E+02 0.  0.
         23    2    1    2    0    0  0.66896947224E+02 -0.36886728801E+02 -0.23584080044E+03  0.26374340322E+03  0.90021482311E+02 0.  0.
        -13    1    3    3    0    0  0.31595665707E+01 -0.42503805229E+02 -0.22353390042E+02  0.48127231026E+02  0.00000000000E+00 0.  1.
         14    1    3    3    0    0 -0.21614754860E+02  0.32635350332E+02 -0.56139553072E+00  0.39148165779E+02  0.00000000000E+00 0. -1.
        -13    1    4    4    0    0  0.14211573157E+02 -0.45977601873E+02 -0.46202179096E+02  0.66712442909E+02  0.00000000000E+00 0. -1.
         13    1    4    4    0    0  0.52685374067E+02  0.90908730723E+01 -0.18963862134E+03  0.19703096031E+03  0.00000000000E+00 0.  1.
         -2    1    1    2    0  502 -0.48441758934E+02  0.46755183699E+02 -0.16179099826E+03  0.17523977382E+03  0.00000000000E+00 0.  1.
<scales pt_clust_5="13000.00000" pt_clust_6="13000.00000" pt_clust_7="13000.00000" pt_clust_8="13000.00000" pt_clust_9="13000.00000"></scales>
<clustering>
<clus scale="   81.572">  5  6 -1 -1</clus>
<clus scale="   84.214">  2  5  1 -1</clus>
<clus scale="   90.021">  7  8 -1 -1</clus>
<clus scale="   70.372">  7  9 -1 -1</clus>
<clus scale="  185.998">  1  5  2 -1</clus>
</clustering>
</event>
<event>
 9    2  0.2147756E-005  0.2669870E+03  0.7546771E-02  0.1124129E+00
          2   -1    0    0  502    0 -0.00000000000E+00  0.00000000000E+00  0.30892743891E+03  0.30892743891E+03  0.00000000000E+00 0. -1.
         21   -1    0    0  501  502  0.00000000000E+00 -0.00000000000E+00 -0.15582200083E+03  0.15582200083E+03  0.00000000000E+00 0.  1.
         24    2    1    2    0    0 -0.13404275223E+03  0.97750342028E+01  0.11689628591E+03  0.19531824952E+03  0.80134051544E+02 0.  0.
         23    2    1    2    0    0 -0.24063775116E+02 -0.12901579951E+02  0.29612846372E+02  0.11115623791E+03  0.10360150828E+03 0.  0.
        -13    1    3    3    0    0 -0.10526236807E+03 -0.16547686746E+02  0.49593296855E+02  0.11753079239E+03  0.00000000000E+00 0.  1.
         14    1    3    3    0    0 -0.28780384167E+02  0.26322720949E+02  0.67302989051E+02  0.77787457126E+02  0.00000000000E+00 0. -1.
        -13    1    4    4    0    0 -0.50167667354E+02  0.15105442429E+02 -0.12887374804E+02  0.53954181192E+02  0.00000000000E+00 0.  1.
         13    1    4    4    0    0  0.26103892238E+02 -0.28007022380E+02  0.42500221176E+02  0.57202056716E+02  0.00000000000E+00 0. -1.
          1    1    1    2  501    0  0.15810652735E+03  0.31265457481E+01  0.65963057982E+01  0.15827495231E+03  0.00000000000E+00 0. -1.
<scales pt_clust_5="13000.00000" pt_clust_6="13000.00000" pt_clust_7="13000.00000" pt_clust_8="13000.00000" pt_clust_9="13000.00000"></scales>
<clustering>
<clus scale="   80.134">  5  6 -1 -1</clus>
<clus scale="  103.602">  7  8 -1 -1</clus>
<clus scale="  156.475">  1  5  2 -1</clus>
<clus scale="   86.210">  7  9 -1 -1</clus>
<clus scale="  266.987">  2  5  1 -1</clus>
</clustering>
</event>
<event>
 9    2  0.2147756E-005  0.2503801E+03  0.7546771E-02  0.1155811E+00
          2   -1    0    0  502    0 -0.00000000000E+00  0.00000000000E+00  0.17720179633E+03  0.17720179633E+03  0.00000000000E+00 0. -1.
         21   -1    0    0  501  502  0.00000000000E+00 -0.00000000000E+00 -0.16186418071E+03  0.16186418071E+03  0.00000000000E+00 0. -1.
         24    2    1    2    0    0 -0.30184287030E+02  0.15266079977E+02  0.35351466057E+01  0.88407845828E+02  0.81604568261E+02 0.  0.
         23    2    1    2    0    0  0.10527073557E+03 -0.52562809537E+02  0.50695270764E+02  0.15823697121E+03  0.92866311791E+02 0.  0.
        -13    1    3    3    0    0 -0.14600997090E+02  0.48974237762E+02  0.40888721941E+01  0.51267767225E+02  0.00000000000E+00 0.  1.
         14    1    3    3    0    0 -0.15583289940E+02 -0.33708157785E+02 -0.55372558836E+00  0.37140078603E+02  0.00000000000E+00 0. -1.
        -11    1    4    4    0    0  0.69664118193E+02 -0.63134402881E+02  0.69202061327E+02  0.11673888591E+03  0.00000000000E+00 0. -1.
         11    1    4    4    0    0  0.35606617375E+02  0.10571593344E+02 -0.18506790563E+02  0.41498085301E+02  0.00000000000E+00 0.  1.
          1    1    1    2  501    0 -0.75086448539E+02  0.37296729561E+02 -0.38892801750E+02  0.92421160013E+02  0.00000000000E+00 0. -1.
<scales pt_clust_5="13000.00000" pt_clust_6="13000.00000" pt_clust_7="13000.00000" pt_clust_8="13000.00000" pt_clust_9="13000.00000"></scales>
<clustering>
<clus scale="   81.605">  5  6 -1 -1</clus>
<clus scale="   88.337">  1  5  2 -1</clus>
<clus scale="   92.866">  7  8 -1 -1</clus>
<clus scale="   90.738">  7  9 -1 -1</clus>
<clus scale="  250.380">  2  5  1 -1</clus>
</clustering>
</event>
<event>
 9    2  0.2147756E-005  0.1235469E+03  0.7546771E-02  0.1254720E+00
         21   -1    0    0  501  502  0.00000000000E+00  0.00000000000E+00  0.46304041405E+02  0.46304041405E+02  0.00000000000E+00 0.  1.
          2   -1    0    0  502    0 -0.00000000000E+00 -0.00000000000E+00 -0.27506657643E+03  0.27506657643E+03  0.00000000000E+00 0. -1.
         24    2    1    2    0    0  0.17081923812E+02  0.29840464089E+02 -0.15405896406E+03  0.17699448137E+03  0.80066451229E+02 0.  0.
         23    2    1    2    0    0  0.43816870140E+01 -0.56390828865E+01 -0.55215329433E+02  0.10661127184E+03  0.90918822266E+02 0.  0.
        -11    1    3    3    0    0  0.43994614569E+02 -0.26255790606E+00 -0.10221243775E+03  0.11127882763E+03  0.00000000000E+00 0.  1.
         12    1    3    3    0    0 -0.26912690757E+02  0.30103021995E+02 -0.51846526306E+02  0.65715653744E+02  0.00000000000E+00 0. -1.
        -11    1    4    4    0    0  0.34454080301E+02 -0.34435215472E+02 -0.36971443449E+02  0.61153539102E+02  0.00000000000E+00 0. -1.
         11    1    4    4    0    0 -0.30072393287E+02  0.28796132586E+02 -0.18243885984E+02  0.45457732738E+02  0.00000000000E+00 0.  1.
          1    1    1    2  501    0 -0.21463610826E+02 -0.24201381202E+02 -0.19488241540E+02  0.37764864625E+02  0.00000000000E+00 0. -1.
<scales pt_clust_5="13000.00000" pt_clust_6="13000.00000" pt_clust_7="13000.00000" pt_clust_8="13000.00000" pt_clust_9="13000.00000"></scales>
<clustering>
<clus scale="   80.066">  5  6 -1 -1</clus>
<clus scale="   87.137">  2  5  1 -1</clus>
<clus scale="   90.919">  7  8 -1 -1</clus>
<clus scale="   23.623">  7  9 -1 -1</clus>
<clus scale="  123.547">  1  5  2 -1</clus>
</clustering>
</event>
<event>
 9    2  0.2147756E-005  0.5189210E+03  0.7546771E-02  0.1051817E+00
         -3   -1    0    0    0  501 -0.00000000000E+00  0.00000000000E+00  0.20762734152E+03  0.20762734152E+03  0.00000000000E+00 0.  1.
         21   -1    0    0  501  502  0.00000000000E+00 -0.00000000000E+00 -0.72119045901E+03  0.72119045901E+03  0.00000000000E+00 0.  1.
         24    2    1    2    0    0  0.24564192247E+02  0.11847849017E+03  0.58163040269E+02  0.15671040607E+03  0.80837243540E+02 0.  0.
         23    2    1    2    0    0 -0.49388178905E+02  0.32406328254E+02  0.60901901475E+02  0.12126123746E+03  0.86636503747E+02 0.  0.
        -11    1    3    3    0    0  0.52813644611E+02  0.81642800648E+02  0.50809504884E+02  0.10971068198E+03  0.00000000000E+00 0.  1.
         12    1    3    3    0    0 -0.28249452364E+02  0.36835689522E+02  0.73535353847E+01  0.46999724085E+02  0.00000000000E+00 0. -1.
        -11    1    4    4    0    0 -0.47199302725E+02 -0.75016694281E+01  0.65443102843E+02  0.81036096473E+02  0.00000000000E+00 0.  1.
         11    1    4    4    0    0 -0.21888761804E+01  0.39907997682E+02 -0.45412013672E+01  0.40225140991E+02  0.00000000000E+00 0. -1.
         -4    1    1    2    0  502  0.24823986658E+02 -0.15088481842E+03 -0.63262805923E+03  0.65084615699E+03  0.00000000000E+00 0.  1.
<scales pt_clust_5="13000.00000" pt_clust_6="13000.00000" pt_clust_7="13000.00000" pt_clust_8="13000.00000" pt_clust_9="13000.00000"></scales>
<clustering>
<clus scale="   80.837">  5  6 -1 -1</clus>
<clus scale="   86.637">  7  8 -1 -1</clus>
<clus scale="  145.517">  1  5  2 -1</clus>
<clus scale="  142.702">  7  9 -1 -1</clus>
<clus scale="  518.921">  2  5  1 -1</clus>
</clustering>
</event>
<event>
 9    2  0.2147756E-005  0.9438247E+03  0.7546771E-02  0.9716286E-01
          2   -1    0    0  502    0 -0.00000000000E+00  0.00000000000E+00  0.32359023528E+03  0.32359023528E+03  0.00000000000E+00 0. -1.
         21   -1    0    0  501  502  0.00000000000E+00 -0.00000000000E+00 -0.24747123097E+04  0.24747123097E+04  0.00000000000E+00 0. -1.
         24    2    1    2    0    0 -0.19420528258E+03  0.19494307545E+03  0.14112401815E+03  0.31935171846E+03  0.79693394589E+02 0.  0.
         23    2    1    2    0    0 -0.15191789974E+03  0.21876742856E+03 -0.28636865385E+03  0.40181290678E+03  0.92240826551E+02 0.  0.
        -11    1    3    3    0    0 -0.28665726949E+02  0.49103058654E+02 -0.10899189831E+01  0.56868463968E+02  0.00000000000E+00 0.  1.
         12    1    3    3    0    0 -0.16553955563E+03  0.14584001680E+03  0.14221393713E+03  0.26248325450E+03  0.00000000000E+00 0. -1.
        -11    1    4    4    0    0 -0.99635146880E+02  0.64754288648E+02 -0.11053944620E+03  0.16229371386E+03  0.00000000000E+00 0.  1.
         11    1    4    4    0    0 -0.52282752864E+02  0.15401313992E+03 -0.17582920764E+03  0.23951919292E+03  0.00000000000E+00 0. -1.
          1    1    1    2  501    0  0.34612318232E+03 -0.41371050401E+03 -0.20058774388E+04  0.20771379198E+04  0.00000000000E+00 0. -1.
<scales pt_clust_5="13000.00000" pt_clust_6="13000.00000" pt_clust_7="13000.00000" pt_clust_8="13000.00000" pt_clust_9="13000.00000"></scales>
<clustering>
<clus scale="   79.693">  5  6 -1 -1</clus>
<clus scale="   92.241">  7  8 -1 -1</clus>
<clus scale="  286.478">  1  5  2 -1</clus>
<clus scale="  434.871">  7  9 -1 -1</clus>
<clus scale="  943.825">  2  5  1 -1</clus>
</clustering>
</event>
<event>
 9    2  0.2147756E-005  0.1693984E+03  0.7546771E-02  0.1200634E+00
         21   -1    0    0  501  502  0.00000000000E+00  0.00000000000E+00  0.73663635411E+02  0.73663635411E+02  0.00000000000E+00 0.  1.
          4   -1    0    0  502    0 -0.00000000000E+00 -0.00000000000E+00 -0.35843991098E+03  0.35843991098E+03  0.00000000000E+00 0. -1.
         24    2    1    2    0    0 -0.48481885183E+02  0.43638721086E+02 -0.36023047176E+01  0.10384353829E+03  0.80719716776E+02 0.  0.
         23    2    1    2    0    0  0.43425015820E+02 -0.11348393799E+02 -0.93265741715E+02  0.13753051447E+03  0.90562827869E+02 0.  0.
        -11    1    3    3    0    0 -0.65720692626E+02  0.49363790717E+02  0.75300100927E+01  0.82539047276E+02  0.00000000000E+00 0.  1.
         12    1    3    3    0    0  0.17238807442E+02 -0.57250696317E+01 -0.11132314810E+02  0.21304491014E+02  0.00000000000E+00 0. -1.
        -13    1    4    4    0    0  0.28737368631E+02 -0.50174722191E+02 -0.66572477277E+02  0.88177286381E+02  0.00000000000E+00 0.  1.
         13    1    4    4    0    0  0.14687647189E+02  0.38826328391E+02 -0.26693264438E+02  0.49353228087E+02  0.00000000000E+00 0. -1.
          3    1    1    2  501    0  0.50568693638E+01 -0.32290327286E+02 -0.18790822913E+03  0.19072949363E+03  0.00000000000E+00 0. -1.
<scales pt_clust_5="13000.00000" pt_clust_6="13000.00000" pt_clust_7="13000.00000" pt_clust_8="13000.00000" pt_clust_9="13000.00000"></scales>
<clustering>
<clus scale="   80.720">  5  6 -1 -1</clus>
<clus scale="   90.563">  7  8 -1 -1</clus>
<clus scale="   32.684">  7  9 -1 -1</clus>
<clus scale="  103.781">  2  5  1 -1</clus>
<clus scale="  169.398">  1  5  2 -1</clus>
</clustering>
</event>
<event>
 9    2  0.2147756E-005  0.2779326E+03  0.7546771E-02  0.1131312E+00
          2   -1    0    0  502    0 -0.00000000000E+00  0.00000000000E+00  0.21991182357E+03  0.21991182357E+03  0.00000000000E+00 0. -1.
         21   -1    0    0  501  502  0.00000000000E+00 -0.00000000000E+00 -0.17733560579E+03  0.17733560579E+03  0.00000000000E+00 0. -1.
         24    2    1    2    0    0 -0.36916381763E+02  0.74437812121E+02  0.79989546614E+00  0.11619260377E+03  0.81217450235E+02 0.  0.
         23    2    1    2    0    0  0.20171731902E+02 -0.33785338463E+02 -0.94767362405E+02  0.13760732735E+03  0.91687380262E+02 0.  0.
        -13    1    3    3    0    0 -0.42346543146E+02  0.31747580665E+01 -0.10727236033E+02  0.43799342439E+02  0.00000000000E+00 0.  1.
         14    1    3    3    0    0  0.54301613828E+01  0.71263054055E+02  0.11527131499E+02  0.72393261333E+02  0.00000000000E+00 0. -1.
        -11    1    4    4    0    0  0.44999910323E+02  0.12967840918E+02 -0.45266528786E+02  0.65132291956E+02  0.00000000000E+00 0. -1.
         11    1    4    4    0    0 -0.24828178420E+02 -0.46753179381E+02 -0.49500833619E+02  0.72475035391E+02  0.00000000000E+00 0.  1.
          1    1    1    2  501    0  0.16744649861E+02 -0.40652473658E+02  0.13654368472E+03  0.14344749824E+03  0.00000000000E+00 0. -1.
<scales pt_clust_5="13000.00000" pt_clust_6="13000.00000" pt_clust_7="13000.00000" pt_clust_8="13000.00000" pt_clust_9="13000.00000"></scales>
<clustering>
<clus scale="   81.217">  5  6 -1 -1</clus>
<clus scale="   91.687">  7  8 -1 -1</clus>
<clus scale="   43.966">  7  9 -1 -1</clus>
<clus scale="  116.190">  1  5  2 -1</clus>
<clus scale="  277.933">  2  5  1 -1</clus>
</clustering>
</event>
<event>
 9    2  0.2147756E-005  0.2503551E+03  0.7546771E-02  0.1121249E+00
          2   -1    0    0  502    0 -0.00000000000E+00  0.00000000000E+00  0.67966824223E+03  0.67966824223E+03  0.00000000000E+00 0. -1.
         21   -1    0    0  501  502  0.00000000000E+00 -0.00000000000E+00 -0.79594373799E+02  0.79594373799E+02  0.00000000000E+00 0.  1.
         24    2    1    2    0    0 -0.16528827384E+03  0.87538849986E+02  0.35222030215E+03  0.40697144251E+03  0.81137845935E+02 0.  0.
         23    2    1    2    0    0  0.53523451563E+02 -0.68107556793E+02  0.82242692213E+02  0.15155275601E+03  0.93279034480E+02 0.  0.
        -11    1    3    3    0    0 -0.10469993448E+03  0.37167299310E+02  0.27523436073E+03  0.29681212533E+03  0.00000000000E+00 0.  1.
         12    1    3    3    0    0 -0.60588339359E+02  0.50371550676E+02  0.76985941421E+02  0.11015931717E+03  0.00000000000E+00 0. -1.
        -13    1    4    4    0    0  0.46614689287E+02 -0.19575831819E+00  0.66980841027E+02  0.81605150838E+02  0.00000000000E+00 0. -1.
         13    1    4    4    0    0  0.69087622761E+01 -0.67911798475E+02  0.15261851186E+02  0.69947605176E+02  0.00000000000E+00 0.  1.
          1    1    1    2  501    0  0.11176482228E+03 -0.19431293193E+02  0.16561087407E+03  0.20073841751E+03  0.00000000000E+00 0. -1.
<scales pt_clust_5="13000.00000" pt_clust_6="13000.00000" pt_clust_7="13000.00000" pt_clust_8="13000.00000" pt_clust_9="13000.00000"></scales>
<clustering>
<clus scale="   81.138">  5  6 -1 -1</clus>
<clus scale="   93.279">  7  8 -1 -1</clus>
<clus scale="  113.441">  7  9 -1 -1</clus>
<clus scale="  203.879">  1  5  2 -1</clus>
<clus scale="  250.355">  2  5  1 -1</clus>
</clustering>
</event>
<event>
 9    2  0.2147756E-005  0.3828215E+03  0.7546771E-02  0.1100979E+00
          4   -1    0    0  502    0 -0.00000000000E+00  0.00000000000E+00  0.28245402890E+03  0.28245402890E+03  0.00000000000E+00 0. -1.
         21   -1    0    0  501  502  0.00000000000E+00 -0.00000000000E+00 -0.25502368975E+03  0.25502368975E+03  0.00000000000E+00 0. -1.
         24    2    1    2    0    0  0.47683594798E+02  0.30405415175E+02  0.11021001749E+03  0.14580854507E+03  0.76913388795E+02 0.  0.
         23    2    1    2    0    0 -0.10359248092E+02  0.11809153345E+03 -0.16214228106E+03  0.21920795093E+03  0.87801378999E+02 0.  0.
        -11    1    3    3    0    0  0.31574842631E+02  0.46783309242E+02  0.10906942336E+03  0.12280793062E+03  0.00000000000E+00 0.  1.
         12    1    3    3    0    0  0.16108752167E+02 -0.16377894066E+02  0.11405941347E+01  0.23000614457E+02  0.00000000000E+00 0. -1.
        -13    1    4    4    0    0  0.36064860163E+02  0.26542330700E+02 -0.52871557996E+02  0.69286153757E+02  0.00000000000E+00 0. -1.
         13    1    4    4    0    0 -0.46424108255E+02  0.91549202746E+02 -0.10927072306E+03  0.14992179718E+03  0.00000000000E+00 0.  1.
          3    1    1    2  501    0 -0.37324346706E+02 -0.14849694862E+03  0.79362602711E+02  0.17246122264E+03  0.00000000000E+00 0. -1.
<scales pt_clust_5="13000.00000" pt_clust_6="13000.00000" pt_clust_7="13000.00000" pt_clust_8="13000.00000" pt_clust_9="13000.00000"></scales>
<clustering>
<clus scale="   76.913">  5  6 -1 -1</clus>
<clus scale="   87.801">  7  8 -1 -1</clus>
<clus scale="   95.467">  1  5  2 -1</clus>
<clus scale="  123.719">  7  9 -1 -1</clus>
<clus scale="  382.821">  2  5  1 -1</clus>
</clustering>
</event>
<event>
 9    2  0.2147756E-005  0.2524766E+03  0.7546771E-02  0.1114539E+00
          2   -1    0    0  502    0 -0.00000000000E+00  0.00000000000E+00  0.63514768524E+03  0.63514768524E+03  0.00000000000E+00 0. -1.
         21   -1    0    0  501  502  0.00000000000E+00 -0.00000000000E+00 -0.93791162489E+02  0.93791162489E+02  0.00000000000E+00 0. -1.
         24    2    1    2    0    0  0.17400856147E+03  0.13493445560E+03  0.27612498488E+03  0.36275280661E+03  0.82814881863E+02 0.  0.
         23    2    1    2    0    0 -0.99156758091E+02 -0.88310008640E+02  0.14119132956E+03  0.21399338426E+03  0.90705328750E+02 0.  0.
        -13    1    3    3    0    0  0.47168256698E+02  0.30535530151E+02  0.22403798027E+02  0.60491265547E+02  0.00000000000E+00 0.  1.
         14    1    3    3    0    0  0.12684030477E+03  0.10439892545E+03  0.25372118685E+03  0.30226154106E+03  0.00000000000E+00 0. -1.
        -13    1    4    4    0    0 -0.54293631099E+02 -0.99466044813E+02  0.87689563988E+02  0.14328556131E+03  0.00000000000E+00 0. -1.
         13    1    4    4    0    0 -0.44863126992E+02  0.11156036173E+02  0.53501765572E+02  0.70707822947E+02  0.00000000000E+00 0.  1.
          1    1    1    2  501    0 -0.74851803377E+02 -0.46624446958E+02  0.12404020831E+03  0.15219265685E+03  0.00000000000E+00 0. -1.
<scales pt_clust_5="13000.00000" pt_clust_6="13000.00000" pt_clust_7="13000.00000" pt_clust_8="13000.00000" pt_clust_9="13000.00000"></scales>
<clustering>
<clus scale="   82.815">  5  6 -1 -1</clus>
<clus scale="   90.705">  7  8 -1 -1</clus>
<clus scale="   88.185">  7  9 -1 -1</clus>
<clus scale="  235.254">  1  5  2 -1</clus>
<clus scale="  252.477">  2  5  1 -1</clus>
</clustering>
</event>
<event>
 9    2  0.2147756E-005  0.6414905E+03  0.7546771E-02  0.9894952E-01
          2   -1    0    0  502    0 -0.00000000000E+00  0.00000000000E+00  0.17023079343E+04  0.17023079343E+04  0.00000000000E+00 0. -1.
         21   -1    0    0  501  502  0.00000000000E+00 -0.00000000000E+00 -0.20709868046E+03  0.20709868046E+03  0.00000000000E+00 0.  1.
         24    2    1    2    0    0  0.50107426182E+03  0.10002114364E+02  0.42718494566E+03  0.66353905163E+03  0.81373442178E+02 0.  0.
         23    2    1    2    0    0  0.35856074940E+02 -0.28733702929E+02  0.21440455409E+03  0.23724883263E+03  0.90589248687E+02 0.  0.
        -13    1    3    3    0    0  0.22451154752E+03  0.18924020963E+02  0.14279673388E+03  0.26674793485E+03  0.00000000000E+00 0.  1.
         14    1    3    3    0    0  0.27656271430E+03 -0.89219065996E+01  0.28438821179E+03  0.39679111679E+03  0.00000000000E+00 0. -1.
        -11    1    4    4    0    0  0.62465843786E+02 -0.34248547956E+02  0.12579737824E+03  0.14456806373E+03  0.00000000000E+00 0. -1.
         11    1    4    4    0    0 -0.26609768846E+02  0.55148450268E+01  0.88607175844E+02  0.92680768905E+02  0.00000000000E+00 0.  1.
          1    1    1    2  501    0 -0.53693033676E+03  0.18731588565E+02  0.85361975413E+03  0.10086187305E+04  0.00000000000E+00 0. -1.
<scales pt_clust_5="13000.00000" pt_clust_6="13000.00000" pt_clust_7="13000.00000" pt_clust_8="13000.00000" pt_clust_9="13000.00000"></scales>
<clustering>
<clus scale="   81.373">  5  6 -1 -1</clus>
<clus scale="   90.589">  7  8 -1 -1</clus>
<clus scale="  507.737">  1  5  2 -1</clus>
<clus scale="  136.319">  7  9 -1 -1</clus>
<clus scale="  641.491">  2  5  1 -1</clus>
</clustering>
</event>
<event>
 9    2  0.2147756E-005  0.5545664E+03  0.7546771E-02  0.1030019E+00
          2   -1    0    0  502    0 -0.00000000000E+00  0.00000000000E+00  0.14481924077E+04  0.14481924077E+04  0.00000000000E+00 0. -1.
         21   -1    0    0  501  502  0.00000000000E+00 -0.00000000000E+00 -0.10492938221E+03  0.10492938221E+03  0.00000000000E+00 0. -1.
         24    2    1    2    0    0 -0.20146604107E+03  0.54887596313E+02  0.36199596008E+03  0.42598873029E+03  0.82608167206E+02 0.  0.
         23    2    1    2    0    0 -0.14994664413E+03  0.36530544647E+02  0.44401684071E+03  0.47868417515E+03  0.90383117517E+02 0.  0.
        -13    1    3    3    0    0 -0.56089436327E+02 -0.14937175924E+01  0.42211315975E+02  0.70214323725E+02  0.00000000000E+00 0.  1.
         14    1    3    3    0    0 -0.14537660475E+03  0.56381313905E+02  0.31978464410E+03  0.35577440657E+03  0.00000000000E+00 0. -1.
        -11    1    4    4    0    0 -0.40046095124E+02  0.16667568051E+02  0.38261729943E+02  0.57839930305E+02  0.00000000000E+00 0.  1.
         11    1    4    4    0    0 -0.10990054901E+03  0.19862976596E+02  0.40575511076E+03  0.42084424485E+03  0.00000000000E+00 0. -1.
          1    1    1    2  501    0  0.35141268521E+03 -0.91418140960E+02  0.53725022468E+03  0.64844888445E+03  0.00000000000E+00 0. -1.
<scales pt_clust_5="13000.00000" pt_clust_6="13000.00000" pt_clust_7="13000.00000" pt_clust_8="13000.00000" pt_clust_9="13000.00000"></scales>
<clustering>
<clus scale="   82.608">  5  6 -1 -1</clus>
<clus scale="   90.383">  7  8 -1 -1</clus>
<clus scale="  224.556">  1  5  2 -1</clus>
<clus scale="  245.693">  7  9 -1 -1</clus>
<clus scale="  554.566">  2  5  1 -1</clus>
</clustering>
</event>
<event>
 9    2  0.2147756E-005  0.1766941E+03  0.7546771E-02  0.1197962E+00
          2   -1    0    0  502    0 -0.00000000000E+00  0.00000000000E+00  0.88436028253E+03  0.88436028253E+03  0.00000000000E+00 0. -1.
         21   -1    0    0  501  502  0.00000000000E+00 -0.00000000000E+00 -0.39673721636E+02  0.39673721636E+02  0.00000000000E+00 0. -1.
         24    2    1    2    0    0  0.51928755566E+02  0.56802244613E+01  0.66500130922E+03  0.67202687729E+03  0.81636523238E+02 0.  0.
         23    2    1    2    0    0  0.16287249641E+02 -0.21704162938E+02  0.14393744755E+03  0.17334267830E+03  0.92700324289E+02 0.  0.
        -11    1    3    3    0    0 -0.16349816680E+02  0.17460884580E+02  0.10143888755E+03  0.10422114422E+03  0.00000000000E+00 0.  1.
         12    1    3    3    0    0  0.68278572246E+02 -0.11780660119E+02  0.56356242167E+03  0.56780573306E+03  0.00000000000E+00 0. -1.
        -11    1    4    4    0    0 -0.29957578036E+02 -0.18876090779E+02  0.11096242271E+03  0.11647498675E+03  0.00000000000E+00 0.  1.
         11    1    4    4    0    0  0.46244827677E+02 -0.28280721588E+01  0.32975024843E+02  0.56867691552E+02  0.00000000000E+00 0. -1.
          1    1    1    2  501    0 -0.68216005207E+02  0.16023938476E+02  0.35747804121E+02  0.78664448578E+02  0.00000000000E+00 0. -1.
<scales pt_clust_5="13000.00000" pt_clust_6="13000.00000" pt_clust_7="13000.00000" pt_clust_8="13000.00000" pt_clust_9="13000.00000"></scales>
<clustering>
<clus scale="   81.637">  5  6 -1 -1</clus>
<clus scale="   92.700">  7  8 -1 -1</clus>
<clus scale="   70.073">  7  9 -1 -1</clus>
<clus scale="   96.919">  1  5  2 -1</clus>
<clus scale="  176.694">  2  5  1 -1</clus>
</clustering>
</event>
<event>
 9    2  0.2147756E-005  0.3357665E+03  0.7546771E-02  0.1111252E+00
         21   -1    0    0  501  502  0.00000000000E+00  0.00000000000E+00  0.15855944384E+03  0.15855944384E+03  0.00000000000E+00 0.  1.
          2   -1    0    0  502    0 -0.00000000000E+00 -0.00000000000E+00 -0.31325528825E+03  0.31325528825E+03  0.00000000000E+00 0. -1.
         24    2    1    2    0    0  0.62862433423E+02 -0.38561967591E+02 -0.22816133293E+02  0.11107741299E+03  0.79868046543E+02 0.  0.
         23    2    1    2    0    0 -0.80107430182E+02 -0.62019339712E+02  0.55195125373E+02  0.14763878851E+03  0.92125518393E+02 0.  0.
        -11    1    3    3    0    0  0.58252558317E+02 -0.14247117846E+02  0.18637067151E+02  0.62798735572E+02  0.00000000000E+00 0.  1.
         12    1    3    3    0    0  0.46098751061E+01 -0.24314849745E+02 -0.41453200444E+02  0.48278677423E+02  0.00000000000E+00 0. -1.
        -13    1    4    4    0    0 -0.97569466592E+02 -0.41078426298E+02  0.28851514073E+02  0.10972532881E+03  0.00000000000E+00 0.  1.
         13    1    4    4    0    0  0.17462036409E+02 -0.20940913413E+02  0.26343611300E+02  0.37913459701E+02  0.00000000000E+00 0. -1.
          1    1    1    2  501    0  0.17244996759E+02  0.10058130730E+03 -0.18707483649E+03  0.21309853059E+03  0.00000000000E+00 0. -1.
<scales pt_clust_5="13000.00000" pt_clust_6="13000.00000" pt_clust_7="13000.00000" pt_clust_8="13000.00000" pt_clust_9="13000.00000"></scales>
<clustering>
<clus scale="   79.868">  5  6 -1 -1</clus>
<clus scale="   92.126">  7  8 -1 -1</clus>
<clus scale="  102.049">  7  9 -1 -1</clus>
<clus scale="  108.709">  2  5  1 -1</clus>
<clus scale="  335.767">  1  5  2 -1</clus>
</clustering>
</event>
<event>
 9    2  0.2147756E-005  0.3264806E+03  0.7546771E-02  0.1098631E+00
          2   -1    0    0  502    0 -0.00000000000E+00  0.00000000000E+00  0.14201496873E+04  0.14201496873E+04  0.00000000000E+00 0. -1.
         21   -1    0    0  501  502  0.00000000000E+00 -0.00000000000E+00 -0.57647534518E+02  0.57647534518E+02  0.00000000000E+00 0. -1.
         24    2    1    2    0    0  0.14309972980E+03  0.19957270078E+02  0.14942770224E+03  0.22155710908E+03  0.76701297832E+02 0.  0.
         23    2    1    2    0    0  0.64914863992E+02 -0.26040648491E+02  0.52808091466E+03  0.54033284017E+03  0.90543198522E+02 0.  0.
        -11    1    3    3    0    0  0.97482820722E+02 -0.23698297970E+02  0.95799350575E+02  0.13871562721E+03  0.00000000000E+00 0.  1.
         12    1    3    3    0    0  0.45616909076E+02  0.43655568048E+02  0.53628351667E+02  0.82841481866E+02  0.00000000000E+00 0. -1.
        -11    1    4    4    0    0 -0.89386273938E+01  0.23559384835E+02  0.10236867797E+03  0.10542433259E+03  0.00000000000E+00 0.  1.
         11    1    4    4    0    0  0.73853491385E+02 -0.49600033327E+02  0.42571223670E+03  0.43490850758E+03  0.00000000000E+00 0. -1.
          1    1    1    2  501    0 -0.20801459379E+03  0.60833784136E+01  0.68499353592E+03  0.71590727261E+03  0.00000000000E+00 0. -1.
<scales pt_clust_5="13000.00000" pt_clust_6="13000.00000" pt_clust_7="13000.00000" pt_clust_8="13000.00000" pt_clust_9="13000.00000"></scales>
<clustering>
<clus scale="   76.701">  5  6 -1 -1</clus>
<clus scale="   90.543">  7  8 -1 -1</clus>
<clus scale="  163.582">  1  5  2 -1</clus>
<clus scale="  128.020">  7  9 -1 -1</clus>
<clus scale="  326.481">  2  5  1 -1</clus>
</clustering>
</event>
<event>
 9    2  0.2147756E-005  0.1366265E+03  0.7546771E-02  0.1234896E+00
          4   -1    0    0  502    0 -0.00000000000E+00  0.00000000000E+00  0.20050769985E+02  0.20050769985E+02  0.00000000000E+00 0. -1.
         21   -1    0    0  501  502  0.00000000000E+00 -0.00000000000E+00 -0.67821791596E+03  0.67821791596E+03  0.00000000000E+00 0. -1.
         24    2    1    2    0    0  0.22030010186E+02 -0.46435131297E+02 -0.29524536352E+03  0.31048135684E+03  0.81162217177E+02 0.  0.
         23    2    1    2    0    0  0.19144289855E+01  0.10977515597E+02 -0.28753763789E+03  0.30110775867E+03  0.88678172304E+02 0.  0.
        -13    1    3    3    0    0 -0.29754227969E+02 -0.12418362265E+02 -0.73879791590E+02  0.80608643511E+02  0.00000000000E+00 0.  1.
         14    1    3    3    0    0  0.51784238154E+02 -0.34016769033E+02 -0.22136557193E+03  0.22987271333E+03  0.00000000000E+00 0. -1.
        -13    1    4    4    0    0  0.11682851331E+02  0.41267979028E+02 -0.24062797450E+03  0.24442045173E+03  0.00000000000E+00 0. -1.
         13    1    4    4    0    0 -0.97684223459E+01 -0.30290463431E+02 -0.46909663387E+02  0.56687306948E+02  0.00000000000E+00 0.  1.
          3    1    1    2  501    0 -0.23944439171E+02  0.35457615700E+02 -0.75384144566E+02  0.86679570432E+02  0.00000000000E+00 0. -1.
<scales pt_clust_5="13000.00000" pt_clust_6="13000.00000" pt_clust_7="13000.00000" pt_clust_8="13000.00000" pt_clust_9="13000.00000"></scales>
<clustering>
<clus scale="   81.162">  5  6 -1 -1</clus>
<clus scale="   88.678">  7  8 -1 -1</clus>
<clus scale="   42.785">  7  9 -1 -1</clus>
<clus scale="   96.067">  1  5  2 -1</clus>
<clus scale="  136.626">  2  5  1 -1</clus>
</clustering>
</event>
<event>
 9    2  0.2147756E-005  0.2078461E+03  0.7546771E-02  0.1182604E+00
          2   -1    0    0  502    0 -0.00000000000E+00  0.00000000000E+00  0.12136311158E+04  0.12136311158E+04  0.00000000000E+00 0. -1.
         21   -1    0    0  501  502  0.00000000000E+00 -0.00000000000E+00 -0.33881054980E+02  0.33881054980E+02  0.00000000000E+00 0.  1.
         24    2    1    2    0    0 -0.23212769259E+02  0.16268295359E+02  0.87291174093E+03  0.87690490370E+03  0.78637221442E+02 0.  0.
         23    2    1    2    0    0 -0.32871310301E+00  0.23815227388E+02  0.44374260089E+02  0.10405844814E+03  0.91059390309E+02 0.  0.
        -11    1    3    3    0    0 -0.15911350569E+02 -0.23597300062E+02  0.13947017584E+03  0.14234441891E+03  0.00000000000E+00 0.  1.
         12    1    3    3    0    0 -0.73014186893E+01  0.39865595421E+02  0.73344156509E+03  0.73456048479E+03  0.00000000000E+00 0. -1.
        -11    1    4    4    0    0 -0.39253437676E+01  0.43830523520E+02 -0.10752381859E+02  0.45300516899E+02  0.00000000000E+00 0. -1.
         11    1    4    4    0    0  0.35966306646E+01 -0.20015296132E+02  0.55126641948E+02  0.58757931242E+02  0.00000000000E+00 0.  1.
          1    1    1    2  501    0  0.23541482362E+02 -0.40083522747E+02  0.26246405978E+03  0.26654881891E+03  0.00000000000E+00 0. -1.
<scales pt_clust_5="13000.00000" pt_clust_6="13000.00000" pt_clust_7="13000.00000" pt_clust_8="13000.00000" pt_clust_9="13000.00000"></scales>
<clustering>
<clus scale="   78.637">  5  6 -1 -1</clus>
<clus scale="   83.590">  1  5  2 -1</clus>
<clus scale="   91.059">  7  8 -1 -1</clus>
<clus scale="   27.910">  7  9 -1 -1</clus>
<clus scale="  207.846">  2  5  1 -1</clus>
</clustering>
</event>
<event>
 9    2  0.2147756E-005  0.1454618E+03  0.7546771E-02  0.1222791E+00
         21   -1    0    0  501  502  0.00000000000E+00  0.00000000000E+00  0.59651370147E+02  0.59651370147E+02  0.00000000000E+00 0.  1.
         -3   -1    0    0    0  501 -0.00000000000E+00 -0.00000000000E+00 -0.33411696931E+03  0.33411696931E+03  0.00000000000E+00 0.  1.
         24    2    1    2    0    0 -0.10301550647E+02 -0.40248183963E+02 -0.21217265946E+03  0.23552946046E+03  0.93439023248E+02 0.  0.
         23    2    1    2    0    0  0.24832971757E+02  0.10413594559E+02 -0.89110937171E+01  0.95382802078E+02  0.91067842311E+02 0.  0.
        -11    1    3    3    0    0  0.37512098723E+01 -0.69584195532E+02 -0.14134326041E+03  0.15758790914E+03  0.00000000000E+00 0.  1.
         12    1    3    3    0    0 -0.14052760520E+02  0.29336011570E+02 -0.70829399046E+02  0.77941551321E+02  0.00000000000E+00 0. -1.
        -13    1    4    4    0    0 -0.27777110686E+02  0.23780807483E+02 -0.17307658643E+02  0.40455527809E+02  0.00000000000E+00 0. -1.
         13    1    4    4    0    0  0.52610082443E+02 -0.13367212925E+02  0.83965649257E+01  0.54927274269E+02  0.00000000000E+00 0.  1.
         -4    1    1    2    0  502 -0.14531421109E+02  0.29834589404E+02 -0.53381845993E+02  0.62856076921E+02  0.00000000000E+00 0.  1.
<scales pt_clust_5="13000.00000" pt_clust_6="13000.00000" pt_clust_7="13000.00000" pt_clust_8="13000.00000" pt_clust_9="13000.00000"></scales>
<clustering>
<clus scale="   91.068">  7  8 -1 -1</clus>
<clus scale="   33.185">  7  9 -1 -1</clus>
<clus scale="   93.439">  5  6 -1 -1</clus>
<clus scale="  102.259">  2  5  1 -1</clus>
<clus scale="  145.462">  1  5  2 -1</clus>
</clustering>
</event>
<event>
 9    2  0.2147756E-005  0.2510606E+03  0.7546771E-02  0.1128882E+00
         21   -1    0    0  501  502  0.00000000000E+00  0.00000000000E+00  0.10950337905E+03  0.10950337905E+03  0.00000000000E+00 0. -1.
          2   -1    0    0  502    0 -0.00000000000E+00 -0.00000000000E+00 -0.51273581877E+03  0.51273581877E+03  0.00000000000E+00 0. -1.
         24    2    1    2    0    0  0.20182895442E+01 -0.14609160526E+03 -0.31398439716E+03  0.35578721629E+03  0.81556796145E+02 0.  0.
         23    2    1    2    0    0  0.45003857816E+01  0.12330068481E+01 -0.77807550342E+02  0.12099617544E+03  0.92543426578E+02 0.  0.
        -11    1    3    3    0    0 -0.13793576067E+02 -0.12053291514E+03 -0.17091862447E+03  0.20959871794E+03  0.00000000000E+00 0.  1.
         12    1    3    3    0    0  0.15811865611E+02 -0.25558690124E+02 -0.14306577269E+03  0.14618849835E+03  0.00000000000E+00 0. -1.
        -13    1    4    4    0    0 -0.29103838916E+02  0.15303470472E+02 -0.77910238401E+02  0.84564974403E+02  0.00000000000E+00 0.  1.
         13    1    4    4    0    0  0.33604224698E+02 -0.14070463624E+02  0.10268805864E+00  0.36431201037E+02  0.00000000000E+00 0. -1.
          1    1    1    2  501    0 -0.65186753258E+01  0.14485859841E+03 -0.11440492222E+02  0.14545580609E+03  0.00000000000E+00 0. -1.
<scales pt_clust_5="13000.00000" pt_clust_6="13000.00000" pt_clust_7="13000.00000" pt_clust_8="13000.00000" pt_clust_9="13000.00000"></scales>
<clustering>
<clus scale="   81.557">  5  6 -1 -1</clus>
<clus scale="   92.543">  7  8 -1 -1</clus>
<clus scale="  145.005">  7  9 -1 -1</clus>
<clus scale="  167.327">  2  5  1 -1</clus>
<clus scale="  251.061">  1  5  2 -1</clus>
</clustering>
</event>
<event>
 9    2  0.2147756E-005  0.1949176E+03  0.7546771E-02  0.1173496E+00
         -1   -1    0    0    0  501 -0.00000000000E+00  0.00000000000E+00  0.25661172466E+03  0.25661172466E+03  0.00000000000E+00 0.  1.
         21   -1    0    0  501  502  0.00000000000E+00 -0.00000000000E+00 -0.11440059341E+03  0.11440059341E+03  0.00000000000E+00 0.  1.
         24    2    1    2    0    0  0.59301440236E+02 -0.72443020968E+02  0.12326809992E+03  0.17517642667E+03  0.82018924046E+02 0.  0.
         23    2    1    2    0    0 -0.13104691479E+02 -0.14162710090E+02  0.26755319842E+02  0.97369023364E+02  0.91610939714E+02 0.  0.
        -11    1    3    3    0    0 -0.11056787757E+02 -0.35157708465E+02  0.70796898836E+02  0.79815524209E+02  0.00000000000E+00 0.  1.
         12    1    3    3    0    0  0.70358227993E+02 -0.37285312503E+02  0.52471201084E+02  0.95360902460E+02  0.00000000000E+00 0. -1.
        -11    1    4    4    0    0  0.30980332681E+02  0.12314992425E+02  0.31318704525E+02  0.45741680168E+02  0.00000000000E+00 0. -1.
         11    1    4    4    0    0 -0.44085024161E+02 -0.26477702515E+02 -0.45633846831E+01  0.51627343196E+02  0.00000000000E+00 0.  1.
         -2    1    1    2    0  502 -0.46196748757E+02  0.86605731058E+02 -0.78122885103E+01  0.98466868030E+02  0.00000000000E+00 0.  1.
<scales pt_clust_5="13000.00000" pt_clust_6="13000.00000" pt_clust_7="13000.00000" pt_clust_8="13000.00000" pt_clust_9="13000.00000"></scales>
<clustering>
<clus scale="   82.019">  5  6 -1 -1</clus>
<clus scale="   91.611">  7  8 -1 -1</clus>
<clus scale="   98.157">  7  9 -1 -1</clus>
<clus scale="  124.466">  1  5  2 -1</clus>
<clus scale="  194.918">  2  5  1 -1</clus>
</clustering>
</event>
<event>
 9    2  0.2147756E-005  0.2070157E+03  0.7546771E-02  0.1169461E+00
         21   -1    0    0  501  502  0.00000000000E+00  0.00000000000E+00  0.56010028470E+03  0.56010028470E+03  0.00000000000E+00 0. -1.
         -1   -1    0    0    0  501 -0.00000000000E+00 -0.00000000000E+00 -0.19911204907E+03  0.19911204907E+03  0.00000000000E+00 0.  1.
         24    2    1    2    0    0  0.74607690778E+02 -0.29694196452E+02 -0.16125683543E+03  0.19743355380E+03  0.80797205213E+02 0.  0.
         23    2    1    2    0    0 -0.85385675202E+02  0.84835801798E+02  0.38227929385E+03  0.41095709592E+03  0.90887014384E+02 0.  0.
        -11    1    3    3    0    0  0.56753818647E+02 -0.50973326787E+02 -0.14832878610E+03  0.16679539790E+03  0.00000000000E+00 0.  1.
         12    1    3    3    0    0  0.17853872132E+02  0.21279130335E+02 -0.12928049327E+02  0.30638155906E+02  0.00000000000E+00 0. -1.
        -11    1    4    4    0    0 -0.86149589396E+02  0.39744586345E+02  0.32192774401E+03  0.33561712748E+03  0.00000000000E+00 0. -1.
         11    1    4    4    0    0  0.76391419372E+00  0.45091215453E+02  0.60351549842E+02  0.75339968438E+02  0.00000000000E+00 0.  1.
         -2    1    1    2    0  502  0.10777984424E+02 -0.55141605346E+02  0.13996577721E+03  0.15082168405E+03  0.00000000000E+00 0.  1.
<scales pt_clust_5="13000.00000" pt_clust_6="13000.00000" pt_clust_7="13000.00000" pt_clust_8="13000.00000" pt_clust_9="13000.00000"></scales>
<clustering>
<clus scale="   80.797">  5  6 -1 -1</clus>
<clus scale="   90.887">  7  8 -1 -1</clus>
<clus scale="   56.185">  7  9 -1 -1</clus>
<clus scale="  113.913">  2  5  1 -1</clus>
<clus scale="  207.016">  1  5  2 -1</clus>
</clustering>
</event>
<event>
 9    2  0.2147756E-005  0.4277580E+03  0.7546771E-02  0.1087697E+00
          2   -1    0    0  502    0 -0.00000000000E+00  0.00000000000E+00  0.98906779832E+03  0.98906779832E+03  0.00000000000E+00 0. -1.
         21   -1    0    0  501  502  0.00000000000E+00 -0.00000000000E+00 -0.15633081365E+03  0.15633081365E+03  0.00000000000E+00 0. -1.
         24    2    1    2    0    0  0.13931717412E+02 -0.53288105766E+02  0.68653566378E+03  0.69334579804E+03  0.79771317221E+02 0.  0.
         23    2    1    2    0    0 -0.13360922103E+03  0.13130417832E+03  0.20977733122E+03  0.29568426997E+03  0.91271285873E+02 0.  0.
        -13    1    3    3    0    0  0.26998493100E+02 -0.57093899077E+02  0.30024225604E+03  0.30681271853E+03  0.00000000000E+00 0.  1.
         14    1    3    3    0    0 -0.13066775688E+02  0.38057933109E+01  0.38629340774E+03  0.38653307951E+03  0.00000000000E+00 0. -1.
        -11    1    4    4    0    0  0.11767891876E+02  0.26394676842E+02  0.24740786009E+02  0.38042985387E+02  0.00000000000E+00 0.  1.
         11    1    4    4    0    0 -0.14537711291E+03  0.10490950148E+03  0.18503654521E+03  0.25764128459E+03  0.00000000000E+00 0. -1.
          1    1    1    2  501    0  0.11967750362E+03 -0.78016072551E+02 -0.63576010331E+02  0.15636854396E+03  0.00000000000E+00 0. -1.
<scales pt_clust_5="13000.00000" pt_clust_6="13000.00000" pt_clust_7="13000.00000" pt_clust_8="13000.00000" pt_clust_9="13000.00000"></scales>
<clustering>
<clus scale="   79.771">  5  6 -1 -1</clus>
<clus scale="   91.271">  7  8 -1 -1</clus>
<clus scale="   96.939">  1  5  2 -1</clus>
<clus scale="  149.295">  7  9 -1 -1</clus>
<clus scale="  427.758">  2  5  1 -1</clus>
</clustering>
</event>
<event>
 9    2  0.2147756E-005  0.3420336E+03  0.7546771E-02  0.1106716E+00
         21   -1    0    0  501  502  0.00000000000E+00  0.00000000000E+00  0.31465633893E+02  0.31465633893E+02  0.00000000000E+00 0. -1.
          2   -1    0    0  502    0 -0.00000000000E+00 -0.00000000000E+00 -0.16787358861E+04  0.16787358861E+04  0.00000000000E+00 0. -1.
         24    2    1    2    0    0  0.66954818600E+02 -0.49085063157E+02 -0.49174163019E+03  0.50511505285E+03  0.80243969197E+02 0.  0.
         23    2    1    2    0    0  0.60948399239E+02 -0.82952444206E+02 -0.29983862243E+03  0.32987305781E+03  0.91198790562E+02 0.  0.
        -11    1    3    3    0    0  0.79631166432E+01 -0.54812505425E+02 -0.26741084806E+03  0.27308676943E+03  0.00000000000E+00 0.  1.
         12    1    3    3    0    0  0.58991701956E+02  0.57274422676E+01 -0.22433078213E+03  0.23202828342E+03  0.00000000000E+00 0. -1.
        -13    1    4    4    0    0  0.58622164861E+02 -0.53690629050E+01 -0.14967925817E+03  0.16083925322E+03  0.00000000000E+00 0.  1.
         13    1    4    4    0    0  0.23262343782E+01 -0.77583381301E+02 -0.15015936426E+03  0.16903380459E+03  0.00000000000E+00 0. -1.
          1    1    1    2  501    0 -0.12790321784E+03  0.13203750736E+03 -0.85568999964E+03  0.87521340938E+03  0.00000000000E+00 0. -1.
<scales pt_clust_5="13000.00000" pt_clust_6="13000.00000" pt_clust_7="13000.00000" pt_clust_8="13000.00000" pt_clust_9="13000.00000"></scales>
<clustering>
<clus scale="   80.244">  5  6 -1 -1</clus>
<clus scale="   91.199">  7  8 -1 -1</clus>
<clus scale="  115.462">  2  5  1 -1</clus>
<clus scale="  124.241">  7  9 -1 -1</clus>
<clus scale="  342.034">  1  5  2 -1</clus>
</clustering>
</event>
<event>
 9    2  0.2147756E-005  0.3677953E+03  0.7546771E-02  0.1061248E+00
          2   -1    0    0  502    0 -0.00000000000E+00  0.00000000000E+00  0.74603891186E+03  0.74603891186E+03  0.00000000000E+00 0. -1.
         21   -1    0    0  501  502  0.00000000000E+00 -0.00000000000E+00 -0.16029109377E+03  0.16029109377E+03  0.00000000000E+00 0. -1.
         24    2    1    2    0    0 -0.11039531608E+03 -0.28228444685E+03  0.34854464202E+03  0.46867858861E+03  0.79401619583E+02 0.  0.
         23    2    1    2    0    0  0.27975524289E+01  0.36180798930E+02  0.56124301147E+02  0.11371648033E+03  0.92003392373E+02 0.  0.
        -13    1    3    3    0    0 -0.34714975850E+01 -0.43338875997E+02  0.18065748471E+02  0.47081639053E+02  0.00000000000E+00 0.  1.
         14    1    3    3    0    0 -0.10692381849E+03 -0.23894557086E+03  0.33047889355E+03  0.42159694955E+03  0.00000000000E+00 0. -1.
        -11    1    4    4    0    0  0.47206820693E+02  0.21724373404E+02  0.33445020026E+02  0.61798071850E+02  0.00000000000E+00 0. -1.
         11    1    4    4    0    0 -0.44409268264E+02  0.14456425526E+02  0.22679281121E+02  0.51918408478E+02  0.00000000000E+00 0.  1.
          1    1    1    2  501    0  0.10759776365E+03  0.24610364792E+03  0.18107887493E+03  0.32393493669E+03  0.00000000000E+00 0. -1.
<scales pt_clust_5="13000.00000" pt_clust_6="13000.00000" pt_clust_7="13000.00000" pt_clust_8="13000.00000" pt_clust_9="13000.00000"></scales>
<clustering>
<clus scale="   79.402">  5  6 -1 -1</clus>
<clus scale="   92.003">  7  8 -1 -1</clus>
<clus scale="  268.597">  7  9 -1 -1</clus>
<clus scale="  313.331">  1  5  2 -1</clus>
<clus scale="  367.795">  2  5  1 -1</clus>
</clustering>
</event>
<event>
 9    2  0.2147756E-005  0.4849462E+03  0.7546771E-02  0.1073519E+00
         21   -1    0    0  501  502  0.00000000000E+00  0.00000000000E+00  0.23714553481E+04  0.23714553481E+04  0.00000000000E+00 0.  1.
          4   -1    0    0  502    0 -0.00000000000E+00 -0.00000000000E+00 -0.57323325020E+02  0.57323325020E+02  0.00000000000E+00 0. -1.
         24    2    1    2    0    0 -0.16419346454E+02 -0.44711629026E+02  0.43085627708E+02  0.10653309116E+03  0.84995314508E+02 0.  0.
         23    2    1    2    0    0  0.14102428225E+03 -0.16271467371E+03  0.92062546938E+03  0.95031674326E+03  0.95847506157E+02 0.  0.
        -13    1    3    3    0    0 -0.43178067226E+02  0.19368155768E+01  0.24199181322E+02  0.49534807162E+02  0.00000000000E+00 0.  1.
         14    1    3    3    0    0  0.26758720772E+02 -0.46648444603E+02  0.18886446385E+02  0.56998283994E+02  0.00000000000E+00 0. -1.
        -11    1    4    4    0    0  0.65972061625E+02 -0.10323020265E+03  0.68678057578E+03  0.69762192262E+03  0.00000000000E+00 0.  1.
         11    1    4    4    0    0  0.75052220623E+02 -0.59484471053E+02  0.23384489360E+03  0.25269482064E+03  0.00000000000E+00 0. -1.
          3    1    1    2  501    0 -0.12460493579E+03  0.20742630273E+03  0.13504209260E+04  0.13719288387E+04  0.00000000000E+00 0. -1.
<scales pt_clust_5="13000.00000" pt_clust_6="13000.00000" pt_clust_7="13000.00000" pt_clust_8="13000.00000" pt_clust_9="13000.00000"></scales>
<clustering>
<clus scale="   84.995">  5  6 -1 -1</clus>
<clus scale="   95.848">  7  8 -1 -1</clus>
<clus scale="   97.432">  2  5  1 -1</clus>
<clus scale="  229.955">  7  9 -1 -1</clus>
<clus scale="  484.946">  1  5  2 -1</clus>
</clustering>
</event>
<event>
 9    2  0.2147756E-005  0.1464135E+04  0.7546771E-02  0.9470431E-01
         21   -1    0    0  501  502  0.00000000000E+00  0.00000000000E+00  0.78257428025E+03  0.78257428025E+03  0.00000000000E+00 0. -1.
          2   -1    0    0  502    0 -0.00000000000E+00 -0.00000000000E+00 -0.14743623532E+04  0.14743623532E+04  0.00000000000E+00 0. -1.
         24    2    1    2    0    0 -0.64983310507E+02 -0.12588893331E+03 -0.77031708546E+03  0.79069744020E+03  0.10836593384E+03 0.  0.
         23    2    1    2    0    0 -0.43875076328E+03 -0.30838180720E+03 -0.37536649222E+03  0.66103100748E+03  0.91980530984E+02 0.  0.
        -11    1    3    3    0    0  0.25346421442E+02 -0.63827062010E+02 -0.30933291933E+03  0.31686462394E+03  0.00000000000E+00 0.  1.
         12    1    3    3    0    0 -0.90329731949E+02 -0.62061871303E+02 -0.46098416612E+03  0.47383281626E+03  0.00000000000E+00 0. -1.
        -13    1    4    4    0    0 -0.53262231872E+02 -0.76456268645E+02 -0.80438658373E+02  0.12309672668E+03  0.00000000000E+00 0.  1.
         13    1    4    4    0    0 -0.38548853141E+03 -0.23192553856E+03 -0.29492783384E+03  0.53793428080E+03  0.00000000000E+00 0. -1.
          1    1    1    2  501    0  0.50373407379E+03  0.43427074051E+03  0.45389550474E+03  0.80520818574E+03  0.00000000000E+00 0. -1.
<scales pt_clust_5="13000.00000" pt_clust_6="13000.00000" pt_clust_7="13000.00000" pt_clust_8="13000.00000" pt_clust_9="13000.00000"></scales>
<clustering>
<clus scale="   91.981">  7  8 -1 -1</clus>
<clus scale="  108.366">  5  6 -1 -1</clus>
<clus scale="  178.365">  2  5  1 -1</clus>
<clus scale="  631.958">  7  9 -1 -1</clus>
<clus scale=" 1464.135">  1  5  2 -1</clus>
</clustering>
</event>
<event>
 9    2  0.2147756E-005  0.4376014E+03  0.7546771E-02  0.1089810E+00
          2   -1    0    0  502    0 -0.00000000000E+00  0.00000000000E+00  0.40237494917E+03  0.40237494917E+03  0.00000000000E+00 0. -1.
         21   -1    0    0  501  502  0.00000000000E+00 -0.00000000000E+00 -0.25244480802E+03  0.25244480802E+03  0.00000000000E+00 0. -1.
         24    2    1    2    0    0 -0.28982981757E+02  0.38648015540E+02  0.19689738932E+03  0.21470512811E+03  0.70682584679E+02 0.  0.
         23    2    1    2    0    0  0.11601172967E+03 -0.12904722725E+03 -0.17397324068E+03  0.26157459835E+03  0.89680955333E+02 0.  0.
        -13    1    3    3    0    0 -0.42618533752E+02  0.40258957491E+02  0.19094033935E+03  0.19973816928E+03  0.00000000000E+00 0.  1.
         14    1    3    3    0    0  0.13635551994E+02 -0.16109419514E+01  0.59570499773E+01  0.14966958829E+02  0.00000000000E+00 0. -1.
        -13    1    4    4    0    0  0.31362590754E+02 -0.44554410162E+02 -0.11706648861E+03  0.12912501817E+03  0.00000000000E+00 0.  1.
         13    1    4    4    0    0  0.84649138913E+02 -0.84492817089E+02 -0.56906752074E+02  0.13244958018E+03  0.00000000000E+00 0. -1.
          1    1    1    2  501    0 -0.87028747910E+02  0.90399211711E+02  0.12700599251E+03  0.17854003073E+03  0.00000000000E+00 0. -1.
<scales pt_clust_5="13000.00000" pt_clust_6="13000.00000" pt_clust_7="13000.00000" pt_clust_8="13000.00000" pt_clust_9="13000.00000"></scales>
<clustering>
<clus scale="   70.683">  5  6 -1 -1</clus>
<clus scale="   85.614">  1  5  2 -1</clus>
<clus scale="   89.681">  7  8 -1 -1</clus>
<clus scale="  162.809">  7  9 -1 -1</clus>
<clus scale="  437.601">  2  5  1 -1</clus>
</clustering>
</event>
<event>
 9    2  0.2147756E-005  0.2051690E+03  0.7546771E-02  0.1163397E+00
         -1   -1    0    0    0  501 -0.00000000000E+00  0.00000000000E+00  0.14068115160E+03  0.14068115160E+03  0.00000000000E+00 0.  1.
         21   -1    0    0  501  502  0.00000000000E+00 -0.00000000000E+00 -0.20660887645E+03  0.20660887645E+03  0.00000000000E+00 0.  1.
         24    2    1    2    0    0  0.23183797960E+01 -0.10750041554E+03 -0.11563230737E+02  0.13504058656E+03  0.80873589552E+02 0.  0.
         23    2    1    2    0    0  0.48083704355E+02  0.11402734079E+03 -0.34436793261E+02  0.15765929494E+03  0.91412709616E+02 0.  0.
        -11    1    3    3    0    0  0.37749353343E+02 -0.73029926208E+02 -0.20689177038E+02  0.84772789539E+02  0.00000000000E+00 0.  1.
         12    1    3    3    0    0 -0.35430973547E+02 -0.34470489327E+02  0.91259463003E+01  0.50267797016E+02  0.00000000000E+00 0. -1.
        -13    1    4    4    0    0  0.43171856403E+02  0.70872435572E+01 -0.24509063072E+02  0.50147107386E+02  0.00000000000E+00 0. -1.
         13    1    4    4    0    0  0.49118479516E+01  0.10694009723E+03 -0.99277301891E+01  0.10751218755E+03  0.00000000000E+00 0.  1.
         -2    1    1    2    0  502 -0.50402084151E+02 -0.65269252511E+01 -0.19927700850E+02  0.54590146557E+02  0.00000000000E+00 0.  1.
<scales pt_clust_5="13000.00000" pt_clust_6="13000.00000" pt_clust_7="13000.00000" pt_clust_8="13000.00000" pt_clust_9="13000.00000"></scales>
<clustering>
<clus scale="   80.874">  5  6 -1 -1</clus>
<clus scale="   91.413">  7  8 -1 -1</clus>
<clus scale="   50.823">  7  9 -1 -1</clus>
<clus scale="  134.545">  1  5  2 -1</clus>
<clus scale="  205.169">  2  5  1 -1</clus>
</clustering>
</event>
<event>
 9    2  0.2147756E-005  0.2453374E+03  0.7546771E-02  0.1147398E+00
         21   -1    0    0  501  502  0.00000000000E+00  0.00000000000E+00  0.47798919841E+02  0.47798919841E+02  0.00000000000E+00 0. -1.
          2   -1    0    0  502    0 -0.00000000000E+00 -0.00000000000E+00 -0.69446400517E+03  0.69446400517E+03  0.00000000000E+00 0. -1.
         24    2    1    2    0    0 -0.58068339559E+02 -0.56611658232E+02 -0.26300684767E+03  0.28686848032E+03  0.80895680796E+02 0.  0.
         23    2    1    2    0    0  0.82154000820E+02 -0.24693431952E+02 -0.33424146045E+03  0.35724835644E+03  0.92466149856E+02 0.  0.
        -11    1    3    3    0    0 -0.48816853665E+02 -0.65979277246E+02 -0.26093725556E+03  0.27354085905E+03  0.00000000000E+00 0.  1.
         12    1    3    3    0    0 -0.92514858935E+01  0.93676190135E+01 -0.20695921065E+01  0.13327621270E+02  0.00000000000E+00 0. -1.
        -11    1    4    4    0    0 -0.55196306661E+01 -0.31750973122E+02 -0.14538340662E+03  0.14891247610E+03  0.00000000000E+00 0.  1.
         11    1    4    4    0    0  0.87673631486E+02  0.70575411695E+01 -0.18885805382E+03  0.20833588034E+03  0.00000000000E+00 0. -1.
          1    1    1    2  501    0 -0.24085661261E+02  0.81305090185E+02 -0.49416777212E+02  0.98146088248E+02  0.00000000000E+00 0. -1.
<scales pt_clust_5="13000.00000" pt_clust_6="13000.00000" pt_clust_7="13000.00000" pt_clust_8="13000.00000" pt_clust_9="13000.00000"></scales>
<clustering>
<clus scale="   80.896">  5  6 -1 -1</clus>
<clus scale="   92.466">  7  8 -1 -1</clus>
<clus scale="   84.798">  7  9 -1 -1</clus>
<clus scale="  114.547">  2  5  1 -1</clus>
<clus scale="  245.337">  1  5  2 -1</clus>
</clustering>
</event>
<event>
 9    2  0.2147756E-005  0.1920693E+03  0.7546771E-02  0.1191187E+00
          2   -1    0    0  502    0 -0.00000000000E+00  0.00000000000E+00  0.27692282184E+03  0.27692282184E+03  0.00000000000E+00 0. -1.
         21   -1    0    0  501  502  0.00000000000E+00 -0.00000000000E+00 -0.10457736581E+03  0.10457736581E+03  0.00000000000E+00 0. -1.
         24    2    1    2    0    0 -0.73422396199E+01  0.31069086324E+02  0.16793357436E+03  0.18938026246E+03  0.81510746557E+02 0.  0.
         23    2    1    2    0    0 -0.12492226411E+02  0.51736254807E+02 -0.70433232898E+01  0.10620512854E+03  0.91636374559E+02 0.  0.
        -11    1    3    3    0    0 -0.37840203455E+02  0.35881063577E+02  0.13244234496E+03  0.14233870331E+03  0.00000000000E+00 0.  1.
         12    1    3    3    0    0  0.30497963835E+02 -0.48119772532E+01  0.35491229406E+02  0.47041559157E+02  0.00000000000E+00 0. -1.
        -13    1    4    4    0    0 -0.18872010960E+02 -0.21781633600E+02  0.99324648908E+01  0.30483540129E+02  0.00000000000E+00 0.  1.
         13    1    4    4    0    0  0.63797845487E+01  0.73517888407E+02 -0.16975788181E+02  0.75721588408E+02  0.00000000000E+00 0. -1.
          1    1    1    2  501    0  0.19834466031E+02 -0.82805341131E+02  0.11455204958E+02  0.85914796649E+02  0.00000000000E+00 0. -1.
<scales pt_clust_5="13000.00000" pt_clust_6="13000.00000" pt_clust_7="13000.00000" pt_clust_8="13000.00000" pt_clust_9="13000.00000"></scales>
<clustering>
<clus scale="   81.511">  5  6 -1 -1</clus>
<clus scale="   87.540">  1  5  2 -1</clus>
<clus scale="   91.636">  7  8 -1 -1</clus>
<clus scale="   69.331">  7  9 -1 -1</clus>
<clus scale="  192.069">  2  5  1 -1</clus>
</clustering>
</event>
<event>
 9    2  0.2147756E-005  0.5283131E+03  0.7546771E-02  0.1028923E+00
         21   -1    0    0  501  502  0.00000000000E+00  0.00000000000E+00  0.60868948195E+03  0.60868948195E+03  0.00000000000E+00 0. -1.
          2   -1    0    0  502    0 -0.00000000000E+00 -0.00000000000E+00 -0.29861130527E+03  0.29861130527E+03  0.00000000000E+00 0. -1.
         24    2    1    2    0    0 -0.20287498749E+03  0.15648737190E+03 -0.43177668003E+02  0.27176603292E+03  0.79661204621E+02 0.  0.
         23    2    1    2    0    0  0.11793310731E+03  0.65301729075E+02 -0.47536486123E+02  0.16965921216E+03  0.91389261615E+02 0.  0.
        -11    1    3    3    0    0 -0.41527652014E+02  0.28281817956E+02  0.23085551787E+02  0.55293307100E+02  0.00000000000E+00 0.  1.
         12    1    3    3    0    0 -0.16134733548E+03  0.12820555395E+03 -0.66263219790E+02  0.21647272582E+03  0.00000000000E+00 0. -1.
        -13    1    4    4    0    0  0.65064622972E+02  0.64119329687E+02  0.95452268387E+01  0.91846638248E+02  0.00000000000E+00 0.  1.
         13    1    4    4    0    0  0.52868484336E+02  0.11823993874E+01 -0.57081712961E+02  0.77812573913E+02  0.00000000000E+00 0. -1.
          1    1    1    2  501    0  0.84941880185E+02 -0.22178910098E+03  0.40079233081E+03  0.46587554213E+03  0.00000000000E+00 0. -1.
<scales pt_clust_5="13000.00000" pt_clust_6="13000.00000" pt_clust_7="13000.00000" pt_clust_8="13000.00000" pt_clust_9="13000.00000"></scales>
<clustering>
<clus scale="   79.661">  5  6 -1 -1</clus>
<clus scale="   91.389">  7  8 -1 -1</clus>
<clus scale="  237.499">  7  9 -1 -1</clus>
<clus scale="  268.314">  2  5  1 -1</clus>
<clus scale="  528.313">  1  5  2 -1</clus>
</clustering>
</event>
<event>
 9    2  0.2147756E-005  0.5440947E+03  0.7546771E-02  0.1033500E+00
         -3   -1    0    0    0  501 -0.00000000000E+00  0.00000000000E+00  0.21248972126E+03  0.21248972126E+03  0.00000000000E+00 0.  1.
         21   -1    0    0  501  502  0.00000000000E+00 -0.00000000000E+00 -0.70237772350E+03  0.70237772350E+03  0.00000000000E+00 0.  1.
         24    2    1    2    0    0  0.15263294813E+03 -0.12521925665E+03 -0.63836201435E+02  0.22381088120E+03  0.83902150375E+02 0.  0.
         23    2    1    2    0    0  0.12994819177E+03 -0.74502141781E+02 -0.57679805460E+02  0.18564716064E+03  0.93278114377E+02 0.  0.
        -13    1    3    3    0    0  0.32108757301E+02 -0.78836443748E+02 -0.30645928935E+02  0.90472814251E+02  0.00000000000E+00 0.  1.
         14    1    3    3    0    0  0.12052419083E+03 -0.46382812898E+02 -0.33190272500E+02  0.13333806695E+03  0.00000000000E+00 0. -1.
        -13    1    4    4    0    0  0.40121382899E+02 -0.35933373620E+01  0.22285534085E+02  0.46035665180E+02  0.00000000000E+00 0. -1.
         13    1    4    4    0    0  0.89826808868E+02 -0.70908804419E+02 -0.79965339545E+02  0.13961149546E+03  0.00000000000E+00 0.  1.
         -4    1    1    2    0  502 -0.28258113990E+03  0.19972139843E+03 -0.36837199535E+03  0.50540940293E+03  0.00000000000E+00 0.  1.
<scales pt_clust_5="13000.00000" pt_clust_6="13000.00000" pt_clust_7="13000.00000" pt_clust_8="13000.00000" pt_clust_9="13000.00000"></scales>
<clustering>
<clus scale="   83.902">  5  6 -1 -1</clus>
<clus scale="   93.278">  7  8 -1 -1</clus>
<clus scale="  214.514">  1  5  2 -1</clus>
<clus scale="  244.318">  7  9 -1 -1</clus>
<clus scale="  544.095">  2  5  1 -1</clus>
</clustering>
</event>
<event>
 9    2  0.2147756E-005  0.6336183E+03  0.7546771E-02  0.1028340E+00
         -3   -1    0    0    0  501 -0.00000000000E+00  0.00000000000E+00  0.10513056965E+04  0.10513056965E+04  0.00000000000E+00 0.  1.
         21   -1    0    0  501  502  0.00000000000E+00 -0.00000000000E+00 -0.21319098979E+03  0.21319098979E+03  0.00000000000E+00 0.  1.
         24    2    1    2    0    0 -0.35299073113E+02  0.13490461388E+03  0.54287002631E+03  0.56546768277E+03  0.74836858422E+02 0.  0.
         23    2    1    2    0    0  0.19447313027E+03  0.10881028292E+03  0.32444050083E+03  0.40647861926E+03  0.10150740499E+03 0.  0.
        -11    1    3    3    0    0 -0.32250353747E+02  0.10366460330E+03  0.50372929767E+03  0.51529568271E+03  0.00000000000E+00 0.  1.
         12    1    3    3    0    0 -0.30487193657E+01  0.31240010578E+02  0.39140728646E+02  0.50172000056E+02  0.00000000000E+00 0. -1.
        -11    1    4    4    0    0  0.19570634727E+03  0.78191138748E+02  0.25669866969E+03  0.33212804092E+03  0.00000000000E+00 0.  1.
         11    1    4    4    0    0 -0.12332169979E+01  0.30619144170E+02  0.67741831142E+02  0.74350578345E+02  0.00000000000E+00 0. -1.
         -4    1    1    2    0  502 -0.15917405716E+03 -0.24371489679E+03 -0.29195820446E+02  0.29255038425E+03  0.00000000000E+00 0.  1.
<scales pt_clust_5="13000.00000" pt_clust_6="13000.00000" pt_clust_7="13000.00000" pt_clust_8="13000.00000" pt_clust_9="13000.00000"></scales>
<clustering>
<clus scale="   74.837">  5  6 -1 -1</clus>
<clus scale="  101.507">  7  8 -1 -1</clus>
<clus scale="  158.259">  1  5  2 -1</clus>
<clus scale="  267.688">  7  9 -1 -1</clus>
<clus scale="  633.618">  2  5  1 -1</clus>
</clustering>
</event>
<event>
 9    2  0.2147756E-005  0.3943351E+03  0.7546771E-02  0.1048164E+00
          2   -1    0    0  502    0 -0.00000000000E+00  0.00000000000E+00  0.13451357084E+04  0.13451357084E+04  0.00000000000E+00 0. -1.
         21   -1    0    0  501  502  0.00000000000E+00 -0.00000000000E+00 -0.11001125061E+03  0.11001125061E+03  0.00000000000E+00 0. -1.
         24    2    1    2    0    0 -0.24657114132E+03  0.26042031195E+03  0.69447685912E+03  0.78596837846E+03  0.82656623947E+02 0.  0.
         23    2    1    2    0    0  0.11430511836E+03 -0.71465626303E+02  0.22283130072E+03  0.27648866052E+03  0.92839619723E+02 0.  0.
        -13    1    3    3    0    0 -0.66417616301E+02  0.81441066641E+02  0.28920486493E+03  0.30770668012E+03  0.00000000000E+00 0.  1.
         14    1    3    3    0    0 -0.18015352501E+03  0.17897924531E+03  0.40527199419E+03  0.47826169834E+03  0.00000000000E+00 0. -1.
        -11    1    4    4    0    0  0.12238969349E+03 -0.40367234360E+02  0.19627230568E+03  0.23480112576E+03  0.00000000000E+00 0.  1.
         11    1    4    4    0    0 -0.80845751372E+01 -0.31098391943E+02  0.26558995046E+02  0.41687534761E+02  0.00000000000E+00 0. -1.
          1    1    1    2  501    0  0.13226602296E+03 -0.18895468565E+03  0.31781629798E+03  0.39268992007E+03  0.00000000000E+00 0. -1.
<scales pt_clust_5="13000.00000" pt_clust_6="13000.00000" pt_clust_7="13000.00000" pt_clust_8="13000.00000" pt_clust_9="13000.00000"></scales>
<clustering>
<clus scale="   82.657">  5  6 -1 -1</clus>
<clus scale="   92.840">  7  8 -1 -1</clus>
<clus scale="  230.647">  7  9 -1 -1</clus>
<clus scale="  368.033">  1  5  2 -1</clus>
<clus scale="  394.335">  2  5  1 -1</clus>
</clustering>
</event>
<event>
 9    2  0.2147756E-005  0.1598134E+03  0.7546771E-02  0.1210600E+00
         21   -1    0    0  501  502  0.00000000000E+00  0.00000000000E+00  0.21543975215E+02  0.21543975215E+02  0.00000000000E+00 0. -1.
          2   -1    0    0  502    0 -0.00000000000E+00 -0.00000000000E+00 -0.89625394206E+03  0.89625394206E+03  0.00000000000E+00 0. -1.
         24    2    1    2    0    0  0.51142178322E+02  0.32112969836E+02 -0.50919348443E+03  0.51887106111E+03  0.79387708314E+02 0.  0.
         23    2    1    2    0    0 -0.56780828328E+02 -0.21575824801E+01 -0.17231779298E+03  0.20333837694E+03  0.91784291324E+02 0.  0.
        -11    1    3    3    0    0  0.26698286066E+02  0.22867218467E+02 -0.64891940727E+02  0.73801572684E+02  0.00000000000E+00 0.  1.
         12    1    3    3    0    0  0.24443892257E+02  0.92457513686E+01 -0.44430154370E+03  0.44506948842E+03  0.00000000000E+00 0. -1.
        -11    1    4    4    0    0 -0.42344327526E+02 -0.29823856444E+02 -0.16260675435E+03  0.17065597278E+03  0.00000000000E+00 0.  1.
         11    1    4    4    0    0 -0.14436500803E+02  0.27666273964E+02 -0.97110386289E+01  0.32682404161E+02  0.00000000000E+00 0. -1.
          1    1    1    2  501    0  0.56386500061E+01 -0.29955387356E+02 -0.19319868944E+03  0.19558847922E+03  0.00000000000E+00 0. -1.
<scales pt_clust_5="13000.00000" pt_clust_6="13000.00000" pt_clust_7="13000.00000" pt_clust_8="13000.00000" pt_clust_9="13000.00000"></scales>
<clustering>
<clus scale="   79.388">  5  6 -1 -1</clus>
<clus scale="   91.784">  7  8 -1 -1</clus>
<clus scale="   30.481">  7  9 -1 -1</clus>
<clus scale="   99.746">  2  5  1 -1</clus>
<clus scale="  159.813">  1  5  2 -1</clus>
</clustering>
</event>
<event>
 9    2  0.2147756E-005  0.3620364E+03  0.7546771E-02  0.1087477E+00
         21   -1    0    0  501  502  0.00000000000E+00  0.00000000000E+00  0.56646921765E+02  0.56646921765E+02  0.00000000000E+00 0. -1.
          2   -1    0    0  502    0 -0.00000000000E+00 -0.00000000000E+00 -0.12148094725E+04  0.12148094725E+04  0.00000000000E+00 0. -1.
         24    2    1    2    0    0  0.11274579033E+03  0.82507050983E+02 -0.30941679093E+03  0.34872146598E+03  0.79679882223E+02 0.  0.
         23    2    1    2    0    0  0.98107752256E+02 -0.37210078467E+01 -0.25859991792E+03  0.29111908641E+03  0.90760277491E+02 0.  0.
        -11    1    3    3    0    0  0.67711645368E+02  0.79336430719E+02 -0.14766342323E+03  0.18078612424E+03  0.00000000000E+00 0.  1.
         12    1    3    3    0    0  0.45034144958E+02  0.31706202638E+01 -0.16175336769E+03  0.16793534174E+03  0.00000000000E+00 0. -1.
        -13    1    4    4    0    0  0.25744677417E+01  0.26756211844E+02 -0.24192214346E+02  0.36163323842E+02  0.00000000000E+00 0. -1.
         13    1    4    4    0    0  0.95533284514E+02 -0.30477219690E+02 -0.23440770357E+03  0.25495576256E+03  0.00000000000E+00 0.  1.
          1    1    1    2  501    0 -0.21085354258E+03 -0.78786043136E+02 -0.59014584191E+03  0.63161584190E+03  0.00000000000E+00 0. -1.
<scales pt_clust_5="13000.00000" pt_clust_6="13000.00000" pt_clust_7="13000.00000" pt_clust_8="13000.00000" pt_clust_9="13000.00000"></scales>
<clustering>
<clus scale="   79.680">  5  6 -1 -1</clus>
<clus scale="   90.760">  7  8 -1 -1</clus>
<clus scale="  160.835">  2  5  1 -1</clus>
<clus scale="  134.882">  7  9 -1 -1</clus>
<clus scale="  362.036">  1  5  2 -1</clus>
</clustering>
</event>
<event>
 9    2  0.2147756E-005  0.1560906E+03  0.7546771E-02  0.1223485E+00
         21   -1    0    0  501  502  0.00000000000E+00  0.00000000000E+00  0.30043852671E+02  0.30043852671E+02  0.00000000000E+00 0.  1.
          2   -1    0    0  502    0 -0.00000000000E+00 -0.00000000000E+00 -0.62183646372E+03  0.62183646372E+03  0.00000000000E+00 0. -1.
         24    2    1    2    0    0 -0.13485211940E+02 -0.10660380823E+01 -0.38073100019E+03  0.38937073572E+03  0.80439343298E+02 0.  0.
         23    2    1    2    0    0 -0.39595026001E+02  0.17102523928E+02 -0.12880460362E+03  0.16330829148E+03  0.90657099791E+02 0.  0.
        -13    1    3    3    0    0  0.27383911989E+02  0.19263459414E+02 -0.11607253285E+03  0.12080476972E+03  0.00000000000E+00 0.  1.
         14    1    3    3    0    0 -0.40869123929E+02 -0.20329497496E+02 -0.26465846734E+03  0.26856596600E+03  0.00000000000E+00 0. -1.
        -11    1    4    4    0    0 -0.37636110796E+02 -0.23648480667E+02 -0.23290675687E+02  0.50181501050E+02  0.00000000000E+00 0.  1.
         11    1    4    4    0    0 -0.19589152052E+01  0.40751004595E+02 -0.10551392793E+03  0.11312679043E+03  0.00000000000E+00 0. -1.
          1    1    1    2  501    0  0.53080237941E+02 -0.16036485846E+02 -0.82257007237E+02  0.99201289194E+02  0.00000000000E+00 0. -1.
<scales pt_clust_5="13000.00000" pt_clust_6="13000.00000" pt_clust_7="13000.00000" pt_clust_8="13000.00000" pt_clust_9="13000.00000"></scales>
<clustering>
<clus scale="   80.439">  5  6 -1 -1</clus>
<clus scale="   81.569">  2  5  1 -1</clus>
<clus scale="   90.657">  7  8 -1 -1</clus>
<clus scale="   50.657">  7  9 -1 -1</clus>
<clus scale="  156.091">  1  5  2 -1</clus>
</clustering>
</event>
<event>
 9    2  0.2147756E-005  0.2572598E+03  0.7546771E-02  0.1148952E+00
         21   -1    0    0  501  502  0.00000000000E+00  0.00000000000E+00  0.86783350278E+02  0.86783350278E+02  0.00000000000E+00 0. -1.
          4   -1    0    0  502    0 -0.00000000000E+00 -0.00000000000E+00 -0.73479768189E+03  0.73479768189E+03  0.00000000000E+00 0. -1.
         24    2    1    2    0    0  0.51969893770E+02  0.54220934992E-01 -0.52993891945E+03  0.53851843964E+03  0.80411309449E+02 0.  0.
         23    2    1    2    0    0  0.17396462155E+02  0.92922581730E+02 -0.23275160970E+02  0.13325116174E+03  0.90977447186E+02 0.  0.
        -13    1    3    3    0    0  0.43052808382E+02 -0.36174155316E+02 -0.25986005111E+03  0.26587470731E+03  0.00000000000E+00 0.  1.
         14    1    3    3    0    0  0.89170853882E+01  0.36228376251E+02 -0.27007886834E+03  0.27264373233E+03  0.00000000000E+00 0. -1.
        -11    1    4    4    0    0 -0.21160437464E+02  0.30052179970E+02 -0.43332382475E+02  0.56820709302E+02  0.00000000000E+00 0.  1.
         11    1    4    4    0    0  0.38556899618E+02  0.62870401760E+02  0.20057221505E+02  0.76430452440E+02  0.00000000000E+00 0. -1.
          3    1    1    2  501    0 -0.69366355925E+02 -0.92976802665E+02 -0.94800251195E+02  0.14981143079E+03  0.00000000000E+00 0. -1.
<scales pt_clust_5="13000.00000" pt_clust_6="13000.00000" pt_clust_7="13000.00000" pt_clust_8="13000.00000" pt_clust_9="13000.00000"></scales>
<clustering>
<clus scale="   80.411">  5  6 -1 -1</clus>
<clus scale="   90.977">  7  8 -1 -1</clus>
<clus scale="   95.744">  2  5  1 -1</clus>
<clus scale="  100.290">  7  9 -1 -1</clus>
<clus scale="  257.260">  1  5  2 -1</clus>
</clustering>
</event>
<event>
 9    2  0.2147756E-005  0.1414834E+03  0.7546771E-02  0.1236440E+00
          2   -1    0    0  502    0 -0.00000000000E+00  0.00000000000E+00  0.79964336662E+03  0.79964336662E+03  0.00000000000E+00 0. -1.
         21   -1    0    0  501  502  0.00000000000E+00 -0.00000000000E+00 -0.44488926924E+02  0.44488926924E+02  0.00000000000E+00 0. -1.
         24    2    1    2    0    0  0.26077097424E+02  0.12459102615E+02  0.67764381439E+03  0.68280821091E+03  0.78680807447E+02 0.  0.
         23    2    1    2    0    0  0.13291714367E+02 -0.28843482096E+02  0.65647505646E+02  0.11706253227E+03  0.91571968053E+02 0.  0.
        -13    1    3    3    0    0  0.30878823349E+02 -0.17841440853E+02  0.14646516384E+03  0.15074436295E+03  0.00000000000E+00 0.  1.
         14    1    3    3    0    0 -0.48017259255E+01  0.30300543468E+02  0.53117865055E+03  0.53206384796E+03  0.00000000000E+00 0. -1.
        -13    1    4    4    0    0  0.38034165511E+02  0.62891049532E+01  0.63190524920E+02  0.74021571362E+02  0.00000000000E+00 0. -1.
         13    1    4    4    0    0 -0.24742451144E+02 -0.35132587049E+02  0.24569807258E+01  0.43040960906E+02  0.00000000000E+00 0.  1.
          1    1    1    2  501    0 -0.39368811790E+02  0.16384379482E+02  0.11863119664E+02  0.44261550368E+02  0.00000000000E+00 0. -1.
<scales pt_clust_5="13000.00000" pt_clust_6="13000.00000" pt_clust_7="13000.00000" pt_clust_8="13000.00000" pt_clust_9="13000.00000"></scales>
<clustering>
<clus scale="   78.681">  5  6 -1 -1</clus>
<clus scale="   83.821">  1  5  2 -1</clus>
<clus scale="   91.572">  7  8 -1 -1</clus>
<clus scale="   38.444">  7  9 -1 -1</clus>
<clus scale="  141.483">  2  5  1 -1</clus>
</clustering>
</event>
<event>
 9    2  0.2147756E-005  0.2206849E+03  0.7546771E-02  0.1160603E+00
         21   -1    0    0  501  502  0.00000000000E+00  0.00000000000E+00  0.31463520691E+02  0.31463520691E+02  0.00000000000E+00 0. -1.
          2   -1    0    0  502    0 -0.00000000000E+00 -0.00000000000E+00 -0.10200726042E+04  0.10200726042E+04  0.00000000000E+00 0. -1.
         24    2    1    2    0    0  0.61580427468E+02 -0.55342717423E+02 -0.53240923178E+03  0.54476189375E+03  0.80317901956E+02 0.  0.
         23    2    1    2    0    0 -0.87346396502E+02 -0.25029947935E+02 -0.21079900275E+03  0.24726464139E+03  0.91911327067E+02 0.  0.
        -11    1    3    3    0    0  0.12549175646E+02 -0.22682831694E+02 -0.33362544959E+02  0.42249876558E+02  0.00000000000E+00 0.  1.
         12    1    3    3    0    0  0.49031251821E+02 -0.32659885729E+02 -0.49904668682E+03  0.50251201719E+03  0.00000000000E+00 0. -1.
        -13    1    4    4    0    0 -0.60864494001E+02 -0.13005849727E+01 -0.40093077911E+02  0.72894670914E+02  0.00000000000E+00 0. -1.
         13    1    4    4    0    0 -0.26481902501E+02 -0.23729362963E+02 -0.17070592484E+03  0.17436997048E+03  0.00000000000E+00 0.  1.
          1    1    1    2  501    0  0.25765969034E+02  0.80372665359E+02 -0.24540084893E+03  0.25950958972E+03  0.00000000000E+00 0. -1.
<scales pt_clust_5="13000.00000" pt_clust_6="13000.00000" pt_clust_7="13000.00000" pt_clust_8="13000.00000" pt_clust_9="13000.00000"></scales>
<clustering>
<clus scale="   80.318">  5  6 -1 -1</clus>
<clus scale="   91.911">  7  8 -1 -1</clus>
<clus scale="   84.402">  7  9 -1 -1</clus>
<clus scale="  115.351">  2  5  1 -1</clus>
<clus scale="  220.685">  1  5  2 -1</clus>
</clustering>
</event>
<event>
 9    2  0.2147756E-005  0.4668688E+03  0.7546771E-02  0.1049386E+00
         21   -1    0    0  501  502  0.00000000000E+00  0.00000000000E+00  0.12593685253E+03  0.12593685253E+03  0.00000000000E+00 0. -1.
          2   -1    0    0  502    0 -0.00000000000E+00 -0.00000000000E+00 -0.10329707150E+04  0.10329707150E+04  0.00000000000E+00 0. -1.
         24    2    1    2    0    0  0.19104447989E+03  0.51512453642E+02 -0.48245888805E+03  0.52785259825E+03  0.81916180588E+02 0.  0.
         23    2    1    2    0    0  0.14048561634E+02 -0.19484804692E+03 -0.19798923245E+03  0.29349112873E+03  0.93670609071E+02 0.  0.
        -11    1    3    3    0    0  0.33278484029E+02 -0.18574711369E+02 -0.55616951566E+02  0.67421974929E+02  0.00000000000E+00 0.  1.
         12    1    3    3    0    0  0.15776599586E+03  0.70087165012E+02 -0.42684193648E+03  0.46043062332E+03  0.00000000000E+00 0. -1.
        -11    1    4    4    0    0  0.32905186863E+02 -0.73335456047E+02 -0.31086639561E+02  0.86181318135E+02  0.00000000000E+00 0.  1.
         11    1    4    4    0    0 -0.18856625230E+02 -0.12151259087E+03 -0.16690259289E+03  0.20730981059E+03  0.00000000000E+00 0. -1.
          1    1    1    2  501    0 -0.20509304153E+03  0.14333559328E+03 -0.22658574194E+03  0.33756384053E+03  0.00000000000E+00 0. -1.
<scales pt_clust_5="13000.00000" pt_clust_6="13000.00000" pt_clust_7="13000.00000" pt_clust_8="13000.00000" pt_clust_9="13000.00000"></scales>
<clustering>
<clus scale="   81.916">  5  6 -1 -1</clus>
<clus scale="   93.671">  7  8 -1 -1</clus>
<clus scale="  214.154">  2  5  1 -1</clus>
<clus scale="  199.506">  7  9 -1 -1</clus>
<clus scale="  466.869">  1  5  2 -1</clus>
</clustering>
</event>
<event>
 9    2  0.2147756E-005  0.4540726E+03  0.7546771E-02  0.1041307E+00
          4   -1    0    0  502    0 -0.00000000000E+00  0.00000000000E+00  0.75951977763E+03  0.75951977763E+03  0.00000000000E+00 0. -1.
         21   -1    0    0  501  502  0.00000000000E+00 -0.00000000000E+00 -0.23200853077E+03  0.23200853077E+03  0.00000000000E+00 0.  1.
         24    2    1    2    0    0  0.12768742228E+03  0.25201615858E+03 -0.23270180874E+01  0.29373856601E+03  0.80378530403E+02 0.  0.
         23    2    1    2    0    0  0.31288109423E+02 -0.73711926669E+02  0.41933612167E+01  0.12040929276E+03  0.89824381875E+02 0.  0.
        -13    1    3    3    0    0  0.82468705443E+02  0.19880239637E+03 -0.32497054387E+02  0.21766841462E+03  0.00000000000E+00 0.  1.
         14    1    3    3    0    0  0.45218716840E+02  0.53213762219E+02  0.30170036300E+02  0.76070151390E+02  0.00000000000E+00 0. -1.
        -11    1    4    4    0    0  0.31790743232E+02 -0.16077082319E+02  0.39203756922E+02  0.52972242617E+02  0.00000000000E+00 0. -1.
         11    1    4    4    0    0 -0.50263380941E+00 -0.57634844351E+02 -0.35010395705E+02  0.67437050139E+02  0.00000000000E+00 0.  1.
          3    1    1    2  501    0 -0.15897553171E+03 -0.17830423192E+03  0.52564490374E+03  0.57738044964E+03  0.00000000000E+00 0. -1.
<scales pt_clust_5="13000.00000" pt_clust_6="13000.00000" pt_clust_7="13000.00000" pt_clust_8="13000.00000" pt_clust_9="13000.00000"></scales>
<clustering>
<clus scale="   80.379">  5  6 -1 -1</clus>
<clus scale="   89.824">  7  8 -1 -1</clus>
<clus scale="  238.884">  7  9 -1 -1</clus>
<clus scale="  293.729">  1  5  2 -1</clus>
<clus scale="  454.073">  2  5  1 -1</clus>
</clustering>
</event>
<event>
 9    2  0.2147756E-005  0.1899122E+03  0.7546771E-02  0.1187650E+00
          2   -1    0    0  502    0 -0.00000000000E+00  0.00000000000E+00  0.14188023991E+03  0.14188023991E+03  0.00000000000E+00 0. -1.
         21   -1    0    0  501  502  0.00000000000E+00 -0.00000000000E+00 -0.15451671441E+03  0.15451671441E+03  0.00000000000E+00 0.  1.
         24    2    1    2    0    0 -0.28503956069E+02 -0.48479154501E+02 -0.37507568127E+02  0.10486308895E+03  0.80166987125E+02 0.  0.
         23    2    1    2    0    0  0.25615938951E+02  0.97368973978E+02 -0.14621555307E+01  0.13592815431E+03  0.91309538458E+02 0.  0.
        -11    1    3    3    0    0 -0.41095032664E+02 -0.56177896506E+02 -0.49858082197E+02  0.85618842119E+02  0.00000000000E+00 0.  1.
         12    1    3    3    0    0  0.12591076595E+02  0.76987420052E+01  0.12350514070E+02  0.19244246831E+02  0.00000000000E+00 0. -1.
        -13    1    4    4    0    0 -0.30079574874E+00  0.10528783291E+03 -0.13732617758E+02  0.10618005004E+03  0.00000000000E+00 0. -1.
         13    1    4    4    0    0  0.25916734700E+02 -0.79188589297E+01  0.12270462227E+02  0.29748104268E+02  0.00000000000E+00 0.  1.
          1    1    1    2  501    0  0.28880171172E+01 -0.48889819476E+02  0.26333249151E+02  0.55605711057E+02  0.00000000000E+00 0. -1.
<scales pt_clust_5="13000.00000" pt_clust_6="13000.00000" pt_clust_7="13000.00000" pt_clust_8="13000.00000" pt_clust_9="13000.00000"></scales>
<clustering>
<clus scale="   80.167">  5  6 -1 -1</clus>
<clus scale="   91.310">  7  8 -1 -1</clus>
<clus scale="   48.975">  7  9 -1 -1</clus>
<clus scale="   97.926">  1  5  2 -1</clus>
<clus scale="  189.912">  2  5  1 -1</clus>
</clustering>
</event>
<event>
 9    2  0.2147756E-005  0.2952665E+03  0.7546771E-02  0.1102956E+00
         21   -1    0    0  501  502  0.00000000000E+00  0.00000000000E+00  0.24658892736E+03  0.24658892736E+03  0.00000000000E+00 0. -1.
          2   -1    0    0  502    0 -0.00000000000E+00 -0.00000000000E+00 -0.28545310347E+03  0.28545310347E+03  0.00000000000E+00 0. -1.
         24    2    1    2    0    0 -0.17283842603E+03 -0.47210100031E+02  0.80637888621E+02  0.21350934543E+03  0.83557503833E+02 0.  0.
         23    2    1    2    0    0  0.34037097120E+01 -0.11198504690E+02  0.14762344111E+02  0.94598276080E+02  0.92703372574E+02 0.  0.
        -11    1    3    3    0    0 -0.10045328937E+03  0.11755933014E+02  0.22780156538E+02  0.10367256551E+03  0.00000000000E+00 0.  1.
         12    1    3    3    0    0 -0.72385136657E+02 -0.58966033045E+02  0.57857732083E+02  0.10983677992E+03  0.00000000000E+00 0. -1.
        -11    1    4    4    0    0 -0.34597662654E+02  0.22356511543E+02  0.15181609195E+02  0.43900946769E+02  0.00000000000E+00 0. -1.
         11    1    4    4    0    0  0.38001372366E+02 -0.33555016233E+02 -0.41926508400E+00  0.50697329311E+02  0.00000000000E+00 0.  1.
          1    1    1    2  501    0  0.16943471632E+03  0.58408604721E+02 -0.13426440884E+03  0.22393440933E+03  0.00000000000E+00 0. -1.
<scales pt_clust_5="13000.00000" pt_clust_6="13000.00000" pt_clust_7="13000.00000" pt_clust_8="13000.00000" pt_clust_9="13000.00000"></scales>
<clustering>
<clus scale="   83.558">  5  6 -1 -1</clus>
<clus scale="   92.703">  7  8 -1 -1</clus>
<clus scale="  179.220">  7  9 -1 -1</clus>
<clus scale="  197.696">  2  5  1 -1</clus>
<clus scale="  295.267">  1  5  2 -1</clus>
</clustering>
</event>
<event>
 9    2  0.2147756E-005  0.7279143E+03  0.7546771E-02  0.9891588E-01
         21   -1    0    0  501  502  0.00000000000E+00  0.00000000000E+00  0.10955095149E+04  0.10955095149E+04  0.00000000000E+00 0. -1.
         -1   -1    0    0    0  501 -0.00000000000E+00 -0.00000000000E+00 -0.26612309216E+03  0.26612309216E+03  0.00000000000E+00 0.  1.
         24    2    1    2    0    0  0.29653483374E+03 -0.17030092420E+03  0.24756187433E+03  0.42976405376E+03  0.80467060780E+02 0.  0.
         23    2    1    2    0    0 -0.61091326876E+02 -0.22537036938E+03  0.11171518635E+03  0.27384710243E+03  0.89375606491E+02 0.  0.
        -11    1    3    3    0    0  0.22533088093E+03 -0.14146615757E+03  0.14946285849E+03  0.30516524328E+03  0.00000000000E+00 0.  1.
         12    1    3    3    0    0  0.71203952812E+02 -0.28834766631E+02  0.98099015837E+02  0.12459881047E+03  0.00000000000E+00 0. -1.
        -13    1    4    4    0    0  0.88179638099E+01 -0.10341121227E+03  0.76484783074E+02  0.12892461887E+03  0.00000000000E+00 0.  1.
         13    1    4    4    0    0 -0.69909290686E+02 -0.12195915711E+03  0.35230403279E+02  0.14492248356E+03  0.00000000000E+00 0. -1.
         -2    1    1    2    0  502 -0.23544350687E+03  0.39567129358E+03  0.47010936202E+03  0.65802145082E+03  0.00000000000E+00 0.  1.
<scales pt_clust_5="13000.00000" pt_clust_6="13000.00000" pt_clust_7="13000.00000" pt_clust_8="13000.00000" pt_clust_9="13000.00000"></scales>
<clustering>
<clus scale="   80.467">  5  6 -1 -1</clus>
<clus scale="   89.376">  7  8 -1 -1</clus>
<clus scale="  351.298">  2  5  1 -1</clus>
<clus scale="  313.661">  7  9 -1 -1</clus>
<clus scale="  727.914">  1  5  2 -1</clus>
</clustering>
</event>
<event>
 9    2  0.2168591E-005  0.5597212E+03  0.7546771E-02  0.1037947E+00
         21   -1    0    0  501  502  0.00000000000E+00  0.00000000000E+00  0.41699992147E+03  0.41699992147E+03  0.00000000000E+00 0. -1.
          4   -1    0    0  502    0 -0.00000000000E+00 -0.00000000000E+00 -0.38153904210E+03  0.38153904210E+03  0.00000000000E+00 0. -1.
         24    2    1    2    0    0 -0.12702279078E+02  0.15218742214E+03  0.14799228950E+03  0.22761763167E+03  0.81152382243E+02 0.  0.
         23    2    1    2    0    0 -0.77133204089E+02  0.35066707855E+02  0.17589184980E+03  0.21550256467E+03  0.91237094320E+02 0.  0.
        -11    1    3    3    0    0  0.30238071241E+02  0.28164374111E+02  0.41961920594E+02  0.58892917243E+02  0.00000000000E+00 0.  1.
         12    1    3    3    0    0 -0.42940350319E+02  0.12402304803E+03  0.10603036891E+03  0.16872471443E+03  0.00000000000E+00 0. -1.
        -13    1    4    4    0    0 -0.35079303076E+02  0.30632098695E+02  0.14669963004E+02  0.48827152172E+02  0.00000000000E+00 0.  1.
         13    1    4    4    0    0 -0.42053901013E+02  0.44346091603E+01  0.16122188679E+03  0.16667541250E+03  0.00000000000E+00 0. -1.
          3    1    1    2  501    0  0.89835483168E+02 -0.18725412999E+03 -0.28842325993E+03  0.35541876724E+03  0.00000000000E+00 0. -1.
<scales pt_clust_5="13000.00000" pt_clust_6="13000.00000" pt_clust_7="13000.00000" pt_clust_8="13000.00000" pt_clust_9="13000.00000"></scales>
<clustering>
<clus scale="   81.152">  5  6 -1 -1</clus>
<clus scale="   91.237">  7  8 -1 -1</clus>
<clus scale="  172.940">  2  5  1 -1</clus>
<clus scale="   89.385">  7  9 -1 -1</clus>
<clus scale="  559.721">  1  5  2 -1</clus>
</clustering>
</event>
<event>
 9    2  0.2147756E-005  0.2501617E+03  0.7546771E-02  0.1144131E+00
          2   -1    0    0  502    0 -0.00000000000E+00  0.00000000000E+00  0.31994737629E+03  0.31994737629E+03  0.00000000000E+00 0. -1.
         21   -1    0    0  501  502  0.00000000000E+00 -0.00000000000E+00 -0.12661078556E+03  0.12661078556E+03  0.00000000000E+00 0. -1.
         24    2    1    2    0    0  0.44049163444E+02  0.71643812030E+02  0.15405227934E+03  0.19333076437E+03  0.81064881896E+02 0.  0.
         23    2    1    2    0    0  0.69489400859E+02 -0.76822835557E+02  0.11393677684E+02  0.13619870307E+03  0.87691196441E+02 0.  0.
        -11    1    3    3    0    0  0.57556640027E+01  0.34107980066E+02  0.50291066471E+01  0.34953882273E+02  0.00000000000E+00 0.  1.
         12    1    3    3    0    0  0.38293499442E+02  0.37535831965E+02  0.14902317270E+03  0.15837688209E+03  0.00000000000E+00 0. -1.
        -13    1    4    4    0    0 -0.39602303896E+01 -0.60307808073E+02  0.51822335823E+01  0.60659464918E+02  0.00000000000E+00 0.  1.
         13    1    4    4    0    0  0.73449631249E+02 -0.16515027485E+02  0.62114441017E+01  0.75539238156E+02  0.00000000000E+00 0. -1.
          1    1    1    2  501    0 -0.11353856430E+03  0.51790235269E+01  0.27890633702E+02  0.11702869442E+03  0.00000000000E+00 0. -1.
<scales pt_clust_5="13000.00000" pt_clust_6="13000.00000" pt_clust_7="13000.00000" pt_clust_8="13000.00000" pt_clust_9="13000.00000"></scales>
<clustering>
<clus scale="   81.065">  5  6 -1 -1</clus>
<clus scale="   87.691">  7  8 -1 -1</clus>
<clus scale="  113.657">  7  9 -1 -1</clus>
<clus scale="  116.810">  1  5  2 -1</clus>
<clus scale="  250.162">  2  5  1 -1</clus>
</clustering>
</event>
<event>
 9    2  0.2147756E-005  0.1788292E+03  0.7546771E-02  0.1184429E+00
         21   -1    0    0  501  502  0.00000000000E+00  0.00000000000E+00  0.52199018205E+02  0.52199018205E+02  0.00000000000E+00 0. -1.
          2   -1    0    0  502    0 -0.00000000000E+00 -0.00000000000E+00 -0.12207943678E+04  0.12207943678E+04  0.00000000000E+00 0. -1.
         24    2    1    2    0    0  0.54312508827E+02  0.79959499319E+02 -0.10519855540E+04  0.10595040132E+04  0.80819415713E+02 0.  0.
         23    2    1    2    0    0 -0.33773116973E+02 -0.13962040860E+02 -0.24403067485E+02  0.98252174620E+02  0.87877290011E+02 0.  0.
        -11    1    3    3    0    0  0.32671045651E+02  0.22223794088E+02 -0.14093264658E+03  0.14636702196E+03  0.00000000000E+00 0.  1.
         12    1    3    3    0    0  0.21641463176E+02  0.57735705231E+02 -0.91105290744E+03  0.91313699122E+03  0.00000000000E+00 0. -1.
        -11    1    4    4    0    0 -0.29897229623E+02 -0.49749132501E+02 -0.22354302853E+02  0.62197551236E+02  0.00000000000E+00 0.  1.
         11    1    4    4    0    0 -0.38758873506E+01  0.35787091640E+02 -0.20487646314E+01  0.36054623384E+02  0.00000000000E+00 0. -1.
          1    1    1    2  501    0 -0.20539391854E+02 -0.65997458458E+02 -0.92206728051E+02  0.11523719816E+03  0.00000000000E+00 0. -1.
<scales pt_clust_5="13000.00000" pt_clust_6="13000.00000" pt_clust_7="13000.00000" pt_clust_8="13000.00000" pt_clust_9="13000.00000"></scales>
<clustering>
<clus scale="   80.819">  5  6 -1 -1</clus>
<clus scale="   87.877">  7  8 -1 -1</clus>
<clus scale="   69.120">  7  9 -1 -1</clus>
<clus scale="  125.997">  2  5  1 -1</clus>
<clus scale="  178.829">  1  5  2 -1</clus>
</clustering>
</event>
<event>
 9    2  0.2147756E-005  0.2089316E+03  0.7546771E-02  0.1181794E+00
          2   -1    0    0  502    0 -0.00000000000E+00  0.00000000000E+00  0.36955300554E+03  0.36955300554E+03  0.00000000000E+00 0. -1.
         21   -1    0    0  501  502  0.00000000000E+00 -0.00000000000E+00 -0.59105729188E+02  0.59105729188E+02  0.00000000000E+00 0.  1.
         24    2    1    2    0    0  0.15432227190E+02  0.73160828593E+01  0.63230424520E+02  0.10497895001E+03  0.82041542260E+02 0.  0.
         23    2    1    2    0    0  0.21846980889E+02 -0.53775911174E+02  0.53796223932E+02  0.12129452266E+03  0.91919466494E+02 0.  0.
        -11    1    3    3    0    0 -0.21687969192E+02  0.26979536904E+02  0.78939868847E+01  0.35504625729E+02  0.00000000000E+00 0.  1.
         12    1    3    3    0    0  0.37120196382E+02 -0.19663454045E+02  0.55336437635E+02  0.69474324283E+02  0.00000000000E+00 0. -1.
        -13    1    4    4    0    0  0.53500402017E+02 -0.19837529300E+02  0.10887531658E+02  0.58089232482E+02  0.00000000000E+00 0.  1.
         13    1    4    4    0    0 -0.31653421128E+02 -0.33938381874E+02  0.42908692274E+02  0.63205290174E+02  0.00000000000E+00 0. -1.
          1    1    1    2  501    0 -0.37279208079E+02  0.46459828314E+02  0.19342062789E+03  0.20238526206E+03  0.00000000000E+00 0. -1.
<scales pt_clust_5="13000.00000" pt_clust_6="13000.00000" pt_clust_7="13000.00000" pt_clust_8="13000.00000" pt_clust_9="13000.00000"></scales>
<clustering>
<clus scale="   82.042">  5  6 -1 -1</clus>
<clus scale="   83.800">  1  5  2 -1</clus>
<clus scale="   91.919">  7  8 -1 -1</clus>
<clus scale="   57.983">  7  9 -1 -1</clus>
<clus scale="  208.932">  2  5  1 -1</clus>
</clustering>
</event>
<event>
 9    2  0.2147756E-005  0.2856303E+03  0.7546771E-02  0.1140452E+00
         21   -1    0    0  501  502  0.00000000000E+00  0.00000000000E+00  0.18882626700E+02  0.18882626700E+02  0.00000000000E+00 0. -1.
          2   -1    0    0  502    0 -0.00000000000E+00 -0.00000000000E+00 -0.20184976403E+04  0.20184976403E+04  0.00000000000E+00 0. -1.
         24    2    1    2    0    0 -0.30483028677E+02  0.99961554696E+00 -0.78332359306E+03  0.78800061478E+03  0.80118057745E+02 0.  0.
         23    2    1    2    0    0  0.49363817502E+02 -0.11595139581E+03 -0.88781669956E+03  0.90085987044E+03  0.86304701374E+02 0.  0.
        -13    1    3    3    0    0  0.12180770041E+02  0.28263264732E+02 -0.18538950603E+03  0.18792672039E+03  0.00000000000E+00 0.  1.
         14    1    3    3    0    0 -0.42663798718E+02 -0.27263649185E+02 -0.59793408703E+03  0.60007389438E+03  0.00000000000E+00 0. -1.
        -11    1    4    4    0    0  0.28453924359E+02 -0.12617767599E+03 -0.76472002176E+03  0.77558180962E+03  0.00000000000E+00 0. -1.
         11    1    4    4    0    0  0.20909893144E+02  0.10226280177E+02 -0.12309667780E+03  0.12527806082E+03  0.00000000000E+00 0.  1.
          1    1    1    2  501    0 -0.18880788825E+02  0.11495178026E+03 -0.32847472098E+03  0.34851978178E+03  0.00000000000E+00 0. -1.
<scales pt_clust_5="13000.00000" pt_clust_6="13000.00000" pt_clust_7="13000.00000" pt_clust_8="13000.00000" pt_clust_9="13000.00000"></scales>
<clustering>
<clus scale="   80.118">  5  6 -1 -1</clus>
<clus scale="   85.727">  2  5  1 -1</clus>
<clus scale="   86.305">  7  8 -1 -1</clus>
<clus scale="  118.405">  7  9 -1 -1</clus>
<clus scale="  285.630">  1  5  2 -1</clus>
</clustering>
</event>
<event>
 9    2  0.2147756E-005  0.2480001E+03  0.7546771E-02  0.1169757E+00
         21   -1    0    0  501  502  0.00000000000E+00  0.00000000000E+00  0.32771280802E+03  0.32771280802E+03  0.00000000000E+00 0.  1.
         -1   -1    0    0    0  501 -0.00000000000E+00 -0.00000000000E+00 -0.11437146153E+03  0.11437146153E+03  0.00000000000E+00 0.  1.
         24    2    1    2    0    0 -0.12728429206E+02 -0.25272708506E+02 -0.48264298276E+02  0.81610155266E+02  0.59414242814E+02 0.  0.
         23    2    1    2    0    0 -0.93992004388E+02 -0.20712735872E+02  0.13475972182E+03  0.18844562766E+03  0.89933629101E+02 0.  0.
        -11    1    3    3    0    0  0.20223236900E+02 -0.21821430570E+02 -0.34962257214E+02  0.45907663547E+02  0.00000000000E+00 0.  1.
         12    1    3    3    0    0 -0.32951666106E+02 -0.34512779366E+01 -0.13302041061E+02  0.35702491719E+02  0.00000000000E+00 0. -1.
        -13    1    4    4    0    0 -0.66266159490E+02 -0.56027252829E+02  0.86326644862E+02  0.12240321306E+03  0.00000000000E+00 0.  1.
         13    1    4    4    0    0 -0.27725844898E+02  0.35314516958E+02  0.48433076962E+02  0.66042414608E+02  0.00000000000E+00 0. -1.
         -2    1    1    2    0  502  0.10672043359E+03  0.45985444378E+02  0.12684592295E+03  0.17202848662E+03  0.00000000000E+00 0.  1.
<scales pt_clust_5="13000.00000" pt_clust_6="13000.00000" pt_clust_7="13000.00000" pt_clust_8="13000.00000" pt_clust_9="13000.00000"></scales>
<clustering>
<clus scale="   59.414">  5  6 -1 -1</clus>
<clus scale="   65.809">  2  5  1 -1</clus>
<clus scale="   89.934">  7  8 -1 -1</clus>
<clus scale="  106.618">  7  9 -1 -1</clus>
<clus scale="  248.000">  1  5  2 -1</clus>
</clustering>
</event>
<event>
 9    2  0.2147756E-005  0.1732817E+03  0.7546771E-02  0.1203355E+00
         21   -1    0    0  501  502  0.00000000000E+00  0.00000000000E+00  0.19251118453E+03  0.19251118453E+03  0.00000000000E+00 0.  1.
         -1   -1    0    0    0  501 -0.00000000000E+00 -0.00000000000E+00 -0.10189427722E+03  0.10189427722E+03  0.00000000000E+00 0.  1.
         24    2    1    2    0    0 -0.31453977384E+00 -0.37852229243E+02 -0.13266096090E+02  0.92370230592E+02  0.83206850681E+02 0.  0.
         23    2    1    2    0    0  0.44165964950E+02 -0.34792255392E+01  0.97422401753E+02  0.14143014871E+03  0.92458775308E+02 0.  0.
        -11    1    3    3    0    0  0.92970358087E+01 -0.55766338390E+02 -0.31795248748E+02  0.64863373449E+02  0.00000000000E+00 0.  1.
         12    1    3    3    0    0 -0.96115755826E+01  0.17914109146E+02  0.18529152658E+02  0.27506857143E+02  0.00000000000E+00 0. -1.
        -13    1    4    4    0    0  0.13255540736E+02 -0.33465883516E+02  0.91035403908E+02  0.97893408790E+02  0.00000000000E+00 0.  1.
         13    1    4    4    0    0  0.30910424213E+02  0.29986657977E+02  0.63869978445E+01  0.43536739924E+02  0.00000000000E+00 0. -1.
         -2    1    1    2    0  502 -0.43851425176E+02  0.41331454783E+02  0.64606016528E+01  0.60605082445E+02  0.00000000000E+00 0.  1.
<scales pt_clust_5="13000.00000" pt_clust_6="13000.00000" pt_clust_7="13000.00000" pt_clust_8="13000.00000" pt_clust_9="13000.00000"></scales>
<clustering>
<clus scale="   83.207">  5  6 -1 -1</clus>
<clus scale="   91.413">  2  5  1 -1</clus>
<clus scale="   92.459">  7  8 -1 -1</clus>
<clus scale="   48.543">  7  9 -1 -1</clus>
<clus scale="  173.282">  1  5  2 -1</clus>
</clustering>
</event>
<event>
 9    2  0.2147756E-005  0.1607652E+03  0.7546771E-02  0.1202966E+00
         21   -1    0    0  501  502  0.00000000000E+00  0.00000000000E+00  0.13624839345E+03  0.13624839345E+03  0.00000000000E+00 0.  1.
          2   -1    0    0  502    0 -0.00000000000E+00 -0.00000000000E+00 -0.39949938250E+03  0.39949938250E+03  0.00000000000E+00 0. -1.
         24    2    1    2    0    0 -0.80674461218E+02  0.17327159740E+02 -0.33893832916E+03  0.35805695603E+03  0.80727898682E+02 0.  0.
         23    2    1    2    0    0  0.71109538884E+02  0.30658177369E+01  0.81382600705E+02  0.15445728246E+03  0.11030847043E+03 0.  0.
        -11    1    3    3    0    0 -0.44514557589E+02 -0.73485284616E+01 -0.56778580623E+02  0.72521403223E+02  0.00000000000E+00 0.  1.
         12    1    3    3    0    0 -0.36159903630E+02  0.24675688201E+02 -0.28215974854E+03  0.28553555280E+03  0.00000000000E+00 0. -1.
        -13    1    4    4    0    0  0.94492824190E+02 -0.15053041789E+02  0.40281284593E+02  0.10381748301E+03  0.00000000000E+00 0.  1.
         13    1    4    4    0    0 -0.23383285306E+02  0.18118859526E+02  0.41101316112E+02  0.50639799450E+02  0.00000000000E+00 0. -1.
          1    1    1    2  501    0  0.95649223346E+01 -0.20392977477E+02 -0.56952605994E+01  0.23233537460E+02  0.00000000000E+00 0. -1.
<scales pt_clust_5="13000.00000" pt_clust_6="13000.00000" pt_clust_7="13000.00000" pt_clust_8="13000.00000" pt_clust_9="13000.00000"></scales>
<clustering>
<clus scale="   80.728">  5  6 -1 -1</clus>
<clus scale="  110.308">  7  8 -1 -1</clus>
<clus scale="   22.525">  7  9 -1 -1</clus>
<clus scale="  115.437">  2  5  1 -1</clus>
<clus scale="  160.765">  1  5  2 -1</clus>
</clustering>
</event>
<event>
 9    2  0.2147756E-005  0.2926118E+03  0.7546771E-02  0.1137256E+00
         21   -1    0    0  501  502  0.00000000000E+00  0.00000000000E+00  0.48493679751E+02  0.48493679751E+02  0.00000000000E+00 0.  1.
          2   -1    0    0  502    0 -0.00000000000E+00 -0.00000000000E+00 -0.77247103891E+03  0.77247103891E+03  0.00000000000E+00 0. -1.
         24    2    1    2    0    0 -0.29485929226E+02  0.10454072630E+02 -0.24475496797E+03  0.25947047155E+03  0.80257233962E+02 0.  0.
         23    2    1    2    0    0 -0.10257484697E+03  0.46204249712E+02 -0.28795164660E+03  0.32225647452E+03  0.90976110416E+02 0.  0.
        -11    1    3    3    0    0 -0.25802055373E+02 -0.27535404695E+02 -0.60497352881E+02  0.71301292266E+02  0.00000000000E+00 0.  1.
         12    1    3    3    0    0 -0.36838738526E+01  0.37989477325E+02 -0.18425761509E+03  0.18816917928E+03  0.00000000000E+00 0. -1.
        -11    1    4    4    0    0 -0.17138028082E+02  0.30905924180E+02 -0.20018841845E+02  0.40615787383E+02  0.00000000000E+00 0.  1.
         11    1    4    4    0    0 -0.85436818890E+02  0.15298325532E+02 -0.26793280475E+03  0.28164068713E+03  0.00000000000E+00 0. -1.
          1    1    1    2  501    0  0.13206077620E+03 -0.56658322342E+02 -0.19127074460E+03  0.23923777260E+03  0.00000000000E+00 0. -1.
<scales pt_clust_5="13000.00000" pt_clust_6="13000.00000" pt_clust_7="13000.00000" pt_clust_8="13000.00000" pt_clust_9="13000.00000"></scales>
<clustering>
<clus scale="   80.257">  5  6 -1 -1</clus>
<clus scale="   86.139">  2  5  1 -1</clus>
<clus scale="   90.976">  7  8 -1 -1</clus>
<clus scale="  130.790">  7  9 -1 -1</clus>
<clus scale="  292.612">  1  5  2 -1</clus>
</clustering>
</event>
<event>
 9    2  0.2147756E-005  0.1561167E+03  0.7546771E-02  0.1222687E+00
         21   -1    0    0  501  502  0.00000000000E+00  0.00000000000E+00  0.18895492397E+02  0.18895492397E+02  0.00000000000E+00 0. -1.
          2   -1    0    0  502    0 -0.00000000000E+00 -0.00000000000E+00 -0.77821729721E+03  0.77821729721E+03  0.00000000000E+00 0. -1.
         24    2    1    2    0    0  0.26304053256E+02  0.10549851101E+02 -0.33113042765E+03  0.34134937647E+03  0.77902722195E+02 0.  0.
         23    2    1    2    0    0  0.46041991006E+01  0.34507248853E+02 -0.31825471157E+03  0.33299724205E+03  0.91592319042E+02 0.  0.
        -13    1    3    3    0    0  0.15672734964E+02 -0.29337639727E+02 -0.76838011628E+02  0.83728201682E+02  0.00000000000E+00 0.  1.
         14    1    3    3    0    0  0.10631318292E+02  0.39887490828E+02 -0.25429241603E+03  0.25762117479E+03  0.00000000000E+00 0. -1.
        -11    1    4    4    0    0 -0.39140046185E+02 -0.61826868420E+00 -0.93858451835E+02  0.10169431868E+03  0.00000000000E+00 0.  1.
         11    1    4    4    0    0  0.43744245285E+02  0.35125517537E+02 -0.22439625973E+03  0.23130292337E+03  0.00000000000E+00 0. -1.
          1    1    1    2  501    0 -0.30908252357E+02 -0.45057099954E+02 -0.10993666560E+03  0.12276617108E+03  0.00000000000E+00 0. -1.
<scales pt_clust_5="13000.00000" pt_clust_6="13000.00000" pt_clust_7="13000.00000" pt_clust_8="13000.00000" pt_clust_9="13000.00000"></scales>
<clustering>
<clus scale="   77.903">  5  6 -1 -1</clus>
<clus scale="   82.898">  2  5  1 -1</clus>
<clus scale="   91.592">  7  8 -1 -1</clus>
<clus scale="   48.609">  7  9 -1 -1</clus>
<clus scale="  156.117">  1  5  2 -1</clus>
</clustering>
</event>
<event>
 9    2  0.2147756E-005  0.2048372E+03  0.7546771E-02  0.1183075E+00
         21   -1    0    0  501  502  0.00000000000E+00  0.00000000000E+00  0.13326354479E+03  0.13326354479E+03  0.00000000000E+00 0. -1.
          2   -1    0    0  502    0 -0.00000000000E+00 -0.00000000000E+00 -0.16744450148E+03  0.16744450148E+03  0.00000000000E+00 0. -1.
         24    2    1    2    0    0 -0.29114423369E+02 -0.26852874219E+02 -0.41240611303E+02  0.95749239361E+02  0.76801056735E+02 0.  0.
         23    2    1    2    0    0  0.32409244532E+01  0.94925646629E+02  0.34820382167E+01  0.13204694485E+03  0.91667273745E+02 0.  0.
        -11    1    3    3    0    0 -0.10663125150E+02 -0.52881190475E+02 -0.31116862880E+02  0.62276654531E+02  0.00000000000E+00 0.  1.
         12    1    3    3    0    0 -0.18451298218E+02  0.26028316256E+02 -0.10123748424E+02  0.33472584830E+02  0.00000000000E+00 0. -1.
        -13    1    4    4    0    0 -0.37682857322E+02  0.15110245542E+02 -0.87202103751E+01  0.41525405781E+02  0.00000000000E+00 0.  1.
         13    1    4    4    0    0  0.40923781775E+02  0.79815401087E+02  0.12202248592E+02  0.90521539073E+02  0.00000000000E+00 0. -1.
          1    1    1    2  501    0  0.25873498915E+02 -0.68072772410E+02  0.35776163974E+01  0.72911862058E+02  0.00000000000E+00 0. -1.
<scales pt_clust_5="13000.00000" pt_clust_6="13000.00000" pt_clust_7="13000.00000" pt_clust_8="13000.00000" pt_clust_9="13000.00000"></scales>
<clustering>
<clus scale="   76.801">  5  6 -1 -1</clus>
<clus scale="   86.413">  2  5  1 -1</clus>
<clus scale="   91.667">  7  8 -1 -1</clus>
<clus scale="   79.050">  7  9 -1 -1</clus>
<clus scale="  204.837">  1  5  2 -1</clus>
</clustering>
</event>
<event>
 9    2  0.2147756E-005  0.4135904E+03  0.7546771E-02  0.1075554E+00
          2   -1    0    0  502    0 -0.00000000000E+00  0.00000000000E+00  0.39067305275E+03  0.39067305275E+03  0.00000000000E+00 0. -1.
         21   -1    0    0  501  502  0.00000000000E+00 -0.00000000000E+00 -0.29420800840E+03  0.29420800840E+03  0.00000000000E+00 0. -1.
         24    2    1    2    0    0  0.31278432279E+02  0.12061717630E+03 -0.14361890346E+03  0.20665794044E+03  0.80958454581E+02 0.  0.
         23    2    1    2    0    0  0.29871607884E+02 -0.24660745827E+03  0.10769921417E+03  0.28550935300E+03  0.90603082105E+02 0.  0.
        -13    1    3    3    0    0  0.51351718115E+02  0.55378356100E+02 -0.10127092956E+03  0.12633116184E+03  0.00000000000E+00 0.  1.
         14    1    3    3    0    0 -0.20073285837E+02  0.65238820204E+02 -0.42347973898E+02  0.80326778593E+02  0.00000000000E+00 0. -1.
        -11    1    4    4    0    0  0.38836796163E+02 -0.20831141260E+03  0.12097007342E+03  0.24399938529E+03  0.00000000000E+00 0. -1.
         11    1    4    4    0    0 -0.89651882782E+01 -0.38296045669E+02 -0.13270859249E+02  0.41509967718E+02  0.00000000000E+00 0.  1.
          1    1    1    2  501    0 -0.61150040163E+02  0.12599028197E+03  0.13238473364E+03  0.19271376771E+03  0.00000000000E+00 0. -1.
<scales pt_clust_5="13000.00000" pt_clust_6="13000.00000" pt_clust_7="13000.00000" pt_clust_8="13000.00000" pt_clust_9="13000.00000"></scales>
<clustering>
<clus scale="   80.958">  5  6 -1 -1</clus>
<clus scale="   90.603">  7  8 -1 -1</clus>
<clus scale="  140.046">  7  9 -1 -1</clus>
<clus scale="  148.597">  1  5  2 -1</clus>
<clus scale="  413.590">  2  5  1 -1</clus>
</clustering>
</event>
<event>
 9    2  0.2147756E-005  0.2611775E+03  0.7546771E-02  0.1153230E+00
         -3   -1    0    0    0  501 -0.00000000000E+00  0.00000000000E+00  0.10491702398E+04  0.10491702398E+04  0.00000000000E+00 0.  1.
         21   -1    0    0  501  502  0.00000000000E+00 -0.00000000000E+00 -0.32170012638E+02  0.32170012638E+02  0.00000000000E+00 0.  1.
         24    2    1    2    0    0  0.24132241570E+02 -0.45786772559E+01  0.11082390921E+03  0.13827651199E+03  0.78962811154E+02 0.  0.
         23    2    1    2    0    0 -0.11961272161E+03  0.35545738029E+02  0.41157617072E+03  0.43838088304E+03  0.84924387830E+02 0.  0.
        -11    1    3    3    0    0  0.25839325101E+02  0.31498643360E+02  0.32818474450E+02  0.52315270433E+02  0.00000000000E+00 0.  1.
         12    1    3    3    0    0 -0.17070835309E+01 -0.36077320616E+02  0.78005434763E+02  0.85961241554E+02  0.00000000000E+00 0. -1.
        -13    1    4    4    0    0 -0.34919455104E+02  0.21651065939E+02  0.41180981701E+02  0.58172246432E+02  0.00000000000E+00 0. -1.
         13    1    4    4    0    0 -0.84693266509E+02  0.13894672090E+02  0.37039518902E+03  0.38020863661E+03  0.00000000000E+00 0.  1.
         -4    1    1    2    0  502  0.95480480043E+02 -0.30967060773E+02  0.49460014718E+03  0.50468285736E+03  0.00000000000E+00 0.  1.
<scales pt_clust_5="13000.00000" pt_clust_6="13000.00000" pt_clust_7="13000.00000" pt_clust_8="13000.00000" pt_clust_9="13000.00000"></scales>
<clustering>
<clus scale="   78.963">  5  6 -1 -1</clus>
<clus scale="   82.695">  1  5  2 -1</clus>
<clus scale="   84.924">  7  8 -1 -1</clus>
<clus scale="  113.557">  7  9 -1 -1</clus>
<clus scale="  261.178">  2  5  1 -1</clus>
</clustering>
</event>
<event>
 9    2  0.2147756E-005  0.2032712E+03  0.7546771E-02  0.1181890E+00
         21   -1    0    0  501  502  0.00000000000E+00  0.00000000000E+00  0.36037657346E+03  0.36037657346E+03  0.00000000000E+00 0.  1.
          2   -1    0    0  502    0 -0.00000000000E+00 -0.00000000000E+00 -0.73576909757E+02  0.73576909757E+02  0.00000000000E+00 0. -1.
         24    2    1    2    0    0  0.42359532141E+02  0.11320401703E+02  0.11185999699E+02  0.91488794080E+02  0.79514724391E+02 0.  0.
         23    2    1    2    0    0 -0.11778459073E+02  0.51388414820E+02  0.24392711639E+03  0.26583809454E+03  0.91596687290E+02 0.  0.
        -13    1    3    3    0    0 -0.19185530326E+02  0.18243518550E+02 -0.61406761196E+01  0.27177535689E+02  0.00000000000E+00 0.  1.
         14    1    3    3    0    0  0.61545062466E+02 -0.69231168464E+01  0.17326675818E+02  0.64311258391E+02  0.00000000000E+00 0. -1.
        -11    1    4    4    0    0  0.27734669750E+02 -0.58179206322E+01  0.12416425697E+03  0.12735706818E+03  0.00000000000E+00 0. -1.
         11    1    4    4    0    0 -0.39513128823E+02  0.57206335452E+02  0.11976285942E+03  0.13848102636E+03  0.00000000000E+00 0.  1.
          1    1    1    2  501    0 -0.30581073068E+02 -0.62708816523E+02  0.31686547612E+02  0.76626594596E+02  0.00000000000E+00 0. -1.
<scales pt_clust_5="13000.00000" pt_clust_6="13000.00000" pt_clust_7="13000.00000" pt_clust_8="13000.00000" pt_clust_9="13000.00000"></scales>
<clustering>
<clus scale="   79.515">  5  6 -1 -1</clus>
<clus scale="   90.802">  2  5  1 -1</clus>
<clus scale="   91.597">  7  8 -1 -1</clus>
<clus scale="   55.139">  7  9 -1 -1</clus>
<clus scale="  203.271">  1  5  2 -1</clus>
</clustering>
</event>
<event>
 9    2  0.2147756E-005  0.8577977E+03  0.7546771E-02  0.1005328E+00
         21   -1    0    0  501  502  0.00000000000E+00  0.00000000000E+00  0.54321518649E+03  0.54321518649E+03  0.00000000000E+00 0. -1.
          2   -1    0    0  502    0 -0.00000000000E+00 -0.00000000000E+00 -0.48535920006E+03  0.48535920006E+03  0.00000000000E+00 0. -1.
         24    2    1    2    0    0 -0.10038704336E+03  0.15807142297E+02 -0.91573276841E+02  0.15785860897E+03  0.78779763730E+02 0.  0.
         23    2    1    2    0    0 -0.18507688497E+03  0.26444913556E+03 -0.15356641364E+03  0.36887953348E+03  0.91118978127E+02 0.  0.
        -11    1    3    3    0    0 -0.65797176235E+02 -0.46450156191E+01 -0.97007827753E+02  0.11730883691E+03  0.00000000000E+00 0.  1.
         12    1    3    3    0    0 -0.34589867123E+02  0.20452157916E+02  0.54345509129E+01  0.40549772066E+02  0.00000000000E+00 0. -1.
        -11    1    4    4    0    0 -0.12788161278E+03  0.10363059801E+03 -0.70702032274E+02  0.17914180165E+03  0.00000000000E+00 0.  1.
         11    1    4    4    0    0 -0.57195272189E+02  0.16081853755E+03 -0.82864381361E+02  0.18973773183E+03  0.00000000000E+00 0. -1.
          1    1    1    2  501    0  0.28546392833E+03 -0.28025627786E+03  0.30299567691E+03  0.50183624409E+03  0.00000000000E+00 0. -1.
<scales pt_clust_5="13000.00000" pt_clust_6="13000.00000" pt_clust_7="13000.00000" pt_clust_8="13000.00000" pt_clust_9="13000.00000"></scales>
<clustering>
<clus scale="   78.780">  5  6 -1 -1</clus>
<clus scale="   91.119">  7  8 -1 -1</clus>
<clus scale="  128.583">  2  5  1 -1</clus>
<clus scale="  377.592">  7  9 -1 -1</clus>
<clus scale="  857.798">  1  5  2 -1</clus>
</clustering>
</event>
<event>
 9    2  0.2147756E-005  0.3849373E+03  0.7546771E-02  0.1062840E+00
          2   -1    0    0  502    0 -0.00000000000E+00  0.00000000000E+00  0.98627030994E+03  0.98627030994E+03  0.00000000000E+00 0. -1.
         21   -1    0    0  501  502  0.00000000000E+00 -0.00000000000E+00 -0.10999503400E+03  0.10999503400E+03  0.00000000000E+00 0. -1.
         24    2    1    2    0    0 -0.24816881510E+03  0.31413364824E+01  0.46133998436E+03  0.53027238586E+03  0.82198499086E+02 0.  0.
         23    2    1    2    0    0  0.11340462356E+02 -0.86372390661E+02  0.14248412770E+03  0.19552742157E+03  0.10168800315E+03 0.  0.
        -11    1    3    3    0    0 -0.60712446737E+02 -0.13733863727E+02  0.57560647818E+02  0.84781179391E+02  0.00000000000E+00 0.  1.
         12    1    3    3    0    0 -0.18745636837E+03  0.16875200209E+02  0.40377933655E+03  0.44549120647E+03  0.00000000000E+00 0. -1.
        -13    1    4    4    0    0  0.74180880640E+01 -0.62844742283E+02  0.15583454635E+03  0.16819303047E+03  0.00000000000E+00 0. -1.
         13    1    4    4    0    0  0.39223742923E+01 -0.23527648378E+02 -0.13350418653E+02  0.27334391094E+02  0.00000000000E+00 0.  1.
          1    1    1    2  501    0  0.23682835275E+03  0.83231054178E+02  0.27245116388E+03  0.37046553651E+03  0.00000000000E+00 0. -1.
<scales pt_clust_5="13000.00000" pt_clust_6="13000.00000" pt_clust_7="13000.00000" pt_clust_8="13000.00000" pt_clust_9="13000.00000"></scales>
<clustering>
<clus scale="   82.198">  5  6 -1 -1</clus>
<clus scale="  101.688">  7  8 -1 -1</clus>
<clus scale="  251.028">  7  9 -1 -1</clus>
<clus scale="  261.446">  1  5  2 -1</clus>
<clus scale="  384.937">  2  5  1 -1</clus>
</clustering>
</event>
<event>
 9    2  0.2147756E-005  0.4197350E+03  0.7546771E-02  0.1091694E+00
         21   -1    0    0  501  502  0.00000000000E+00  0.00000000000E+00  0.16722304088E+03  0.16722304088E+03  0.00000000000E+00 0. -1.
          2   -1    0    0  502    0 -0.00000000000E+00 -0.00000000000E+00 -0.48514947635E+03  0.48514947635E+03  0.00000000000E+00 0. -1.
         24    2    1    2    0    0  0.27333863249E+02  0.47690761182E+02 -0.19381083824E+03  0.21467150786E+03  0.74159736282E+02 0.  0.
         23    2    1    2    0    0  0.48541131621E+02  0.19941106981E+02 -0.25253414930E+03  0.27392552600E+03  0.92237779807E+02 0.  0.
        -13    1    3    3    0    0  0.28289266486E+02  0.14013920368E+02 -0.17122455641E+03  0.17411065814E+03  0.00000000000E+00 0.  1.
         14    1    3    3    0    0 -0.95540323676E+00  0.33676840814E+02 -0.22586281828E+02  0.40560849712E+02  0.00000000000E+00 0. -1.
        -13    1    4    4    0    0  0.62625335115E+02 -0.14419090755E+02 -0.11804892305E+03  0.13440755562E+03  0.00000000000E+00 0. -1.
         13    1    4    4    0    0 -0.14084203494E+02  0.34360197736E+02 -0.13448522626E+03  0.13951797038E+03  0.00000000000E+00 0.  1.
          1    1    1    2  501    0 -0.75874994870E+02 -0.67631868163E+02  0.12841855207E+03  0.16377548337E+03  0.00000000000E+00 0. -1.
<scales pt_clust_5="13000.00000" pt_clust_6="13000.00000" pt_clust_7="13000.00000" pt_clust_8="13000.00000" pt_clust_9="13000.00000"></scales>
<clustering>
<clus scale="   74.160">  5  6 -1 -1</clus>
<clus scale="   92.238">  7  8 -1 -1</clus>
<clus scale="   92.310">  2  5  1 -1</clus>
<clus scale="   98.367">  7  9 -1 -1</clus>
<clus scale="  419.735">  1  5  2 -1</clus>
</clustering>
</event>
<event>
 9    2  0.2147756E-005  0.6288772E+03  0.7546771E-02  0.1040314E+00
         -3   -1    0    0    0  501 -0.00000000000E+00  0.00000000000E+00  0.38011529218E+03  0.38011529218E+03  0.00000000000E+00 0.  1.
         21   -1    0    0  501  502  0.00000000000E+00 -0.00000000000E+00 -0.39030610043E+03  0.39030610043E+03  0.00000000000E+00 0.  1.
         24    2    1    2    0    0 -0.62394744303E+02 -0.50458359742E+02 -0.77896954752E+02  0.13791003083E+03  0.80697526972E+02 0.  0.
         23    2    1    2    0    0 -0.96833409258E+02 -0.36734347355E+02  0.30453639944E+03  0.33410770603E+03  0.90329503607E+02 0.  0.
        -13    1    3    3    0    0 -0.50607749841E+02 -0.10422657063E+02 -0.80981610312E+02  0.96061424791E+02  0.00000000000E+00 0.  1.
         14    1    3    3    0    0 -0.11786994463E+02 -0.40035702679E+02  0.30846555599E+01  0.41848606039E+02  0.00000000000E+00 0. -1.
        -11    1    4    4    0    0 -0.85733356091E+02 -0.63348144652E+02  0.21382368790E+03  0.23892209041E+03  0.00000000000E+00 0.  1.
         11    1    4    4    0    0 -0.11100053167E+02  0.26613797297E+02  0.90712711538E+02  0.95185615622E+02  0.00000000000E+00 0. -1.
         -4    1    1    2    0  502  0.15922815356E+03  0.87192707097E+02 -0.23683025294E+03  0.29840365575E+03  0.00000000000E+00 0.  1.
<scales pt_clust_5="13000.00000" pt_clust_6="13000.00000" pt_clust_7="13000.00000" pt_clust_8="13000.00000" pt_clust_9="13000.00000"></scales>
<clustering>
<clus scale="   80.698">  5  6 -1 -1</clus>
<clus scale="   90.330">  7  8 -1 -1</clus>
<clus scale="  113.804">  1  5  2 -1</clus>
<clus scale="  174.599">  7  9 -1 -1</clus>
<clus scale="  628.877">  2  5  1 -1</clus>
</clustering>
</event>
<event>
 9    2  0.2147756E-005  0.2714607E+03  0.7546771E-02  0.1115761E+00
         21   -1    0    0  501  502  0.00000000000E+00  0.00000000000E+00  0.44266172155E+02  0.44266172155E+02  0.00000000000E+00 0. -1.
          2   -1    0    0  502    0 -0.00000000000E+00 -0.00000000000E+00 -0.12151111957E+04  0.12151111957E+04  0.00000000000E+00 0. -1.
         24    2    1    2    0    0  0.16506832871E+03  0.16699311324E+02 -0.35628713737E+03  0.40077649803E+03  0.78452896535E+02 0.  0.
         23    2    1    2    0    0  0.66744660708E+01 -0.22123735394E+02 -0.33193727368E+03  0.34630440532E+03  0.95970721173E+02 0.  0.
        -13    1    3    3    0    0  0.12034166228E+03  0.42434929945E+02 -0.28951475055E+03  0.31638841595E+03  0.00000000000E+00 0.  1.
         14    1    3    3    0    0  0.44726666427E+02 -0.25735618621E+02 -0.66772386822E+02  0.84388082082E+02  0.00000000000E+00 0. -1.
        -13    1    4    4    0    0  0.99529786057E+00  0.37586638414E+02 -0.15426204122E+03  0.15877822069E+03  0.00000000000E+00 0. -1.
         13    1    4    4    0    0  0.56791682102E+01 -0.59710373808E+02 -0.17767523245E+03  0.18752618462E+03  0.00000000000E+00 0.  1.
          1    1    1    2  501    0 -0.17174279478E+03  0.54244240705E+01 -0.48262061247E+03  0.51229646448E+03  0.00000000000E+00 0. -1.
<scales pt_clust_5="13000.00000" pt_clust_6="13000.00000" pt_clust_7="13000.00000" pt_clust_8="13000.00000" pt_clust_9="13000.00000"></scales>
<clustering>
<clus scale="   78.453">  5  6 -1 -1</clus>
<clus scale="   95.971">  7  8 -1 -1</clus>
<clus scale="  171.829">  7  9 -1 -1</clus>
<clus scale="  183.525">  2  5  1 -1</clus>
<clus scale="  271.461">  1  5  2 -1</clus>
</clustering>
</event>
<event>
 9    2  0.2147756E-005  0.2833647E+03  0.7546771E-02  0.1105549E+00
          2   -1    0    0  502    0 -0.00000000000E+00  0.00000000000E+00  0.39075874923E+03  0.39075874923E+03  0.00000000000E+00 0. -1.
         21   -1    0    0  501  502  0.00000000000E+00 -0.00000000000E+00 -0.16028719303E+03  0.16028719303E+03  0.00000000000E+00 0. -1.
         24    2    1    2    0    0 -0.11185653915E+03  0.15156703388E+03  0.50085860840E+02  0.21513736409E+03  0.91055152867E+02 0.  0.
         23    2    1    2    0    0  0.36450636411E+02 -0.25682270559E+02  0.15750291295E+03  0.18739377913E+03  0.91219696064E+02 0.  0.
        -11    1    3    3    0    0  0.15998517310E+02  0.21222670486E+02  0.81702516221E+01  0.27804807323E+02  0.00000000000E+00 0.  1.
         12    1    3    3    0    0 -0.12785505646E+03  0.13034436339E+03  0.41915609218E+02  0.18733255677E+03  0.00000000000E+00 0. -1.
        -11    1    4    4    0    0  0.65262665705E+02 -0.14697297608E+02  0.12941918789E+03  0.14568648628E+03  0.00000000000E+00 0. -1.
         11    1    4    4    0    0 -0.28812029293E+02 -0.10984972951E+02  0.28083725069E+02  0.41707292845E+02  0.00000000000E+00 0.  1.
          1    1    1    2  501    0  0.75405902734E+02 -0.12588476332E+03  0.22882782406E+02  0.14851479904E+03  0.00000000000E+00 0. -1.
<scales pt_clust_5="13000.00000" pt_clust_6="13000.00000" pt_clust_7="13000.00000" pt_clust_8="13000.00000" pt_clust_9="13000.00000"></scales>
<clustering>
<clus scale="   91.055">  5  6 -1 -1</clus>
<clus scale="   91.220">  7  8 -1 -1</clus>
<clus scale="  146.741">  7  9 -1 -1</clus>
<clus scale="  209.226">  1  5  2 -1</clus>
<clus scale="  283.365">  2  5  1 -1</clus>
</clustering>
</event>
<event>
 9    2  0.2147756E-005  0.1453821E+03  0.7546771E-02  0.1227091E+00
         21   -1    0    0  501  502  0.00000000000E+00  0.00000000000E+00  0.42889703478E+02  0.42889703478E+02  0.00000000000E+00 0. -1.
          2   -1    0    0  502    0 -0.00000000000E+00 -0.00000000000E+00 -0.85431356557E+03  0.85431356557E+03  0.00000000000E+00 0. -1.
         24    2    1    2    0    0  0.26497988055E+02 -0.41075043781E+02 -0.71868342598E+03  0.72475985522E+03  0.79885407690E+02 0.  0.
         23    2    1    2    0    0  0.18236299915E+02  0.29516571691E+02 -0.57151380587E+02  0.11412244273E+03  0.92487085545E+02 0.  0.
        -11    1    3    3    0    0 -0.18464868381E+02 -0.79010469851E+01 -0.52077124015E+02  0.55815810963E+02  0.00000000000E+00 0.  1.
         12    1    3    3    0    0  0.44962856436E+02 -0.33173996796E+02 -0.66660630197E+03  0.66894404426E+03  0.00000000000E+00 0. -1.
        -11    1    4    4    0    0 -0.11654540458E+02  0.36618432416E+02 -0.70759172237E+02  0.80520794591E+02  0.00000000000E+00 0.  1.
         11    1    4    4    0    0  0.29890840374E+02 -0.71018607255E+01  0.13607791650E+02  0.33601648138E+02  0.00000000000E+00 0. -1.
          1    1    1    2  501    0 -0.44734287971E+02  0.11558472090E+02 -0.35589055526E+02  0.58320971104E+02  0.00000000000E+00 0. -1.
<scales pt_clust_5="13000.00000" pt_clust_6="13000.00000" pt_clust_7="13000.00000" pt_clust_8="13000.00000" pt_clust_9="13000.00000"></scales>
<clustering>
<clus scale="   79.885">  5  6 -1 -1</clus>
<clus scale="   92.487">  7  8 -1 -1</clus>
<clus scale="   46.203">  7  9 -1 -1</clus>
<clus scale="   93.654">  2  5  1 -1</clus>
<clus scale="  145.382">  1  5  2 -1</clus>
</clustering>
</event>
<event>
 9    2  0.2147756E-005  0.2086698E+03  0.7546771E-02  0.1173621E+00
         21   -1    0    0  501  502  0.00000000000E+00  0.00000000000E+00  0.21722715436E+03  0.21722715436E+03  0.00000000000E+00 0. -1.
          2   -1    0    0  502    0 -0.00000000000E+00 -0.00000000000E+00 -0.15133836218E+03  0.15133836218E+03  0.00000000000E+00 0. -1.
         24    2    1    2    0    0  0.59318071389E+02 -0.15390255229E+02 -0.66855546197E+02  0.12125163539E+03  0.80478577759E+02 0.  0.
         23    2    1    2    0    0 -0.64672458245E+02 -0.21265392002E+02  0.35082668490E+01  0.11287330649E+03  0.89962945863E+02 0.  0.
        -13    1    3    3    0    0 -0.12345970810E+02 -0.20422119742E+02 -0.11442375078E+01  0.23891321635E+02  0.00000000000E+00 0.  1.
         14    1    3    3    0    0  0.71664042199E+02  0.50318645133E+01 -0.65711308689E+02  0.97360313754E+02  0.00000000000E+00 0. -1.
        -11    1    4    4    0    0  0.17840046950E+00  0.28559163160E+02 -0.94278007722E+01  0.30075589014E+02  0.00000000000E+00 0.  1.
         11    1    4    4    0    0 -0.64850858714E+02 -0.49824555162E+02  0.12936067621E+02  0.82797717472E+02  0.00000000000E+00 0. -1.
          1    1    1    2  501    0  0.53543868558E+01  0.36655647231E+02  0.12923607152E+03  0.13444057466E+03  0.00000000000E+00 0. -1.
<scales pt_clust_5="13000.00000" pt_clust_6="13000.00000" pt_clust_7="13000.00000" pt_clust_8="13000.00000" pt_clust_9="13000.00000"></scales>
<clustering>
<clus scale="   80.479">  5  6 -1 -1</clus>
<clus scale="   89.963">  7  8 -1 -1</clus>
<clus scale="   37.045">  7  9 -1 -1</clus>
<clus scale="  101.155">  2  5  1 -1</clus>
<clus scale="  208.670">  1  5  2 -1</clus>
</clustering>
</event>
<event>
 9    2  0.2147756E-005  0.2885369E+03  0.7546771E-02  0.1113325E+00
          2   -1    0    0  502    0 -0.00000000000E+00  0.00000000000E+00  0.91401357713E+03  0.91401357713E+03  0.00000000000E+00 0. -1.
         21   -1    0    0  501  502  0.00000000000E+00 -0.00000000000E+00 -0.56209102632E+02  0.56209102632E+02  0.00000000000E+00 0. -1.
         24    2    1    2    0    0 -0.99302840219E+02 -0.10059336020E+03  0.35671428936E+03  0.39199699843E+03  0.80227703183E+02 0.  0.
         23    2    1    2    0    0 -0.11532163427E+02 -0.23775419253E+02  0.31191140568E+03  0.32615306891E+03  0.91590600005E+02 0.  0.
        -11    1    3    3    0    0 -0.22319695255E+02  0.12363593965E+02  0.65572178757E+02  0.70361480079E+02  0.00000000000E+00 0.  1.
         12    1    3    3    0    0 -0.76983144965E+02 -0.11295695416E+03  0.29114211060E+03  0.32163551835E+03  0.00000000000E+00 0. -1.
        -11    1    4    4    0    0  0.67075466057E-02  0.31302872051E+02  0.18058008278E+03  0.18327311898E+03  0.00000000000E+00 0.  1.
         11    1    4    4    0    0 -0.11538870973E+02 -0.55078291304E+02  0.13133132290E+03  0.14287994993E+03  0.00000000000E+00 0. -1.
          1    1    1    2  501    0  0.11083500365E+03  0.12436877945E+03  0.18917877946E+03  0.25207261243E+03  0.00000000000E+00 0. -1.
<scales pt_clust_5="13000.00000" pt_clust_6="13000.00000" pt_clust_7="13000.00000" pt_clust_8="13000.00000" pt_clust_9="13000.00000"></scales>
<clustering>
<clus scale="   80.228">  5  6 -1 -1</clus>
<clus scale="   91.591">  7  8 -1 -1</clus>
<clus scale="  162.532">  1  5  2 -1</clus>
<clus scale="  108.917">  7  9 -1 -1</clus>
<clus scale="  288.537">  2  5  1 -1</clus>
</clustering>
</event>
<event>
 9    2  0.2147756E-005  0.2838798E+03  0.7546771E-02  0.1113041E+00
         21   -1    0    0  501  502  0.00000000000E+00  0.00000000000E+00  0.26579385747E+03  0.26579385747E+03  0.00000000000E+00 0. -1.
          2   -1    0    0  502    0 -0.00000000000E+00 -0.00000000000E+00 -0.22283079366E+03  0.22283079366E+03  0.00000000000E+00 0. -1.
         24    2    1    2    0    0 -0.28848354077E+02 -0.14853554411E+03 -0.66586055812E+02  0.18434068058E+03  0.81564381277E+02 0.  0.
         23    2    1    2    0    0  0.76047386587E+02  0.86061091686E+00  0.84356886420E+02  0.14721620435E+03  0.93662056776E+02 0.  0.
        -13    1    3    3    0    0 -0.53460015492E+02 -0.92343287034E+02 -0.23177118080E+02  0.10918990209E+03  0.00000000000E+00 0.  1.
         14    1    3    3    0    0  0.24611661415E+02 -0.56192257074E+02 -0.43408937732E+02  0.75150778491E+02  0.00000000000E+00 0. -1.
        -11    1    4    4    0    0  0.24008398067E+02  0.39107330820E+02  0.69599483719E+01  0.46413655135E+02  0.00000000000E+00 0.  1.
         11    1    4    4    0    0  0.52038988520E+02 -0.38246719903E+02  0.77396938048E+02  0.10080254922E+03  0.00000000000E+00 0. -1.
          1    1    1    2  501    0 -0.47199032510E+02  0.14767493319E+03  0.25192233201E+02  0.15706776619E+03  0.00000000000E+00 0. -1.
<scales pt_clust_5="13000.00000" pt_clust_6="13000.00000" pt_clust_7="13000.00000" pt_clust_8="13000.00000" pt_clust_9="13000.00000"></scales>
<clustering>
<clus scale="   81.564">  5  6 -1 -1</clus>
<clus scale="   93.662">  7  8 -1 -1</clus>
<clus scale="  155.034">  7  9 -1 -1</clus>
<clus scale="  171.895">  2  5  1 -1</clus>
<clus scale="  283.880">  1  5  2 -1</clus>
</clustering>
</event>
<event>
 9    2  0.2147756E-005  0.2668607E+03  0.7546771E-02  0.1145184E+00
         21   -1    0    0  501  502  0.00000000000E+00  0.00000000000E+00  0.35832617125E+02  0.35832617125E+02  0.00000000000E+00 0.  1.
          2   -1    0    0  502    0 -0.00000000000E+00 -0.00000000000E+00 -0.94810197678E+03  0.94810197678E+03  0.00000000000E+00 0. -1.
         24    2    1    2    0    0  0.40241546506E+02 -0.25146355974E+02 -0.33633881066E+03  0.34918217153E+03  0.80948576726E+02 0.  0.
         23    2    1    2    0    0 -0.89309303630E+02 -0.61791714581E+02 -0.19277898075E+03  0.23880924824E+03  0.89842940277E+02 0.  0.
        -11    1    3    3    0    0  0.12387008129E+02  0.29764645975E+02 -0.11908288071E+03  0.12336978803E+03  0.00000000000E+00 0.  1.
         12    1    3    3    0    0  0.27854538376E+02 -0.54911001949E+02 -0.21725592995E+03  0.22581238350E+03  0.00000000000E+00 0. -1.
        -11    1    4    4    0    0 -0.83599883304E+02 -0.83001793423E+02 -0.15009798729E+03  0.19080787192E+03  0.00000000000E+00 0.  1.
         11    1    4    4    0    0 -0.57094203261E+01  0.21210078842E+02 -0.42680993462E+02  0.48001376312E+02  0.00000000000E+00 0. -1.
          1    1    1    2  501    0  0.49067757124E+02  0.86938070555E+02 -0.38315156824E+03  0.39594317414E+03  0.00000000000E+00 0. -1.
<scales pt_clust_5="13000.00000" pt_clust_6="13000.00000" pt_clust_7="13000.00000" pt_clust_8="13000.00000" pt_clust_9="13000.00000"></scales>
<clustering>
<clus scale="   80.949">  5  6 -1 -1</clus>
<clus scale="   89.843">  7  8 -1 -1</clus>
<clus scale="   93.832">  2  5  1 -1</clus>
<clus scale="  103.082">  7  9 -1 -1</clus>
<clus scale="  266.861">  1  5  2 -1</clus>
</clustering>
</event>
<event>
 9    2  0.2147756E-005  0.1767097E+03  0.7546771E-02  0.1216123E+00
          2   -1    0    0  502    0 -0.00000000000E+00  0.00000000000E+00  0.51132384279E+03  0.51132384279E+03  0.00000000000E+00 0. -1.
         21   -1    0    0  501  502  0.00000000000E+00 -0.00000000000E+00 -0.37664671896E+02  0.37664671896E+02  0.00000000000E+00 0.  1.
         24    2    1    2    0    0 -0.14525545611E+00 -0.29259538733E+02  0.27671296730E+03  0.28438666862E+03  0.58733034237E+02 0.  0.
         23    2    1    2    0    0  0.14817206175E+02 -0.27335243798E+02  0.17213537816E+03  0.20108954327E+03  0.99195014228E+02 0.  0.
        -13    1    3    3    0    0  0.26255184303E+02 -0.27387603262E+02  0.18888002670E+03  0.19265274460E+03  0.00000000000E+00 0.  1.
         14    1    3    3    0    0 -0.26400439759E+02 -0.18719354715E+01  0.87832940605E+02  0.91733924026E+02  0.00000000000E+00 0. -1.
        -11    1    4    4    0    0  0.50872296814E+01 -0.51130393510E+02  0.36470102548E+02  0.63010042264E+02  0.00000000000E+00 0.  1.
         11    1    4    4    0    0  0.97299764937E+01  0.23795149712E+02  0.13566527561E+03  0.13807950101E+03  0.00000000000E+00 0. -1.
          1    1    1    2  501    0 -0.14671950719E+02  0.56594782531E+02  0.24810825439E+02  0.63512302797E+02  0.00000000000E+00 0. -1.
<scales pt_clust_5="13000.00000" pt_clust_6="13000.00000" pt_clust_7="13000.00000" pt_clust_8="13000.00000" pt_clust_9="13000.00000"></scales>
<clustering>
<clus scale="   58.733">  5  6 -1 -1</clus>
<clus scale="   65.618">  1  5  2 -1</clus>
<clus scale="   99.195">  7  8 -1 -1</clus>
<clus scale="   53.072">  7  9 -1 -1</clus>
<clus scale="  176.710">  2  5  1 -1</clus>
</clustering>
</event>
<event>
 9    2  0.2147756E-005  0.1535835E+03  0.7546771E-02  0.1222687E+00
         21   -1    0    0  501  502  0.00000000000E+00  0.00000000000E+00  0.79406835190E+02  0.79406835190E+02  0.00000000000E+00 0.  1.
          2   -1    0    0  502    0 -0.00000000000E+00 -0.00000000000E+00 -0.23822453536E+03  0.23822453536E+03  0.00000000000E+00 0. -1.
         24    2    1    2    0    0 -0.34794268002E+02 -0.17294433923E+02 -0.13725530268E+03  0.16254163264E+03  0.77916787002E+02 0.  0.
         23    2    1    2    0    0  0.50862566118E+01 -0.61629211875E+01  0.24369360420E+02  0.95570498717E+02  0.92065210008E+02 0.  0.
        -13    1    3    3    0    0  0.25115083298E+02 -0.64340014767E+01 -0.35453046156E+02  0.43921319036E+02  0.00000000000E+00 0.  1.
         14    1    3    3    0    0 -0.59909351300E+02 -0.10860432447E+02 -0.10180225652E+03  0.11862031360E+03  0.00000000000E+00 0. -1.
        -11    1    4    4    0    0 -0.22745654662E+02 -0.32152860373E+02  0.38381990835E+02  0.54994076559E+02  0.00000000000E+00 0.  1.
         11    1    4    4    0    0  0.27831911273E+02  0.25989939185E+02 -0.14012630415E+02  0.40576422158E+02  0.00000000000E+00 0. -1.
          1    1    1    2  501    0  0.29708011390E+02  0.23457355111E+02 -0.45931757911E+02  0.59519239195E+02  0.00000000000E+00 0. -1.
<scales pt_clust_5="13000.00000" pt_clust_6="13000.00000" pt_clust_7="13000.00000" pt_clust_8="13000.00000" pt_clust_9="13000.00000"></scales>
<clustering>
<clus scale="   77.917">  5  6 -1 -1</clus>
<clus scale="   87.068">  2  5  1 -1</clus>
<clus scale="   92.065">  7  8 -1 -1</clus>
<clus scale="   15.886">  7  9 -1 -1</clus>
<clus scale="  153.583">  1  5  2 -1</clus>
</clustering>
</event>
<event>
 9    2  0.2147756E-005  0.2000955E+03  0.7546771E-02  0.1183921E+00
         21   -1    0    0  501  502  0.00000000000E+00  0.00000000000E+00  0.93446677297E+02  0.93446677297E+02  0.00000000000E+00 0. -1.
          2   -1    0    0  502    0 -0.00000000000E+00 -0.00000000000E+00 -0.37293427710E+03  0.37293427710E+03  0.00000000000E+00 0. -1.
         24    2    1    2    0    0 -0.26825665030E+02  0.37860162057E+02 -0.24757291321E+03  0.26375623802E+03  0.78243195002E+02 0.  0.
         23    2    1    2    0    0 -0.29780740618E+02 -0.43321122821E+02 -0.76526146509E+02  0.13034546894E+03  0.91488130266E+02 0.  0.
        -11    1    3    3    0    0  0.21883409810E+02 -0.84204156581E+01 -0.54642001193E+02  0.59460367634E+02  0.00000000000E+00 0.  1.
         12    1    3    3    0    0 -0.48709074840E+02  0.46280577715E+02 -0.19293091202E+03  0.20429587039E+03  0.00000000000E+00 0. -1.
        -13    1    4    4    0    0 -0.26738607800E+02  0.22321122025E+02 -0.86863341135E+01  0.35897604876E+02  0.00000000000E+00 0. -1.
         13    1    4    4    0    0 -0.30421328178E+01 -0.65642244846E+02 -0.67839812395E+02  0.94447864064E+02  0.00000000000E+00 0.  1.
          1    1    1    2  501    0  0.56606405648E+02  0.54609607633E+01  0.44611459922E+02  0.72279247431E+02  0.00000000000E+00 0. -1.
<scales pt_clust_5="13000.00000" pt_clust_6="13000.00000" pt_clust_7="13000.00000" pt_clust_8="13000.00000" pt_clust_9="13000.00000"></scales>
<clustering>
<clus scale="   78.243">  5  6 -1 -1</clus>
<clus scale="   90.967">  2  5  1 -1</clus>
<clus scale="   91.488">  7  8 -1 -1</clus>
<clus scale="   54.356">  7  9 -1 -1</clus>
<clus scale="  200.096">  1  5  2 -1</clus>
</clustering>
</event>
<event>
 9    2  0.2147756E-005  0.3275932E+03  0.7546771E-02  0.1119004E+00
          2   -1    0    0  502    0 -0.00000000000E+00  0.00000000000E+00  0.30342074996E+03  0.30342074996E+03  0.00000000000E+00 0. -1.
         21   -1    0    0  501  502  0.00000000000E+00 -0.00000000000E+00 -0.14813478908E+03  0.14813478908E+03  0.00000000000E+00 0. -1.
         24    2    1    2    0    0 -0.47795290243E+02 -0.12549611749E+02  0.29973185326E+02  0.10081257277E+03  0.82600850265E+02 0.  0.
         23    2    1    2    0    0 -0.11723574186E+03 -0.41341925826E+02  0.63919752510E+02  0.16659997114E+03  0.90644589591E+02 0.  0.
        -13    1    3    3    0    0 -0.25854972031E+02  0.33080161940E+02  0.27362597182E+02  0.50114752491E+02  0.00000000000E+00 0.  1.
         14    1    3    3    0    0 -0.21940318212E+02 -0.45629773689E+02  0.26105881444E+01  0.50697820275E+02  0.00000000000E+00 0. -1.
        -13    1    4    4    0    0 -0.43056536381E+02 -0.18799007790E+02 -0.21131757504E+02  0.51515232643E+02  0.00000000000E+00 0. -1.
         13    1    4    4    0    0 -0.74179205480E+02 -0.22542918036E+02  0.85051510014E+02  0.11508473850E+03  0.00000000000E+00 0.  1.
          1    1    1    2  501    0  0.16503103210E+03  0.53891537575E+02  0.61393023040E+02  0.18414299514E+03  0.00000000000E+00 0. -1.
<scales pt_clust_5="13000.00000" pt_clust_6="13000.00000" pt_clust_7="13000.00000" pt_clust_8="13000.00000" pt_clust_9="13000.00000"></scales>
<clustering>
<clus scale="   82.601">  5  6 -1 -1</clus>
<clus scale="   90.645">  7  8 -1 -1</clus>
<clus scale="   96.254">  1  5  2 -1</clus>
<clus scale="  148.172">  7  9 -1 -1</clus>
<clus scale="  327.593">  2  5  1 -1</clus>
</clustering>
</event>
<event>
 9    2  0.2147756E-005  0.3417948E+03  0.7546771E-02  0.1115251E+00
          2   -1    0    0  502    0 -0.00000000000E+00  0.00000000000E+00  0.54693072983E+03  0.54693072983E+03  0.00000000000E+00 0. -1.
         21   -1    0    0  501  502  0.00000000000E+00 -0.00000000000E+00 -0.15457822860E+03  0.15457822860E+03  0.00000000000E+00 0. -1.
         24    2    1    2    0    0  0.26175233263E+02 -0.40515774345E+02 -0.77035111937E+02  0.12086415883E+03  0.79668473137E+02 0.  0.
         23    2    1    2    0    0 -0.11932272538E+03 -0.79491820072E+02  0.34411752290E+03  0.38374159110E+03  0.91015805883E+02 0.  0.
        -13    1    3    3    0    0  0.28934637139E+02  0.15697541106E+02 -0.12441808682E+02  0.35191257813E+02  0.00000000000E+00 0.  1.
         14    1    3    3    0    0 -0.27594038758E+01 -0.56213315451E+02 -0.64593303254E+02  0.85672901019E+02  0.00000000000E+00 0. -1.
        -11    1    4    4    0    0 -0.10578991517E+03 -0.56788875035E+02  0.33486240269E+03  0.35573770002E+03  0.00000000000E+00 0. -1.
         11    1    4    4    0    0 -0.13532810206E+02 -0.22702945037E+02  0.92551202115E+01  0.28003891078E+02  0.00000000000E+00 0.  1.
          1    1    1    2  501    0  0.93147492116E+02  0.12000759442E+03  0.12527009026E+03  0.19690320850E+03  0.00000000000E+00 0. -1.
<scales pt_clust_5="13000.00000" pt_clust_6="13000.00000" pt_clust_7="13000.00000" pt_clust_8="13000.00000" pt_clust_9="13000.00000"></scales>
<clustering>
<clus scale="   79.668">  5  6 -1 -1</clus>
<clus scale="   91.016">  7  8 -1 -1</clus>
<clus scale="   93.133">  1  5  2 -1</clus>
<clus scale="  147.682">  7  9 -1 -1</clus>
<clus scale="  341.795">  2  5  1 -1</clus>
</clustering>
</event>
<event>
 9    2  0.2147756E-005  0.4408879E+03  0.7546771E-02  0.1079107E+00
          2   -1    0    0  502    0 -0.00000000000E+00  0.00000000000E+00  0.44704855990E+03  0.44704855990E+03  0.00000000000E+00 0. -1.
         21   -1    0    0  501  502  0.00000000000E+00 -0.00000000000E+00 -0.44606972075E+03  0.44606972075E+03  0.00000000000E+00 0. -1.
         24    2    1    2    0    0 -0.77194091327E+02  0.23688128404E+01  0.32655933997E+03  0.34504455549E+03  0.80313160455E+02 0.  0.
         23    2    1    2    0    0  0.51058905706E+02  0.20637351261E+03 -0.16391651898E+03  0.28275947867E+03  0.88810241682E+02 0.  0.
        -13    1    3    3    0    0 -0.25032088770E+02 -0.37550008082E+02  0.11562290272E+03  0.12411794475E+03  0.00000000000E+00 0.  1.
         14    1    3    3    0    0 -0.52162002558E+02  0.39918820922E+02  0.21093643725E+03  0.22092661075E+03  0.00000000000E+00 0. -1.
        -11    1    4    4    0    0  0.37766780404E+02  0.12432636149E+03 -0.44661624130E+02  0.13739735999E+03  0.00000000000E+00 0. -1.
         11    1    4    4    0    0  0.13292125301E+02  0.82047151119E+02 -0.11925489485E+03  0.14536211868E+03  0.00000000000E+00 0.  1.
          1    1    1    2  501    0  0.26135185621E+02 -0.20874232545E+03 -0.16166398184E+03  0.26531424648E+03  0.00000000000E+00 0. -1.
<scales pt_clust_5="13000.00000" pt_clust_6="13000.00000" pt_clust_7="13000.00000" pt_clust_8="13000.00000" pt_clust_9="13000.00000"></scales>
<clustering>
<clus scale="   80.313">  5  6 -1 -1</clus>
<clus scale="   88.810">  7  8 -1 -1</clus>
<clus scale="  111.421">  1  5  2 -1</clus>
<clus scale="  207.871">  7  9 -1 -1</clus>
<clus scale="  440.888">  2  5  1 -1</clus>
</clustering>
</event>
<event>
 9    2  0.2147756E-005  0.4317343E+03  0.7546771E-02  0.1080856E+00
         21   -1    0    0  501  502  0.00000000000E+00  0.00000000000E+00  0.41649355083E+02  0.41649355083E+02  0.00000000000E+00 0. -1.
          4   -1    0    0  502    0 -0.00000000000E+00 -0.00000000000E+00 -0.18322721200E+04  0.18322721200E+04  0.00000000000E+00 0. -1.
         24    2    1    2    0    0  0.34602740833E+02 -0.55108402707E+02 -0.25994551762E+03  0.28352298799E+03  0.92624655819E+02 0.  0.
         23    2    1    2    0    0 -0.14417539679E+03  0.18546071617E+03 -0.10685140293E+04  0.10978614502E+04  0.91625929368E+02 0.  0.
        -13    1    3    3    0    0  0.26488196757E+02  0.12663143570E+02 -0.15886640574E+03  0.16155653699E+03  0.00000000000E+00 0.  1.
         14    1    3    3    0    0  0.81145440754E+01 -0.67771546276E+02 -0.10107911189E+03  0.12196645100E+03  0.00000000000E+00 0. -1.
        -13    1    4    4    0    0 -0.10005614510E+03  0.18156475620E+03 -0.90646243836E+03  0.92986619738E+03  0.00000000000E+00 0.  1.
         13    1    4    4    0    0 -0.44119251691E+02  0.38959599676E+01 -0.16205159089E+03  0.16799525286E+03  0.00000000000E+00 0. -1.
          3    1    1    2  501    0  0.10957265596E+03 -0.13035231346E+03 -0.46216321801E+03  0.49253703682E+03  0.00000000000E+00 0. -1.
<scales pt_clust_5="13000.00000" pt_clust_6="13000.00000" pt_clust_7="13000.00000" pt_clust_8="13000.00000" pt_clust_9="13000.00000"></scales>
<clustering>
<clus scale="   91.626">  7  8 -1 -1</clus>
<clus scale="   92.625">  5  6 -1 -1</clus>
<clus scale="  113.197">  2  5  1 -1</clus>
<clus scale="  190.022">  7  9 -1 -1</clus>
<clus scale="  431.734">  1  5  2 -1</clus>
</clustering>
</event>
<event>
 9    2  0.2147756E-005  0.1300835E+03  0.7546771E-02  0.1243327E+00
         21   -1    0    0  501  502  0.00000000000E+00  0.00000000000E+00  0.92606749066E+02  0.92606749066E+02  0.00000000000E+00 0.  1.
         -3   -1    0    0    0  501 -0.00000000000E+00 -0.00000000000E+00 -0.15723158726E+03  0.15723158726E+03  0.00000000000E+00 0.  1.
         24    2    1    2    0    0 -0.41117911106E+02 -0.10471642661E+02 -0.73955151607E+02  0.11942064623E+03  0.83615718520E+02 0.  0.
         23    2    1    2    0    0  0.23357620663E+02  0.24222962773E+02  0.20667813588E+02  0.10525689457E+03  0.97568053003E+02 0.  0.
        -11    1    3    3    0    0 -0.43029813202E+02  0.11737113598E+02 -0.83894848428E+02  0.95014052921E+02  0.00000000000E+00 0.  1.
         12    1    3    3    0    0  0.19119020957E+01 -0.22208756258E+02  0.99396968209E+01  0.24406593311E+02  0.00000000000E+00 0. -1.
        -11    1    4    4    0    0  0.54283325599E+02  0.27595946005E+01 -0.11714159254E+02  0.55601405805E+02  0.00000000000E+00 0. -1.
         11    1    4    4    0    0 -0.30925704936E+02  0.21463368172E+02  0.32381972841E+02  0.49655488762E+02  0.00000000000E+00 0.  1.
         -4    1    1    2    0  502  0.17760290444E+02 -0.13751320112E+02 -0.11337500178E+02  0.25160795531E+02  0.00000000000E+00 0.  1.
<scales pt_clust_5="13000.00000" pt_clust_6="13000.00000" pt_clust_7="13000.00000" pt_clust_8="13000.00000" pt_clust_9="13000.00000"></scales>
<clustering>
<clus scale="   83.616">  5  6 -1 -1</clus>
<clus scale="   93.765">  2  5  1 -1</clus>
<clus scale="   97.568">  7  8 -1 -1</clus>
<clus scale="   17.739">  7  9 -1 -1</clus>
<clus scale="  130.084">  1  5  2 -1</clus>
</clustering>
</event>
<event>
 9    2  0.2147756E-005  0.4450592E+03  0.7546771E-02  0.1034418E+00
         21   -1    0    0  501  502  0.00000000000E+00  0.00000000000E+00  0.22658825706E+03  0.22658825706E+03  0.00000000000E+00 0.  1.
          2   -1    0    0  502    0 -0.00000000000E+00 -0.00000000000E+00 -0.13103610409E+04  0.13103610409E+04  0.00000000000E+00 0. -1.
         24    2    1    2    0    0 -0.37304593218E+03 -0.13693615215E+01 -0.17927539563E+02  0.38191520098E+03  0.79829076130E+02 0.  0.
         23    2    1    2    0    0  0.14268026074E+03  0.98465665593E+01 -0.21860379592E+03  0.27699179881E+03  0.92098997485E+02 0.  0.
        -13    1    3    3    0    0 -0.17272957087E+03 -0.25327372370E+02  0.22928510095E+02  0.17607582747E+03  0.00000000000E+00 0.  1.
         14    1    3    3    0    0 -0.20031636131E+03  0.23958010849E+02 -0.40856049657E+02  0.20583937351E+03  0.00000000000E+00 0. -1.
        -13    1    4    4    0    0  0.13471217992E+03 -0.21798216533E+02 -0.18756647339E+03  0.23195627951E+03  0.00000000000E+00 0.  1.
         13    1    4    4    0    0  0.79680808225E+01  0.31644783092E+02 -0.31037322535E+02  0.45035519305E+02  0.00000000000E+00 0. -1.
          1    1    1    2  501    0  0.23036567144E+03 -0.84772050378E+01 -0.84724144834E+03  0.87804229816E+03  0.00000000000E+00 0. -1.
<scales pt_clust_5="13000.00000" pt_clust_6="13000.00000" pt_clust_7="13000.00000" pt_clust_8="13000.00000" pt_clust_9="13000.00000"></scales>
<clustering>
<clus scale="   79.829">  5  6 -1 -1</clus>
<clus scale="   92.099">  7  8 -1 -1</clus>
<clus scale="  230.522">  7  9 -1 -1</clus>
<clus scale="  381.494">  2  5  1 -1</clus>
<clus scale="  445.059">  1  5  2 -1</clus>
</clustering>
</event>
<event>
 9    2  0.2147756E-005  0.2139814E+03  0.7546771E-02  0.1151466E+00
         21   -1    0    0  501  502  0.00000000000E+00  0.00000000000E+00  0.48040246956E+02  0.48040246956E+02  0.00000000000E+00 0. -1.
          2   -1    0    0  502    0 -0.00000000000E+00 -0.00000000000E+00 -0.72681156502E+03  0.72681156502E+03  0.00000000000E+00 0. -1.
         24    2    1    2    0    0 -0.11324454222E+03 -0.73857255065E+02 -0.33603219453E+03  0.37079966806E+03  0.79344423900E+02 0.  0.
         23    2    1    2    0    0  0.12527814975E+03  0.97222099942E+02 -0.26370124618E+03  0.32075922859E+03  0.90561492750E+02 0.  0.
        -11    1    3    3    0    0 -0.81637019612E+02 -0.57195880641E+02 -0.31250980370E+03  0.32802187296E+03  0.00000000000E+00 0.  1.
         12    1    3    3    0    0 -0.31607522612E+02 -0.16661374424E+02 -0.23522390838E+02  0.42777795105E+02  0.00000000000E+00 0. -1.
        -11    1    4    4    0    0  0.39712477979E+01  0.49295864109E+02 -0.49504188062E+02  0.69975121743E+02  0.00000000000E+00 0.  1.
         11    1    4    4    0    0  0.12130690195E+03  0.47926235833E+02 -0.21419705812E+03  0.25078410685E+03  0.00000000000E+00 0. -1.
          1    1    1    2  501    0 -0.12033607525E+02 -0.23364844877E+02 -0.79037877350E+02  0.83292915318E+02  0.00000000000E+00 0. -1.
<scales pt_clust_5="13000.00000" pt_clust_6="13000.00000" pt_clust_7="13000.00000" pt_clust_8="13000.00000" pt_clust_9="13000.00000"></scales>
<clustering>
<clus scale="   79.344">  5  6 -1 -1</clus>
<clus scale="   90.561">  7  8 -1 -1</clus>
<clus scale="   26.282">  7  9 -1 -1</clus>
<clus scale="  156.763">  2  5  1 -1</clus>
<clus scale="  213.981">  1  5  2 -1</clus>
</clustering>
</event>
<event>
 9    2  0.2147756E-005  0.5829124E+03  0.7546771E-02  0.1035613E+00
          2   -1    0    0  502    0 -0.00000000000E+00  0.00000000000E+00  0.18222579705E+04  0.18222579705E+04  0.00000000000E+00 0. -1.
         21   -1    0    0  501  502  0.00000000000E+00 -0.00000000000E+00 -0.92703212648E+02  0.92703212648E+02  0.00000000000E+00 0. -1.
         24    2    1    2    0    0  0.13668697928E+03 -0.37435103714E+02  0.12017768431E+03  0.20327153363E+03  0.82413125666E+02 0.  0.
         23    2    1    2    0    0 -0.18955225354E+03 -0.19315448006E+03  0.12438729261E+04  0.12763052502E+04  0.92176599123E+02 0.  0.
        -13    1    3    3    0    0  0.70109923498E+02  0.15023926295E+02  0.85770420640E+02  0.11179304447E+03  0.00000000000E+00 0.  1.
         14    1    3    3    0    0  0.66577055777E+02 -0.52459030008E+02  0.34407263674E+02  0.91478489160E+02  0.00000000000E+00 0. -1.
        -13    1    4    4    0    0 -0.15938095995E+03 -0.10871734203E+03  0.75385050604E+03  0.77814673187E+03  0.00000000000E+00 0.  1.
         13    1    4    4    0    0 -0.30171293598E+02 -0.84437138028E+02  0.49002242006E+03  0.49815851835E+03  0.00000000000E+00 0. -1.
          1    1    1    2  501    0  0.52865274267E+02  0.23058958378E+03  0.36550414740E+03  0.43538439928E+03  0.00000000000E+00 0. -1.
<scales pt_clust_5="13000.00000" pt_clust_6="13000.00000" pt_clust_7="13000.00000" pt_clust_8="13000.00000" pt_clust_9="13000.00000"></scales>
<clustering>
<clus scale="   82.413">  5  6 -1 -1</clus>
<clus scale="   92.177">  7  8 -1 -1</clus>
<clus scale="  163.941">  1  5  2 -1</clus>
<clus scale="  237.605">  7  9 -1 -1</clus>
<clus scale="  582.912">  2  5  1 -1</clus>
</clustering>
</event>
<event>
 9    2  0.2147756E-005  0.2582846E+03  0.7546771E-02  0.1147660E+00
          2   -1    0    0  502    0 -0.00000000000E+00  0.00000000000E+00  0.22073954188E+03  0.22073954188E+03  0.00000000000E+00 0. -1.
         21   -1    0    0  501  502  0.00000000000E+00 -0.00000000000E+00 -0.14434492780E+03  0.14434492780E+03  0.00000000000E+00 0.  1.
         24    2    1    2    0    0  0.44474751612E+02 -0.58228947460E+01  0.79308497964E+01  0.97880014058E+02  0.86635380413E+02 0.  0.
         23    2    1    2    0    0  0.41290378625E+02  0.48555489898E+02 -0.39244533416E+02  0.12304201374E+03  0.97655889616E+02 0.  0.
        -13    1    3    3    0    0  0.32509630832E+02 -0.11918547935E+02 -0.37183924862E+02  0.50809173875E+02  0.00000000000E+00 0.  1.
         14    1    3    3    0    0  0.11965120781E+02  0.60956531890E+01  0.45114774658E+02  0.47070840183E+02  0.00000000000E+00 0. -1.
        -11    1    4    4    0    0 -0.26554097314E+02 -0.81652085331E+01 -0.13817553247E+02  0.31027656893E+02  0.00000000000E+00 0. -1.
         11    1    4    4    0    0  0.67844475939E+02  0.56720698431E+02 -0.25426980170E+02  0.92014356850E+02  0.00000000000E+00 0.  1.
          1    1    1    2  501    0 -0.85765130237E+02 -0.42732595152E+02  0.10770829771E+03  0.14416244188E+03  0.00000000000E+00 0. -1.
<scales pt_clust_5="13000.00000" pt_clust_6="13000.00000" pt_clust_7="13000.00000" pt_clust_8="13000.00000" pt_clust_9="13000.00000"></scales>
<clustering>
<clus scale="   86.635">  5  6 -1 -1</clus>
<clus scale="   97.558">  1  5  2 -1</clus>
<clus scale="   97.656">  7  8 -1 -1</clus>
<clus scale="   70.453">  7  9 -1 -1</clus>
<clus scale="  258.285">  2  5  1 -1</clus>
</clustering>
</event>
<event>
 9    2  0.2147756E-005  0.2018481E+03  0.7546771E-02  0.1174745E+00
          2   -1    0    0  502    0 -0.00000000000E+00  0.00000000000E+00  0.43939614371E+03  0.43939614371E+03  0.00000000000E+00 0. -1.
         21   -1    0    0  501  502  0.00000000000E+00 -0.00000000000E+00 -0.98382914463E+02  0.98382914463E+02  0.00000000000E+00 0. -1.
         24    2    1    2    0    0  0.76442205803E+02 -0.97612598647E+01  0.31616301048E+03  0.33440705423E+03  0.77008672901E+02 0.  0.
         23    2    1    2    0    0  0.10662911629E+02  0.32321944292E+01  0.58379409701E+02  0.10980845965E+03  0.92334162516E+02 0.  0.
        -11    1    3    3    0    0  0.37610255970E+02  0.26192078061E+02  0.78292035958E+02  0.90720445334E+02  0.00000000000E+00 0.  1.
         12    1    3    3    0    0  0.38831949834E+02 -0.35953337925E+02  0.23787097452E+03  0.24368660889E+03  0.00000000000E+00 0. -1.
        -11    1    4    4    0    0  0.38450955330E+02  0.25909647305E+02  0.66193829834E+01  0.46835905247E+02  0.00000000000E+00 0. -1.
         11    1    4    4    0    0 -0.27788043701E+02 -0.22677452876E+02  0.51760026717E+02  0.62972554398E+02  0.00000000000E+00 0.  1.
          1    1    1    2  501    0 -0.87105117432E+02  0.65290654355E+01 -0.33529190926E+02  0.93563544303E+02  0.00000000000E+00 0. -1.
<scales pt_clust_5="13000.00000" pt_clust_6="13000.00000" pt_clust_7="13000.00000" pt_clust_8="13000.00000" pt_clust_9="13000.00000"></scales>
<clustering>
<clus scale="   77.009">  5  6 -1 -1</clus>
<clus scale="   92.334">  7  8 -1 -1</clus>
<clus scale="   87.350">  7  9 -1 -1</clus>
<clus scale="  108.945">  1  5  2 -1</clus>
<clus scale="  201.848">  2  5  1 -1</clus>
</clustering>
</event>
<event>
 9    2  0.2147756E-005  0.2443446E+03  0.7546771E-02  0.1152527E+00
         21   -1    0    0  501  502  0.00000000000E+00  0.00000000000E+00  0.60096222045E+02  0.60096222045E+02  0.00000000000E+00 0.  1.
          2   -1    0    0  502    0 -0.00000000000E+00 -0.00000000000E+00 -0.90050978553E+03  0.90050978553E+03  0.00000000000E+00 0. -1.
         24    2    1    2    0    0 -0.54940364764E+02  0.31816750797E+02 -0.62951169549E+03  0.63783070371E+03  0.80698714484E+02 0.  0.
         23    2    1    2    0    0  0.54413241102E+02 -0.11371876657E+03 -0.17366404078E+03  0.23280378714E+03  0.90253230242E+02 0.  0.
        -11    1    3    3    0    0  0.42286037541E+01  0.28088026161E+02 -0.75681380963E+02  0.80836190706E+02  0.00000000000E+00 0.  1.
         12    1    3    3    0    0 -0.59168968518E+02  0.37287246351E+01 -0.55383031453E+03  0.55699451300E+03  0.00000000000E+00 0. -1.
        -13    1    4    4    0    0  0.72141155098E+02 -0.47630506460E+02 -0.91470206920E+02  0.12585630758E+03  0.00000000000E+00 0.  1.
         13    1    4    4    0    0 -0.17727913996E+02 -0.66088260105E+02 -0.82193833861E+02  0.10694747956E+03  0.00000000000E+00 0. -1.
          1    1    1    2  501    0  0.52712366215E+00  0.81902015768E+02 -0.37237827205E+02  0.89971516722E+02  0.00000000000E+00 0. -1.
<scales pt_clust_5="13000.00000" pt_clust_6="13000.00000" pt_clust_7="13000.00000" pt_clust_8="13000.00000" pt_clust_9="13000.00000"></scales>
<clustering>
<clus scale="   80.699">  5  6 -1 -1</clus>
<clus scale="   90.253">  7  8 -1 -1</clus>
<clus scale="   81.904">  7  9 -1 -1</clus>
<clus scale="  102.679">  2  5  1 -1</clus>
<clus scale="  244.345">  1  5  2 -1</clus>
</clustering>
</event>
<event>
 9    2  0.2147756E-005  0.6176459E+03  0.7546771E-02  0.1035143E+00
         21   -1    0    0  501  502  0.00000000000E+00  0.00000000000E+00  0.18651646873E+03  0.18651646873E+03  0.00000000000E+00 0. -1.
          2   -1    0    0  502    0 -0.00000000000E+00 -0.00000000000E+00 -0.76886210068E+03  0.76886210068E+03  0.00000000000E+00 0. -1.
         24    2    1    2    0    0 -0.11412901499E+03 -0.18117548785E+01 -0.10931608929E+03  0.17740462059E+03  0.80583357525E+02 0.  0.
         23    2    1    2    0    0 -0.66599411284E+02 -0.26810272222E+03 -0.19730957328E+03  0.35190107884E+03  0.92675510990E+02 0.  0.
        -11    1    3    3    0    0 -0.10978216076E+03  0.24964701051E+02 -0.87218758635E+02  0.14241654039E+03  0.00000000000E+00 0.  1.
         12    1    3    3    0    0 -0.43468542336E+01 -0.26776455929E+02 -0.22097330655E+02  0.34988080198E+02  0.00000000000E+00 0. -1.
        -11    1    4    4    0    0 -0.58206496166E+02 -0.62278156014E+02 -0.62788890270E+02  0.10587261050E+03  0.00000000000E+00 0.  1.
         11    1    4    4    0    0 -0.83929151183E+01 -0.20582456621E+03 -0.13452068301E+03  0.24602846834E+03  0.00000000000E+00 0. -1.
          1    1    1    2  501    0  0.18072842628E+03  0.26991447710E+03 -0.27571996938E+03  0.42607286997E+03  0.00000000000E+00 0. -1.
<scales pt_clust_5="13000.00000" pt_clust_6="13000.00000" pt_clust_7="13000.00000" pt_clust_8="13000.00000" pt_clust_9="13000.00000"></scales>
<clustering>
<clus scale="   80.583">  5  6 -1 -1</clus>
<clus scale="   92.676">  7  8 -1 -1</clus>
<clus scale="  139.723">  2  5  1 -1</clus>
<clus scale="  293.132">  7  9 -1 -1</clus>
<clus scale="  617.646">  1  5  2 -1</clus>
</clustering>
</event>
<event>
 9    2  0.2147756E-005  0.3815594E+03  0.7546771E-02  0.1068930E+00
          2   -1    0    0  502    0 -0.00000000000E+00  0.00000000000E+00  0.63348599311E+03  0.63348599311E+03  0.00000000000E+00 0. -1.
         21   -1    0    0  501  502  0.00000000000E+00 -0.00000000000E+00 -0.17864421004E+03  0.17864421004E+03  0.00000000000E+00 0. -1.
         24    2    1    2    0    0  0.18657446901E+03 -0.91207338456E+02  0.34888288603E+03  0.41613163640E+03  0.91200107343E+02 0.  0.
         23    2    1    2    0    0  0.47159912567E+02 -0.40408107499E+02  0.35010034957E+02  0.11853122133E+03  0.94694642809E+02 0.  0.
        -11    1    3    3    0    0  0.33185246032E+02  0.18138122903E+02  0.70518304088E+02  0.80019268105E+02  0.00000000000E+00 0.  1.
         12    1    3    3    0    0  0.15338922297E+03 -0.10934546136E+03  0.27836458194E+03  0.33611236830E+03  0.00000000000E+00 0. -1.
        -13    1    4    4    0    0  0.60003630229E+02  0.99638696939E+01  0.13698809886E+02  0.62348790945E+02  0.00000000000E+00 0. -1.
         13    1    4    4    0    0 -0.12843717662E+02 -0.50371977193E+02  0.21311225070E+02  0.56182430383E+02  0.00000000000E+00 0.  1.
          1    1    1    2  501    0 -0.23373438157E+03  0.13161544595E+03  0.70948862078E+02  0.27746734542E+03  0.00000000000E+00 0. -1.
<scales pt_clust_5="13000.00000" pt_clust_6="13000.00000" pt_clust_7="13000.00000" pt_clust_8="13000.00000" pt_clust_9="13000.00000"></scales>
<clustering>
<clus scale="   91.200">  5  6 -1 -1</clus>
<clus scale="   94.695">  7  8 -1 -1</clus>
<clus scale="  226.818">  1  5  2 -1</clus>
<clus scale="  124.619">  7  9 -1 -1</clus>
<clus scale="  381.559">  2  5  1 -1</clus>
</clustering>
</event>
<event>
 9    2  0.2147756E-005  0.2681631E+03  0.7546771E-02  0.1140325E+00
         21   -1    0    0  501  502  0.00000000000E+00  0.00000000000E+00  0.21763594587E+03  0.21763594587E+03  0.00000000000E+00 0. -1.
          2   -1    0    0  502    0 -0.00000000000E+00 -0.00000000000E+00 -0.16039416913E+03  0.16039416913E+03  0.00000000000E+00 0. -1.
         24    2    1    2    0    0  0.41069110781E+02 -0.49915800042E+02  0.41204713125E+00  0.10391137367E+03  0.81358127070E+02 0.  0.
         23    2    1    2    0    0  0.57712991633E+02  0.10546396081E+03  0.52557638939E+02  0.16070907384E+03  0.92799054796E+02 0.  0.
        -13    1    3    3    0    0  0.15565400958E+02 -0.13009035540E+02  0.39503488091E+02  0.44407682714E+02  0.00000000000E+00 0.  1.
         14    1    3    3    0    0  0.25503709823E+02 -0.36906764502E+02 -0.39091440960E+02  0.59503690953E+02  0.00000000000E+00 0. -1.
        -11    1    4    4    0    0  0.56963845588E+02  0.34348686392E+02 -0.83920635808E+01  0.67045795485E+02  0.00000000000E+00 0.  1.
         11    1    4    4    0    0  0.74914604521E+00  0.71115274416E+02  0.60949702520E+02  0.93663278356E+02  0.00000000000E+00 0. -1.
          1    1    1    2  501    0 -0.98782102414E+02 -0.55548160766E+02  0.42720906710E+01  0.11340966749E+03  0.00000000000E+00 0. -1.
<scales pt_clust_5="13000.00000" pt_clust_6="13000.00000" pt_clust_7="13000.00000" pt_clust_8="13000.00000" pt_clust_9="13000.00000"></scales>
<clustering>
<clus scale="   81.358">  5  6 -1 -1</clus>
<clus scale="   92.799">  7  8 -1 -1</clus>
<clus scale="  103.911">  2  5  1 -1</clus>
<clus scale="  112.284">  7  9 -1 -1</clus>
<clus scale="  268.163">  1  5  2 -1</clus>
</clustering>
</event>
<event>
 9    2  0.2147756E-005  0.2795060E+03  0.7546771E-02  0.1132093E+00
         21   -1    0    0  501  502  0.00000000000E+00  0.00000000000E+00  0.56888885696E+02  0.56888885696E+02  0.00000000000E+00 0. -1.
          2   -1    0    0  502    0 -0.00000000000E+00 -0.00000000000E+00 -0.67648703253E+03  0.67648703253E+03  0.00000000000E+00 0. -1.
         24    2    1    2    0    0  0.22145524453E+02  0.74637094632E+02 -0.15711721619E+03  0.19299439196E+03  0.80621929740E+02 0.  0.
         23    2    1    2    0    0  0.65005241120E+02 -0.11405847561E+03 -0.17964955714E+03  0.24181346526E+03  0.94682476561E+02 0.  0.
        -13    1    3    3    0    0  0.36162440609E+02  0.50854267910E+02 -0.15280272127E+03  0.16505317416E+03  0.00000000000E+00 0.  1.
         14    1    3    3    0    0 -0.14016916155E+02  0.23782826721E+02 -0.43144949272E+01  0.27941217795E+02  0.00000000000E+00 0. -1.
        -13    1    4    4    0    0 -0.18149998413E+02 -0.13675384413E+02 -0.62689697919E+02  0.66681607708E+02  0.00000000000E+00 0.  1.
         13    1    4    4    0    0  0.83155239533E+02 -0.10038309120E+03 -0.11695985922E+03  0.17513185755E+03  0.00000000000E+00 0. -1.
          1    1    1    2  501    0 -0.87150765573E+02  0.39421380981E+02 -0.28283137349E+03  0.29856806100E+03  0.00000000000E+00 0. -1.
<scales pt_clust_5="13000.00000" pt_clust_6="13000.00000" pt_clust_7="13000.00000" pt_clust_8="13000.00000" pt_clust_9="13000.00000"></scales>
<clustering>
<clus scale="   80.622">  5  6 -1 -1</clus>
<clus scale="   94.682">  7  8 -1 -1</clus>
<clus scale="   95.652">  7  9 -1 -1</clus>
<clus scale="  112.076">  2  5  1 -1</clus>
<clus scale="  279.506">  1  5  2 -1</clus>
</clustering>
</event>
<event>
 9    2  0.2147756E-005  0.4529775E+03  0.7546771E-02  0.1084211E+00
          2   -1    0    0  502    0 -0.00000000000E+00  0.00000000000E+00  0.97741053816E+03  0.97741053816E+03  0.00000000000E+00 0. -1.
         21   -1    0    0  501  502  0.00000000000E+00 -0.00000000000E+00 -0.75815181930E+02  0.75815181930E+02  0.00000000000E+00 0. -1.
         24    2    1    2    0    0  0.11400360539E+01 -0.42936533727E+02  0.11836469956E+03  0.14843907183E+03  0.78607317293E+02 0.  0.
         23    2    1    2    0    0 -0.13865090781E+03 -0.96459430437E+02  0.15617317189E+03  0.24786841599E+03  0.92304908158E+02 0.  0.
        -13    1    3    3    0    0 -0.24042645217E+02  0.13522172852E+02  0.40852446456E+02  0.49293207738E+02  0.00000000000E+00 0.  1.
         14    1    3    3    0    0  0.25182681271E+02 -0.56458706578E+02  0.77512253105E+02  0.99145864089E+02  0.00000000000E+00 0. -1.
        -11    1    4    4    0    0 -0.33506097235E+02 -0.66790513002E+02  0.10054329926E+03  0.12527005311E+03  0.00000000000E+00 0.  1.
         11    1    4    4    0    0 -0.10514481058E+03 -0.29668917435E+02  0.55629872630E+02  0.12259836289E+03  0.00000000000E+00 0. -1.
          1    1    1    2  501    0  0.13751087176E+03  0.13939596416E+03  0.62705748477E+03  0.65691823227E+03  0.00000000000E+00 0. -1.
<scales pt_clust_5="13000.00000" pt_clust_6="13000.00000" pt_clust_7="13000.00000" pt_clust_8="13000.00000" pt_clust_9="13000.00000"></scales>
<clustering>
<clus scale="   78.607">  5  6 -1 -1</clus>
<clus scale="   89.577">  1  5  2 -1</clus>
<clus scale="   92.305">  7  8 -1 -1</clus>
<clus scale="  174.760">  7  9 -1 -1</clus>
<clus scale="  452.978">  2  5  1 -1</clus>
</clustering>
</event>
<event>
 9    2  0.2147756E-005  0.2940769E+03  0.7546771E-02  0.1135394E+00
          2   -1    0    0  502    0 -0.00000000000E+00  0.00000000000E+00  0.57624560534E+03  0.57624560534E+03  0.00000000000E+00 0. -1.
         21   -1    0    0  501  502  0.00000000000E+00 -0.00000000000E+00 -0.63666957414E+02  0.63666957414E+02  0.00000000000E+00 0. -1.
         24    2    1    2    0    0  0.41528956219E+02 -0.43663136336E+01  0.12822689422E+03  0.15596268319E+03  0.78348600800E+02 0.  0.
         23    2    1    2    0    0  0.10720542762E+03  0.83863383532E+01  0.23043409601E+03  0.26987343788E+03  0.90379563418E+02 0.  0.
        -11    1    3    3    0    0  0.32605347499E+02  0.22600645239E+02  0.20701655645E+02  0.44748814478E+02  0.00000000000E+00 0.  1.
         12    1    3    3    0    0  0.89236087196E+01 -0.26966958872E+02  0.10752523857E+03  0.11121386871E+03  0.00000000000E+00 0. -1.
        -13    1    4    4    0    0  0.65046259408E+02 -0.14612383170E+02  0.50483723519E+02  0.83625019852E+02  0.00000000000E+00 0.  1.
         13    1    4    4    0    0  0.42159168214E+02  0.22998721524E+02  0.17995037249E+03  0.18624841802E+03  0.00000000000E+00 0. -1.
          1    1    1    2  501    0 -0.14873438384E+03 -0.40200247196E+01  0.15391765769E+03  0.21407644169E+03  0.00000000000E+00 0. -1.
<scales pt_clust_5="13000.00000" pt_clust_6="13000.00000" pt_clust_7="13000.00000" pt_clust_8="13000.00000" pt_clust_9="13000.00000"></scales>
<clustering>
<clus scale="   78.349">  5  6 -1 -1</clus>
<clus scale="   88.782">  1  5  2 -1</clus>
<clus scale="   90.380">  7  8 -1 -1</clus>
<clus scale="  131.265">  7  9 -1 -1</clus>
<clus scale="  294.077">  2  5  1 -1</clus>
</clustering>
</event>
<event>
 9    2  0.2147756E-005  0.1730452E+03  0.7546771E-02  0.1204807E+00
         21   -1    0    0  501  502  0.00000000000E+00  0.00000000000E+00  0.12279433263E+03  0.12279433263E+03  0.00000000000E+00 0.  1.
         -3   -1    0    0    0  501 -0.00000000000E+00 -0.00000000000E+00 -0.39451817770E+03  0.39451817770E+03  0.00000000000E+00 0.  1.
         24    2    1    2    0    0 -0.34455556137E+02 -0.78473289227E+01 -0.32444064087E+03  0.33641561456E+03  0.81639269668E+02 0.  0.
         23    2    1    2    0    0  0.68952589587E+00  0.45753275497E+02 -0.68227828817E+01  0.10265389600E+03  0.91637515967E+02 0.  0.
        -13    1    3    3    0    0 -0.48817725423E+02  0.12562024013E+02 -0.28717420013E+03  0.29156473721E+03  0.00000000000E+00 0.  1.
         14    1    3    3    0    0  0.14362169285E+02 -0.20409352936E+02 -0.37266440737E+02  0.44850877350E+02  0.00000000000E+00 0. -1.
        -13    1    4    4    0    0  0.37803751270E+01 -0.21988521671E+02 -0.23929603263E+02  0.32717155037E+02  0.00000000000E+00 0.  1.
         13    1    4    4    0    0 -0.30908492312E+01  0.67741797168E+02  0.17106820382E+02  0.69936740960E+02  0.00000000000E+00 0. -1.
         -4    1    1    2    0  502  0.33766030242E+02 -0.37905946574E+02  0.59539578676E+02  0.78242999769E+02  0.00000000000E+00 0.  1.
<scales pt_clust_5="13000.00000" pt_clust_6="13000.00000" pt_clust_7="13000.00000" pt_clust_8="13000.00000" pt_clust_9="13000.00000"></scales>
<clustering>
<clus scale="   81.639">  5  6 -1 -1</clus>
<clus scale="   88.959">  2  5  1 -1</clus>
<clus scale="   91.638">  7  8 -1 -1</clus>
<clus scale="   48.486">  7  9 -1 -1</clus>
<clus scale="  173.045">  1  5  2 -1</clus>
</clustering>
</event>
<event>
 9    2  0.2147756E-005  0.2553101E+03  0.7546771E-02  0.1147741E+00
         21   -1    0    0  501  502  0.00000000000E+00  0.00000000000E+00  0.52292649182E+02  0.52292649182E+02  0.00000000000E+00 0.  1.
          2   -1    0    0  502    0 -0.00000000000E+00 -0.00000000000E+00 -0.61894155218E+03  0.61894155218E+03  0.00000000000E+00 0. -1.
         24    2    1    2    0    0  0.59998112323E+02 -0.98234322907E+01 -0.20620214332E+03  0.22952713993E+03  0.80418348328E+02 0.  0.
         23    2    1    2    0    0 -0.11759965867E+03 -0.44982953831E+02 -0.31231932196E+03  0.34876660543E+03  0.90783480524E+02 0.  0.
        -13    1    3    3    0    0  0.11505065523E+02 -0.38781652759E+02 -0.56208141145E+02  0.69251268973E+02  0.00000000000E+00 0.  1.
         14    1    3    3    0    0  0.48493046800E+02  0.28958220469E+02 -0.14999400218E+03  0.16027587095E+03  0.00000000000E+00 0. -1.
        -11    1    4    4    0    0 -0.85830946797E+02  0.38381013037E+01 -0.11839920362E+03  0.14628757250E+03  0.00000000000E+00 0.  1.
         11    1    4    4    0    0 -0.31768711876E+02 -0.48821055134E+02 -0.19392011834E+03  0.20247903293E+03  0.00000000000E+00 0. -1.
          1    1    1    2  501    0  0.57601546351E+02  0.54806386121E+02 -0.48127437713E+02  0.92940456005E+02  0.00000000000E+00 0. -1.
<scales pt_clust_5="13000.00000" pt_clust_6="13000.00000" pt_clust_7="13000.00000" pt_clust_8="13000.00000" pt_clust_9="13000.00000"></scales>
<clustering>
<clus scale="   80.418">  5  6 -1 -1</clus>
<clus scale="   90.783">  7  8 -1 -1</clus>
<clus scale="   79.509">  7  9 -1 -1</clus>
<clus scale="  100.814">  2  5  1 -1</clus>
<clus scale="  255.310">  1  5  2 -1</clus>
</clustering>
</event>
<event>
 9    2  0.2147756E-005  0.3835787E+03  0.7546771E-02  0.1054820E+00
          2   -1    0    0  502    0 -0.00000000000E+00  0.00000000000E+00  0.14009956532E+04  0.14009956532E+04  0.00000000000E+00 0. -1.
         21   -1    0    0  501  502  0.00000000000E+00 -0.00000000000E+00 -0.12247890816E+03  0.12247890816E+03  0.00000000000E+00 0. -1.
         24    2    1    2    0    0  0.32089551987E+03  0.37232109756E+01  0.98904208384E+03  0.10429246890E+04  0.80621748035E+02 0.  0.
         23    2    1    2    0    0 -0.73882015124E+02  0.18818763382E+02  0.16252590365E+03  0.20191068065E+03  0.92415126395E+02 0.  0.
        -11    1    3    3    0    0  0.22304473214E+03 -0.32128351203E+02  0.71830556559E+03  0.75282406248E+03  0.00000000000E+00 0.  1.
         12    1    3    3    0    0  0.97850787721E+02  0.35851562179E+02  0.27073651825E+03  0.29010062647E+03  0.00000000000E+00 0. -1.
        -13    1    4    4    0    0 -0.72558611986E+02  0.47101351854E+02  0.14428396119E+03  0.16822945930E+03  0.00000000000E+00 0.  1.
         13    1    4    4    0    0 -0.13234031381E+01 -0.28282588473E+02  0.18241942467E+02  0.33681221349E+02  0.00000000000E+00 0. -1.
          1    1    1    2  501    0 -0.24701350474E+03 -0.22541974357E+02  0.12694875752E+03  0.27863919173E+03  0.00000000000E+00 0. -1.
<scales pt_clust_5="13000.00000" pt_clust_6="13000.00000" pt_clust_7="13000.00000" pt_clust_8="13000.00000" pt_clust_9="13000.00000"></scales>
<clustering>
<clus scale="   80.622">  5  6 -1 -1</clus>
<clus scale="   92.415">  7  8 -1 -1</clus>
<clus scale="  248.040">  7  9 -1 -1</clus>
<clus scale="  330.889">  1  5  2 -1</clus>
<clus scale="  383.579">  2  5  1 -1</clus>
</clustering>
</event>
<event>
 9    2  0.2147756E-005  0.2157888E+03  0.7546771E-02  0.1153480E+00
         21   -1    0    0  501  502  0.00000000000E+00  0.00000000000E+00  0.25389549740E+03  0.25389549740E+03  0.00000000000E+00 0.  1.
          2   -1    0    0  502    0 -0.00000000000E+00 -0.00000000000E+00 -0.12873807292E+03  0.12873807292E+03  0.00000000000E+00 0. -1.
         24    2    1    2    0    0  0.11884551705E+03  0.25166711437E+02  0.47963847111E+02  0.15345315362E+03  0.80558794912E+02 0.  0.
         23    2    1    2    0    0 -0.54595532928E+02 -0.20941184289E+01  0.10873013844E+03  0.15398095066E+03  0.94354822955E+02 0.  0.
        -13    1    3    3    0    0  0.12714268375E+03  0.34565197791E+02  0.37144372182E+02  0.13689309448E+03  0.00000000000E+00 0.  1.
         14    1    3    3    0    0 -0.82971667018E+01 -0.93984863545E+01  0.10819474929E+02  0.16560059142E+02  0.00000000000E+00 0. -1.
        -13    1    4    4    0    0 -0.38460011899E+02 -0.44711722786E+02  0.39087593655E+02  0.70754156397E+02  0.00000000000E+00 0.  1.
         13    1    4    4    0    0 -0.16135521029E+02  0.42617604357E+02  0.69642544782E+02  0.83226794266E+02  0.00000000000E+00 0. -1.
          1    1    1    2  501    0 -0.64249984124E+02 -0.23072593008E+02 -0.31536561067E+02  0.75199466035E+02  0.00000000000E+00 0. -1.
<scales pt_clust_5="13000.00000" pt_clust_6="13000.00000" pt_clust_7="13000.00000" pt_clust_8="13000.00000" pt_clust_9="13000.00000"></scales>
<clustering>
<clus scale="   80.559">  5  6 -1 -1</clus>
<clus scale="   94.355">  7  8 -1 -1</clus>
<clus scale="   68.267">  7  9 -1 -1</clus>
<clus scale="  145.765">  2  5  1 -1</clus>
<clus scale="  215.789">  1  5  2 -1</clus>
</clustering>
</event>
<event>
 9    2  0.2147756E-005  0.2364815E+03  0.7546771E-02  0.1158533E+00
         -1   -1    0    0    0  501 -0.00000000000E+00  0.00000000000E+00  0.89061700042E+02  0.89061700042E+02  0.00000000000E+00 0.  1.
         21   -1    0    0  501  502  0.00000000000E+00 -0.00000000000E+00 -0.40867997667E+03  0.40867997667E+03  0.00000000000E+00 0.  1.
         24    2    1    2    0    0 -0.56420918745E+02  0.19438631698E+02 -0.22026755367E+03  0.24123811209E+03  0.78210300148E+02 0.  0.
         23    2    1    2    0    0  0.99598233962E+02  0.49770480531E+02 -0.25027278377E+02  0.14614888108E+03  0.91302912541E+02 0.  0.
        -11    1    3    3    0    0 -0.42947818284E+02 -0.21195038836E+02 -0.16202548695E+03  0.16895562490E+03  0.00000000000E+00 0.  1.
         12    1    3    3    0    0 -0.13473100461E+02  0.40633670534E+02 -0.58242066723E+02  0.72282487182E+02  0.00000000000E+00 0. -1.
        -13    1    4    4    0    0  0.11601805924E+03  0.36661646066E+02 -0.28205158755E+02  0.12489914869E+03  0.00000000000E+00 0.  1.
         13    1    4    4    0    0 -0.16419825279E+02  0.13108834466E+02  0.31778803777E+01  0.21249732397E+02  0.00000000000E+00 0. -1.
         -2    1    1    2    0  502 -0.43177315218E+02 -0.69209112230E+02 -0.74323444580E+02  0.11035468354E+03  0.00000000000E+00 0.  1.
<scales pt_clust_5="13000.00000" pt_clust_6="13000.00000" pt_clust_7="13000.00000" pt_clust_8="13000.00000" pt_clust_9="13000.00000"></scales>
<clustering>
<clus scale="   78.210">  5  6 -1 -1</clus>
<clus scale="   91.303">  7  8 -1 -1</clus>
<clus scale="   81.573">  7  9 -1 -1</clus>
<clus scale="   98.377">  1  5  2 -1</clus>
<clus scale="  236.482">  2  5  1 -1</clus>
</clustering>
</event>
<event>
 9    2  0.2147756E-005  0.1978665E+03  0.7546771E-02  0.1187409E+00
         21   -1    0    0  501  502  0.00000000000E+00  0.00000000000E+00  0.25293277166E+02  0.25293277166E+02  0.00000000000E+00 0.  1.
         -1   -1    0    0    0  501 -0.00000000000E+00 -0.00000000000E+00 -0.96463208432E+03  0.96463208432E+03  0.00000000000E+00 0.  1.
         24    2    1    2    0    0  0.31767499330E+02  0.50612289818E+01 -0.50753271857E+03  0.51494363389E+03  0.80886931043E+02 0.  0.
         23    2    1    2    0    0 -0.48122850097E+02 -0.65147230772E+02 -0.35828189525E+03  0.37863012089E+03  0.91841611478E+02 0.  0.
        -11    1    3    3    0    0  0.45963434266E+02  0.32377329992E+02 -0.32024039650E+03  0.32513818653E+03  0.00000000000E+00 0.  1.
         12    1    3    3    0    0 -0.14195934936E+02 -0.27316101011E+02 -0.18729232207E+03  0.18980544737E+03  0.00000000000E+00 0. -1.
        -13    1    4    4    0    0 -0.17751687456E+02 -0.81795582249E+02 -0.29311375919E+03  0.30482997803E+03  0.00000000000E+00 0.  1.
         13    1    4    4    0    0 -0.30371162641E+02  0.16648351477E+02 -0.65168136067E+02  0.73800142856E+02  0.00000000000E+00 0. -1.
         -2    1    1    2    0  502  0.16355350766E+02  0.60086001790E+02 -0.73524193331E+02  0.96351606706E+02  0.00000000000E+00 0.  1.
<scales pt_clust_5="13000.00000" pt_clust_6="13000.00000" pt_clust_7="13000.00000" pt_clust_8="13000.00000" pt_clust_9="13000.00000"></scales>
<clustering>
<clus scale="   80.887">  5  6 -1 -1</clus>
<clus scale="   87.049">  2  5  1 -1</clus>
<clus scale="   91.842">  7  8 -1 -1</clus>
<clus scale="   64.983">  7  9 -1 -1</clus>
<clus scale="  197.866">  1  5  2 -1</clus>
</clustering>
</event>
<event>
 9    2  0.2147756E-005  0.1783466E+03  0.7546771E-02  0.1201789E+00
         21   -1    0    0  501  502  0.00000000000E+00  0.00000000000E+00  0.37299859759E+02  0.37299859759E+02  0.00000000000E+00 0.  1.
         -3   -1    0    0    0  501 -0.00000000000E+00 -0.00000000000E+00 -0.72425978672E+03  0.72425978672E+03  0.00000000000E+00 0.  1.
         24    2    1    2    0    0 -0.56682623279E+01  0.28681597333E+02 -0.48255278189E+03  0.49028528589E+03  0.81656053242E+02 0.  0.
         23    2    1    2    0    0  0.52704510618E+02  0.20908068913E+02 -0.10881457377E+03  0.15376060250E+03  0.92664980605E+02 0.  0.
        -11    1    3    3    0    0  0.26622744432E+02  0.30750408875E+02 -0.12912861890E+03  0.13538300627E+03  0.00000000000E+00 0.  1.
         12    1    3    3    0    0 -0.32291006760E+02 -0.20688115419E+01 -0.35342416299E+03  0.35490227963E+03  0.00000000000E+00 0. -1.
        -11    1    4    4    0    0  0.53996905329E+02  0.44610654645E+02 -0.39319208265E+02  0.80322950839E+02  0.00000000000E+00 0.  1.
         11    1    4    4    0    0 -0.12923947101E+01 -0.23702585732E+02 -0.69495365504E+02  0.73437651658E+02  0.00000000000E+00 0. -1.
         -4    1    1    2    0  502 -0.47036248291E+02 -0.49589666246E+02 -0.95592571302E+02  0.11751375809E+03  0.00000000000E+00 0.  1.
<scales pt_clust_5="13000.00000" pt_clust_6="13000.00000" pt_clust_7="13000.00000" pt_clust_8="13000.00000" pt_clust_9="13000.00000"></scales>
<clustering>
<clus scale="   81.656">  5  6 -1 -1</clus>
<clus scale="   86.732">  2  5  1 -1</clus>
<clus scale="   92.665">  7  8 -1 -1</clus>
<clus scale="   61.706">  7  9 -1 -1</clus>
<clus scale="  178.347">  1  5  2 -1</clus>
</clustering>
</event>
<event>
 9    2  0.2147756E-005  0.3019241E+03  0.7546771E-02  0.1101240E+00
          2   -1    0    0  502    0 -0.00000000000E+00  0.00000000000E+00  0.77468790224E+03  0.77468790224E+03  0.00000000000E+00 0. -1.
         21   -1    0    0  501  502  0.00000000000E+00 -0.00000000000E+00 -0.85450394127E+02  0.85450394127E+02  0.00000000000E+00 0.  1.
         24    2    1    2    0    0 -0.13614076332E+03  0.10662560708E+03  0.16037144956E+03  0.25115763894E+03  0.86358729987E+02 0.  0.
         23    2    1    2    0    0 -0.30657413696E+02  0.36243425499E+01  0.22704674083E+03  0.24694256026E+03  0.92072757480E+02 0.  0.
        -13    1    3    3    0    0 -0.11058645393E+03  0.79687793955E+02  0.16468542116E+03  0.21377744559E+03  0.00000000000E+00 0.  1.
         14    1    3    3    0    0 -0.25554309388E+02  0.26937813127E+02 -0.43139716072E+01  0.37380193357E+02  0.00000000000E+00 0. -1.
        -11    1    4    4    0    0  0.11784896761E+02 -0.36564236532E+02  0.98706679348E+02  0.10591900553E+03  0.00000000000E+00 0.  1.
         11    1    4    4    0    0 -0.42442310457E+02  0.40188579082E+02  0.12834006148E+03  0.14102355472E+03  0.00000000000E+00 0. -1.
          1    1    1    2  501    0  0.16679817701E+03 -0.11024994963E+03  0.30181931772E+03  0.36203809716E+03  0.00000000000E+00 0. -1.
<scales pt_clust_5="13000.00000" pt_clust_6="13000.00000" pt_clust_7="13000.00000" pt_clust_8="13000.00000" pt_clust_9="13000.00000"></scales>
<clustering>
<clus scale="   86.359">  5  6 -1 -1</clus>
<clus scale="   92.073">  7  8 -1 -1</clus>
<clus scale="  193.290">  1  5  2 -1</clus>
<clus scale="   99.706">  7  9 -1 -1</clus>
<clus scale="  301.924">  2  5  1 -1</clus>
</clustering>
</event>
<event>
 9    2  0.2147756E-005  0.2684920E+03  0.7546771E-02  0.1107210E+00
         21   -1    0    0  501  502  0.00000000000E+00  0.00000000000E+00  0.63114719372E+03  0.63114719372E+03  0.00000000000E+00 0.  1.
         -3   -1    0    0    0  501 -0.00000000000E+00 -0.00000000000E+00 -0.10550922226E+03  0.10550922226E+03  0.00000000000E+00 0.  1.
         24    2    1    2    0    0  0.21863276014E+03  0.34987927531E+02  0.32504702686E+03  0.40150768728E+03  0.80798603890E+02 0.  0.
         23    2    1    2    0    0 -0.12261208198E+03 -0.46714685741E+02  0.16813402546E+03  0.23311471921E+03  0.94113959036E+02 0.  0.
        -13    1    3    3    0    0  0.16780754951E+03  0.58375886829E+02  0.22294582579E+03  0.28508237243E+03  0.00000000000E+00 0.  1.
         14    1    3    3    0    0  0.50825210635E+02 -0.23387959298E+02  0.10210120108E+03  0.11642531485E+03  0.00000000000E+00 0. -1.
        -11    1    4    4    0    0 -0.63512914307E+02 -0.60504840404E+02  0.51718596044E+02  0.10183093426E+03  0.00000000000E+00 0. -1.
         11    1    4    4    0    0 -0.59099167674E+02  0.13790154663E+02  0.11641542941E+03  0.13128378495E+03  0.00000000000E+00 0.  1.
         -4    1    1    2    0  502 -0.96020678163E+02  0.11726758210E+02  0.32456919147E+02  0.10203400949E+03  0.00000000000E+00 0.  1.
<scales pt_clust_5="13000.00000" pt_clust_6="13000.00000" pt_clust_7="13000.00000" pt_clust_8="13000.00000" pt_clust_9="13000.00000"></scales>
<clustering>
<clus scale="   80.799">  5  6 -1 -1</clus>
<clus scale="   94.114">  7  8 -1 -1</clus>
<clus scale="   96.734">  7  9 -1 -1</clus>
<clus scale="  235.697">  2  5  1 -1</clus>
<clus scale="  268.492">  1  5  2 -1</clus>
</clustering>
</event>
<event>
 9    2  0.2147756E-005  0.2275080E+03  0.7546771E-02  0.1164005E+00
          2   -1    0    0  502    0 -0.00000000000E+00  0.00000000000E+00  0.10876922022E+04  0.10876922022E+04  0.00000000000E+00 0. -1.
         21   -1    0    0  501  502  0.00000000000E+00 -0.00000000000E+00 -0.25489757041E+02  0.25489757041E+02  0.00000000000E+00 0. -1.
         24    2    1    2    0    0 -0.76072817363E+01  0.52836445879E+02  0.44161855080E+03  0.45220974617E+03  0.81345862635E+02 0.  0.
         23    2    1    2    0    0 -0.27611670564E+02  0.49333820391E+02  0.20163144127E+03  0.22830571812E+03  0.90950715398E+02 0.  0.
        -13    1    3    3    0    0 -0.30944036515E+02  0.28075049800E+01  0.70982001249E+02  0.77484578991E+02  0.00000000000E+00 0.  1.
         14    1    3    3    0    0  0.23336754779E+02  0.50028940899E+02  0.37063654955E+03  0.37472516718E+03  0.00000000000E+00 0. -1.
        -11    1    4    4    0    0  0.31843569844E+02  0.42329970757E+01  0.52582335230E+02  0.61618448397E+02  0.00000000000E+00 0.  1.
         11    1    4    4    0    0 -0.59455240409E+02  0.45100823316E+02  0.14904910604E+03  0.16668726973E+03  0.00000000000E+00 0. -1.
          1    1    1    2  501    0  0.35218952301E+02 -0.10217026627E+03  0.41895245312E+03  0.43266649499E+03  0.00000000000E+00 0. -1.
<scales pt_clust_5="13000.00000" pt_clust_6="13000.00000" pt_clust_7="13000.00000" pt_clust_8="13000.00000" pt_clust_9="13000.00000"></scales>
<clustering>
<clus scale="   81.346">  5  6 -1 -1</clus>
<clus scale="   90.951">  7  8 -1 -1</clus>
<clus scale="   97.297">  1  5  2 -1</clus>
<clus scale="   73.531">  7  9 -1 -1</clus>
<clus scale="  227.508">  2  5  1 -1</clus>
</clustering>
</event>
<event>
 9    2  0.2147756E-005  0.7710531E+03  0.7546771E-02  0.9937942E-01
          2   -1    0    0  502    0 -0.00000000000E+00  0.00000000000E+00  0.23187389942E+04  0.23187389942E+04  0.00000000000E+00 0. -1.
         21   -1    0    0  501  502  0.00000000000E+00 -0.00000000000E+00 -0.11455597820E+03  0.11455597820E+03  0.00000000000E+00 0. -1.
         24    2    1    2    0    0 -0.14137490723E+03 -0.19530339116E+03  0.65614586620E+03  0.70386101209E+03  0.82235318501E+02 0.  0.
         23    2    1    2    0    0 -0.28648239039E+03  0.90055084025E+02  0.47206905598E+03  0.56674465866E+03  0.90378295723E+02 0.  0.
        -11    1    3    3    0    0 -0.85951934317E+02 -0.15121711763E+03  0.36645970990E+03  0.40564401962E+03  0.00000000000E+00 0.  1.
         12    1    3    3    0    0 -0.55422972914E+02 -0.44086273533E+02  0.28968615631E+03  0.29821699247E+03  0.00000000000E+00 0. -1.
        -11    1    4    4    0    0 -0.83482329329E+02  0.51378023684E+02  0.93616800820E+02  0.13554743090E+03  0.00000000000E+00 0.  1.
         11    1    4    4    0    0 -0.20300006106E+03  0.38677060341E+02  0.37845225516E+03  0.43119722776E+03  0.00000000000E+00 0. -1.
          1    1    1    2  501    0  0.42785729762E+03  0.10524830714E+03  0.10759680938E+04  0.11626893017E+04  0.00000000000E+00 0. -1.
<scales pt_clust_5="13000.00000" pt_clust_6="13000.00000" pt_clust_7="13000.00000" pt_clust_8="13000.00000" pt_clust_9="13000.00000"></scales>
<clustering>
<clus scale="   82.235">  5  6 -1 -1</clus>
<clus scale="   90.378">  7  8 -1 -1</clus>
<clus scale="  254.741">  1  5  2 -1</clus>
<clus scale="  332.486">  7  9 -1 -1</clus>
<clus scale="  771.053">  2  5  1 -1</clus>
</clustering>
</event>
<event>
 9    2  0.2147756E-005  0.2202542E+03  0.7546771E-02  0.1173840E+00
          2   -1    0    0  502    0 -0.00000000000E+00  0.00000000000E+00  0.83410636824E+03  0.83410636824E+03  0.00000000000E+00 0. -1.
         21   -1    0    0  501  502  0.00000000000E+00 -0.00000000000E+00 -0.29982082472E+02  0.29982082472E+02  0.00000000000E+00 0. -1.
         24    2    1    2    0    0 -0.32420958910E+02  0.17972768218E+02  0.13694327327E+03  0.16149155190E+03  0.77148702298E+02 0.  0.
         23    2    1    2    0    0 -0.56096249421E+02 -0.93962707743E+01  0.49795160854E+03  0.51142304171E+03  0.10179707281E+03 0.  0.
        -13    1    3    3    0    0  0.24741212060E+02 -0.24868815540E+01  0.41085669386E+02  0.48024414447E+02  0.00000000000E+00 0.  1.
         14    1    3    3    0    0 -0.57162170970E+02  0.20459649772E+02  0.95857603887E+02  0.11346713745E+03  0.00000000000E+00 0. -1.
        -11    1    4    4    0    0 -0.11133553291E+02  0.42286517162E+02  0.13023697582E+03  0.13738185984E+03  0.00000000000E+00 0.  1.
         11    1    4    4    0    0 -0.44962696130E+02 -0.51682787937E+02  0.36771463273E+03  0.37404118187E+03  0.00000000000E+00 0. -1.
          1    1    1    2  501    0  0.88517208331E+02 -0.85764974441E+01  0.16922940395E+03  0.19117385711E+03  0.00000000000E+00 0. -1.
<scales pt_clust_5="13000.00000" pt_clust_6="13000.00000" pt_clust_7="13000.00000" pt_clust_8="13000.00000" pt_clust_9="13000.00000"></scales>
<clustering>
<clus scale="   77.149">  5  6 -1 -1</clus>
<clus scale="   85.592">  1  5  2 -1</clus>
<clus scale="  101.797">  7  8 -1 -1</clus>
<clus scale="   80.079">  7  9 -1 -1</clus>
<clus scale="  220.254">  2  5  1 -1</clus>
</clustering>
</event>
<event>
 9    2  0.2147756E-005  0.4728111E+03  0.7546771E-02  0.1044644E+00
          2   -1    0    0  502    0 -0.00000000000E+00  0.00000000000E+00  0.27233669772E+03  0.27233669772E+03  0.00000000000E+00 0. -1.
         21   -1    0    0  501  502  0.00000000000E+00 -0.00000000000E+00 -0.47863924104E+03  0.47863924104E+03  0.00000000000E+00 0. -1.
         24    2    1    2    0    0 -0.14490110599E+03 -0.16962442718E+03 -0.28561574739E+01  0.23625195474E+03  0.77704901205E+02 0.  0.
         23    2    1    2    0    0 -0.13304845157E+03  0.44408300464E+02 -0.65197919631E+02  0.17998875529E+03  0.92039098707E+02 0.  0.
        -13    1    3    3    0    0 -0.48769579014E+02 -0.46245882613E+02 -0.36185841905E+02  0.76331963490E+02  0.00000000000E+00 0.  1.
         14    1    3    3    0    0 -0.96131526972E+02 -0.12337854457E+03  0.33329684431E+02  0.15991999125E+03  0.00000000000E+00 0. -1.
        -13    1    4    4    0    0 -0.28860293388E+02  0.14782567707E+02 -0.63907036826E+02  0.71662753215E+02  0.00000000000E+00 0. -1.
         13    1    4    4    0    0 -0.10418815819E+03  0.29625732757E+02 -0.12908828054E+01  0.10832600208E+03  0.00000000000E+00 0.  1.
          1    1    1    2  501    0  0.27794955756E+03  0.12521612672E+03 -0.13824846621E+03  0.33473522872E+03  0.00000000000E+00 0. -1.
<scales pt_clust_5="13000.00000" pt_clust_6="13000.00000" pt_clust_7="13000.00000" pt_clust_8="13000.00000" pt_clust_9="13000.00000"></scales>
<clustering>
<clus scale="   77.705">  5  6 -1 -1</clus>
<clus scale="   92.039">  7  8 -1 -1</clus>
<clus scale="  236.235">  1  5  2 -1</clus>
<clus scale="  187.365">  7  9 -1 -1</clus>
<clus scale="  472.811">  2  5  1 -1</clus>
</clustering>
</event>
<event>
 9    2  0.2147756E-005  0.2137101E+03  0.7546771E-02  0.1180431E+00
          2   -1    0    0  502    0 -0.00000000000E+00  0.00000000000E+00  0.61734554959E+03  0.61734554959E+03  0.00000000000E+00 0. -1.
         21   -1    0    0  501  502  0.00000000000E+00 -0.00000000000E+00 -0.35696248257E+02  0.35696248257E+02  0.00000000000E+00 0.  1.
         24    2    1    2    0    0 -0.37419558925E+01 -0.18415144792E+01  0.19907531524E+03  0.21482397606E+03  0.80628569029E+02 0.  0.
         23    2    1    2    0    0  0.55990292581E+02  0.14217500327E+02  0.58771186874E+02  0.10999334602E+03  0.72852135056E+02 0.  0.
        -13    1    3    3    0    0  0.30438857215E+02  0.10195939420E+02  0.38102343576E+02  0.49822382472E+02  0.00000000000E+00 0.  1.
         14    1    3    3    0    0 -0.34180813107E+02 -0.12037453899E+02  0.16097297166E+03  0.16500159359E+03  0.00000000000E+00 0. -1.
        -11    1    4    4    0    0  0.30817135565E+02  0.10377506313E+02 -0.12092597036E+02  0.34693218138E+02  0.00000000000E+00 0.  1.
         11    1    4    4    0    0  0.25173157016E+02  0.38399940142E+01  0.70863783910E+02  0.75300127877E+02  0.00000000000E+00 0. -1.
          1    1    1    2  501    0 -0.52248336688E+02 -0.12375985848E+02  0.32380279923E+03  0.32822447578E+03  0.00000000000E+00 0. -1.
<scales pt_clust_5="13000.00000" pt_clust_6="13000.00000" pt_clust_7="13000.00000" pt_clust_8="13000.00000" pt_clust_9="13000.00000"></scales>
<clustering>
<clus scale="   72.852">  7  8 -1 -1</clus>
<clus scale="   53.694">  7  9 -1 -1</clus>
<clus scale="   80.629">  5  6 -1 -1</clus>
<clus scale="   80.736">  1  5  2 -1</clus>
<clus scale="  213.710">  2  5  1 -1</clus>
</clustering>
</event>
<event>
 9    2  0.2147756E-005  0.7606990E+03  0.7546771E-02  0.1024827E+00
          2   -1    0    0  502    0 -0.00000000000E+00  0.00000000000E+00  0.23042179411E+04  0.23042179411E+04  0.00000000000E+00 0. -1.
         21   -1    0    0  501  502  0.00000000000E+00 -0.00000000000E+00 -0.83729538993E+02  0.83729538993E+02  0.00000000000E+00 0. -1.
         24    2    1    2    0    0 -0.28136574295E+02 -0.53757234558E+02  0.14169425214E+03  0.17434225212E+03  0.81464426020E+02 0.  0.
         23    2    1    2    0    0 -0.14681630826E+03 -0.26918540543E+03  0.50731668200E+03  0.59977689380E+03  0.91358062747E+02 0.  0.
        -13    1    3    3    0    0 -0.54793804408E+02 -0.19932285074E+02  0.86916468276E+02  0.10466197708E+03  0.00000000000E+00 0.  1.
         14    1    3    3    0    0  0.26657230113E+02 -0.33824949484E+02  0.54777783862E+02  0.69680275040E+02  0.00000000000E+00 0. -1.
        -13    1    4    4    0    0 -0.71351268908E+02 -0.14589680620E+03  0.18282186616E+03  0.24454184996E+03  0.00000000000E+00 0. -1.
         13    1    4    4    0    0 -0.75465039350E+02 -0.12328859923E+03  0.32449481584E+03  0.35523504384E+03  0.00000000000E+00 0.  1.
          1    1    1    2  501    0  0.17495288255E+03  0.32294263999E+03  0.15714774680E+04  0.16138283342E+04  0.00000000000E+00 0. -1.
<scales pt_clust_5="13000.00000" pt_clust_6="13000.00000" pt_clust_7="13000.00000" pt_clust_8="13000.00000" pt_clust_9="13000.00000"></scales>
<clustering>
<clus scale="   81.464">  5  6 -1 -1</clus>
<clus scale="   91.358">  7  8 -1 -1</clus>
<clus scale="  101.577">  1  5  2 -1</clus>
<clus scale="  322.267">  7  9 -1 -1</clus>
<clus scale="  760.699">  2  5  1 -1</clus>
</clustering>
</event>
<event>
 9    2  0.2147756E-005  0.3066629E+03  0.7546771E-02  0.1105094E+00
         21   -1    0    0  501  502  0.00000000000E+00  0.00000000000E+00  0.21746181373E+03  0.21746181373E+03  0.00000000000E+00 0. -1.
          2   -1    0    0  502    0 -0.00000000000E+00 -0.00000000000E+00 -0.47438775352E+03  0.47438775352E+03  0.00000000000E+00 0. -1.
         24    2    1    2    0    0  0.14395171385E+03 -0.25300089150E+02 -0.33594589233E+03  0.37516950811E+03  0.80810437514E+02 0.  0.
         23    2    1    2    0    0  0.23597695703E+02 -0.49949418448E+02 -0.20970386880E+02  0.10755483107E+03  0.89869287942E+02 0.  0.
        -11    1    3    3    0    0  0.93044438833E+02 -0.23911837871E+01 -0.11855745251E+03  0.15072775094E+03  0.00000000000E+00 0.  1.
         12    1    3    3    0    0  0.50907275015E+02 -0.22908905363E+02 -0.21738843982E+03  0.22444175717E+03  0.00000000000E+00 0. -1.
        -11    1    4    4    0    0  0.51207374628E+02 -0.10100429490E+02  0.52182117492E+01  0.52454205037E+02  0.00000000000E+00 0. -1.
         11    1    4    4    0    0 -0.27609678925E+02 -0.39848988958E+02 -0.26188598629E+02  0.55100626035E+02  0.00000000000E+00 0.  1.
          1    1    1    2  501    0 -0.16754940955E+03  0.75249507598E+02  0.99990339424E+02  0.20912522806E+03  0.00000000000E+00 0. -1.
<scales pt_clust_5="13000.00000" pt_clust_6="13000.00000" pt_clust_7="13000.00000" pt_clust_8="13000.00000" pt_clust_9="13000.00000"></scales>
<clustering>
<clus scale="   80.810">  5  6 -1 -1</clus>
<clus scale="   89.869">  7  8 -1 -1</clus>
<clus scale="  167.011">  2  5  1 -1</clus>
<clus scale="  119.751">  7  9 -1 -1</clus>
<clus scale="  306.663">  1  5  2 -1</clus>
</clustering>
</event>
<event>
 9    2  0.2147756E-005  0.2043679E+03  0.7546771E-02  0.1182622E+00
          2   -1    0    0  502    0 -0.00000000000E+00  0.00000000000E+00  0.76732381689E+03  0.76732381689E+03  0.00000000000E+00 0. -1.
         21   -1    0    0  501  502  0.00000000000E+00 -0.00000000000E+00 -0.36328532437E+02  0.36328532437E+02  0.00000000000E+00 0. -1.
         24    2    1    2    0    0 -0.30190686366E+02 -0.10816899973E+02  0.43606219467E+03  0.44483236379E+03  0.81835880840E+02 0.  0.
         23    2    1    2    0    0  0.72612155685E+02 -0.27329535888E+02  0.27161113059E+03  0.29718683367E+03  0.92347058210E+02 0.  0.
        -11    1    3    3    0    0  0.28301501191E+02 -0.17226511015E+01  0.12335284904E+03  0.12656961666E+03  0.00000000000E+00 0.  1.
         12    1    3    3    0    0 -0.58492187557E+02 -0.90942488713E+01  0.31270934563E+03  0.31826274713E+03  0.00000000000E+00 0. -1.
        -13    1    4    4    0    0  0.40609446288E+02 -0.56260331059E+02  0.11116560879E+03  0.13104252957E+03  0.00000000000E+00 0. -1.
         13    1    4    4    0    0  0.32002709397E+02  0.28930795172E+02  0.16044552180E+03  0.16614430410E+03  0.00000000000E+00 0.  1.
          1    1    1    2  501    0 -0.42421469319E+02  0.38146435861E+02  0.23321959195E+02  0.61633151865E+02  0.00000000000E+00 0. -1.
<scales pt_clust_5="13000.00000" pt_clust_6="13000.00000" pt_clust_7="13000.00000" pt_clust_8="13000.00000" pt_clust_9="13000.00000"></scales>
<clustering>
<clus scale="   81.836">  5  6 -1 -1</clus>
<clus scale="   87.895">  1  5  2 -1</clus>
<clus scale="   92.347">  7  8 -1 -1</clus>
<clus scale="   59.142">  7  9 -1 -1</clus>
<clus scale="  204.368">  2  5  1 -1</clus>
</clustering>
</event>
<event>
 9    2  0.2147756E-005  0.2320680E+03  0.7546771E-02  0.1164987E+00
         21   -1    0    0  501  502  0.00000000000E+00  0.00000000000E+00  0.11539930971E+03  0.11539930971E+03  0.00000000000E+00 0. -1.
          2   -1    0    0  502    0 -0.00000000000E+00 -0.00000000000E+00 -0.22903546814E+03  0.22903546814E+03  0.00000000000E+00 0. -1.
         24    2    1    2    0    0 -0.35078285574E+02  0.66363892704E+01 -0.96535431244E+01  0.90135877420E+02  0.82199499524E+02 0.  0.
         23    2    1    2    0    0 -0.39640851082E+02 -0.50059159561E+02  0.87553513699E+01  0.11224843232E+03  0.91900695592E+02 0.  0.
        -11    1    3    3    0    0  0.19748089937E+02  0.24845560999E+02 -0.13051275378E+01  0.31764639387E+02  0.00000000000E+00 0.  1.
         12    1    3    3    0    0 -0.54826375511E+02 -0.18209171729E+02 -0.83484155866E+01  0.58371238033E+02  0.00000000000E+00 0. -1.
        -11    1    4    4    0    0  0.19166525685E+02 -0.42513727163E+02 -0.14079696016E+02  0.48713556060E+02  0.00000000000E+00 0.  1.
         11    1    4    4    0    0 -0.58807376767E+02 -0.75454323976E+01  0.22835047386E+02  0.63534876260E+02  0.00000000000E+00 0. -1.
          1    1    1    2  501    0  0.74719136656E+02  0.43422770290E+02 -0.11273796668E+03  0.14205046812E+03  0.00000000000E+00 0. -1.
<scales pt_clust_5="13000.00000" pt_clust_6="13000.00000" pt_clust_7="13000.00000" pt_clust_8="13000.00000" pt_clust_9="13000.00000"></scales>
<clustering>
<clus scale="   82.199">  5  6 -1 -1</clus>
<clus scale="   89.617">  2  5  1 -1</clus>
<clus scale="   91.901">  7  8 -1 -1</clus>
<clus scale="   69.247">  7  9 -1 -1</clus>
<clus scale="  232.068">  1  5  2 -1</clus>
</clustering>
</event>
<event>
 9    2  0.2147756E-005  0.7449323E+03  0.7546771E-02  0.9757112E-01
         21   -1    0    0  501  502  0.00000000000E+00  0.00000000000E+00  0.13246580918E+03  0.13246580918E+03  0.00000000000E+00 0. -1.
          2   -1    0    0  502    0 -0.00000000000E+00 -0.00000000000E+00 -0.29860782345E+04  0.29860782345E+04  0.00000000000E+00 0. -1.
         24    2    1    2    0    0 -0.94834982836E+02 -0.49409607226E+03 -0.10333210188E+04  0.11517230120E+04  0.74759387353E+02 0.  0.
         23    2    1    2    0    0  0.47535324283E+02 -0.10226081978E+03 -0.40340302388E+03  0.42881859690E+03  0.91839572399E+02 0.  0.
        -11    1    3    3    0    0 -0.82838064564E+02 -0.25998240494E+03 -0.59752389696E+03  0.65687731218E+03  0.00000000000E+00 0.  1.
         12    1    3    3    0    0 -0.11996918272E+02 -0.23411366732E+03 -0.43579712180E+03  0.49484569983E+03  0.00000000000E+00 0. -1.
        -11    1    4    4    0    0  0.11299823834E+02 -0.10780853678E+03 -0.31438377657E+03  0.33254702764E+03  0.00000000000E+00 0. -1.
         11    1    4    4    0    0  0.36235500449E+02  0.55477170048E+01 -0.89019247312E+02  0.96271569265E+02  0.00000000000E+00 0.  1.
          1    1    1    2  501    0  0.47299658553E+02  0.59635689204E+03 -0.14168883827E+04  0.15380024348E+04  0.00000000000E+00 0. -1.
<scales pt_clust_5="13000.00000" pt_clust_6="13000.00000" pt_clust_7="13000.00000" pt_clust_8="13000.00000" pt_clust_9="13000.00000"></scales>
<clustering>
<clus scale="   74.759">  5  6 -1 -1</clus>
<clus scale="   91.840">  7  8 -1 -1</clus>
<clus scale="  508.639">  2  5  1 -1</clus>
<clus scale="  212.522">  7  9 -1 -1</clus>
<clus scale="  744.932">  1  5  2 -1</clus>
</clustering>
</event>
<event>
 9    2  0.2147756E-005  0.3269150E+03  0.7546771E-02  0.1076673E+00
         -3   -1    0    0    0  501 -0.00000000000E+00  0.00000000000E+00  0.92110356673E+03  0.92110356673E+03  0.00000000000E+00 0.  1.
         21   -1    0    0  501  502  0.00000000000E+00 -0.00000000000E+00 -0.10499639867E+03  0.10499639867E+03  0.00000000000E+00 0.  1.
         24    2    1    2    0    0  0.26068693196E+03  0.10436088087E+03  0.43677281092E+03  0.52533259151E+03  0.79718086940E+02 0.  0.
         23    2    1    2    0    0 -0.79273912697E+02 -0.78997838925E+02  0.18007483926E+03  0.23010462632E+03  0.89421359479E+02 0.  0.
        -13    1    3    3    0    0  0.26454541119E+03  0.10254270329E+03  0.43703900339E+03  0.52105889404E+03  0.00000000000E+00 0.  1.
         14    1    3    3    0    0 -0.38584792229E+01  0.18181775756E+01 -0.26619246210E+00  0.42736974667E+01  0.00000000000E+00 0. -1.
        -13    1    4    4    0    0 -0.30693909213E+02 -0.29350147794E+02  0.14729850084E+03  0.15329838742E+03  0.00000000000E+00 0. -1.
         13    1    4    4    0    0 -0.48580003485E+02 -0.49647691131E+02  0.32776338425E+02  0.76806238898E+02  0.00000000000E+00 0.  1.
         -4    1    1    2    0  502 -0.18141301927E+03 -0.25363041942E+02  0.19925951788E+03  0.27066274757E+03  0.00000000000E+00 0.  1.
<scales pt_clust_5="13000.00000" pt_clust_6="13000.00000" pt_clust_7="13000.00000" pt_clust_8="13000.00000" pt_clust_9="13000.00000"></scales>
<clustering>
<clus scale="   79.718">  5  6 -1 -1</clus>
<clus scale="   89.421">  7  8 -1 -1</clus>
<clus scale="  183.178">  7  9 -1 -1</clus>
<clus scale="  291.897">  1  5  2 -1</clus>
<clus scale="  326.915">  2  5  1 -1</clus>
</clustering>
</event>
<event>
 9    2  0.2147756E-005  0.2007262E+03  0.7546771E-02  0.1169463E+00
         21   -1    0    0  501  502  0.00000000000E+00  0.00000000000E+00  0.66989786967E+02  0.66989786967E+02  0.00000000000E+00 0.  1.
          2   -1    0    0  502    0 -0.00000000000E+00 -0.00000000000E+00 -0.47659534631E+03  0.47659534631E+03  0.00000000000E+00 0. -1.
         24    2    1    2    0    0 -0.75347006694E+02  0.55518505389E+02 -0.55886141271E+02  0.13688076015E+03  0.82786507689E+02 0.  0.
         23    2    1    2    0    0  0.23461073173E+01 -0.80628594831E+02 -0.23790791721E+03  0.26752121454E+03  0.91983414992E+02 0.  0.
        -13    1    3    3    0    0 -0.42677933761E+02  0.57296951168E+02 -0.71103889589E+02  0.10079736980E+03  0.00000000000E+00 0.  1.
         14    1    3    3    0    0 -0.32669072933E+02 -0.17784457784E+01  0.15217748318E+02  0.36083390356E+02  0.00000000000E+00 0. -1.
        -11    1    4    4    0    0  0.44101692509E+02 -0.62644426681E+02 -0.14064215791E+03  0.16015461297E+03  0.00000000000E+00 0.  1.
         11    1    4    4    0    0 -0.41755585192E+02 -0.17984168149E+02 -0.97265759307E+02  0.10736660157E+03  0.00000000000E+00 0. -1.
          1    1    1    2  501    0  0.73000899377E+02  0.25110089441E+02 -0.11581150086E+03  0.13918315858E+03  0.00000000000E+00 0. -1.
<scales pt_clust_5="13000.00000" pt_clust_6="13000.00000" pt_clust_7="13000.00000" pt_clust_8="13000.00000" pt_clust_9="13000.00000"></scales>
<clustering>
<clus scale="   82.787">  5  6 -1 -1</clus>
<clus scale="   91.983">  7  8 -1 -1</clus>
<clus scale="   77.199">  7  9 -1 -1</clus>
<clus scale="  124.952">  2  5  1 -1</clus>
<clus scale="  200.726">  1  5  2 -1</clus>
</clustering>
</event>
<event>
 9    2  0.2147756E-005  0.3230984E+03  0.7546771E-02  0.1111854E+00
          2   -1    0    0  502    0 -0.00000000000E+00  0.00000000000E+00  0.16360278508E+03  0.16360278508E+03  0.00000000000E+00 0. -1.
         21   -1    0    0  501  502  0.00000000000E+00 -0.00000000000E+00 -0.30986022102E+03  0.30986022102E+03  0.00000000000E+00 0. -1.
         24    2    1    2    0    0  0.67927096083E+02 -0.40456259317E+02 -0.77956452316E+02  0.14322427419E+03  0.90472012019E+02 0.  0.
         23    2    1    2    0    0  0.71473774215E+02 -0.78128501829E+02 -0.27023681197E+02  0.14262539573E+03  0.91646936469E+02 0.  0.
        -13    1    3    3    0    0  0.24103980079E+02  0.25593535170E+02 -0.50306139357E+01  0.35515320282E+02  0.00000000000E+00 0.  1.
         14    1    3    3    0    0  0.43823116004E+02 -0.66049794487E+02 -0.72925838381E+02  0.10770895391E+03  0.00000000000E+00 0. -1.
        -13    1    4    4    0    0  0.49146691832E+01 -0.71486602010E+02 -0.35741013929E+01  0.71744424459E+02  0.00000000000E+00 0.  1.
         13    1    4    4    0    0  0.66559105032E+02 -0.66418998184E+01 -0.23449579804E+02  0.70880971275E+02  0.00000000000E+00 0. -1.
          1    1    1    2  501    0 -0.13940087030E+03  0.11858476115E+03 -0.41277302425E+02  0.18761333618E+03  0.00000000000E+00 0. -1.
<scales pt_clust_5="13000.00000" pt_clust_6="13000.00000" pt_clust_7="13000.00000" pt_clust_8="13000.00000" pt_clust_9="13000.00000"></scales>
<clustering>
<clus scale="   90.472">  5  6 -1 -1</clus>
<clus scale="   91.647">  7  8 -1 -1</clus>
<clus scale="  120.150">  1  5  2 -1</clus>
<clus scale="  139.662">  7  9 -1 -1</clus>
<clus scale="  323.098">  2  5  1 -1</clus>
</clustering>
</event>
<event>
 9    2  0.2147756E-005  0.1615978E+03  0.7546771E-02  0.1213455E+00
          2   -1    0    0  502    0 -0.00000000000E+00  0.00000000000E+00  0.48044351744E+03  0.48044351744E+03  0.00000000000E+00 0. -1.
         21   -1    0    0  501  502  0.00000000000E+00 -0.00000000000E+00 -0.58845150814E+02  0.58845150814E+02  0.00000000000E+00 0. -1.
         24    2    1    2    0    0  0.28971431892E+00 -0.42767251478E+02  0.32889410627E+01  0.90850672461E+02  0.80086864215E+02 0.  0.
         23    2    1    2    0    0 -0.72933764791E+01 -0.37710837837E+01  0.14510025080E+03  0.17120502317E+03  0.90496755544E+02 0.  0.
        -13    1    3    3    0    0 -0.34409464579E+02  0.16149691429E+01  0.69436292928E+00  0.34454339608E+02  0.00000000000E+00 0.  1.
         14    1    3    3    0    0  0.34699178898E+02 -0.44382220621E+02  0.25945781334E+01  0.56396332852E+02  0.00000000000E+00 0. -1.
        -13    1    4    4    0    0 -0.29560967937E+02 -0.24224254872E+00  0.14568292339E+03  0.14865202210E+03  0.00000000000E+00 0. -1.
         13    1    4    4    0    0  0.22267591458E+02 -0.35288412350E+01 -0.58267259647E+00  0.22553001067E+02  0.00000000000E+00 0.  1.
          1    1    1    2  501    0  0.70036621602E+01  0.46538335262E+02  0.27320917477E+03  0.27723297263E+03  0.00000000000E+00 0. -1.
<scales pt_clust_5="13000.00000" pt_clust_6="13000.00000" pt_clust_7="13000.00000" pt_clust_8="13000.00000" pt_clust_9="13000.00000"></scales>
<clustering>
<clus scale="   80.087">  5  6 -1 -1</clus>
<clus scale="   90.497">  7  8 -1 -1</clus>
<clus scale="   47.062">  7  9 -1 -1</clus>
<clus scale="   90.791">  1  5  2 -1</clus>
<clus scale="  161.598">  2  5  1 -1</clus>
</clustering>
</event>
<event>
 9    2  0.2147756E-005  0.1847055E+03  0.7546771E-02  0.1199610E+00
         21   -1    0    0  501  502  0.00000000000E+00  0.00000000000E+00  0.42300602172E+03  0.42300602172E+03  0.00000000000E+00 0. -1.
          2   -1    0    0  502    0 -0.00000000000E+00 -0.00000000000E+00 -0.43213786168E+02  0.43213786168E+02  0.00000000000E+00 0. -1.
         24    2    1    2    0    0 -0.11777867988E+02  0.35903124598E+01  0.82488324255E+02  0.11621161033E+03  0.80927166138E+02 0.  0.
         23    2    1    2    0    0 -0.83007801520E+01  0.65716885173E+02  0.18163225142E+03  0.21367561651E+03  0.90991111594E+02 0.  0.
        -13    1    3    3    0    0  0.19553665387E+02  0.21865313483E+02  0.73068634403E+02  0.78736669330E+02  0.00000000000E+00 0.  1.
         14    1    3    3    0    0 -0.31331533375E+02 -0.18275001023E+02  0.94196898526E+01  0.37474941000E+02  0.00000000000E+00 0. -1.
        -11    1    4    4    0    0  0.35952440793E+02  0.40466315965E+02  0.54960692843E+02  0.77141289104E+02  0.00000000000E+00 0. -1.
         11    1    4    4    0    0 -0.44253220945E+02  0.25250569208E+02  0.12667155857E+03  0.13653432741E+03  0.00000000000E+00 0.  1.
          1    1    1    2  501    0  0.20078648140E+02 -0.69307197633E+02  0.11567165988E+03  0.13633258104E+03  0.00000000000E+00 0. -1.
<scales pt_clust_5="13000.00000" pt_clust_6="13000.00000" pt_clust_7="13000.00000" pt_clust_8="13000.00000" pt_clust_9="13000.00000"></scales>
<clustering>
<clus scale="   80.927">  5  6 -1 -1</clus>
<clus scale="   81.859">  2  5  1 -1</clus>
<clus scale="   90.991">  7  8 -1 -1</clus>
<clus scale="   69.638">  7  9 -1 -1</clus>
<clus scale="  184.706">  1  5  2 -1</clus>
</clustering>
</event>
<event>
 9    2  0.2147756E-005  0.4501610E+03  0.7546771E-02  0.1051553E+00
         21   -1    0    0  501  502  0.00000000000E+00  0.00000000000E+00  0.18319056836E+03  0.18319056836E+03  0.00000000000E+00 0. -1.
          4   -1    0    0  502    0 -0.00000000000E+00 -0.00000000000E+00 -0.64068935830E+03  0.64068935830E+03  0.00000000000E+00 0. -1.
         24    2    1    2    0    0  0.39081767359E+02 -0.20684622552E+03 -0.22221344764E+03  0.31593884709E+03  0.78267446841E+02 0.  0.
         23    2    1    2    0    0  0.13344384214E+03  0.72711625685E+02 -0.22875182168E+03  0.28930928020E+03  0.90984746912E+02 0.  0.
        -13    1    3    3    0    0  0.17167369098E+02 -0.62944785787E+02 -0.12469142432E+03  0.14072922908E+03  0.00000000000E+00 0.  1.
         14    1    3    3    0    0  0.21914398262E+02 -0.14390143974E+03 -0.97522023319E+02  0.17520961801E+03  0.00000000000E+00 0. -1.
        -13    1    4    4    0    0  0.26686804788E+02 -0.12557399143E+01 -0.53255753054E+00  0.26721640108E+02  0.00000000000E+00 0.  1.
         13    1    4    4    0    0  0.10675703735E+03  0.73967365599E+02 -0.22821926415E+03  0.26258764009E+03  0.00000000000E+00 0. -1.
          3    1    1    2  501    0 -0.17252560950E+03  0.13413459984E+03 -0.65335206199E+01  0.21863179938E+03  0.00000000000E+00 0. -1.
<scales pt_clust_5="13000.00000" pt_clust_6="13000.00000" pt_clust_7="13000.00000" pt_clust_8="13000.00000" pt_clust_9="13000.00000"></scales>
<clustering>
<clus scale="   78.267">  5  6 -1 -1</clus>
<clus scale="   90.985">  7  8 -1 -1</clus>
<clus scale="  218.534">  7  9 -1 -1</clus>
<clus scale="  224.585">  2  5  1 -1</clus>
<clus scale="  450.161">  1  5  2 -1</clus>
</clustering>
</event>
<event>
 9    2  0.2147756E-005  0.6552753E+03  0.7546771E-02  0.1009083E+00
          2   -1    0    0  502    0 -0.00000000000E+00  0.00000000000E+00  0.14055649374E+04  0.14055649374E+04  0.00000000000E+00 0. -1.
         21   -1    0    0  501  502  0.00000000000E+00 -0.00000000000E+00 -0.15895603248E+03  0.15895603248E+03  0.00000000000E+00 0. -1.
         24    2    1    2    0    0 -0.35270714480E+02 -0.24124366206E+03  0.55663183985E+03  0.61296744555E+03  0.80296677267E+02 0.  0.
         23    2    1    2    0    0 -0.15363961377E+03  0.12037756628E+03  0.69518418814E+03  0.72722599736E+03  0.86491077054E+02 0.  0.
        -11    1    3    3    0    0 -0.17738699925E+02 -0.37094038087E+02  0.17545652835E+03  0.18020994001E+03  0.00000000000E+00 0.  1.
         12    1    3    3    0    0 -0.17532014556E+02 -0.20414962397E+03  0.38117531149E+03  0.43275750553E+03  0.00000000000E+00 0. -1.
        -13    1    4    4    0    0 -0.41630836807E+02  0.50408840577E+02  0.11579947264E+03  0.13298005732E+03  0.00000000000E+00 0.  1.
         13    1    4    4    0    0 -0.11200877696E+03  0.69968725700E+02  0.57938471550E+03  0.59424594004E+03  0.00000000000E+00 0. -1.
          1    1    1    2  501    0  0.18891032825E+03  0.12086609578E+03 -0.52071230714E+01  0.22432752698E+03  0.00000000000E+00 0. -1.
<scales pt_clust_5="13000.00000" pt_clust_6="13000.00000" pt_clust_7="13000.00000" pt_clust_8="13000.00000" pt_clust_9="13000.00000"></scales>
<clustering>
<clus scale="   80.297">  5  6 -1 -1</clus>
<clus scale="   86.491">  7  8 -1 -1</clus>
<clus scale="  224.267">  7  9 -1 -1</clus>
<clus scale="  256.691">  1  5  2 -1</clus>
<clus scale="  655.275">  2  5  1 -1</clus>
</clustering>
</event>
<event>
 9    2  0.2147756E-005  0.4225878E+03  0.7546771E-02  0.1074252E+00
         21   -1    0    0  501  502  0.00000000000E+00  0.00000000000E+00  0.35604479720E+03  0.35604479720E+03  0.00000000000E+00 0. -1.
          2   -1    0    0  502    0 -0.00000000000E+00 -0.00000000000E+00 -0.27008121130E+03  0.27008121130E+03  0.00000000000E+00 0. -1.
         24    2    1    2    0    0  0.18249942065E+02 -0.11781633818E+03 -0.88101091942E+02  0.16909325000E+03  0.81344790048E+02 0.  0.
         23    2    1    2    0    0 -0.34187400188E+02 -0.82950667950E+02  0.21459543020E+03  0.25159630797E+03  0.95916171083E+02 0.  0.
        -11    1    3    3    0    0  0.24785909791E+02  0.97661999797E+00 -0.98272532702E+01  0.26680892369E+02  0.00000000000E+00 0.  1.
         12    1    3    3    0    0 -0.65359677260E+01 -0.11879295817E+03 -0.78273838672E+02  0.14241235763E+03  0.00000000000E+00 0. -1.
        -11    1    4    4    0    0 -0.10729044674E+01 -0.95698392967E+02  0.15110701041E+03  0.17886492707E+03  0.00000000000E+00 0. -1.
         11    1    4    4    0    0 -0.33114495721E+02  0.12747725017E+02  0.63488419792E+02  0.72731380900E+02  0.00000000000E+00 0.  1.
          1    1    1    2  501    0  0.15937458123E+02  0.20076700613E+03 -0.40530752356E+02  0.20543645053E+03  0.00000000000E+00 0. -1.
<scales pt_clust_5="13000.00000" pt_clust_6="13000.00000" pt_clust_7="13000.00000" pt_clust_8="13000.00000" pt_clust_9="13000.00000"></scales>
<clustering>
<clus scale="   81.345">  5  6 -1 -1</clus>
<clus scale="   95.916">  7  8 -1 -1</clus>
<clus scale="  144.329">  2  5  1 -1</clus>
<clus scale="  103.370">  7  9 -1 -1</clus>
<clus scale="  422.588">  1  5  2 -1</clus>
</clustering>
</event>
<event>
 9    2  0.2147756E-005  0.2936104E+03  0.7546771E-02  0.1123096E+00
         21   -1    0    0  501  502  0.00000000000E+00  0.00000000000E+00  0.49745549120E+02  0.49745549120E+02  0.00000000000E+00 0. -1.
          4   -1    0    0  502    0 -0.00000000000E+00 -0.00000000000E+00 -0.93007673357E+03  0.93007673357E+03  0.00000000000E+00 0. -1.
         24    2    1    2    0    0 -0.75737651333E+02  0.46760333278E+02 -0.39053023915E+03  0.40876009844E+03  0.81536677546E+02 0.  0.
         23    2    1    2    0    0 -0.41256628731E+02 -0.11619328032E+03 -0.31089473343E+03  0.34630447393E+03  0.89823524688E+02 0.  0.
        -13    1    3    3    0    0 -0.48363366448E+02 -0.14003389964E+02 -0.21957130247E+03  0.22527020889E+03  0.00000000000E+00 0.  1.
         14    1    3    3    0    0 -0.27374284885E+02  0.60763723242E+02 -0.17095893669E+03  0.18348988955E+03  0.00000000000E+00 0. -1.
        -11    1    4    4    0    0  0.94938471348E+01 -0.97429193546E+02 -0.18582483964E+03  0.21003202593E+03  0.00000000000E+00 0. -1.
         11    1    4    4    0    0 -0.50750475865E+02 -0.18764086772E+02 -0.12506989378E+03  0.13627244800E+03  0.00000000000E+00 0.  1.
          3    1    1    2  501    0  0.11699428006E+03  0.69432947040E+02 -0.17890621187E+03  0.22475771032E+03  0.00000000000E+00 0. -1.
<scales pt_clust_5="13000.00000" pt_clust_6="13000.00000" pt_clust_7="13000.00000" pt_clust_8="13000.00000" pt_clust_9="13000.00000"></scales>
<clustering>
<clus scale="   81.537">  5  6 -1 -1</clus>
<clus scale="   89.824">  7  8 -1 -1</clus>
<clus scale="  120.710">  2  5  1 -1</clus>
<clus scale="  124.029">  7  9 -1 -1</clus>
<clus scale="  293.610">  1  5  2 -1</clus>
</clustering>
</event>
<event>
 9    2  0.2147756E-005  0.2084248E+03  0.7546771E-02  0.1172917E+00
         21   -1    0    0  501  502  0.00000000000E+00  0.00000000000E+00  0.10814263403E+03  0.10814263403E+03  0.00000000000E+00 0.  1.
         -1   -1    0    0    0  501 -0.00000000000E+00 -0.00000000000E+00 -0.40941375980E+03  0.40941375980E+03  0.00000000000E+00 0.  1.
         24    2    1    2    0    0  0.10398408980E+02 -0.64478243528E+02 -0.29115405492E+03  0.30888615424E+03  0.79839850878E+02 0.  0.
         23    2    1    2    0    0  0.20186587940E+02  0.12528570060E+03 -0.16448416267E+02  0.14031034779E+03  0.57553785206E+02 0.  0.
        -13    1    3    3    0    0  0.23772497230E+02 -0.64140540424E+02 -0.28675835557E+03  0.29480416388E+03  0.00000000000E+00 0.  1.
         14    1    3    3    0    0 -0.13374088250E+02 -0.33770310387E+00 -0.43956993541E+01  0.14081990368E+02  0.00000000000E+00 0. -1.
        -11    1    4    4    0    0 -0.13634791171E+02  0.87043250745E+02 -0.69188352908E+01  0.88375931748E+02  0.00000000000E+00 0.  1.
         11    1    4    4    0    0  0.33821379112E+02  0.38242449851E+02 -0.95295809759E+01  0.51934416038E+02  0.00000000000E+00 0. -1.
         -2    1    1    2    0  502 -0.30584996920E+02 -0.60807457068E+02  0.63313454180E+01  0.68359891797E+02  0.00000000000E+00 0.  1.
<scales pt_clust_5="13000.00000" pt_clust_6="13000.00000" pt_clust_7="13000.00000" pt_clust_8="13000.00000" pt_clust_9="13000.00000"></scales>
<clustering>
<clus scale="   57.554">  7  8 -1 -1</clus>
<clus scale="   68.066">  7  9 -1 -1</clus>
<clus scale="   79.840">  5  6 -1 -1</clus>
<clus scale="  103.150">  2  5  1 -1</clus>
<clus scale="  208.425">  1  5  2 -1</clus>
</clustering>
</event>
<event>
 9    2  0.2147756E-005  0.2276797E+03  0.7546771E-02  0.1167260E+00
         -3   -1    0    0    0  501 -0.00000000000E+00  0.00000000000E+00  0.31149244743E+02  0.31149244743E+02  0.00000000000E+00 0.  1.
         21   -1    0    0  501  502  0.00000000000E+00 -0.00000000000E+00 -0.94805064273E+03  0.94805064273E+03  0.00000000000E+00 0.  1.
         24    2    1    2    0    0 -0.31727220295E+02 -0.22156200819E+02 -0.11771692643E+03  0.14821621834E+03  0.81321945796E+02 0.  0.
         23    2    1    2    0    0 -0.42819731465E+02 -0.56242078108E+02 -0.35310211774E+03  0.37197059248E+03  0.93189674121E+02 0.  0.
        -11    1    3    3    0    0  0.29009539386E+01 -0.20586487438E+02  0.44208918222E+01  0.21254723788E+02  0.00000000000E+00 0.  1.
         12    1    3    3    0    0 -0.34628174234E+02 -0.15697133811E+01 -0.12213781826E+03  0.12696149455E+03  0.00000000000E+00 0. -1.
        -13    1    4    4    0    0  0.10094326508E+02 -0.62144283483E+02 -0.21228308503E+03  0.22142248212E+03  0.00000000000E+00 0. -1.
         13    1    4    4    0    0 -0.52914057974E+02  0.59022053749E+01 -0.14081903271E+03  0.15054811036E+03  0.00000000000E+00 0.  1.
         -4    1    1    2    0  502  0.74546951760E+02  0.78398278927E+02 -0.44608235381E+03  0.45901307665E+03  0.00000000000E+00 0.  1.
<scales pt_clust_5="13000.00000" pt_clust_6="13000.00000" pt_clust_7="13000.00000" pt_clust_8="13000.00000" pt_clust_9="13000.00000"></scales>
<clustering>
<clus scale="   81.322">  5  6 -1 -1</clus>
<clus scale="   90.060">  1  5  2 -1</clus>
<clus scale="   93.190">  7  8 -1 -1</clus>
<clus scale="   92.817">  7  9 -1 -1</clus>
<clus scale="  227.680">  2  5  1 -1</clus>
</clustering>
</event>
<event>
 9    2  0.2147756E-005  0.2936749E+03  0.7546771E-02  0.1138185E+00
         21   -1    0    0  501  502  0.00000000000E+00  0.00000000000E+00  0.10302319640E+03  0.10302319640E+03  0.00000000000E+00 0.  1.
          2   -1    0    0  502    0 -0.00000000000E+00 -0.00000000000E+00 -0.10799490004E+04  0.10799490004E+04  0.00000000000E+00 0. -1.
         24    2    1    2    0    0 -0.15323709114E+01  0.30764128665E+02 -0.86451269853E+03  0.86851769693E+03  0.77408036906E+02 0.  0.
         23    2    1    2    0    0 -0.84877784355E+02  0.79843489540E+02 -0.29624148890E+02  0.15149815152E+03  0.92167665786E+02 0.  0.
        -13    1    3    3    0    0  0.15523875827E+02 -0.17446172036E+02 -0.12002692143E+03  0.12227764108E+03  0.00000000000E+00 0.  1.
         14    1    3    3    0    0 -0.17056246738E+02  0.48210300701E+02 -0.74448577711E+03  0.74624005585E+03  0.00000000000E+00 0. -1.
        -13    1    4    4    0    0 -0.42816269063E+02 -0.44687345664E+01 -0.37305293695E+02  0.56963913338E+02  0.00000000000E+00 0. -1.
         13    1    4    4    0    0 -0.42061515292E+02  0.84312224106E+02  0.76811448057E+01  0.94534238178E+02  0.00000000000E+00 0.  1.
          1    1    1    2  501    0  0.86410155267E+02 -0.11060761820E+03 -0.82788956585E+02  0.16295634836E+03  0.00000000000E+00 0. -1.
<scales pt_clust_5="13000.00000" pt_clust_6="13000.00000" pt_clust_7="13000.00000" pt_clust_8="13000.00000" pt_clust_9="13000.00000"></scales>
<clustering>
<clus scale="   77.408">  5  6 -1 -1</clus>
<clus scale="   83.311">  2  5  1 -1</clus>
<clus scale="   92.168">  7  8 -1 -1</clus>
<clus scale="  126.273">  7  9 -1 -1</clus>
<clus scale="  293.675">  1  5  2 -1</clus>
</clustering>
</event>
<event>
 9    2  0.2147756E-005  0.3717673E+03  0.7546771E-02  0.1097408E+00
          2   -1    0    0  502    0 -0.00000000000E+00  0.00000000000E+00  0.10439222479E+04  0.10439222479E+04  0.00000000000E+00 0. -1.
         21   -1    0    0  501  502  0.00000000000E+00 -0.00000000000E+00 -0.11616191344E+03  0.11616191344E+03  0.00000000000E+00 0. -1.
         24    2    1    2    0    0 -0.11583088480E+02 -0.80233580640E+02  0.73016406897E+03  0.73906729756E+03  0.80680278315E+02 0.  0.
         23    2    1    2    0    0  0.17106524205E+03  0.22052306476E+01  0.12147415744E+03  0.22783933910E+03  0.88806606945E+02 0.  0.
        -11    1    3    3    0    0  0.23598279095E+02  0.15984462603E+00  0.95878063586E+02  0.98739593900E+02  0.00000000000E+00 0.  1.
         12    1    3    3    0    0 -0.35181367575E+02 -0.80393425266E+02  0.63428600538E+03  0.64032770366E+03  0.00000000000E+00 0. -1.
        -11    1    4    4    0    0  0.85711428465E+01  0.25997882404E+02  0.91053049071E+01  0.28848933371E+02  0.00000000000E+00 0.  1.
         11    1    4    4    0    0  0.16249409920E+03 -0.23792651757E+02  0.11236885253E+03  0.19899040573E+03  0.00000000000E+00 0. -1.
          1    1    1    2  501    0 -0.15948215357E+03  0.78028349992E+02  0.76122108072E+02  0.19317752469E+03  0.00000000000E+00 0. -1.
<scales pt_clust_5="13000.00000" pt_clust_6="13000.00000" pt_clust_7="13000.00000" pt_clust_8="13000.00000" pt_clust_9="13000.00000"></scales>
<clustering>
<clus scale="   80.680">  5  6 -1 -1</clus>
<clus scale="   88.807">  7  8 -1 -1</clus>
<clus scale="  114.372">  1  5  2 -1</clus>
<clus scale="  170.077">  7  9 -1 -1</clus>
<clus scale="  371.767">  2  5  1 -1</clus>
</clustering>
</event>
<event>
 9    2  0.2147756E-005  0.1739639E+03  0.7546771E-02  0.1201315E+00
         21   -1    0    0  501  502  0.00000000000E+00  0.00000000000E+00  0.35650324287E+02  0.35650324287E+02  0.00000000000E+00 0.  1.
         -1   -1    0    0    0  501 -0.00000000000E+00 -0.00000000000E+00 -0.50722879217E+03  0.50722879217E+03  0.00000000000E+00 0.  1.
         24    2    1    2    0    0 -0.21846505841E+01 -0.49270827573E+02 -0.14943794172E+03  0.17676717375E+03  0.80514272890E+02 0.  0.
         23    2    1    2    0    0  0.23246419740E+02 -0.42607348180E+01 -0.98518410272E+02  0.13520919910E+03  0.89538262593E+02 0.  0.
        -13    1    3    3    0    0 -0.32544588262E+02 -0.35030427950E+02 -0.12880632036E+03  0.13739486625E+03  0.00000000000E+00 0.  1.
         14    1    3    3    0    0  0.30359937678E+02 -0.14240399622E+02 -0.20631621364E+02  0.39372307493E+02  0.00000000000E+00 0. -1.
        -11    1    4    4    0    0 -0.27288861704E+02 -0.23694982403E+02 -0.25169150857E+02  0.44041120774E+02  0.00000000000E+00 0. -1.
         11    1    4    4    0    0  0.50535281444E+02  0.19434247585E+02 -0.73349259414E+02  0.91168078330E+02  0.00000000000E+00 0.  1.
         -2    1    1    2    0  502 -0.21061769156E+02  0.53531562391E+02 -0.22362211589E+03  0.23090274361E+03  0.00000000000E+00 0.  1.
<scales pt_clust_5="13000.00000" pt_clust_6="13000.00000" pt_clust_7="13000.00000" pt_clust_8="13000.00000" pt_clust_9="13000.00000"></scales>
<clustering>
<clus scale="   80.514">  5  6 -1 -1</clus>
<clus scale="   89.538">  7  8 -1 -1</clus>
<clus scale="   57.526">  7  9 -1 -1</clus>
<clus scale="   94.419">  2  5  1 -1</clus>
<clus scale="  173.964">  1  5  2 -1</clus>
</clustering>
</event>
<event>
 9    2  0.2147756E-005  0.1754704E+03  0.7546771E-02  0.1206852E+00
         -1   -1    0    0    0  501 -0.00000000000E+00  0.00000000000E+00  0.21362231078E+03  0.21362231078E+03  0.00000000000E+00 0.  1.
         21   -1    0    0  501  502  0.00000000000E+00 -0.00000000000E+00 -0.96263479879E+02  0.96263479879E+02  0.00000000000E+00 0.  1.
         24    2    1    2    0    0  0.15333987645E+02  0.11685041144E+02 -0.23397791183E+02  0.84936253262E+02  0.79341282586E+02 0.  0.
         23    2    1    2    0    0 -0.49582484308E+02 -0.65137641631E+01  0.15586374152E+03  0.18716162019E+03  0.90747530421E+02 0.  0.
        -13    1    3    3    0    0 -0.22801699202E+02 -0.14326209141E+02 -0.27628460062E+02  0.38580948152E+02  0.00000000000E+00 0.  1.
         14    1    3    3    0    0  0.38135686847E+02  0.26011250285E+02  0.42306688797E+01  0.46355305111E+02  0.00000000000E+00 0. -1.
        -13    1    4    4    0    0 -0.30227646734E+02  0.41681234320E+02  0.83261705351E+02  0.97895594893E+02  0.00000000000E+00 0. -1.
         13    1    4    4    0    0 -0.19354837574E+02 -0.48194998483E+02  0.72602036169E+02  0.89266025297E+02  0.00000000000E+00 0.  1.
         -2    1    1    2    0  502  0.34248496663E+02 -0.51712769810E+01 -0.15107119437E+02  0.37787917208E+02  0.00000000000E+00 0.  1.
<scales pt_clust_5="13000.00000" pt_clust_6="13000.00000" pt_clust_7="13000.00000" pt_clust_8="13000.00000" pt_clust_9="13000.00000"></scales>
<clustering>
<clus scale="   79.341">  5  6 -1 -1</clus>
<clus scale="   81.650">  1  5  2 -1</clus>
<clus scale="   90.748">  7  8 -1 -1</clus>
<clus scale="   35.479">  7  9 -1 -1</clus>
<clus scale="  175.470">  2  5  1 -1</clus>
</clustering>
</event>
<event>
 9    2  0.2147756E-005  0.2004454E+03  0.7546771E-02  0.1181351E+00
         -3   -1    0    0    0  501 -0.00000000000E+00  0.00000000000E+00  0.83956554932E+02  0.83956554932E+02  0.00000000000E+00 0.  1.
         21   -1    0    0  501  502  0.00000000000E+00 -0.00000000000E+00 -0.26194478844E+03  0.26194478844E+03  0.00000000000E+00 0.  1.
         24    2    1    2    0    0  0.25606126943E+02 -0.45459959913E+02 -0.50373740910E+02  0.10828021920E+03  0.80404044702E+02 0.  0.
         23    2    1    2    0    0  0.17100225916E+02 -0.81814021388E+01 -0.54586932106E+01  0.97538050172E+02  0.95522357762E+02 0.  0.
        -11    1    3    3    0    0 -0.99294303948E+01 -0.42529931171E+02  0.33486829609E+01  0.43801852825E+02  0.00000000000E+00 0.  1.
         12    1    3    3    0    0  0.35535557338E+02 -0.29300287416E+01 -0.53722423871E+02  0.64478366375E+02  0.00000000000E+00 0. -1.
        -11    1    4    4    0    0 -0.30630511651E+02 -0.24959473036E+02  0.15938552877E+02  0.42605645237E+02  0.00000000000E+00 0.  1.
         11    1    4    4    0    0  0.47730737568E+02  0.16778070897E+02 -0.21397246087E+02  0.54932404935E+02  0.00000000000E+00 0. -1.
         -4    1    1    2    0  502 -0.42706352859E+02  0.53641362051E+02 -0.12215579939E+03  0.14008307400E+03  0.00000000000E+00 0.  1.
<scales pt_clust_5="13000.00000" pt_clust_6="13000.00000" pt_clust_7="13000.00000" pt_clust_8="13000.00000" pt_clust_9="13000.00000"></scales>
<clustering>
<clus scale="   80.404">  5  6 -1 -1</clus>
<clus scale="   95.522">  7  8 -1 -1</clus>
<clus scale="   68.566">  7  9 -1 -1</clus>
<clus scale="   95.849">  1  5  2 -1</clus>
<clus scale="  200.445">  2  5  1 -1</clus>
</clustering>
</event>
<event>
 9    2  0.2147756E-005  0.1234308E+03  0.7546771E-02  0.1251548E+00
         21   -1    0    0  501  502  0.00000000000E+00  0.00000000000E+00  0.71167697205E+02  0.71167697205E+02  0.00000000000E+00 0.  1.
          2   -1    0    0  502    0 -0.00000000000E+00 -0.00000000000E+00 -0.25310679068E+03  0.25310679068E+03  0.00000000000E+00 0. -1.
         24    2    1    2    0    0 -0.24676092782E+02 -0.11223316081E+02 -0.17790382982E+03  0.20077771697E+03  0.89033963130E+02 0.  0.
         23    2    1    2    0    0  0.33192340750E+02 -0.11694527235E+02 -0.11852554405E+02  0.97828423543E+02  0.90506485709E+02 0.  0.
        -13    1    3    3    0    0  0.21467543997E+01  0.33169802673E+02 -0.11247849469E+03  0.11728706720E+03  0.00000000000E+00 0.  1.
         14    1    3    3    0    0 -0.26822847182E+02 -0.44393118754E+02 -0.65425335125E+02  0.83490649775E+02  0.00000000000E+00 0. -1.
        -13    1    4    4    0    0  0.36162980142E+02 -0.47279966579E+02 -0.16623060773E+02  0.61801962120E+02  0.00000000000E+00 0.  1.
         13    1    4    4    0    0 -0.29706393916E+01  0.35585439344E+02  0.47705063677E+01  0.36026461424E+02  0.00000000000E+00 0. -1.
          1    1    1    2  501    0 -0.85162479679E+01  0.22917843316E+02  0.78172907517E+01  0.25668347364E+02  0.00000000000E+00 0. -1.
<scales pt_clust_5="13000.00000" pt_clust_6="13000.00000" pt_clust_7="13000.00000" pt_clust_8="13000.00000" pt_clust_9="13000.00000"></scales>
<clustering>
<clus scale="   89.034">  5  6 -1 -1</clus>
<clus scale="   90.506">  7  8 -1 -1</clus>
<clus scale="   24.449">  7  9 -1 -1</clus>
<clus scale="   93.069">  2  5  1 -1</clus>
<clus scale="  123.431">  1  5  2 -1</clus>
</clustering>
</event>
<event>
 9    2  0.2147756E-005  0.4322301E+03  0.7546771E-02  0.1092064E+00
          2   -1    0    0  502    0 -0.00000000000E+00  0.00000000000E+00  0.47497895381E+03  0.47497895381E+03  0.00000000000E+00 0. -1.
         21   -1    0    0  501  502  0.00000000000E+00 -0.00000000000E+00 -0.14401986855E+03  0.14401986855E+03  0.00000000000E+00 0. -1.
         24    2    1    2    0    0 -0.15854990409E+02  0.16023276569E+02  0.18711392662E+02  0.85780774476E+02  0.80623191090E+02 0.  0.
         23    2    1    2    0    0 -0.37289264138E+02  0.24481091851E+02  0.40546039622E+03  0.41852923515E+03  0.93695115635E+02 0.  0.
        -13    1    3    3    0    0  0.48050402357E+01 -0.25260899590E+02  0.28713699579E+02  0.38544493813E+02  0.00000000000E+00 0.  1.
         14    1    3    3    0    0 -0.20660030644E+02  0.41284176158E+02 -0.10002306917E+02  0.47236280664E+02  0.00000000000E+00 0. -1.
        -13    1    4    4    0    0  0.11894830650E+02  0.47843971527E+02  0.19682288631E+03  0.20290337894E+03  0.00000000000E+00 0.  1.
         13    1    4    4    0    0 -0.49184094789E+02 -0.23362879677E+02  0.20863750990E+03  0.21562585621E+03  0.00000000000E+00 0. -1.
          1    1    1    2  501    0  0.53144254547E+02 -0.40504368419E+02 -0.93212703611E+02  0.11468881274E+03  0.00000000000E+00 0. -1.
<scales pt_clust_5="13000.00000" pt_clust_6="13000.00000" pt_clust_7="13000.00000" pt_clust_8="13000.00000" pt_clust_9="13000.00000"></scales>
<clustering>
<clus scale="   80.623">  5  6 -1 -1</clus>
<clus scale="   83.715">  1  5  2 -1</clus>
<clus scale="   93.695">  7  8 -1 -1</clus>
<clus scale="   66.253">  7  9 -1 -1</clus>
<clus scale="  432.230">  2  5  1 -1</clus>
</clustering>
</event>
<event>
 9    2  0.2147756E-005  0.2834174E+03  0.7546771E-02  0.1130386E+00
          2   -1    0    0  502    0 -0.00000000000E+00  0.00000000000E+00  0.11776856828E+04  0.11776856828E+04  0.00000000000E+00 0. -1.
         21   -1    0    0  501  502  0.00000000000E+00 -0.00000000000E+00 -0.93454028928E+02  0.93454028928E+02  0.00000000000E+00 0.  1.
         24    2    1    2    0    0 -0.75876358764E+00  0.77769141071E+02  0.95167808320E+03  0.95825652709E+03  0.80720397921E+02 0.  0.
         23    2    1    2    0    0  0.12050358962E+03 -0.54178551940E+02  0.72895594604E+02  0.17703616270E+03  0.92582960575E+02 0.  0.
        -11    1    3    3    0    0  0.31437993528E+02  0.16391015949E+02  0.17909079325E+03  0.18256649493E+03  0.00000000000E+00 0.  1.
         12    1    3    3    0    0 -0.32196757116E+02  0.61378125122E+02  0.77258728994E+03  0.77569003216E+03  0.00000000000E+00 0. -1.
        -11    1    4    4    0    0  0.76139176681E+02 -0.79120206792E+02  0.42417601165E+02  0.11771335624E+03  0.00000000000E+00 0.  1.
         11    1    4    4    0    0  0.44364412943E+02  0.24941654852E+02  0.30477993439E+02  0.59322806463E+02  0.00000000000E+00 0. -1.
          1    1    1    2  501    0 -0.11974482604E+03 -0.23590589131E+02  0.59657976052E+02  0.13584702192E+03  0.00000000000E+00 0. -1.
<scales pt_clust_5="13000.00000" pt_clust_6="13000.00000" pt_clust_7="13000.00000" pt_clust_8="13000.00000" pt_clust_9="13000.00000"></scales>
<clustering>
<clus scale="   80.720">  5  6 -1 -1</clus>
<clus scale="   92.583">  7  8 -1 -1</clus>
<clus scale="  112.091">  1  5  2 -1</clus>
<clus scale="  120.540">  7  9 -1 -1</clus>
<clus scale="  283.417">  2  5  1 -1</clus>
</clustering>
</event>
<event>
 9    2  0.2147756E-005  0.1988990E+03  0.7546771E-02  0.1165232E+00
         21   -1    0    0  501  502  0.00000000000E+00  0.00000000000E+00  0.28514386588E+02  0.28514386588E+02  0.00000000000E+00 0. -1.
          2   -1    0    0  502    0 -0.00000000000E+00 -0.00000000000E+00 -0.10336017118E+04  0.10336017118E+04  0.00000000000E+00 0. -1.
         24    2    1    2    0    0 -0.88353974129E+02 -0.77290925718E+02 -0.35129924418E+03  0.37874235911E+03  0.79084155657E+02 0.  0.
         23    2    1    2    0    0 -0.16652440048E+02  0.86250018455E+01 -0.20446097945E+03  0.21685878740E+03  0.69797902095E+02 0.  0.
        -13    1    3    3    0    0 -0.45335112181E+02  0.68366269967E+01 -0.13898366439E+03  0.14635050678E+03  0.00000000000E+00 0.  1.
         14    1    3    3    0    0 -0.43018861949E+02 -0.84127552714E+02 -0.21231557979E+03  0.23239185233E+03  0.00000000000E+00 0. -1.
        -11    1    4    4    0    0  0.72530761150E+01  0.35356788589E+02 -0.92386403495E+02  0.99186476715E+02  0.00000000000E+00 0. -1.
         11    1    4    4    0    0 -0.23905516163E+02 -0.26731786743E+02 -0.11207457596E+03  0.11767231068E+03  0.00000000000E+00 0.  1.
          1    1    1    2  501    0  0.10500641418E+03  0.68665923872E+02 -0.44932710159E+03  0.46651495190E+03  0.00000000000E+00 0. -1.
<scales pt_clust_5="13000.00000" pt_clust_6="13000.00000" pt_clust_7="13000.00000" pt_clust_8="13000.00000" pt_clust_9="13000.00000"></scales>
<clustering>
<clus scale="   69.798">  7  8 -1 -1</clus>
<clus scale="   79.084">  5  6 -1 -1</clus>
<clus scale="  125.465">  7  9 -1 -1</clus>
<clus scale="  141.544">  2  5  1 -1</clus>
<clus scale="  198.899">  1  5  2 -1</clus>
</clustering>
</event>
<event>
 9    2  0.2147756E-005  0.2225985E+03  0.7546771E-02  0.1166447E+00
         -3   -1    0    0    0  501 -0.00000000000E+00  0.00000000000E+00  0.26947020624E+02  0.26947020624E+02  0.00000000000E+00 0.  1.
         21   -1    0    0  501  502  0.00000000000E+00 -0.00000000000E+00 -0.96599624681E+03  0.96599624681E+03  0.00000000000E+00 0.  1.
         24    2    1    2    0    0 -0.40727725429E+02 -0.39255991505E+02 -0.33911383934E+03  0.35304283101E+03  0.80257485674E+02 0.  0.
         23    2    1    2    0    0 -0.12572792310E+02 -0.52895101748E+02 -0.20533163856E+03  0.23118918464E+03  0.91276450428E+02 0.  0.
        -11    1    3    3    0    0 -0.39922256895E+02 -0.62402826226E+02 -0.27755673282E+03  0.28727276106E+03  0.00000000000E+00 0.  1.
         12    1    3    3    0    0 -0.80546853452E+00  0.23146834721E+02 -0.61557106526E+02  0.65770069948E+02  0.00000000000E+00 0. -1.
        -13    1    4    4    0    0 -0.39611719456E+02 -0.42371143057E+01 -0.13899311423E+03  0.14458951296E+03  0.00000000000E+00 0. -1.
         13    1    4    4    0    0  0.27038927145E+02 -0.48657987443E+02 -0.66338524332E+02  0.86599671672E+02  0.00000000000E+00 0.  1.
         -4    1    1    2    0  502  0.53300517740E+02  0.92151093254E+02 -0.39460374828E+03  0.40871125179E+03  0.00000000000E+00 0.  1.
<scales pt_clust_5="13000.00000" pt_clust_6="13000.00000" pt_clust_7="13000.00000" pt_clust_8="13000.00000" pt_clust_9="13000.00000"></scales>
<clustering>
<clus scale="   80.257">  5  6 -1 -1</clus>
<clus scale="   91.276">  7  8 -1 -1</clus>
<clus scale="   98.189">  1  5  2 -1</clus>
<clus scale="   87.436">  7  9 -1 -1</clus>
<clus scale="  222.599">  2  5  1 -1</clus>
</clustering>
</event>
<event>
 9    2  0.2391491E-005  0.3391620E+03  0.7546771E-02  0.1105040E+00
          2   -1    0    0  502    0 -0.00000000000E+00  0.00000000000E+00  0.56215711273E+03  0.56215711273E+03  0.00000000000E+00 0. -1.
         21   -1    0    0  501  502  0.00000000000E+00 -0.00000000000E+00 -0.10859224239E+03  0.10859224239E+03  0.00000000000E+00 0. -1.
         24    2    1    2    0    0 -0.21291923243E+02 -0.90809944281E+02  0.23994663407E+03  0.26992072737E+03  0.81135811363E+02 0.  0.
         23    2    1    2    0    0  0.32519329851E+01 -0.10676843212E+03  0.97728399482E+02  0.17106111407E+03  0.91109777284E+02 0.  0.
        -11    1    3    3    0    0 -0.30923080241E+02 -0.62238984538E+01  0.30690826540E+02  0.44010233324E+02  0.00000000000E+00 0.  1.
         12    1    3    3    0    0  0.96311569984E+01 -0.84586045827E+02  0.20925580753E+03  0.22591049405E+03  0.00000000000E+00 0. -1.
        -11    1    4    4    0    0  0.24097221373E+02 -0.86299696958E+02  0.25516386027E+02  0.93163296039E+02  0.00000000000E+00 0.  1.
         11    1    4    4    0    0 -0.20845288387E+02 -0.20468735161E+02  0.72212013455E+02  0.77897818033E+02  0.00000000000E+00 0. -1.
          1    1    1    2  501    0  0.18039990257E+02  0.19757837640E+03  0.11588983678E+03  0.22976751367E+03  0.00000000000E+00 0. -1.
<scales pt_clust_5="13000.00000" pt_clust_6="13000.00000" pt_clust_7="13000.00000" pt_clust_8="13000.00000" pt_clust_9="13000.00000"></scales>
<clustering>
<clus scale="   81.136">  5  6 -1 -1</clus>
<clus scale="   91.110">  7  8 -1 -1</clus>
<clus scale="  123.624">  1  5  2 -1</clus>
<clus scale="  146.619">  7  9 -1 -1</clus>
<clus scale="  339.162">  2  5  1 -1</clus>
</clustering>
</event>
<event>
 9    2  0.2147756E-005  0.2247127E+03  0.7546771E-02  0.1154347E+00
         21   -1    0    0  501  502  0.00000000000E+00  0.00000000000E+00  0.12979081051E+03  0.12979081051E+03  0.00000000000E+00 0.  1.
          2   -1    0    0  502    0 -0.00000000000E+00 -0.00000000000E+00 -0.63105624341E+03  0.63105624341E+03  0.00000000000E+00 0. -1.
         24    2    1    2    0    0 -0.81584836533E+02  0.55244136451E+02  0.71706937617E+02  0.14538533327E+03  0.79290668206E+02 0.  0.
         23    2    1    2    0    0  0.10505832811E+03  0.24016424355E+02 -0.33572552431E+03  0.36422615918E+03  0.91296365834E+02 0.  0.
        -13    1    3    3    0    0 -0.30990549780E+02  0.53467907814E+02  0.71834340905E+02  0.94759716519E+02  0.00000000000E+00 0.  1.
         14    1    3    3    0    0 -0.50594286753E+02  0.17762286370E+01 -0.12740328712E+00  0.50625616755E+02  0.00000000000E+00 0. -1.
        -13    1    4    4    0    0  0.11215654003E+02  0.41169651336E+02 -0.70991893758E+02  0.82828618636E+02  0.00000000000E+00 0.  1.
         13    1    4    4    0    0  0.93842674106E+02 -0.17153226981E+02 -0.26473363056E+03  0.28139754055E+03  0.00000000000E+00 0. -1.
          1    1    1    2  501    0 -0.23473491575E+02 -0.79260560806E+02 -0.23724684621E+03  0.25123556146E+03  0.00000000000E+00 0. -1.
<scales pt_clust_5="13000.00000" pt_clust_6="13000.00000" pt_clust_7="13000.00000" pt_clust_8="13000.00000" pt_clust_9="13000.00000"></scales>
<clustering>
<clus scale="   79.291">  5  6 -1 -1</clus>
<clus scale="   91.296">  7  8 -1 -1</clus>
<clus scale="   82.663">  7  9 -1 -1</clus>
<clus scale="  126.471">  2  5  1 -1</clus>
<clus scale="  224.713">  1  5  2 -1</clus>
</clustering>
</event>
<event>
 9    2  0.2147756E-005  0.2319268E+03  0.7546771E-02  0.1150931E+00
         -1   -1    0    0    0  501 -0.00000000000E+00  0.00000000000E+00  0.34070881894E+03  0.34070881894E+03  0.00000000000E+00 0.  1.
         21   -1    0    0  501  502  0.00000000000E+00 -0.00000000000E+00 -0.96720110824E+02  0.96720110824E+02  0.00000000000E+00 0.  1.
         24    2    1    2    0    0 -0.80240361981E+02  0.53384023471E+02  0.12581366033E+03  0.17713029034E+03  0.79105581200E+02 0.  0.
         23    2    1    2    0    0  0.12362282781E+03 -0.62027406040E+02  0.40327942925E+02  0.17076139500E+03  0.91668469969E+02 0.  0.
        -11    1    3    3    0    0 -0.84095109632E+02  0.20605602708E+02  0.66202666854E+02  0.10899252922E+03  0.00000000000E+00 0.  1.
         12    1    3    3    0    0  0.38547476509E+01  0.32778420763E+02  0.59610993477E+02  0.68137761120E+02  0.00000000000E+00 0. -1.
        -13    1    4    4    0    0  0.12012769091E+03 -0.26888742420E+02  0.87860096622E+01  0.12341337269E+03  0.00000000000E+00 0.  1.
         13    1    4    4    0    0  0.34951368985E+01 -0.35138663620E+02  0.31541933263E+02  0.47348022313E+02  0.00000000000E+00 0. -1.
         -2    1    1    2    0  502 -0.43382465829E+02  0.86433825684E+01  0.77847104863E+02  0.89537244425E+02  0.00000000000E+00 0.  1.
<scales pt_clust_5="13000.00000" pt_clust_6="13000.00000" pt_clust_7="13000.00000" pt_clust_8="13000.00000" pt_clust_9="13000.00000"></scales>
<clustering>
<clus scale="   79.106">  5  6 -1 -1</clus>
<clus scale="   91.668">  7  8 -1 -1</clus>
<clus scale="   44.235">  7  9 -1 -1</clus>
<clus scale="  124.684">  1  5  2 -1</clus>
<clus scale="  231.927">  2  5  1 -1</clus>
</clustering>
</event>
<event>
 9    2  0.2147756E-005  0.2671779E+03  0.7546771E-02  0.1114315E+00
         21   -1    0    0  501  502  0.00000000000E+00  0.00000000000E+00  0.50082304285E+03  0.50082304285E+03  0.00000000000E+00 0.  1.
         -1   -1    0    0    0  501 -0.00000000000E+00 -0.00000000000E+00 -0.13194320399E+03  0.13194320399E+03  0.00000000000E+00 0.  1.
         24    2    1    2    0    0 -0.16603861339E+03 -0.77394371171E+02  0.29384477087E+03  0.35525180484E+03  0.79374968654E+02 0.  0.
         23    2    1    2    0    0  0.91249801052E+01 -0.13794121175E+01  0.32120710983E+02  0.96769208919E+02  0.90815041051E+02 0.  0.
        -13    1    3    3    0    0 -0.76020583342E+02 -0.33501378409E+02  0.20568286672E+03  0.22182631294E+03  0.00000000000E+00 0.  1.
         14    1    3    3    0    0 -0.90018030047E+02 -0.43892992762E+02  0.88161904149E+02  0.13342549191E+03  0.00000000000E+00 0. -1.
        -13    1    4    4    0    0 -0.11216548634E+02  0.41543319268E+02  0.21475334677E+02  0.48092081870E+02  0.00000000000E+00 0. -1.
         13    1    4    4    0    0  0.20341528739E+02 -0.42922731386E+02  0.10645376306E+02  0.48677127049E+02  0.00000000000E+00 0.  1.
         -2    1    1    2    0  502  0.15691363328E+03  0.78773783288E+02  0.42914357003E+02  0.18074523308E+03  0.00000000000E+00 0.  1.
<scales pt_clust_5="13000.00000" pt_clust_6="13000.00000" pt_clust_7="13000.00000" pt_clust_8="13000.00000" pt_clust_9="13000.00000"></scales>
<clustering>
<clus scale="   79.375">  5  6 -1 -1</clus>
<clus scale="   90.815">  7  8 -1 -1</clus>
<clus scale="  175.577">  7  9 -1 -1</clus>
<clus scale="  199.648">  2  5  1 -1</clus>
<clus scale="  267.178">  1  5  2 -1</clus>
</clustering>
</event>
<event>
 9    2  0.2147756E-005  0.1395363E+03  0.7546771E-02  0.1238300E+00
          4   -1    0    0  502    0 -0.00000000000E+00  0.00000000000E+00  0.29327968426E+03  0.29327968426E+03  0.00000000000E+00 0. -1.
         21   -1    0    0  501  502  0.00000000000E+00 -0.00000000000E+00 -0.43902598117E+02  0.43902598117E+02  0.00000000000E+00 0.  1.
         24    2    1    2    0    0  0.27745432748E+01 -0.22156745518E+02  0.66987509439E+02  0.10753833706E+03  0.81108248991E+02 0.  0.
         23    2    1    2    0    0 -0.31741194724E+02  0.38587368602E+02  0.13855786279E+03  0.17459622588E+03  0.93750052217E+02 0.  0.
        -13    1    3    3    0    0 -0.27903348112E+02  0.96659889760E+01  0.53866703057E+02  0.61430040509E+02  0.00000000000E+00 0.  1.
         14    1    3    3    0    0  0.30677891387E+02 -0.31822734494E+02  0.13120806381E+02  0.46108296550E+02  0.00000000000E+00 0. -1.
        -11    1    4    4    0    0 -0.53483638710E+02  0.55271172231E+02  0.11558458568E+03  0.13883514878E+03  0.00000000000E+00 0. -1.
         11    1    4    4    0    0  0.21742443986E+02 -0.16683803629E+02  0.22973277116E+02  0.35761077102E+02  0.00000000000E+00 0.  1.
          3    1    1    2  501    0  0.28966651449E+02 -0.16430623083E+02  0.43831713910E+02  0.55047719438E+02  0.00000000000E+00 0. -1.
<scales pt_clust_5="13000.00000" pt_clust_6="13000.00000" pt_clust_7="13000.00000" pt_clust_8="13000.00000" pt_clust_9="13000.00000"></scales>
<clustering>
<clus scale="   81.108">  5  6 -1 -1</clus>
<clus scale="   84.126">  1  5  2 -1</clus>
<clus scale="   93.750">  7  8 -1 -1</clus>
<clus scale="   36.757">  7  9 -1 -1</clus>
<clus scale="  139.536">  2  5  1 -1</clus>
</clustering>
</event>
<event>
 9    2  0.2147756E-005  0.2831871E+03  0.7546771E-02  0.1131303E+00
         21   -1    0    0  501  502  0.00000000000E+00  0.00000000000E+00  0.53682901336E+02  0.53682901336E+02  0.00000000000E+00 0. -1.
          2   -1    0    0  502    0 -0.00000000000E+00 -0.00000000000E+00 -0.79394565117E+03  0.79394565117E+03  0.00000000000E+00 0. -1.
         24    2    1    2    0    0  0.10244187098E+02  0.74534873093E+02 -0.10440606081E+03  0.15156199376E+03  0.80062611401E+02 0.  0.
         23    2    1    2    0    0  0.34049483484E+02  0.71040170261E+02 -0.18937897979E+03  0.22437135276E+03  0.90950716524E+02 0.  0.
        -11    1    3    3    0    0 -0.20874272796E+02  0.54628888090E+02 -0.97922982223E+02  0.11405683288E+03  0.00000000000E+00 0.  1.
         12    1    3    3    0    0  0.31118459895E+02  0.19905985002E+02 -0.64830785828E+01  0.37505160885E+02  0.00000000000E+00 0. -1.
        -13    1    4    4    0    0  0.16653106772E+02  0.90613551620E+02 -0.12865102391E+03  0.15823788312E+03  0.00000000000E+00 0. -1.
         13    1    4    4    0    0  0.17396376712E+02 -0.19573381359E+02 -0.60727955886E+02  0.66133469640E+02  0.00000000000E+00 0.  1.
          1    1    1    2  501    0 -0.44293670582E+02 -0.14557504335E+03 -0.44647770923E+03  0.47169520598E+03  0.00000000000E+00 0. -1.
<scales pt_clust_5="13000.00000" pt_clust_6="13000.00000" pt_clust_7="13000.00000" pt_clust_8="13000.00000" pt_clust_9="13000.00000"></scales>
<clustering>
<clus scale="   80.063">  5  6 -1 -1</clus>
<clus scale="   90.951">  7  8 -1 -1</clus>
<clus scale="  109.865">  2  5  1 -1</clus>
<clus scale="  101.285">  7  9 -1 -1</clus>
<clus scale="  283.187">  1  5  2 -1</clus>
</clustering>
</event>
<event>
 9    2  0.2147756E-005  0.2096664E+03  0.7546771E-02  0.1182719E+00
         21   -1    0    0  501  502  0.00000000000E+00  0.00000000000E+00  0.88478551573E+02  0.88478551573E+02  0.00000000000E+00 0. -1.
          2   -1    0    0  502    0 -0.00000000000E+00 -0.00000000000E+00 -0.40174589294E+03  0.40174589294E+03  0.00000000000E+00 0. -1.
         24    2    1    2    0    0 -0.11637220819E+01  0.16501150367E+02 -0.26211110978E+03  0.27440744629E+03  0.79520880869E+02 0.  0.
         23    2    1    2    0    0 -0.12196768233E+02  0.68382518951E+02 -0.38398196746E+02  0.12894636181E+03  0.10162584640E+03 0.  0.
        -13    1    3    3    0    0  0.26565322013E+01 -0.25939471389E+02 -0.36796346664E+02  0.45098608261E+02  0.00000000000E+00 0.  1.
         14    1    3    3    0    0 -0.38202542832E+01  0.42440621756E+02 -0.22531476312E+03  0.22930883803E+03  0.00000000000E+00 0. -1.
        -11    1    4    4    0    0  0.81777858216E+01  0.87873161727E+02 -0.46304714722E+02  0.99662908539E+02  0.00000000000E+00 0. -1.
         11    1    4    4    0    0 -0.20374554055E+02 -0.19490642776E+02  0.79065179756E+01  0.29283453268E+02  0.00000000000E+00 0.  1.
          1    1    1    2  501    0  0.13360490315E+02 -0.84883669318E+02 -0.12758034835E+02  0.86870636415E+02  0.00000000000E+00 0. -1.
<scales pt_clust_5="13000.00000" pt_clust_6="13000.00000" pt_clust_7="13000.00000" pt_clust_8="13000.00000" pt_clust_9="13000.00000"></scales>
<clustering>
<clus scale="   79.521">  5  6 -1 -1</clus>
<clus scale="   81.223">  2  5  1 -1</clus>
<clus scale="  101.626">  7  8 -1 -1</clus>
<clus scale="   79.780">  7  9 -1 -1</clus>
<clus scale="  209.666">  1  5  2 -1</clus>
</clustering>
</event>
<event>
 9    2  0.2147756E-005  0.3126678E+03  0.7546771E-02  0.1097532E+00
         21   -1    0    0  501  502  0.00000000000E+00  0.00000000000E+00  0.79125302071E+03  0.79125302071E+03  0.00000000000E+00 0.  1.
          2   -1    0    0  502    0 -0.00000000000E+00 -0.00000000000E+00 -0.96709786068E+02  0.96709786068E+02  0.00000000000E+00 0. -1.
         24    2    1    2    0    0 -0.17384794999E+03  0.17886885569E+01  0.45618063962E+03  0.49479884031E+03  0.80615180254E+02 0.  0.
         23    2    1    2    0    0  0.42434376428E+02  0.11409368684E+02  0.24138896129E+03  0.26105463703E+03  0.89163012988E+02 0.  0.
        -13    1    3    3    0    0 -0.17570233325E+03  0.16117753689E+02  0.43181922372E+03  0.46647500884E+03  0.00000000000E+00 0.  1.
         14    1    3    3    0    0  0.18543832621E+01 -0.14329065132E+02  0.24361415900E+02  0.28323831476E+02  0.00000000000E+00 0. -1.
        -11    1    4    4    0    0  0.65493882128E+02 -0.10875978027E+01  0.11851027904E+03  0.13540796765E+03  0.00000000000E+00 0.  1.
         11    1    4    4    0    0 -0.23059505700E+02  0.12496966487E+02  0.12287868225E+03  0.12564666937E+03  0.00000000000E+00 0. -1.
          1    1    1    2  501    0  0.13141357356E+03 -0.13198057241E+02 -0.30263662742E+01  0.13210932943E+03  0.00000000000E+00 0. -1.
<scales pt_clust_5="13000.00000" pt_clust_6="13000.00000" pt_clust_7="13000.00000" pt_clust_8="13000.00000" pt_clust_9="13000.00000"></scales>
<clustering>
<clus scale="   80.615">  5  6 -1 -1</clus>
<clus scale="   89.163">  7  8 -1 -1</clus>
<clus scale="  132.075">  7  9 -1 -1</clus>
<clus scale="  191.638">  2  5  1 -1</clus>
<clus scale="  312.668">  1  5  2 -1</clus>
</clustering>
</event>
<event>
 9    2  0.2147756E-005  0.3475069E+03  0.7546771E-02  0.1071542E+00
         21   -1    0    0  501  502  0.00000000000E+00  0.00000000000E+00  0.69214643063E+02  0.69214643063E+02  0.00000000000E+00 0.  1.
          2   -1    0    0  502    0 -0.00000000000E+00 -0.00000000000E+00 -0.16116426791E+04  0.16116426791E+04  0.00000000000E+00 0. -1.
         24    2    1    2    0    0 -0.25127049060E+03 -0.93328251502E+02 -0.40910701980E+03  0.49545547600E+03  0.79123656845E+02 0.  0.
         23    2    1    2    0    0  0.11637000973E+02  0.12022144396E+02 -0.25717581723E+03  0.27344499294E+03  0.91393716680E+02 0.  0.
        -13    1    3    3    0    0 -0.18290204950E+03 -0.82700252361E+02 -0.24086461086E+03  0.31354146810E+03  0.00000000000E+00 0.  1.
         14    1    3    3    0    0 -0.68368441093E+02 -0.10627999141E+02 -0.16824240894E+03  0.18191400790E+03  0.00000000000E+00 0. -1.
        -13    1    4    4    0    0  0.49800996312E+01 -0.35122974214E+02 -0.52896800465E+02  0.63690628899E+02  0.00000000000E+00 0.  1.
         13    1    4    4    0    0  0.66569013418E+01  0.47145118610E+02 -0.20427901676E+03  0.20975436404E+03  0.00000000000E+00 0. -1.
          1    1    1    2  501    0  0.23963348962E+03  0.81306107106E+02 -0.87614519902E+03  0.91195685324E+03  0.00000000000E+00 0. -1.
<scales pt_clust_5="13000.00000" pt_clust_6="13000.00000" pt_clust_7="13000.00000" pt_clust_8="13000.00000" pt_clust_9="13000.00000"></scales>
<clustering>
<clus scale="   79.124">  5  6 -1 -1</clus>
<clus scale="   91.394">  7  8 -1 -1</clus>
<clus scale="  253.051">  7  9 -1 -1</clus>
<clus scale="  279.477">  2  5  1 -1</clus>
<clus scale="  347.507">  1  5  2 -1</clus>
</clustering>
</event>
<event>
 9    2  0.2147756E-005  0.3402482E+03  0.7546771E-02  0.1083625E+00
         -3   -1    0    0    0  501 -0.00000000000E+00  0.00000000000E+00  0.60612007766E+02  0.60612007766E+02  0.00000000000E+00 0.  1.
         21   -1    0    0  501  502  0.00000000000E+00 -0.00000000000E+00 -0.13126786626E+04  0.13126786626E+04  0.00000000000E+00 0.  1.
         24    2    1    2    0    0 -0.19568409891E+03 -0.36905117139E+02 -0.36864687070E+03  0.42661260697E+03  0.80271706814E+02 0.  0.
         23    2    1    2    0    0 -0.23646916289E+02  0.38875366456E+02 -0.15239230696E+03  0.18345388369E+03  0.91440917822E+02 0.  0.
        -13    1    3    3    0    0 -0.76483479775E+02  0.82153265635E+01 -0.20654839168E+03  0.22040746896E+03  0.00000000000E+00 0.  1.
         14    1    3    3    0    0 -0.11920061913E+03 -0.45120443703E+02 -0.16209847903E+03  0.20620513801E+03  0.00000000000E+00 0. -1.
        -11    1    4    4    0    0 -0.26306632255E+02 -0.25209215683E+02 -0.40465005693E+02  0.54451447563E+02  0.00000000000E+00 0.  1.
         11    1    4    4    0    0  0.26597159663E+01  0.64084582139E+02 -0.11192730127E+03  0.12900243613E+03  0.00000000000E+00 0. -1.
         -4    1    1    2    0  502  0.21933101519E+03 -0.19702493167E+01 -0.73102747719E+03  0.76322417972E+03  0.00000000000E+00 0.  1.
<scales pt_clust_5="13000.00000" pt_clust_6="13000.00000" pt_clust_7="13000.00000" pt_clust_8="13000.00000" pt_clust_9="13000.00000"></scales>
<clustering>
<clus scale="   80.272">  5  6 -1 -1</clus>
<clus scale="   91.441">  7  8 -1 -1</clus>
<clus scale="  214.704">  1  5  2 -1</clus>
<clus scale="  121.519">  7  9 -1 -1</clus>
<clus scale="  340.248">  2  5  1 -1</clus>
</clustering>
</event>
<event>
 9    2  0.2147756E-005  0.1034967E+04  0.7546771E-02  0.9890644E-01
          2   -1    0    0  502    0 -0.00000000000E+00  0.00000000000E+00  0.14560403997E+04  0.14560403997E+04  0.00000000000E+00 0. -1.
         21   -1    0    0  501  502  0.00000000000E+00 -0.00000000000E+00 -0.23226265552E+03  0.23226265552E+03  0.00000000000E+00 0. -1.
         24    2    1    2    0    0 -0.87034979411E+02 -0.12871927108E+02  0.83249508541E+02  0.14818559610E+03  0.85368120927E+02 0.  0.
         23    2    1    2    0    0  0.20857274990E+03  0.37998183606E+03  0.13620961375E+03  0.46392184067E+03  0.93710339023E+02 0.  0.
        -11    1    3    3    0    0 -0.83533288569E+02 -0.30374025997E+02  0.92328875676E+02  0.12816010705E+03  0.00000000000E+00 0.  1.
         12    1    3    3    0    0 -0.35016908421E+01  0.17502098889E+02 -0.90793671355E+01  0.20025489054E+02  0.00000000000E+00 0. -1.
        -11    1    4    4    0    0  0.12232417584E+03  0.20636035051E+03  0.26979981126E+02  0.24140364049E+03  0.00000000000E+00 0. -1.
         11    1    4    4    0    0  0.86248574058E+02  0.17362148555E+03  0.10922963263E+03  0.22251820019E+03  0.00000000000E+00 0.  1.
          1    1    1    2  501    0 -0.12153777049E+03 -0.36710990895E+03  0.10043186219E+04  0.10761956184E+04  0.00000000000E+00 0. -1.
<scales pt_clust_5="13000.00000" pt_clust_6="13000.00000" pt_clust_7="13000.00000" pt_clust_8="13000.00000" pt_clust_9="13000.00000"></scales>
<clustering>
<clus scale="   85.368">  5  6 -1 -1</clus>
<clus scale="   93.710">  7  8 -1 -1</clus>
<clus scale="  122.591">  1  5  2 -1</clus>
<clus scale="  421.852">  7  9 -1 -1</clus>
<clus scale=" 1034.967">  2  5  1 -1</clus>
</clustering>
</event>
<event>
 9    2  0.2147756E-005  0.2199226E+03  0.7546771E-02  0.1174934E+00
         21   -1    0    0  501  502  0.00000000000E+00  0.00000000000E+00  0.85271516462E+03  0.85271516462E+03  0.00000000000E+00 0. -1.
         -1   -1    0    0    0  501 -0.00000000000E+00 -0.00000000000E+00 -0.30282363588E+02  0.30282363588E+02  0.00000000000E+00 0.  1.
         24    2    1    2    0    0  0.20839840082E+02  0.18805204954E+02  0.11614568664E+03  0.14326282355E+03  0.79034684918E+02 0.  0.
         23    2    1    2    0    0  0.64494490826E+02  0.35524065405E+02  0.32074203243E+03  0.34113888447E+03  0.89882081384E+02 0.  0.
        -11    1    3    3    0    0 -0.11610949250E+01  0.47034841446E+02  0.54672356486E+02  0.72129681928E+02  0.00000000000E+00 0.  1.
         12    1    3    3    0    0  0.22000935007E+02 -0.28229636492E+02  0.61473330153E+02  0.71133141627E+02  0.00000000000E+00 0. -1.
        -11    1    4    4    0    0  0.49031622499E+02  0.60075793894E+02  0.28358006925E+03  0.29399125275E+03  0.00000000000E+00 0. -1.
         11    1    4    4    0    0  0.15462868327E+02 -0.24551728488E+02  0.37161963181E+02  0.47147631713E+02  0.00000000000E+00 0.  1.
         -2    1    1    2    0  502 -0.85334330908E+02 -0.54329270359E+02  0.38554508196E+03  0.39859582019E+03  0.00000000000E+00 0.  1.
<scales pt_clust_5="13000.00000" pt_clust_6="13000.00000" pt_clust_7="13000.00000" pt_clust_8="13000.00000" pt_clust_9="13000.00000"></scales>
<clustering>
<clus scale="   79.035">  5  6 -1 -1</clus>
<clus scale="   83.871">  2  5  1 -1</clus>
<clus scale="   89.882">  7  8 -1 -1</clus>
<clus scale="   90.380">  7  9 -1 -1</clus>
<clus scale="  219.923">  1  5  2 -1</clus>
</clustering>
</event>
<event>
 9    2  0.2147756E-005  0.8795010E+03  0.7546771E-02  0.9846823E-01
          2   -1    0    0  502    0 -0.00000000000E+00  0.00000000000E+00  0.44957080086E+03  0.44957080086E+03  0.00000000000E+00 0. -1.
         21   -1    0    0  501  502  0.00000000000E+00 -0.00000000000E+00 -0.68644439024E+03  0.68644439024E+03  0.00000000000E+00 0. -1.
         24    2    1    2    0    0 -0.92932281305E+02  0.19547193227E+03 -0.26827118651E+02  0.23177983020E+03  0.78463432089E+02 0.  0.
         23    2    1    2    0    0 -0.33561135921E+03  0.16998536352E+02  0.62634297327E+02  0.35364644608E+03  0.90657702099E+02 0.  0.
        -11    1    3    3    0    0 -0.57869178576E+02  0.18391141472E+03 -0.16851279734E+02  0.19353608429E+03  0.00000000000E+00 0.  1.
         12    1    3    3    0    0 -0.35063102728E+02  0.11560517557E+02 -0.99758389169E+01  0.38243745910E+02  0.00000000000E+00 0. -1.
        -13    1    4    4    0    0 -0.13355086084E+03 -0.37553041988E+02  0.27267412780E+02  0.14138449418E+03  0.00000000000E+00 0.  1.
         13    1    4    4    0    0 -0.20206049837E+03  0.54551578339E+02  0.35366884547E+02  0.21226195190E+03  0.00000000000E+00 0. -1.
          1    1    1    2  501    0  0.42854364052E+03 -0.21247046863E+03 -0.27268076806E+03  0.55058891483E+03  0.00000000000E+00 0. -1.
<scales pt_clust_5="13000.00000" pt_clust_6="13000.00000" pt_clust_7="13000.00000" pt_clust_8="13000.00000" pt_clust_9="13000.00000"></scales>
<clustering>
<clus scale="   78.463">  5  6 -1 -1</clus>
<clus scale="   90.658">  7  8 -1 -1</clus>
<clus scale="  230.222">  1  5  2 -1</clus>
<clus scale="  413.716">  7  9 -1 -1</clus>
<clus scale="  879.501">  2  5  1 -1</clus>
</clustering>
</event>
<event>
 9    2  0.2147756E-005  0.1647555E+03  0.7546771E-02  0.1212983E+00
         21   -1    0    0  501  502  0.00000000000E+00  0.00000000000E+00  0.91975107948E+02  0.91975107948E+02  0.00000000000E+00 0. -1.
          2   -1    0    0  502    0 -0.00000000000E+00 -0.00000000000E+00 -0.18520635908E+03  0.18520635908E+03  0.00000000000E+00 0. -1.
         24    2    1    2    0    0 -0.10128022282E+02  0.28407899599E+02  0.26189159572E+01  0.86572881335E+02  0.81107456297E+02 0.  0.
         23    2    1    2    0    0  0.57750748550E+02 -0.44030415387E+02 -0.48697666823E+02  0.12179474015E+03  0.84786022063E+02 0.  0.
        -11    1    3    3    0    0  0.59043287207E+01  0.47693035290E+02 -0.20701983665E+02  0.52326464055E+02  0.00000000000E+00 0.  1.
         12    1    3    3    0    0 -0.16032351003E+02 -0.19285135692E+02  0.23320899623E+02  0.34246417280E+02  0.00000000000E+00 0. -1.
        -13    1    4    4    0    0  0.39120163942E+02 -0.68638314292E+02 -0.24945816534E+02  0.82848652242E+02  0.00000000000E+00 0.  1.
         13    1    4    4    0    0  0.18630584608E+02  0.24607898905E+02 -0.23751850289E+02  0.38946087910E+02  0.00000000000E+00 0. -1.
          1    1    1    2  501    0 -0.47622726268E+02  0.15622515789E+02 -0.47152500264E+02  0.68813845539E+02  0.00000000000E+00 0. -1.
<scales pt_clust_5="13000.00000" pt_clust_6="13000.00000" pt_clust_7="13000.00000" pt_clust_8="13000.00000" pt_clust_9="13000.00000"></scales>
<clustering>
<clus scale="   81.107">  5  6 -1 -1</clus>
<clus scale="   84.786">  7  8 -1 -1</clus>
<clus scale="   50.120">  7  9 -1 -1</clus>
<clus scale="   86.533">  2  5  1 -1</clus>
<clus scale="  164.756">  1  5  2 -1</clus>
</clustering>
</event>
<event>
 9    2  0.2147756E-005  0.5260080E+03  0.7546771E-02  0.1064786E+00
         21   -1    0    0  501  502  0.00000000000E+00  0.00000000000E+00  0.10439358530E+03  0.10439358530E+03  0.00000000000E+00 0. -1.
          2   -1    0    0  502    0 -0.00000000000E+00 -0.00000000000E+00 -0.11650237660E+04  0.11650237660E+04  0.00000000000E+00 0. -1.
         24    2    1    2    0    0 -0.11857730425E+02 -0.49947605209E+02 -0.46390134208E+03  0.47394908482E+03  0.82388778228E+02 0.  0.
         23    2    1    2    0    0  0.17345781928E+03 -0.16162028467E+03 -0.35051830650E+03  0.43284561569E+03  0.91013803024E+02 0.  0.
        -13    1    3    3    0    0 -0.26752618482E+02 -0.66281417721E+02 -0.39990572497E+03  0.40624317569E+03  0.00000000000E+00 0.  1.
         14    1    3    3    0    0  0.14894888057E+02  0.16333812512E+02 -0.63995617112E+02  0.67705909129E+02  0.00000000000E+00 0. -1.
        -13    1    4    4    0    0  0.13582862669E+03 -0.16461401524E+03 -0.27207051430E+03  0.34578830893E+03  0.00000000000E+00 0. -1.
         13    1    4    4    0    0  0.37629192583E+02  0.29937305784E+01 -0.78447792203E+02  0.87057306751E+02  0.00000000000E+00 0.  1.
          1    1    1    2  501    0 -0.16160008885E+03  0.21156788988E+03 -0.24621053211E+03  0.36262265079E+03  0.00000000000E+00 0. -1.
<scales pt_clust_5="13000.00000" pt_clust_6="13000.00000" pt_clust_7="13000.00000" pt_clust_8="13000.00000" pt_clust_9="13000.00000"></scales>
<clustering>
<clus scale="   82.389">  5  6 -1 -1</clus>
<clus scale="   91.014">  7  8 -1 -1</clus>
<clus scale="   97.074">  2  5  1 -1</clus>
<clus scale="  252.612">  7  9 -1 -1</clus>
<clus scale="  526.008">  1  5  2 -1</clus>
</clustering>
</event>
<event>
 9    2  0.2147756E-005  0.1388659E+03  0.7546771E-02  0.1236022E+00
         -1   -1    0    0    0  501 -0.00000000000E+00  0.00000000000E+00  0.35899349026E+03  0.35899349026E+03  0.00000000000E+00 0.  1.
         21   -1    0    0  501  502  0.00000000000E+00 -0.00000000000E+00 -0.37575001018E+02  0.37575001018E+02  0.00000000000E+00 0. -1.
         24    2    1    2    0    0  0.11064255056E+02 -0.36809735272E+02  0.91243180454E+02  0.12774808919E+03  0.80727207075E+02 0.  0.
         23    2    1    2    0    0  0.18443373253E+01  0.55361194337E+02  0.22101936969E+03  0.24443557870E+03  0.88492524765E+02 0.  0.
        -11    1    3    3    0    0  0.14792846977E+01 -0.42746974147E+02  0.10295785035E+03  0.11148906238E+03  0.00000000000E+00 0.  1.
         12    1    3    3    0    0  0.95849703586E+01  0.59372388745E+01 -0.11714669893E+02  0.16259026814E+02  0.00000000000E+00 0. -1.
        -13    1    4    4    0    0  0.44436557227E+02  0.34729259774E+02  0.13387316236E+03  0.14526786535E+03  0.00000000000E+00 0. -1.
         13    1    4    4    0    0 -0.42592219902E+02  0.20631934563E+02  0.87146207327E+02  0.99167713352E+02  0.00000000000E+00 0.  1.
         -2    1    1    2    0  502 -0.12908592382E+02 -0.18551459065E+02  0.91559390998E+01  0.24384823385E+02  0.00000000000E+00 0.  1.
<scales pt_clust_5="13000.00000" pt_clust_6="13000.00000" pt_clust_7="13000.00000" pt_clust_8="13000.00000" pt_clust_9="13000.00000"></scales>
<clustering>
<clus scale="   80.727">  5  6 -1 -1</clus>
<clus scale="   88.493">  7  8 -1 -1</clus>
<clus scale="   22.601">  7  9 -1 -1</clus>
<clus scale="   89.411">  1  5  2 -1</clus>
<clus scale="  138.866">  2  5  1 -1</clus>
</clustering>
</event>
<event>
 9    2  0.2147756E-005  0.4305848E+03  0.7546771E-02  0.1059997E+00
          2   -1    0    0  502    0 -0.00000000000E+00  0.00000000000E+00  0.31316618554E+03  0.31316618554E+03  0.00000000000E+00 0. -1.
         21   -1    0    0  501  502  0.00000000000E+00 -0.00000000000E+00 -0.32676527956E+03  0.32676527956E+03  0.00000000000E+00 0. -1.
         24    2    1    2    0    0  0.18559626929E+03  0.48455323929E+01  0.39615260346E+02  0.20607080833E+03  0.80164548510E+02 0.  0.
         23    2    1    2    0    0  0.18493468650E+02  0.33993198761E+02  0.12598998100E+03  0.15949728096E+03  0.89824057895E+02 0.  0.
        -11    1    3    3    0    0  0.11834735126E+02 -0.19887395444E+02  0.17823151479E+02  0.29210172572E+02  0.00000000000E+00 0.  1.
         12    1    3    3    0    0  0.17376153416E+03  0.24732927837E+02  0.21792108867E+02  0.17686063576E+03  0.00000000000E+00 0. -1.
        -13    1    4    4    0    0  0.30931215984E+02  0.60565470055E+02  0.94876266846E+02  0.11673226759E+03  0.00000000000E+00 0. -1.
         13    1    4    4    0    0 -0.12437747333E+02 -0.26572271294E+02  0.31113714153E+02  0.42765013374E+02  0.00000000000E+00 0.  1.
          1    1    1    2  501    0 -0.20408973794E+03 -0.38838731154E+02 -0.17920433536E+03  0.27436337580E+03  0.00000000000E+00 0. -1.
<scales pt_clust_5="13000.00000" pt_clust_6="13000.00000" pt_clust_7="13000.00000" pt_clust_8="13000.00000" pt_clust_9="13000.00000"></scales>
<clustering>
<clus scale="   80.165">  5  6 -1 -1</clus>
<clus scale="   89.824">  7  8 -1 -1</clus>
<clus scale="  202.227">  1  5  2 -1</clus>
<clus scale="  162.119">  7  9 -1 -1</clus>
<clus scale="  430.585">  2  5  1 -1</clus>
</clustering>
</event>
<event>
 9    2  0.2147756E-005  0.1855426E+03  0.7546771E-02  0.1179261E+00
         21   -1    0    0  501  502  0.00000000000E+00  0.00000000000E+00  0.33909794685E+03  0.33909794685E+03  0.00000000000E+00 0. -1.
         -1   -1    0    0    0  501 -0.00000000000E+00 -0.00000000000E+00 -0.12641862690E+03  0.12641862690E+03  0.00000000000E+00 0.  1.
         24    2    1    2    0    0  0.24741305969E+02 -0.94917281752E+02  0.24629382294E+03  0.27695357629E+03  0.80132475358E+02 0.  0.
         23    2    1    2    0    0  0.19922679574E+02  0.45682963183E+02  0.18754130137E+02  0.10393815792E+03  0.89261284939E+02 0.  0.
        -13    1    3    3    0    0 -0.73538936524E+01 -0.45810639217E+02  0.36273274445E+02  0.58893504364E+02  0.00000000000E+00 0.  1.
         14    1    3    3    0    0  0.32095199621E+02 -0.49106642536E+02  0.21002054849E+03  0.21806007193E+03  0.00000000000E+00 0. -1.
        -13    1    4    4    0    0 -0.20938358596E+02 -0.17058992733E+02  0.87978575799E+01  0.28404689609E+02  0.00000000000E+00 0. -1.
         13    1    4    4    0    0  0.40861038171E+02  0.62741955916E+02  0.99562725574E+01  0.75533468316E+02  0.00000000000E+00 0.  1.
         -2    1    1    2    0  502 -0.44663985543E+02  0.49234318570E+02 -0.52368633124E+02  0.84624839527E+02  0.00000000000E+00 0.  1.
<scales pt_clust_5="13000.00000" pt_clust_6="13000.00000" pt_clust_7="13000.00000" pt_clust_8="13000.00000" pt_clust_9="13000.00000"></scales>
<clustering>
<clus scale="   80.132">  5  6 -1 -1</clus>
<clus scale="   89.261">  7  8 -1 -1</clus>
<clus scale="   66.475">  7  9 -1 -1</clus>
<clus scale="  126.660">  2  5  1 -1</clus>
<clus scale="  185.543">  1  5  2 -1</clus>
</clustering>
</event>
<event>
 9    2  0.2147756E-005  0.1736132E+03  0.7546771E-02  0.1182933E+00
         21   -1    0    0  501  502  0.00000000000E+00  0.00000000000E+00  0.65756593044E+02  0.65756593044E+02  0.00000000000E+00 0. -1.
          2   -1    0    0  502    0 -0.00000000000E+00 -0.00000000000E+00 -0.38079685491E+03  0.38079685491E+03  0.00000000000E+00 0. -1.
         24    2    1    2    0    0 -0.74219588131E+02 -0.87720287054E+02 -0.15437102675E+03  0.21000292449E+03  0.84067939021E+02 0.  0.
         23    2    1    2    0    0  0.72576062894E+02  0.41252984595E+02 -0.12764969611E+03  0.17952244854E+03  0.94682474466E+02 0.  0.
        -11    1    3    3    0    0 -0.75868191395E+02 -0.28866576882E+02 -0.10773953429E+03  0.13489651209E+03  0.00000000000E+00 0.  1.
         12    1    3    3    0    0  0.16486032644E+01 -0.58853710172E+02 -0.46631492460E+02  0.75106412395E+02  0.00000000000E+00 0. -1.
        -13    1    4    4    0    0  0.22817982374E+02  0.58476683578E+02 -0.10471925605E+03  0.12209138147E+03  0.00000000000E+00 0.  1.
         13    1    4    4    0    0  0.49758080520E+02 -0.17223698983E+02 -0.22930440058E+02  0.57431067072E+02  0.00000000000E+00 0. -1.
          1    1    1    2  501    0  0.16435252367E+01  0.46467302460E+02 -0.33019539012E+02  0.57028074925E+02  0.00000000000E+00 0. -1.
<scales pt_clust_5="13000.00000" pt_clust_6="13000.00000" pt_clust_7="13000.00000" pt_clust_8="13000.00000" pt_clust_9="13000.00000"></scales>
<clustering>
<clus scale="   84.068">  5  6 -1 -1</clus>
<clus scale="   94.682">  7  8 -1 -1</clus>
<clus scale="   46.496">  7  9 -1 -1</clus>
<clus scale="  142.376">  2  5  1 -1</clus>
<clus scale="  173.613">  1  5  2 -1</clus>
</clustering>
</event>
<event>
 9    2  0.2147756E-005  0.2767284E+03  0.7546771E-02  0.1128444E+00
         21   -1    0    0  501  502  0.00000000000E+00  0.00000000000E+00  0.63416045019E+02  0.63416045019E+02  0.00000000000E+00 0. -1.
          2   -1    0    0  502    0 -0.00000000000E+00 -0.00000000000E+00 -0.67873499051E+03  0.67873499051E+03  0.00000000000E+00 0. -1.
         24    2    1    2    0    0  0.11071764496E+02  0.95690756269E+02 -0.28155476489E+03  0.30858775111E+03  0.81694612422E+02 0.  0.
         23    2    1    2    0    0  0.19912788636E+02  0.60655729526E+02 -0.14482938359E+03  0.18637788098E+03  0.98415077560E+02 0.  0.
        -13    1    3    3    0    0 -0.85748445241E+01  0.45295476840E+02 -0.39948090015E+02  0.61000476036E+02  0.00000000000E+00 0.  1.
         14    1    3    3    0    0  0.19646609020E+02  0.50395279429E+02 -0.24160667488E+03  0.24758727508E+03  0.00000000000E+00 0. -1.
        -13    1    4    4    0    0 -0.15162834790E+02  0.20477307382E+02 -0.12791079925E+03  0.13042394045E+03  0.00000000000E+00 0.  1.
         13    1    4    4    0    0  0.35075623425E+02  0.40178422144E+02 -0.16918584334E+02  0.55953940527E+02  0.00000000000E+00 0. -1.
          1    1    1    2  501    0 -0.30984553132E+02 -0.15634648579E+03 -0.18893479701E+03  0.24718540344E+03  0.00000000000E+00 0. -1.
<scales pt_clust_5="13000.00000" pt_clust_6="13000.00000" pt_clust_7="13000.00000" pt_clust_8="13000.00000" pt_clust_9="13000.00000"></scales>
<clustering>
<clus scale="   81.695">  5  6 -1 -1</clus>
<clus scale="   98.415">  7  8 -1 -1</clus>
<clus scale="  126.306">  2  5  1 -1</clus>
<clus scale="  104.907">  7  9 -1 -1</clus>
<clus scale="  276.728">  1  5  2 -1</clus>
</clustering>
</event>
<event>
 9    2  0.2147756E-005  0.2715496E+03  0.7546771E-02  0.1124399E+00
          2   -1    0    0  502    0 -0.00000000000E+00  0.00000000000E+00  0.98474595362E+03  0.98474595362E+03  0.00000000000E+00 0. -1.
         21   -1    0    0  501  502  0.00000000000E+00 -0.00000000000E+00 -0.44650649117E+02  0.44650649117E+02  0.00000000000E+00 0. -1.
         24    2    1    2    0    0  0.36505748717E+02  0.11705790350E+03  0.34215523988E+03  0.37268393750E+03  0.82388631698E+02 0.  0.
         23    2    1    2    0    0 -0.38527107651E+02  0.35461790444E+02  0.36667906646E+03  0.37967838540E+03  0.83428184420E+02 0.  0.
        -13    1    3    3    0    0  0.59261872492E+02  0.53408992680E+02  0.19800409894E+03  0.21347157476E+03  0.00000000000E+00 0.  1.
         14    1    3    3    0    0 -0.22756123775E+02  0.63648910817E+02  0.14415114094E+03  0.15921236274E+03  0.00000000000E+00 0. -1.
        -11    1    4    4    0    0 -0.50393015903E+02 -0.74980026398E+01  0.24112423766E+03  0.24644791353E+03  0.00000000000E+00 0.  1.
         11    1    4    4    0    0  0.11865908253E+02  0.42959793084E+02  0.12555482880E+03  0.13323047187E+03  0.00000000000E+00 0. -1.
          1    1    1    2  501    0  0.20213589335E+01 -0.15251969394E+03  0.23126099816E+03  0.27703427983E+03  0.00000000000E+00 0. -1.
<scales pt_clust_5="13000.00000" pt_clust_6="13000.00000" pt_clust_7="13000.00000" pt_clust_8="13000.00000" pt_clust_9="13000.00000"></scales>
<clustering>
<clus scale="   82.389">  5  6 -1 -1</clus>
<clus scale="   83.428">  7  8 -1 -1</clus>
<clus scale="  147.726">  1  5  2 -1</clus>
<clus scale="  106.432">  7  9 -1 -1</clus>
<clus scale="  271.550">  2  5  1 -1</clus>
</clustering>
</event>
<event>
 9    2  0.2147756E-005  0.2239437E+03  0.7546771E-02  0.1171926E+00
          2   -1    0    0  502    0 -0.00000000000E+00  0.00000000000E+00  0.31460622317E+03  0.31460622317E+03  0.00000000000E+00 0. -1.
         21   -1    0    0  501  502  0.00000000000E+00 -0.00000000000E+00 -0.82640447387E+02  0.82640447387E+02  0.00000000000E+00 0. -1.
         24    2    1    2    0    0 -0.22860642703E+02 -0.54811524674E+01  0.11941668246E+03  0.14661132842E+03  0.81742801239E+02 0.  0.
         23    2    1    2    0    0  0.21294229323E+02  0.85192130197E+02  0.11364206680E+03  0.17090148350E+03  0.92637219665E+02 0.  0.
        -13    1    3    3    0    0  0.23605178577E+02  0.78682157291E+01  0.96826953901E+01  0.26699585473E+02  0.00000000000E+00 0.  1.
         14    1    3    3    0    0 -0.46465821280E+02 -0.13349368196E+02  0.10973398707E+03  0.11991174295E+03  0.00000000000E+00 0. -1.
        -11    1    4    4    0    0  0.41575112623E+02  0.74317446127E+02  0.11989084084E+03  0.14705572585E+03  0.00000000000E+00 0.  1.
         11    1    4    4    0    0 -0.20280883301E+02  0.10874684070E+02 -0.62487740386E+01  0.23845757653E+02  0.00000000000E+00 0. -1.
          1    1    1    2  501    0  0.15664133799E+01 -0.79710977729E+02 -0.10929734767E+01  0.79733858633E+02  0.00000000000E+00 0. -1.
<scales pt_clust_5="13000.00000" pt_clust_6="13000.00000" pt_clust_7="13000.00000" pt_clust_8="13000.00000" pt_clust_9="13000.00000"></scales>
<clustering>
<clus scale="   81.743">  5  6 -1 -1</clus>
<clus scale="   85.056">  1  5  2 -1</clus>
<clus scale="   92.637">  7  8 -1 -1</clus>
<clus scale="   80.969">  7  9 -1 -1</clus>
<clus scale="  223.944">  2  5  1 -1</clus>
</clustering>
</event>
<event>
 9    2  0.2147756E-005  0.2521315E+03  0.7546771E-02  0.1136480E+00
          2   -1    0    0  502    0 -0.00000000000E+00  0.00000000000E+00  0.64656341363E+03  0.64656341363E+03  0.00000000000E+00 0. -1.
         21   -1    0    0  501  502  0.00000000000E+00 -0.00000000000E+00 -0.73190893913E+02  0.73190893913E+02  0.00000000000E+00 0. -1.
         24    2    1    2    0    0  0.10954470880E+03 -0.79149991269E+01  0.37383473862E+03  0.39821793993E+03  0.82233967725E+02 0.  0.
         23    2    1    2    0    0 -0.12898929741E+03  0.36927742081E+02  0.22567236869E+03  0.27791472219E+03  0.91140977833E+02 0.  0.
        -13    1    3    3    0    0  0.65185868721E+01  0.26730087251E+02  0.57818975588E+02  0.64031425701E+02  0.00000000000E+00 0.  1.
         14    1    3    3    0    0  0.10302612193E+03 -0.34645086378E+02  0.31601576303E+03  0.33418651423E+03  0.00000000000E+00 0. -1.
        -13    1    4    4    0    0 -0.22625933843E+02  0.45680458814E+02  0.44608662318E+02  0.67738984001E+02  0.00000000000E+00 0.  1.
         13    1    4    4    0    0 -0.10636336356E+03 -0.87527167327E+01  0.18106370637E+03  0.21017573819E+03  0.00000000000E+00 0. -1.
          1    1    1    2  501    0  0.19444588608E+02 -0.29012742955E+02 -0.26134587596E+02  0.43621645415E+02  0.00000000000E+00 0. -1.
<scales pt_clust_5="13000.00000" pt_clust_6="13000.00000" pt_clust_7="13000.00000" pt_clust_8="13000.00000" pt_clust_9="13000.00000"></scales>
<clustering>
<clus scale="   82.234">  5  6 -1 -1</clus>
<clus scale="   91.141">  7  8 -1 -1</clus>
<clus scale="   34.926">  7  9 -1 -1</clus>
<clus scale="  137.205">  1  5  2 -1</clus>
<clus scale="  252.132">  2  5  1 -1</clus>
</clustering>
</event>
<event>
 9    2  0.2147756E-005  0.1869392E+03  0.7546771E-02  0.1190399E+00
          2   -1    0    0  502    0 -0.00000000000E+00  0.00000000000E+00  0.61157956693E+03  0.61157956693E+03  0.00000000000E+00 0. -1.
         21   -1    0    0  501  502  0.00000000000E+00 -0.00000000000E+00 -0.64448957012E+02  0.64448957012E+02  0.00000000000E+00 0. -1.
         24    2    1    2    0    0 -0.28509756104E+02  0.44827215360E+02  0.45954098306E+03  0.46958677651E+03  0.80694114611E+02 0.  0.
         23    2    1    2    0    0 -0.35315586688E+01 -0.58851978910E+02 -0.39011142783E+01  0.10849331427E+03  0.90992050313E+02 0.  0.
        -11    1    3    3    0    0 -0.44212242940E+01  0.63965893500E+02  0.34915577729E+03  0.35499428104E+03  0.00000000000E+00 0.  1.
         12    1    3    3    0    0 -0.24088531810E+02 -0.19138678140E+02  0.11038520576E+03  0.11459249546E+03  0.00000000000E+00 0. -1.
        -13    1    4    4    0    0  0.18512231745E+01 -0.37547803744E+02  0.42748745863E+02  0.56927320911E+02  0.00000000000E+00 0.  1.
         13    1    4    4    0    0 -0.53827818433E+01 -0.21304175166E+02 -0.46649860141E+02  0.51565993358E+02  0.00000000000E+00 0. -1.
          1    1    1    2  501    0  0.32041314773E+02  0.14024763550E+02  0.91490741145E+02  0.97948433169E+02  0.00000000000E+00 0. -1.
<scales pt_clust_5="13000.00000" pt_clust_6="13000.00000" pt_clust_7="13000.00000" pt_clust_8="13000.00000" pt_clust_9="13000.00000"></scales>
<clustering>
<clus scale="   80.694">  5  6 -1 -1</clus>
<clus scale="   90.992">  7  8 -1 -1</clus>
<clus scale="   34.976">  7  9 -1 -1</clus>
<clus scale="   96.612">  1  5  2 -1</clus>
<clus scale="  186.939">  2  5  1 -1</clus>
</clustering>
</event>
<event>
 9    2  0.2147756E-005  0.3040705E+03  0.7546771E-02  0.1095511E+00
         21   -1    0    0  501  502  0.00000000000E+00  0.00000000000E+00  0.50900952154E+02  0.50900952154E+02  0.00000000000E+00 0.  1.
          2   -1    0    0  502    0 -0.00000000000E+00 -0.00000000000E+00 -0.14039362110E+04  0.14039362110E+04  0.00000000000E+00 0. -1.
         24    2    1    2    0    0  0.68421744886E+01 -0.20432658693E+03 -0.71633525280E+03  0.74925530800E+03  0.80319067960E+02 0.  0.
         23    2    1    2    0    0  0.77371969026E+02  0.17819566448E+03 -0.42077889573E+03  0.47235069739E+03  0.91215052477E+02 0.  0.
        -13    1    3    3    0    0 -0.27506480131E+02 -0.26470657689E+02 -0.10968080411E+03  0.11613432291E+03  0.00000000000E+00 0.  1.
         14    1    3    3    0    0  0.34348654619E+02 -0.17785592924E+03 -0.60665444869E+03  0.63312098509E+03  0.00000000000E+00 0. -1.
        -11    1    4    4    0    0  0.24531815859E+02  0.32226716136E+01 -0.19838132893E+02  0.31713516335E+02  0.00000000000E+00 0.  1.
         11    1    4    4    0    0  0.52840153167E+02  0.17497299287E+03 -0.40094076284E+03  0.44063718105E+03  0.00000000000E+00 0. -1.
          1    1    1    2  501    0 -0.84214143515E+02  0.26130922448E+02 -0.21592111033E+03  0.23323115779E+03  0.00000000000E+00 0. -1.
<scales pt_clust_5="13000.00000" pt_clust_6="13000.00000" pt_clust_7="13000.00000" pt_clust_8="13000.00000" pt_clust_9="13000.00000"></scales>
<clustering>
<clus scale="   80.319">  5  6 -1 -1</clus>
<clus scale="   91.215">  7  8 -1 -1</clus>
<clus scale="   88.175">  7  9 -1 -1</clus>
<clus scale="  219.653">  2  5  1 -1</clus>
<clus scale="  304.070">  1  5  2 -1</clus>
</clustering>
</event>
<event>
 9    2  0.2147756E-005  0.5703620E+03  0.7546771E-02  0.1054851E+00
         21   -1    0    0  501  502  0.00000000000E+00  0.00000000000E+00  0.17470865236E+03  0.17470865236E+03  0.00000000000E+00 0.  1.
          2   -1    0    0  502    0 -0.00000000000E+00 -0.00000000000E+00 -0.68877405697E+03  0.68877405697E+03  0.00000000000E+00 0. -1.
         24    2    1    2    0    0 -0.57451487432E+02  0.16239298557E+02 -0.16960625423E+03  0.19717578878E+03  0.80917377501E+02 0.  0.
         23    2    1    2    0    0 -0.15132869084E+03  0.49436040629E+02  0.71153994395E+02  0.19658711138E+03  0.90770626630E+02 0.  0.
        -13    1    3    3    0    0  0.59282329378E+01 -0.24473497319E+02 -0.39897346357E+02  0.47179383878E+02  0.00000000000E+00 0.  1.
         14    1    3    3    0    0 -0.63379720369E+02  0.40712795876E+02 -0.12970890787E+03  0.14999640490E+03  0.00000000000E+00 0. -1.
        -11    1    4    4    0    0 -0.57450880051E+02  0.64957732681E+02  0.21892765073E+02  0.89439386269E+02  0.00000000000E+00 0. -1.
         11    1    4    4    0    0 -0.93877810787E+02 -0.15521692052E+02  0.49261229321E+02  0.10714772511E+03  0.00000000000E+00 0.  1.
          1    1    1    2  501    0  0.20878017827E+03 -0.65675339186E+02 -0.41561314478E+03  0.46971980917E+03  0.00000000000E+00 0. -1.
<scales pt_clust_5="13000.00000" pt_clust_6="13000.00000" pt_clust_7="13000.00000" pt_clust_8="13000.00000" pt_clust_9="13000.00000"></scales>
<clustering>
<clus scale="   80.917">  5  6 -1 -1</clus>
<clus scale="   90.771">  7  8 -1 -1</clus>
<clus scale="  100.558">  2  5  1 -1</clus>
<clus scale="  166.602">  7  9 -1 -1</clus>
<clus scale="  570.362">  1  5  2 -1</clus>
</clustering>
</event>
<event>
 9    2  0.2147756E-005  0.2131045E+03  0.7546771E-02  0.1160909E+00
         21   -1    0    0  501  502  0.00000000000E+00  0.00000000000E+00  0.15707935022E+03  0.15707935022E+03  0.00000000000E+00 0.  1.
          2   -1    0    0  502    0 -0.00000000000E+00 -0.00000000000E+00 -0.22156466987E+03  0.22156466987E+03  0.00000000000E+00 0. -1.
         24    2    1    2    0    0 -0.52086088158E+02  0.83653368468E+02 -0.10101861156E+03  0.16243068687E+03  0.80424632537E+02 0.  0.
         23    2    1    2    0    0  0.87477969647E+01 -0.43616085351E+02  0.94415778982E+02  0.13355999795E+03  0.83336947865E+02 0.  0.
        -11    1    3    3    0    0 -0.36324602154E+02  0.95361129290E+02 -0.63792483746E+02  0.12034410116E+03  0.00000000000E+00 0.  1.
         12    1    3    3    0    0 -0.15761486004E+02 -0.11707760822E+02 -0.37226127813E+02  0.42086585707E+02  0.00000000000E+00 0. -1.
        -13    1    4    4    0    0  0.78383107247E+01  0.22475452449E+02  0.87539458811E+01  0.25361716155E+02  0.00000000000E+00 0. -1.
         13    1    4    4    0    0  0.90948623996E+00 -0.66091537800E+02  0.85661833101E+02  0.10819828180E+03  0.00000000000E+00 0.  1.
          1    1    1    2  501    0  0.43338291194E+02 -0.40037283117E+02 -0.57882487070E+02  0.82653335277E+02  0.00000000000E+00 0. -1.
<scales pt_clust_5="13000.00000" pt_clust_6="13000.00000" pt_clust_7="13000.00000" pt_clust_8="13000.00000" pt_clust_9="13000.00000"></scales>
<clustering>
<clus scale="   80.425">  5  6 -1 -1</clus>
<clus scale="   83.337">  7  8 -1 -1</clus>
<clus scale="   59.002">  7  9 -1 -1</clus>
<clus scale="  127.197">  2  5  1 -1</clus>
<clus scale="  213.104">  1  5  2 -1</clus>
</clustering>
</event>
<event>
 9    2  0.2147756E-005  0.5628392E+03  0.7546771E-02  0.1028201E+00
         21   -1    0    0  501  502  0.00000000000E+00  0.00000000000E+00  0.53328695985E+03  0.53328695985E+03  0.00000000000E+00 0. -1.
          2   -1    0    0  502    0 -0.00000000000E+00 -0.00000000000E+00 -0.59299797101E+03  0.59299797101E+03  0.00000000000E+00 0. -1.
         24    2    1    2    0    0 -0.85417948534E+02 -0.19386776709E+03  0.35912470069E+03  0.42470716900E+03  0.80775563780E+02 0.  0.
         23    2    1    2    0    0  0.46332561855E+02 -0.16742609766E+03 -0.18327132924E+03  0.26850559407E+03  0.91261544248E+02 0.  0.
        -11    1    3    3    0    0  0.36107004537E+01 -0.89363571871E+02  0.14322866233E+03  0.16885891995E+03  0.00000000000E+00 0.  1.
         12    1    3    3    0    0 -0.89028648988E+02 -0.10450419522E+03  0.21589603836E+03  0.25584824905E+03  0.00000000000E+00 0. -1.
        -13    1    4    4    0    0  0.56699836308E+02 -0.10552050774E+03 -0.69293001079E+02  0.13838702609E+03  0.00000000000E+00 0. -1.
         13    1    4    4    0    0 -0.10367274453E+02 -0.61905589928E+02 -0.11397832816E+03  0.13011856799E+03  0.00000000000E+00 0.  1.
          1    1    1    2  501    0  0.39085386679E+02  0.36129386476E+03 -0.23556438260E+03  0.43307216779E+03  0.00000000000E+00 0. -1.
<scales pt_clust_5="13000.00000" pt_clust_6="13000.00000" pt_clust_7="13000.00000" pt_clust_8="13000.00000" pt_clust_9="13000.00000"></scales>
<clustering>
<clus scale="   80.776">  5  6 -1 -1</clus>
<clus scale="   91.262">  7  8 -1 -1</clus>
<clus scale="  226.728">  2  5  1 -1</clus>
<clus scale="  245.886">  7  9 -1 -1</clus>
<clus scale="  562.839">  1  5  2 -1</clus>
</clustering>
</event>
<event>
 9    2  0.2147756E-005  0.4010193E+03  0.7546771E-02  0.1060676E+00
         21   -1    0    0  501  502  0.00000000000E+00  0.00000000000E+00  0.14041252411E+03  0.14041252411E+03  0.00000000000E+00 0.  1.
          2   -1    0    0  502    0 -0.00000000000E+00 -0.00000000000E+00 -0.92931230447E+03  0.92931230447E+03  0.00000000000E+00 0. -1.
         24    2    1    2    0    0  0.12869583435E+03 -0.19167359614E+03 -0.55145164502E+03  0.60367963683E+03  0.83837950162E+02 0.  0.
         23    2    1    2    0    0  0.87532197222E+02  0.10219395221E+03 -0.13556162631E+03  0.21081582620E+03  0.89223699931E+02 0.  0.
        -13    1    3    3    0    0  0.11696816409E+03 -0.12104306469E+03 -0.32235988577E+03  0.36366037847E+03  0.00000000000E+00 0.  1.
         14    1    3    3    0    0  0.11727670262E+02 -0.70630531456E+02 -0.22909175925E+03  0.24001925835E+03  0.00000000000E+00 0. -1.
        -13    1    4    4    0    0  0.30075767342E+02 -0.12772239399E+02 -0.22873990762E+02  0.39886104521E+02  0.00000000000E+00 0.  1.
         13    1    4    4    0    0  0.57456429880E+02  0.11496619161E+03 -0.11268763554E+03  0.17092972167E+03  0.00000000000E+00 0. -1.
          1    1    1    2  501    0 -0.21622803158E+03  0.89479643936E+02 -0.10188650903E+03  0.25522936555E+03  0.00000000000E+00 0. -1.
<scales pt_clust_5="13000.00000" pt_clust_6="13000.00000" pt_clust_7="13000.00000" pt_clust_8="13000.00000" pt_clust_9="13000.00000"></scales>
<clustering>
<clus scale="   83.838">  5  6 -1 -1</clus>
<clus scale="   89.224">  7  8 -1 -1</clus>
<clus scale="  234.011">  7  9 -1 -1</clus>
<clus scale="  245.622">  2  5  1 -1</clus>
<clus scale="  401.019">  1  5  2 -1</clus>
</clustering>
</event>
<event>
 9    2  0.2147756E-005  0.2738090E+03  0.7546771E-02  0.1127739E+00
          2   -1    0    0  502    0 -0.00000000000E+00  0.00000000000E+00  0.89073360924E+02  0.89073360924E+02  0.00000000000E+00 0. -1.
         21   -1    0    0  501  502  0.00000000000E+00 -0.00000000000E+00 -0.46444869351E+03  0.46444869351E+03  0.00000000000E+00 0.  1.
         24    2    1    2    0    0 -0.36521688934E+02 -0.99750385602E+02 -0.11247239209E+03  0.17393102999E+03  0.79485791323E+02 0.  0.
         23    2    1    2    0    0  0.62827886986E+02 -0.47460342092E+02 -0.14781798417E+03  0.19089136472E+03  0.91594373339E+02 0.  0.
        -11    1    3    3    0    0 -0.17122805181E+02  0.10721490901E+02 -0.13080397053E+02  0.24067355722E+02  0.00000000000E+00 0.  1.
         12    1    3    3    0    0 -0.19398883753E+02 -0.11047187650E+03 -0.99391995033E+02  0.14986367427E+03  0.00000000000E+00 0. -1.
        -11    1    4    4    0    0  0.17706786541E+02 -0.58825672596E+02 -0.39589394318E+02  0.73084267722E+02  0.00000000000E+00 0.  1.
         11    1    4    4    0    0  0.45121100445E+02  0.11365330503E+02 -0.10822858985E+03  0.11780709700E+03  0.00000000000E+00 0. -1.
          1    1    1    2  501    0 -0.26306198052E+02  0.14721072769E+03 -0.11508495633E+03  0.18869965972E+03  0.00000000000E+00 0. -1.
<scales pt_clust_5="13000.00000" pt_clust_6="13000.00000" pt_clust_7="13000.00000" pt_clust_8="13000.00000" pt_clust_9="13000.00000"></scales>
<clustering>
<clus scale="   79.486">  5  6 -1 -1</clus>
<clus scale="   91.594">  7  8 -1 -1</clus>
<clus scale="  132.672">  1  5  2 -1</clus>
<clus scale="   97.665">  7  9 -1 -1</clus>
<clus scale="  273.809">  2  5  1 -1</clus>
</clustering>
</event>
<event>
 9    2  0.2147756E-005  0.4462100E+03  0.7546771E-02  0.1078465E+00
         21   -1    0    0  501  502  0.00000000000E+00  0.00000000000E+00  0.20268469194E+03  0.20268469194E+03  0.00000000000E+00 0. -1.
          2   -1    0    0  502    0 -0.00000000000E+00 -0.00000000000E+00 -0.38210148741E+03  0.38210148741E+03  0.00000000000E+00 0. -1.
         24    2    1    2    0    0  0.55769910171E+02 -0.49460296715E+02 -0.49547895969E+02  0.12006125879E+03  0.80019422865E+02 0.  0.
         23    2    1    2    0    0  0.63490206416E+01  0.20292041421E+03 -0.18617187067E+03  0.28985698814E+03  0.90222522588E+02 0.  0.
        -11    1    3    3    0    0  0.73439015385E+02 -0.33570984263E+02 -0.52198981764E+02  0.96151098081E+02  0.00000000000E+00 0.  1.
         12    1    3    3    0    0 -0.17669105213E+02 -0.15889312452E+02  0.26510857947E+01  0.23910160709E+02  0.00000000000E+00 0. -1.
        -11    1    4    4    0    0 -0.28012294048E+02  0.17676396496E+03 -0.15110669910E+03  0.23422942266E+03  0.00000000000E+00 0. -1.
         11    1    4    4    0    0  0.34361314690E+02  0.26156449242E+02 -0.35065171572E+02  0.55627565483E+02  0.00000000000E+00 0.  1.
          1    1    1    2  501    0 -0.62118930813E+02 -0.15346011749E+03  0.56302971164E+02  0.17486793242E+03  0.00000000000E+00 0. -1.
<scales pt_clust_5="13000.00000" pt_clust_6="13000.00000" pt_clust_7="13000.00000" pt_clust_8="13000.00000" pt_clust_9="13000.00000"></scales>
<clustering>
<clus scale="   80.019">  5  6 -1 -1</clus>
<clus scale="   90.223">  7  8 -1 -1</clus>
<clus scale="  109.360">  2  5  1 -1</clus>
<clus scale="  171.100">  7  9 -1 -1</clus>
<clus scale="  446.210">  1  5  2 -1</clus>
</clustering>
</event>
<event>
 9    2  0.2147756E-005  0.3138887E+03  0.7546771E-02  0.1126902E+00
         21   -1    0    0  501  502  0.00000000000E+00  0.00000000000E+00  0.12385434140E+03  0.12385434140E+03  0.00000000000E+00 0. -1.
         -1   -1    0    0    0  501 -0.00000000000E+00 -0.00000000000E+00 -0.39522103060E+03  0.39522103060E+03  0.00000000000E+00 0.  1.
         24    2    1    2    0    0 -0.25044251707E+02 -0.28767649078E+02 -0.16455260179E+03  0.18751038668E+03  0.81411265677E+02 0.  0.
         23    2    1    2    0    0  0.10148026668E+03  0.22430102387E+00  0.62494725326E+02  0.14362174608E+03  0.80145620073E+02 0.  0.
        -13    1    3    3    0    0  0.25615648505E+02 -0.15818906772E+02 -0.10002002892E+03  0.10445288625E+03  0.00000000000E+00 0.  1.
         14    1    3    3    0    0 -0.50659900213E+02 -0.12948742305E+02 -0.64532572872E+02  0.83057500434E+02  0.00000000000E+00 0. -1.
        -13    1    4    4    0    0  0.49465002884E+02 -0.27531430162E+02 -0.14711729939E+01  0.56629766970E+02  0.00000000000E+00 0.  1.
         13    1    4    4    0    0  0.52015263797E+02  0.27755731186E+02  0.63965898320E+02  0.86991979110E+02  0.00000000000E+00 0. -1.
         -2    1    1    2    0  502 -0.76436014974E+02  0.28543348054E+02 -0.16930881274E+03  0.18794323923E+03  0.00000000000E+00 0.  1.
<scales pt_clust_5="13000.00000" pt_clust_6="13000.00000" pt_clust_7="13000.00000" pt_clust_8="13000.00000" pt_clust_9="13000.00000"></scales>
<clustering>
<clus scale="   80.146">  7  8 -1 -1</clus>
<clus scale="   81.411">  5  6 -1 -1</clus>
<clus scale="   81.592">  7  9 -1 -1</clus>
<clus scale="   89.903">  2  5  1 -1</clus>
<clus scale="  313.889">  1  5  2 -1</clus>
</clustering>
</event>
<event>
 9    2  0.2147756E-005  0.2240499E+03  0.7546771E-02  0.1155760E+00
         -1   -1    0    0    0  501 -0.00000000000E+00  0.00000000000E+00  0.61075123254E+03  0.61075123254E+03  0.00000000000E+00 0.  1.
         21   -1    0    0  501  502  0.00000000000E+00 -0.00000000000E+00 -0.49985689355E+02  0.49985689355E+02  0.00000000000E+00 0.  1.
         24    2    1    2    0    0  0.18124052842E+02  0.91859053829E+02  0.16656874519E+03  0.20731714847E+03  0.80428142552E+02 0.  0.
         23    2    1    2    0    0  0.32471918291E+01  0.30513083336E+02  0.21408483604E+03  0.23462308951E+03  0.90961995355E+02 0.  0.
        -13    1    3    3    0    0  0.36486410100E+02  0.92876436660E+02  0.15836204596E+03  0.18717859976E+03  0.00000000000E+00 0.  1.
         14    1    3    3    0    0 -0.18362357257E+02 -0.10173828311E+01  0.82066992330E+01  0.20138548711E+02  0.00000000000E+00 0. -1.
        -13    1    4    4    0    0 -0.40437562339E+02 -0.14499797629E+01  0.72231607098E+02  0.82793139529E+02  0.00000000000E+00 0.  1.
         13    1    4    4    0    0  0.43684754168E+02  0.31963063098E+02  0.14185322894E+03  0.15182994998E+03  0.00000000000E+00 0. -1.
         -2    1    1    2    0  502 -0.21371244671E+02 -0.12237213716E+03  0.18011196196E+03  0.21879668392E+03  0.00000000000E+00 0.  1.
<scales pt_clust_5="13000.00000" pt_clust_6="13000.00000" pt_clust_7="13000.00000" pt_clust_8="13000.00000" pt_clust_9="13000.00000"></scales>
<clustering>
<clus scale="   80.428">  5  6 -1 -1</clus>
<clus scale="   90.962">  7  8 -1 -1</clus>
<clus scale="  123.431">  1  5  2 -1</clus>
<clus scale="   80.176">  7  9 -1 -1</clus>
<clus scale="  224.050">  2  5  1 -1</clus>
</clustering>
</event>
<event>
 9    2  0.2147756E-005  0.1741255E+03  0.7546771E-02  0.1212267E+00
         21   -1    0    0  501  502  0.00000000000E+00  0.00000000000E+00  0.17742273680E+03  0.17742273680E+03  0.00000000000E+00 0. -1.
          4   -1    0    0  502    0 -0.00000000000E+00 -0.00000000000E+00 -0.34954096057E+03  0.34954096057E+03  0.00000000000E+00 0. -1.
         24    2    1    2    0    0  0.15814211690E+02  0.19691423657E+02 -0.30116909600E+03  0.31022922394E+03  0.70010753070E+02 0.  0.
         23    2    1    2    0    0  0.44571221122E+02  0.17862151603E+02  0.83313376669E+02  0.13218513866E+03  0.90698081228E+02 0.  0.
        -11    1    3    3    0    0 -0.24080025984E+02 -0.63702357801E+01 -0.72857006822E+02  0.76997214224E+02  0.00000000000E+00 0.  1.
         12    1    3    3    0    0  0.39894237673E+02  0.26061659437E+02 -0.22831208918E+03  0.23323200972E+03  0.00000000000E+00 0. -1.
        -13    1    4    4    0    0  0.40516539207E+02 -0.31197518452E+02  0.28617573867E+02  0.58598981569E+02  0.00000000000E+00 0.  1.
         13    1    4    4    0    0  0.40546819151E+01  0.49059670055E+02  0.54695802802E+02  0.73586157091E+02  0.00000000000E+00 0. -1.
          3    1    1    2  501    0 -0.60385432812E+02 -0.37553575259E+02  0.45737495560E+02  0.84549334774E+02  0.00000000000E+00 0. -1.
<scales pt_clust_5="13000.00000" pt_clust_6="13000.00000" pt_clust_7="13000.00000" pt_clust_8="13000.00000" pt_clust_9="13000.00000"></scales>
<clustering>
<clus scale="   70.011">  5  6 -1 -1</clus>
<clus scale="   74.427">  2  5  1 -1</clus>
<clus scale="   90.698">  7  8 -1 -1</clus>
<clus scale="   60.676">  7  9 -1 -1</clus>
<clus scale="  174.126">  1  5  2 -1</clus>
</clustering>
</event>
<event>
 9    2  0.2147756E-005  0.1703749E+03  0.7546771E-02  0.1205755E+00
          4   -1    0    0  502    0 -0.00000000000E+00  0.00000000000E+00  0.69638711736E+03  0.69638711736E+03  0.00000000000E+00 0. -1.
         21   -1    0    0  501  502  0.00000000000E+00 -0.00000000000E+00 -0.32965433467E+02  0.32965433467E+02  0.00000000000E+00 0. -1.
         24    2    1    2    0    0 -0.26736274168E+02  0.57455594211E+02  0.79491030315E+02  0.12107415302E+03  0.65758291991E+02 0.  0.
         23    2    1    2    0    0  0.14103721139E+02 -0.10716251533E+02  0.19989750438E+03  0.22120526876E+03  0.93053778389E+02 0.  0.
        -11    1    3    3    0    0 -0.13371402452E+02  0.17122708463E+02  0.75308164249E+02  0.78379213770E+02  0.00000000000E+00 0.  1.
         12    1    3    3    0    0 -0.13364871716E+02  0.40332885748E+02  0.41828660663E+01  0.42694939247E+02  0.00000000000E+00 0. -1.
        -11    1    4    4    0    0 -0.10956639053E+02  0.37864254465E+02  0.71267957233E+02  0.81442442460E+02  0.00000000000E+00 0. -1.
         11    1    4    4    0    0  0.25060360193E+02 -0.48580505999E+02  0.12862954714E+03  0.13976282630E+03  0.00000000000E+00 0.  1.
          3    1    1    2  501    0  0.12632553029E+02 -0.46739342678E+02  0.38403314920E+03  0.38707312905E+03  0.00000000000E+00 0. -1.
<scales pt_clust_5="13000.00000" pt_clust_6="13000.00000" pt_clust_7="13000.00000" pt_clust_8="13000.00000" pt_clust_9="13000.00000"></scales>
<clustering>
<clus scale="   65.758">  5  6 -1 -1</clus>
<clus scale="   91.324">  1  5  2 -1</clus>
<clus scale="   93.054">  7  8 -1 -1</clus>
<clus scale="   10.651">  7  9 -1 -1</clus>
<clus scale="  170.375">  2  5  1 -1</clus>
</clustering>
</event>
<event>
 9    2  0.2147756E-005  0.1967569E+03  0.7546771E-02  0.1188124E+00
         21   -1    0    0  501  502  0.00000000000E+00  0.00000000000E+00  0.65864131923E+02  0.65864131923E+02  0.00000000000E+00 0.  1.
          2   -1    0    0  502    0 -0.00000000000E+00 -0.00000000000E+00 -0.31494976905E+03  0.31494976905E+03  0.00000000000E+00 0. -1.
         24    2    1    2    0    0 -0.45660458388E+02 -0.11175320589E+02 -0.48011350316E+02  0.99488181423E+02  0.73369225382E+02 0.  0.
         23    2    1    2    0    0 -0.14725622589E+02  0.29227319535E+01 -0.24981848884E+02  0.94984283766E+02  0.90402074458E+02 0.  0.
        -11    1    3    3    0    0 -0.65917236343E+01  0.21991386331E+02  0.72938451725E+01  0.24088837054E+02  0.00000000000E+00 0.  1.
         12    1    3    3    0    0 -0.39068734754E+02 -0.33166706920E+02 -0.55305195489E+02  0.75399344369E+02  0.00000000000E+00 0. -1.
        -13    1    4    4    0    0 -0.46358183796E+02 -0.14276645136E+02 -0.32253708041E+02  0.58251227314E+02  0.00000000000E+00 0.  1.
         13    1    4    4    0    0  0.31632561206E+02  0.17199377090E+02  0.72718591564E+01  0.36733056453E+02  0.00000000000E+00 0. -1.
          1    1    1    2  501    0  0.60386080977E+02  0.82525886354E+01 -0.17609243793E+03  0.18634143578E+03  0.00000000000E+00 0. -1.
<scales pt_clust_5="13000.00000" pt_clust_6="13000.00000" pt_clust_7="13000.00000" pt_clust_8="13000.00000" pt_clust_9="13000.00000"></scales>
<clustering>
<clus scale="   73.369">  5  6 -1 -1</clus>
<clus scale="   87.137">  2  5  1 -1</clus>
<clus scale="   90.402">  7  8 -1 -1</clus>
<clus scale="   26.081">  7  9 -1 -1</clus>
<clus scale="  196.757">  1  5  2 -1</clus>
</clustering>
</event>
<event>
 9    2  0.2147756E-005  0.2278165E+03  0.7546771E-02  0.1161032E+00
         -1   -1    0    0    0  501 -0.00000000000E+00  0.00000000000E+00  0.19937584525E+03  0.19937584525E+03  0.00000000000E+00 0.  1.
         21   -1    0    0  501  502  0.00000000000E+00 -0.00000000000E+00 -0.20672977637E+03  0.20672977637E+03  0.00000000000E+00 0.  1.
         24    2    1    2    0    0  0.62015122595E+02 -0.27436248650E+02  0.10880329786E+03  0.15038536464E+03  0.78606469859E+02 0.  0.
         23    2    1    2    0    0  0.42066060393E+02 -0.55112410632E+01 -0.13650583069E+02  0.10596698595E+03  0.96139151636E+02 0.  0.
        -11    1    3    3    0    0  0.43137813516E+02 -0.18763873281E+02  0.11847317925E+03  0.12747096963E+03  0.00000000000E+00 0.  1.
         12    1    3    3    0    0  0.18877309078E+02 -0.86723753689E+01 -0.96698813979E+01  0.22914395013E+02  0.00000000000E+00 0. -1.
        -11    1    4    4    0    0  0.48481995654E+02  0.35658410133E+02  0.48487620584E+01  0.60378279284E+02  0.00000000000E+00 0.  1.
         11    1    4    4    0    0 -0.64159352615E+01 -0.41169651196E+02 -0.18499345128E+02  0.45588706661E+02  0.00000000000E+00 0. -1.
         -2    1    1    2    0  502 -0.10408118299E+03  0.32947489713E+02 -0.10250664591E+03  0.14975327104E+03  0.00000000000E+00 0.  1.
<scales pt_clust_5="13000.00000" pt_clust_6="13000.00000" pt_clust_7="13000.00000" pt_clust_8="13000.00000" pt_clust_9="13000.00000"></scales>
<clustering>
<clus scale="   78.606">  5  6 -1 -1</clus>
<clus scale="   96.139">  7  8 -1 -1</clus>
<clus scale="  103.815">  1  5  2 -1</clus>
<clus scale="   86.390">  7  9 -1 -1</clus>
<clus scale="  227.816">  2  5  1 -1</clus>
</clustering>
</event>
<event>
 9    2  0.2147756E-005  0.2581178E+03  0.7546771E-02  0.1142459E+00
          2   -1    0    0  502    0 -0.00000000000E+00  0.00000000000E+00  0.95341680418E+02  0.95341680418E+02  0.00000000000E+00 0. -1.
         21   -1    0    0  501  502  0.00000000000E+00 -0.00000000000E+00 -0.65611924834E+03  0.65611924834E+03  0.00000000000E+00 0.  1.
         24    2    1    2    0    0 -0.75962212810E+02  0.48453359619E+01 -0.46202225374E+03  0.47509633406E+03  0.80363104890E+02 0.  0.
         23    2    1    2    0    0 -0.77936831450E+01 -0.56421250614E+01  0.51914735062E+02  0.10397796900E+03  0.89575126288E+02 0.  0.
        -11    1    3    3    0    0 -0.87308601542E+02  0.21064377506E+02 -0.35006806069E+03  0.36140579273E+03  0.00000000000E+00 0.  1.
         12    1    3    3    0    0  0.11346388732E+02 -0.16219041544E+02 -0.11195419305E+03  0.11369054133E+03  0.00000000000E+00 0. -1.
        -11    1    4    4    0    0  0.37654134905E+02  0.78010956080E+00  0.44066277520E+01  0.37919135203E+02  0.00000000000E+00 0.  1.
         11    1    4    4    0    0 -0.45447818050E+02 -0.64222346222E+01  0.47508107310E+02  0.66058833802E+02  0.00000000000E+00 0. -1.
          1    1    1    2  501    0  0.83755895955E+02  0.79678909951E+00 -0.15067004924E+03  0.17238662570E+03  0.00000000000E+00 0. -1.
<scales pt_clust_5="13000.00000" pt_clust_6="13000.00000" pt_clust_7="13000.00000" pt_clust_8="13000.00000" pt_clust_9="13000.00000"></scales>
<clustering>
<clus scale="   80.363">  5  6 -1 -1</clus>
<clus scale="   89.575">  7  8 -1 -1</clus>
<clus scale="   83.760">  7  9 -1 -1</clus>
<clus scale="  110.689">  1  5  2 -1</clus>
<clus scale="  258.118">  2  5  1 -1</clus>
</clustering>
</event>
<event>
 9    2  0.2147756E-005  0.2861983E+03  0.7546771E-02  0.1138167E+00
          2   -1    0    0  502    0 -0.00000000000E+00  0.00000000000E+00  0.12137183623E+04  0.12137183623E+04  0.00000000000E+00 0. -1.
         21   -1    0    0  501  502  0.00000000000E+00 -0.00000000000E+00 -0.38303437387E+02  0.38303437387E+02  0.00000000000E+00 0. -1.
         24    2    1    2    0    0 -0.16552242274E+02  0.37173848586E+02  0.62686437611E+03  0.63329958579E+03  0.80333975238E+02 0.  0.
         23    2    1    2    0    0 -0.96892660605E+02  0.43766307160E+02  0.34755918773E+03  0.37414383786E+03  0.88783698461E+02 0.  0.
        -13    1    3    3    0    0  0.18455134327E+02  0.31306984302E+02  0.12484469779E+03  0.13002660426E+03  0.00000000000E+00 0.  1.
         14    1    3    3    0    0 -0.35007376602E+02  0.58668642840E+01  0.50201967833E+03  0.50327298153E+03  0.00000000000E+00 0. -1.
        -11    1    4    4    0    0 -0.46896508369E+02  0.29380791332E+02  0.29516556459E+03  0.30030854786E+03  0.00000000000E+00 0. -1.
         11    1    4    4    0    0 -0.49996152236E+02  0.14385515828E+02  0.52393623136E+02  0.73835290000E+02  0.00000000000E+00 0.  1.
          1    1    1    2  501    0  0.11344490288E+03 -0.80940155746E+02  0.20099136109E+03  0.24457837605E+03  0.00000000000E+00 0. -1.
<scales pt_clust_5="13000.00000" pt_clust_6="13000.00000" pt_clust_7="13000.00000" pt_clust_8="13000.00000" pt_clust_9="13000.00000"></scales>
<clustering>
<clus scale="   80.334">  5  6 -1 -1</clus>
<clus scale="   88.784">  7  8 -1 -1</clus>
<clus scale="   90.052">  1  5  2 -1</clus>
<clus scale="  126.221">  7  9 -1 -1</clus>
<clus scale="  286.198">  2  5  1 -1</clus>
</clustering>
</event>
<event>
 9    2  0.2147756E-005  0.1383490E+03  0.7546771E-02  0.1239329E+00
         21   -1    0    0  501  502  0.00000000000E+00  0.00000000000E+00  0.32952515758E+02  0.32952515758E+02  0.00000000000E+00 0.  1.
          2   -1    0    0  502    0 -0.00000000000E+00 -0.00000000000E+00 -0.78282376106E+03  0.78282376106E+03  0.00000000000E+00 0. -1.
         24    2    1    2    0    0  0.47671236325E+01  0.29998195507E+02 -0.62093152313E+03  0.62665755633E+03  0.78874072371E+02 0.  0.
         23    2    1    2    0    0  0.18070801386E+02 -0.35116198732E+02 -0.13192982883E+03  0.16552411276E+03  0.91831644300E+02 0.  0.
        -11    1    3    3    0    0  0.13905409828E+02  0.40266845290E+02 -0.16161032397E+03  0.16713071551E+03  0.00000000000E+00 0.  1.
         12    1    3    3    0    0 -0.91382861959E+01 -0.10268649783E+02 -0.45932119915E+03  0.45952684082E+03  0.00000000000E+00 0. -1.
        -13    1    4    4    0    0  0.44565284548E+02 -0.29351902620E+02 -0.32538746571E+02  0.62500950415E+02  0.00000000000E+00 0.  1.
         13    1    4    4    0    0 -0.26494483163E+02 -0.57642961112E+01 -0.99391082257E+02  0.10302316235E+03  0.00000000000E+00 0. -1.
          1    1    1    2  501    0 -0.22837925018E+02  0.51180032249E+01  0.29901066485E+01  0.23594607730E+02  0.00000000000E+00 0. -1.
<scales pt_clust_5="13000.00000" pt_clust_6="13000.00000" pt_clust_7="13000.00000" pt_clust_8="13000.00000" pt_clust_9="13000.00000"></scales>
<clustering>
<clus scale="   78.874">  5  6 -1 -1</clus>
<clus scale="   84.521">  2  5  1 -1</clus>
<clus scale="   91.832">  7  8 -1 -1</clus>
<clus scale="   23.610">  7  9 -1 -1</clus>
<clus scale="  138.349">  1  5  2 -1</clus>
</clustering>
</event>
<event>
 9    2  0.2147756E-005  0.2095988E+03  0.7546771E-02  0.1180393E+00
         21   -1    0    0  501  502  0.00000000000E+00  0.00000000000E+00  0.47181560987E+02  0.47181560987E+02  0.00000000000E+00 0. -1.
         -3   -1    0    0    0  501 -0.00000000000E+00 -0.00000000000E+00 -0.46911313416E+03  0.46911313416E+03  0.00000000000E+00 0.  1.
         24    2    1    2    0    0  0.26058215514E+02 -0.30481642732E+01 -0.15285283970E+03  0.17521548374E+03  0.81536208132E+02 0.  0.
         23    2    1    2    0    0  0.57404487836E+02  0.19913952649E+02 -0.85085438192E+02  0.13833797146E+03  0.90587095223E+02 0.  0.
        -13    1    3    3    0    0  0.52975973269E+02 -0.14601004467E+02 -0.83842335860E+02  0.10024560019E+03  0.00000000000E+00 0.  1.
         14    1    3    3    0    0 -0.26917757755E+02  0.11552840193E+02 -0.69010503836E+02  0.74969883545E+02  0.00000000000E+00 0. -1.
        -13    1    4    4    0    0  0.35265204738E+02 -0.12410393139E+02  0.72072413688E+01  0.38073571558E+02  0.00000000000E+00 0. -1.
         13    1    4    4    0    0  0.22139283098E+02  0.32324345787E+02 -0.92292679561E+02  0.10026439990E+03  0.00000000000E+00 0.  1.
         -4    1    1    2    0  502 -0.83462703350E+02 -0.16865788375E+02 -0.18399329529E+03  0.20274123996E+03  0.00000000000E+00 0.  1.
<scales pt_clust_5="13000.00000" pt_clust_6="13000.00000" pt_clust_7="13000.00000" pt_clust_8="13000.00000" pt_clust_9="13000.00000"></scales>
<clustering>
<clus scale="   81.536">  5  6 -1 -1</clus>
<clus scale="   85.653">  2  5  1 -1</clus>
<clus scale="   90.587">  7  8 -1 -1</clus>
<clus scale="   69.535">  7  9 -1 -1</clus>
<clus scale="  209.599">  1  5  2 -1</clus>
</clustering>
</event>
<event>
 9    2  0.2147756E-005  0.3254197E+03  0.7546771E-02  0.1103087E+00
          2   -1    0    0  502    0 -0.00000000000E+00  0.00000000000E+00  0.63845287601E+03  0.63845287601E+03  0.00000000000E+00 0. -1.
         21   -1    0    0  501  502  0.00000000000E+00 -0.00000000000E+00 -0.10713294004E+03  0.10713294004E+03  0.00000000000E+00 0. -1.
         24    2    1    2    0    0  0.35338252164E+02  0.11799680725E+03  0.33406752681E+03  0.36505131097E+03  0.80556244838E+02 0.  0.
         23    2    1    2    0    0  0.65871121233E+02  0.47118495925E+02  0.31433543315E+02  0.12557902490E+03  0.90680023038E+02 0.  0.
        -13    1    3    3    0    0  0.13716703763E+02  0.15230606215E+02  0.71942525688E+01  0.21722720774E+02  0.00000000000E+00 0.  1.
         14    1    3    3    0    0  0.21621548401E+02  0.10276620103E+03  0.32687327424E+03  0.34332859019E+03  0.00000000000E+00 0. -1.
        -11    1    4    4    0    0 -0.19508160833E+02  0.20361832020E+02  0.21691390492E+02  0.35576522649E+02  0.00000000000E+00 0.  1.
         11    1    4    4    0    0  0.85379282066E+02  0.26756663905E+02  0.97421528234E+01  0.90002502249E+02  0.00000000000E+00 0. -1.
          1    1    1    2  501    0 -0.10120937340E+03 -0.16511530317E+03  0.16581886584E+03  0.25495548018E+03  0.00000000000E+00 0. -1.
<scales pt_clust_5="13000.00000" pt_clust_6="13000.00000" pt_clust_7="13000.00000" pt_clust_8="13000.00000" pt_clust_9="13000.00000"></scales>
<clustering>
<clus scale="   80.556">  5  6 -1 -1</clus>
<clus scale="   90.680">  7  8 -1 -1</clus>
<clus scale="  147.178">  1  5  2 -1</clus>
<clus scale="  109.391">  7  9 -1 -1</clus>
<clus scale="  325.420">  2  5  1 -1</clus>
</clustering>
</event>
<event>
 9    2  0.2147756E-005  0.1972176E+03  0.7546771E-02  0.1186440E+00
          2   -1    0    0  502    0 -0.00000000000E+00  0.00000000000E+00  0.16069994595E+03  0.16069994595E+03  0.00000000000E+00 0. -1.
         21   -1    0    0  501  502  0.00000000000E+00 -0.00000000000E+00 -0.13006358125E+03  0.13006358125E+03  0.00000000000E+00 0. -1.
         24    2    1    2    0    0  0.32220738582E+02  0.27019417760E+02 -0.65872123131E+01  0.90063785214E+02  0.79371714799E+02 0.  0.
         23    2    1    2    0    0  0.39183177085E+02 -0.65311088331E+02  0.13512314588E+02  0.11627820934E+03  0.86816932080E+02 0.  0.
        -13    1    3    3    0    0  0.18430028407E+02  0.11541198237E+02 -0.42987265702E+02  0.48174373025E+02  0.00000000000E+00 0.  1.
         14    1    3    3    0    0  0.13790710176E+02  0.15478219523E+02  0.36400053389E+02  0.41889412189E+02  0.00000000000E+00 0. -1.
        -11    1    4    4    0    0  0.18295310816E+02  0.20306550961E+02  0.43078076231E+01  0.27670049083E+02  0.00000000000E+00 0.  1.
         11    1    4    4    0    0  0.20887866270E+02 -0.85617639291E+02  0.92045069651E+01  0.88608160254E+02  0.00000000000E+00 0. -1.
          1    1    1    2  501    0 -0.71403915668E+02  0.38291670570E+02  0.23711262425E+02  0.84421532642E+02  0.00000000000E+00 0. -1.
<scales pt_clust_5="13000.00000" pt_clust_6="13000.00000" pt_clust_7="13000.00000" pt_clust_8="13000.00000" pt_clust_9="13000.00000"></scales>
<clustering>
<clus scale="   79.372">  5  6 -1 -1</clus>
<clus scale="   86.817">  7  8 -1 -1</clus>
<clus scale="   81.023">  7  9 -1 -1</clus>
<clus scale="   89.823">  1  5  2 -1</clus>
<clus scale="  197.218">  2  5  1 -1</clus>
</clustering>
</event>
<event>
 9    2  0.2147756E-005  0.3890684E+03  0.7546771E-02  0.1098462E+00
          2   -1    0    0  502    0 -0.00000000000E+00  0.00000000000E+00  0.24806870459E+03  0.24806870459E+03  0.00000000000E+00 0. -1.
         21   -1    0    0  501  502  0.00000000000E+00 -0.00000000000E+00 -0.28072204081E+03  0.28072204081E+03  0.00000000000E+00 0.  1.
         24    2    1    2    0    0 -0.40497359711E+02  0.31486398738E+02  0.77731430373E+02  0.12436647796E+03  0.82422182234E+02 0.  0.
         23    2    1    2    0    0 -0.58991158204E+02 -0.17925006448E+03 -0.55829592848E+02  0.21812254149E+03  0.94074211709E+02 0.  0.
        -13    1    3    3    0    0  0.22249396035E+02  0.24127919123E+02  0.35651692740E+02  0.48458593669E+02  0.00000000000E+00 0.  1.
         14    1    3    3    0    0 -0.62746755745E+02  0.73584796148E+01  0.42079737633E+02  0.75907884295E+02  0.00000000000E+00 0. -1.
        -13    1    4    4    0    0 -0.55481725692E+01 -0.14015924957E+03 -0.16824629797E+02  0.14127443373E+03  0.00000000000E+00 0.  1.
         13    1    4    4    0    0 -0.53442985634E+02 -0.39090814906E+02 -0.39004963051E+02  0.76848107759E+02  0.00000000000E+00 0. -1.
          1    1    1    2  501    0  0.99488517914E+02  0.14776366574E+03 -0.54555173743E+02  0.18630172595E+03  0.00000000000E+00 0. -1.
<scales pt_clust_5="13000.00000" pt_clust_6="13000.00000" pt_clust_7="13000.00000" pt_clust_8="13000.00000" pt_clust_9="13000.00000"></scales>
<clustering>
<clus scale="   82.422">  5  6 -1 -1</clus>
<clus scale="   94.074">  7  8 -1 -1</clus>
<clus scale="   97.082">  1  5  2 -1</clus>
<clus scale="  181.160">  7  9 -1 -1</clus>
<clus scale="  389.068">  2  5  1 -1</clus>
</clustering>
</event>
<event>
 9    2  0.2147756E-005  0.4737127E+03  0.7546771E-02  0.1052158E+00
         -1   -1    0    0    0  501 -0.00000000000E+00  0.00000000000E+00  0.87643163090E+03  0.87643163090E+03  0.00000000000E+00 0.  1.
         21   -1    0    0  501  502  0.00000000000E+00 -0.00000000000E+00 -0.13534282043E+03  0.13534282043E+03  0.00000000000E+00 0.  1.
         24    2    1    2    0    0  0.14481490041E+03  0.91674529731E+02  0.34794985386E+03  0.39617557048E+03  0.80687093489E+02 0.  0.
         23    2    1    2    0    0  0.81764833871E+02  0.47188898419E+02 -0.10747519795E+02  0.13212632374E+03  0.91812722712E+02 0.  0.
        -13    1    3    3    0    0  0.79807289973E+02  0.93991595278E+02  0.24730473675E+03  0.27633902427E+03  0.00000000000E+00 0.  1.
         14    1    3    3    0    0  0.65007610438E+02 -0.23170655473E+01  0.10064511711E+03  0.11983654620E+03  0.00000000000E+00 0. -1.
        -13    1    4    4    0    0  0.33845645575E+02  0.51484563881E+02 -0.42170088004E+02  0.74662603522E+02  0.00000000000E+00 0.  1.
         13    1    4    4    0    0  0.47919188296E+02 -0.42956654618E+01  0.31422568209E+02  0.57463720220E+02  0.00000000000E+00 0. -1.
         -2    1    1    2    0  502 -0.22657973428E+03 -0.13886342815E+03  0.40388647640E+03  0.48347255712E+03  0.00000000000E+00 0.  1.
<scales pt_clust_5="13000.00000" pt_clust_6="13000.00000" pt_clust_7="13000.00000" pt_clust_8="13000.00000" pt_clust_9="13000.00000"></scales>
<clustering>
<clus scale="   80.687">  5  6 -1 -1</clus>
<clus scale="   91.813">  7  8 -1 -1</clus>
<clus scale="  189.436">  1  5  2 -1</clus>
<clus scale="  115.014">  7  9 -1 -1</clus>
<clus scale="  473.713">  2  5  1 -1</clus>
</clustering>
</event>
<event>
 9    2  0.2147756E-005  0.2408367E+03  0.7546771E-02  0.1159128E+00
         21   -1    0    0  501  502  0.00000000000E+00  0.00000000000E+00  0.62116204896E+02  0.62116204896E+02  0.00000000000E+00 0. -1.
          2   -1    0    0  502    0 -0.00000000000E+00 -0.00000000000E+00 -0.11315109403E+04  0.11315109403E+04  0.00000000000E+00 0. -1.
         24    2    1    2    0    0  0.37877621591E+02 -0.16080417264E+02 -0.88642199628E+03  0.89116834928E+03  0.82120504353E+02 0.  0.
         23    2    1    2    0    0  0.64571262239E+02  0.47115866858E+02 -0.57499704288E+02  0.13752712703E+03  0.96011154866E+02 0.  0.
        -13    1    3    3    0    0 -0.54741983359E+01  0.21573645317E+02 -0.91229264937E+02  0.93905099972E+02  0.00000000000E+00 0.  1.
         14    1    3    3    0    0  0.43351819927E+02 -0.37654062581E+02 -0.79519273134E+03  0.79726324931E+03  0.00000000000E+00 0. -1.
        -13    1    4    4    0    0  0.80085550244E+02  0.81220583895E+01 -0.50376051098E+02  0.94960042727E+02  0.00000000000E+00 0.  1.
         13    1    4    4    0    0 -0.15514288005E+02  0.38993808469E+02 -0.71236531901E+01  0.42567084302E+02  0.00000000000E+00 0. -1.
          1    1    1    2  501    0 -0.10244888383E+03 -0.31035449594E+02 -0.12547303482E+03  0.16493166887E+03  0.00000000000E+00 0. -1.
<scales pt_clust_5="13000.00000" pt_clust_6="13000.00000" pt_clust_7="13000.00000" pt_clust_8="13000.00000" pt_clust_9="13000.00000"></scales>
<clustering>
<clus scale="   82.121">  5  6 -1 -1</clus>
<clus scale="   91.854">  2  5  1 -1</clus>
<clus scale="   96.011">  7  8 -1 -1</clus>
<clus scale="   89.550">  7  9 -1 -1</clus>
<clus scale="  240.837">  1  5  2 -1</clus>
</clustering>
</event>
<event>
 9    2  0.2147756E-005  0.2149833E+03  0.7546771E-02  0.1178351E+00
         21   -1    0    0  501  502  0.00000000000E+00  0.00000000000E+00  0.48554687268E+02  0.48554687268E+02  0.00000000000E+00 0. -1.
          2   -1    0    0  502    0 -0.00000000000E+00 -0.00000000000E+00 -0.45770714758E+03  0.45770714758E+03  0.00000000000E+00 0. -1.
         24    2    1    2    0    0  0.12098441316E+02 -0.11890738560E+02 -0.10958945480E+03  0.13753999776E+03  0.81361172774E+02 0.  0.
         23    2    1    2    0    0 -0.35632933404E+02  0.88270853221E+02 -0.15599628582E+03  0.20440751258E+03  0.91575873132E+02 0.  0.
        -11    1    3    3    0    0 -0.25427957360E+02 -0.24854621821E+02 -0.23179704652E+02  0.42445635219E+02  0.00000000000E+00 0.  1.
         12    1    3    3    0    0  0.37526398676E+02  0.12963883261E+02 -0.86409750148E+02  0.95094362543E+02  0.00000000000E+00 0. -1.
        -11    1    4    4    0    0 -0.44931693981E+02  0.19566908022E+01 -0.46803060315E+02  0.64909261417E+02  0.00000000000E+00 0.  1.
         11    1    4    4    0    0  0.92987605771E+01  0.86314162418E+02 -0.10919322550E+03  0.13949825117E+03  0.00000000000E+00 0. -1.
          1    1    1    2  501    0  0.23534492089E+02 -0.76380114661E+02 -0.14356671969E+03  0.16431432450E+03  0.00000000000E+00 0. -1.
<scales pt_clust_5="13000.00000" pt_clust_6="13000.00000" pt_clust_7="13000.00000" pt_clust_8="13000.00000" pt_clust_9="13000.00000"></scales>
<clustering>
<clus scale="   81.361">  5  6 -1 -1</clus>
<clus scale="   83.111">  2  5  1 -1</clus>
<clus scale="   91.576">  7  8 -1 -1</clus>
<clus scale="   86.880">  7  9 -1 -1</clus>
<clus scale="  214.983">  1  5  2 -1</clus>
</clustering>
</event>
<event>
 9    2  0.2147756E-005  0.3065406E+03  0.7546771E-02  0.1111203E+00
         21   -1    0    0  501  502  0.00000000000E+00  0.00000000000E+00  0.62710125528E+02  0.62710125528E+02  0.00000000000E+00 0. -1.
          2   -1    0    0  502    0 -0.00000000000E+00 -0.00000000000E+00 -0.80606899235E+03  0.80606899235E+03  0.00000000000E+00 0. -1.
         24    2    1    2    0    0  0.62201112748E+02 -0.10003703122E+03 -0.22878767129E+03  0.26982113000E+03  0.81137276370E+02 0.  0.
         23    2    1    2    0    0  0.84397727653E+02  0.13230875811E+02 -0.26168356363E+03  0.29403392685E+03  0.10334229607E+03 0.  0.
        -13    1    3    3    0    0  0.57191083339E+02 -0.16912410007E+02 -0.10101070074E+03  0.11730307451E+03  0.00000000000E+00 0.  1.
         14    1    3    3    0    0  0.50100294084E+01 -0.83124621216E+02 -0.12777697055E+03  0.15251805549E+03  0.00000000000E+00 0. -1.
        -11    1    4    4    0    0  0.93133973408E+02  0.41690805071E+02 -0.17747696491E+03  0.20471964562E+03  0.00000000000E+00 0. -1.
         11    1    4    4    0    0 -0.87362457549E+01 -0.28459929260E+02 -0.84206598716E+02  0.89314281224E+02  0.00000000000E+00 0.  1.
          1    1    1    2  501    0 -0.14659884040E+03  0.86806155413E+02 -0.25288763190E+03  0.30492406103E+03  0.00000000000E+00 0. -1.
<scales pt_clust_5="13000.00000" pt_clust_6="13000.00000" pt_clust_7="13000.00000" pt_clust_8="13000.00000" pt_clust_9="13000.00000"></scales>
<clustering>
<clus scale="   81.137">  5  6 -1 -1</clus>
<clus scale="  103.342">  7  8 -1 -1</clus>
<clus scale="  143.037">  2  5  1 -1</clus>
<clus scale="  121.131">  7  9 -1 -1</clus>
<clus scale="  306.541">  1  5  2 -1</clus>
</clustering>
</event>
<event>
 9    2  0.2147756E-005  0.2854086E+03  0.7546771E-02  0.1124406E+00
          2   -1    0    0  502    0 -0.00000000000E+00  0.00000000000E+00  0.10093802615E+04  0.10093802615E+04  0.00000000000E+00 0. -1.
         21   -1    0    0  501  502  0.00000000000E+00 -0.00000000000E+00 -0.10540130952E+03  0.10540130952E+03  0.00000000000E+00 0. -1.
         24    2    1    2    0    0  0.64583314831E+02  0.74103686560E+02  0.80149980624E+03  0.81153246258E+03  0.80750464380E+02 0.  0.
         23    2    1    2    0    0 -0.99874650586E+02  0.50060228485E+02  0.98769223259E+02  0.17411383171E+03  0.89884896518E+02 0.  0.
        -11    1    3    3    0    0  0.11141760762E+02  0.42344374855E+02  0.13030407914E+03  0.13746395147E+03  0.00000000000E+00 0.  1.
         12    1    3    3    0    0  0.53441554070E+02  0.31759311705E+02  0.67119572711E+03  0.67406851111E+03  0.00000000000E+00 0. -1.
        -13    1    4    4    0    0 -0.61091840269E+02  0.11871559767E+02  0.10320005186E+01  0.62243167527E+02  0.00000000000E+00 0.  1.
         13    1    4    4    0    0 -0.38782810317E+02  0.38188668719E+02  0.97737222741E+02  0.11187066418E+03  0.00000000000E+00 0. -1.
          1    1    1    2  501    0  0.35291335755E+02 -0.12416391505E+03  0.37099224939E+01  0.12913527676E+03  0.00000000000E+00 0. -1.
<scales pt_clust_5="13000.00000" pt_clust_6="13000.00000" pt_clust_7="13000.00000" pt_clust_8="13000.00000" pt_clust_9="13000.00000"></scales>
<clustering>
<clus scale="   80.750">  5  6 -1 -1</clus>
<clus scale="   89.885">  7  8 -1 -1</clus>
<clus scale="  127.212">  1  5  2 -1</clus>
<clus scale="  114.740">  7  9 -1 -1</clus>
<clus scale="  285.409">  2  5  1 -1</clus>
</clustering>
</event>
<event>
 9    2  0.2147756E-005  0.2174471E+03  0.7546771E-02  0.1163769E+00
         -3   -1    0    0    0  501 -0.00000000000E+00  0.00000000000E+00  0.12559146527E+03  0.12559146527E+03  0.00000000000E+00 0.  1.
         21   -1    0    0  501  502  0.00000000000E+00 -0.00000000000E+00 -0.22850801031E+03  0.22850801031E+03  0.00000000000E+00 0.  1.
         24    2    1    2    0    0 -0.76525181888E+02 -0.20010240723E+02 -0.75086723634E+02  0.13487876595E+03  0.79358378522E+02 0.  0.
         23    2    1    2    0    0 -0.37763665103E+02  0.30107587158E+02 -0.16830750554E+02  0.10396067098E+03  0.90509589211E+02 0.  0.
        -11    1    3    3    0    0 -0.65442598644E+02  0.16780556916E+02 -0.67907344628E+02  0.95790021725E+02  0.00000000000E+00 0.  1.
         12    1    3    3    0    0 -0.11082583244E+02 -0.36790797639E+02 -0.71793790060E+01  0.39088744226E+02  0.00000000000E+00 0. -1.
        -11    1    4    4    0    0 -0.45836724344E+02 -0.20988365078E+02 -0.13149017643E+02  0.52100032938E+02  0.00000000000E+00 0.  1.
         11    1    4    4    0    0  0.80730592402E+01  0.51095952237E+02 -0.36817329117E+01  0.51860638038E+02  0.00000000000E+00 0. -1.
         -4    1    1    2    0  502  0.11428884699E+03 -0.10097346436E+02 -0.10999070855E+02  0.11526003866E+03  0.00000000000E+00 0.  1.
<scales pt_clust_5="13000.00000" pt_clust_6="13000.00000" pt_clust_7="13000.00000" pt_clust_8="13000.00000" pt_clust_9="13000.00000"></scales>
<clustering>
<clus scale="   79.358">  5  6 -1 -1</clus>
<clus scale="   90.510">  7  8 -1 -1</clus>
<clus scale="  112.046">  1  5  2 -1</clus>
<clus scale="   75.577">  7  9 -1 -1</clus>
<clus scale="  217.447">  2  5  1 -1</clus>
</clustering>
</event>
<event>
 9    2  0.2147756E-005  0.1768660E+03  0.7546771E-02  0.1196728E+00
         21   -1    0    0  501  502  0.00000000000E+00  0.00000000000E+00  0.20727919760E+02  0.20727919760E+02  0.00000000000E+00 0.  1.
          2   -1    0    0  502    0 -0.00000000000E+00 -0.00000000000E+00 -0.91984286230E+03  0.91984286230E+03  0.00000000000E+00 0. -1.
         24    2    1    2    0    0 -0.52664451026E+02  0.34034851212E+02 -0.32879378810E+03  0.34345453126E+03  0.76965865525E+02 0.  0.
         23    2    1    2    0    0 -0.25058988706E+02 -0.12514608213E+02 -0.29565294388E+03  0.31085294571E+03  0.91838566516E+02 0.  0.
        -11    1    3    3    0    0 -0.30585651119E+02 -0.22879142625E+02 -0.12225278746E+03  0.12808076070E+03  0.00000000000E+00 0.  1.
         12    1    3    3    0    0 -0.22078799906E+02  0.56913993837E+02 -0.20654100064E+03  0.21537377056E+03  0.00000000000E+00 0. -1.
        -13    1    4    4    0    0 -0.11186303344E+02  0.32242611922E+02 -0.48540908659E+02  0.59337502640E+02  0.00000000000E+00 0.  1.
         13    1    4    4    0    0 -0.13872685362E+02 -0.44757220134E+02 -0.24711203522E+03  0.25151544307E+03  0.00000000000E+00 0. -1.
          1    1    1    2  501    0  0.77723439731E+02 -0.21520243000E+02 -0.27466821056E+03  0.28626330508E+03  0.00000000000E+00 0. -1.
<scales pt_clust_5="13000.00000" pt_clust_6="13000.00000" pt_clust_7="13000.00000" pt_clust_8="13000.00000" pt_clust_9="13000.00000"></scales>
<clustering>
<clus scale="   76.966">  5  6 -1 -1</clus>
<clus scale="   91.839">  7  8 -1 -1</clus>
<clus scale="   80.648">  7  9 -1 -1</clus>
<clus scale="   99.276">  2  5  1 -1</clus>
<clus scale="  176.866">  1  5  2 -1</clus>
</clustering>
</event>
<event>
 9    2  0.2147756E-005  0.4336994E+03  0.7546771E-02  0.1039039E+00
          2   -1    0    0  502    0 -0.00000000000E+00  0.00000000000E+00  0.18525772322E+04  0.18525772322E+04  0.00000000000E+00 0. -1.
         21   -1    0    0  501  502  0.00000000000E+00 -0.00000000000E+00 -0.88729167612E+02  0.88729167612E+02  0.00000000000E+00 0. -1.
         24    2    1    2    0    0  0.23636309159E+03  0.25961561419E+03  0.60615058481E+03  0.70503836211E+03  0.79954877201E+02 0.  0.
         23    2    1    2    0    0  0.10065976423E+02 -0.68834959061E+02  0.34358858218E+03  0.36454684311E+03  0.10000855740E+03 0.  0.
        -11    1    3    3    0    0  0.54330620205E+02  0.25523157677E+02  0.68884815720E+02  0.91369391519E+02  0.00000000000E+00 0.  1.
         12    1    3    3    0    0  0.18203247139E+03  0.23409245651E+03  0.53726576909E+03  0.61366897059E+03  0.00000000000E+00 0. -1.
        -13    1    4    4    0    0  0.30742536852E+02 -0.64553834001E+02  0.33362187515E+03  0.34119767971E+03  0.00000000000E+00 0. -1.
         13    1    4    4    0    0 -0.20676560429E+02 -0.42811250599E+01  0.99667070237E+01  0.23349163408E+02  0.00000000000E+00 0.  1.
          1    1    1    2  501    0 -0.24642906801E+03 -0.19078065513E+03  0.81410889759E+03  0.87172119457E+03  0.00000000000E+00 0. -1.
<scales pt_clust_5="13000.00000" pt_clust_6="13000.00000" pt_clust_7="13000.00000" pt_clust_8="13000.00000" pt_clust_9="13000.00000"></scales>
<clustering>
<clus scale="   79.955">  5  6 -1 -1</clus>
<clus scale="  100.009">  7  8 -1 -1</clus>
<clus scale="  311.648">  7  9 -1 -1</clus>
<clus scale="  360.084">  1  5  2 -1</clus>
<clus scale="  433.699">  2  5  1 -1</clus>
</clustering>
</event>
<event>
 9    2  0.2147756E-005  0.5013456E+03  0.7546771E-02  0.1065705E+00
          2   -1    0    0  502    0 -0.00000000000E+00  0.00000000000E+00  0.14417705918E+04  0.14417705918E+04  0.00000000000E+00 0. -1.
         21   -1    0    0  501  502  0.00000000000E+00 -0.00000000000E+00 -0.64716964436E+02  0.64716964436E+02  0.00000000000E+00 0. -1.
         24    2    1    2    0    0  0.68255812559E+02  0.28604400551E+02  0.22927661605E+03  0.25399426600E+03  0.80425448795E+02 0.  0.
         23    2    1    2    0    0  0.11035259039E+03  0.13620219533E+03  0.23398346847E+03  0.30693482319E+03  0.93445117348E+02 0.  0.
        -11    1    3    3    0    0 -0.84563894461E+01  0.25953604295E+02  0.99891639495E+02  0.10355404260E+03  0.00000000000E+00 0.  1.
         12    1    3    3    0    0  0.76712202005E+02  0.26507962561E+01  0.12938497655E+03  0.15044022340E+03  0.00000000000E+00 0. -1.
        -13    1    4    4    0    0  0.79241657558E+02  0.46095764268E+02  0.63197581849E+02  0.11134628026E+03  0.00000000000E+00 0.  1.
         13    1    4    4    0    0  0.31110932832E+02  0.90106431057E+02  0.17078588662E+03  0.19558854294E+03  0.00000000000E+00 0. -1.
          1    1    1    2  501    0 -0.17860840295E+03 -0.16480659588E+03  0.91379354285E+03  0.94555846704E+03  0.00000000000E+00 0. -1.
<scales pt_clust_5="13000.00000" pt_clust_6="13000.00000" pt_clust_7="13000.00000" pt_clust_8="13000.00000" pt_clust_9="13000.00000"></scales>
<clustering>
<clus scale="   80.425">  5  6 -1 -1</clus>
<clus scale="   93.445">  7  8 -1 -1</clus>
<clus scale="  109.295">  1  5  2 -1</clus>
<clus scale="  190.152">  7  9 -1 -1</clus>
<clus scale="  501.346">  2  5  1 -1</clus>
</clustering>
</event>
<event>
 9    2  0.2147756E-005  0.4719292E+03  0.7546771E-02  0.1080309E+00
         21   -1    0    0  501  502  0.00000000000E+00  0.00000000000E+00  0.10467774143E+03  0.10467774143E+03  0.00000000000E+00 0. -1.
          2   -1    0    0  502    0 -0.00000000000E+00 -0.00000000000E+00 -0.87383325223E+03  0.87383325223E+03  0.00000000000E+00 0. -1.
         24    2    1    2    0    0 -0.11637851123E+02 -0.18538931184E+02 -0.30169903836E+03  0.31425748708E+03  0.85184076491E+02 0.  0.
         23    2    1    2    0    0 -0.40477785645E+02  0.22663678437E+03 -0.31569049341E+03  0.40147285949E+03  0.92289144074E+02 0.  0.
        -13    1    3    3    0    0 -0.14397111043E+02 -0.46196792743E+02 -0.25777849404E+03  0.26228071308E+03  0.00000000000E+00 0.  1.
         14    1    3    3    0    0  0.27592599201E+01  0.27657861558E+02 -0.43920544320E+02  0.51976773992E+02  0.00000000000E+00 0. -1.
        -13    1    4    4    0    0 -0.21436276312E+01  0.10738046286E+03 -0.21655259605E+03  0.24172336627E+03  0.00000000000E+00 0.  1.
         13    1    4    4    0    0 -0.38334158014E+02  0.11925632151E+03 -0.99137897363E+02  0.15974949322E+03  0.00000000000E+00 0. -1.
          1    1    1    2  501    0  0.52115636768E+02 -0.20809785319E+03 -0.15176597903E+03  0.26278064710E+03  0.00000000000E+00 0. -1.
<scales pt_clust_5="13000.00000" pt_clust_6="13000.00000" pt_clust_7="13000.00000" pt_clust_8="13000.00000" pt_clust_9="13000.00000"></scales>
<clustering>
<clus scale="   85.184">  5  6 -1 -1</clus>
<clus scale="   87.951">  2  5  1 -1</clus>
<clus scale="   92.289">  7  8 -1 -1</clus>
<clus scale="  220.152">  7  9 -1 -1</clus>
<clus scale="  471.929">  1  5  2 -1</clus>
</clustering>
</event>
<event>
 9    2  0.2147756E-005  0.1814958E+03  0.7546771E-02  0.1201411E+00
          2   -1    0    0  502    0 -0.00000000000E+00  0.00000000000E+00  0.47639322218E+02  0.47639322218E+02  0.00000000000E+00 0. -1.
         21   -1    0    0  501  502  0.00000000000E+00 -0.00000000000E+00 -0.47331731792E+03  0.47331731792E+03  0.00000000000E+00 0. -1.
         24    2    1    2    0    0 -0.10615751126E+02 -0.22065348534E+02 -0.26794521285E+03  0.28049803779E+03  0.79277603012E+02 0.  0.
         23    2    1    2    0    0  0.50434118167E+02 -0.10888442568E+02 -0.42733316863E+02  0.11437794610E+03  0.92703935874E+02 0.  0.
        -13    1    3    3    0    0  0.86581740221E+01  0.26230392220E+02 -0.13391484996E+03  0.13673399173E+03  0.00000000000E+00 0.  1.
         14    1    3    3    0    0 -0.19273925148E+02 -0.48295740753E+02 -0.13403036288E+03  0.14376404606E+03  0.00000000000E+00 0. -1.
        -11    1    4    4    0    0 -0.25121728429E+02  0.85799862934E+01 -0.19596357500E+02  0.32995979017E+02  0.00000000000E+00 0.  1.
         11    1    4    4    0    0  0.75555846596E+02 -0.19468428861E+02 -0.23136959364E+02  0.81381967080E+02  0.00000000000E+00 0. -1.
          1    1    1    2  501    0 -0.39818367042E+02  0.32953791101E+02 -0.11499946600E+03  0.12608065625E+03  0.00000000000E+00 0. -1.
<scales pt_clust_5="13000.00000" pt_clust_6="13000.00000" pt_clust_7="13000.00000" pt_clust_8="13000.00000" pt_clust_9="13000.00000"></scales>
<clustering>
<clus scale="   79.278">  5  6 -1 -1</clus>
<clus scale="   82.973">  1  5  2 -1</clus>
<clus scale="   92.704">  7  8 -1 -1</clus>
<clus scale="   50.997">  7  9 -1 -1</clus>
<clus scale="  181.496">  2  5  1 -1</clus>
</clustering>
</event>
<event>
 9    2  0.2147756E-005  0.3405830E+03  0.7546771E-02  0.1090105E+00
         21   -1    0    0  501  502  0.00000000000E+00  0.00000000000E+00  0.16416495308E+03  0.16416495308E+03  0.00000000000E+00 0. -1.
          2   -1    0    0  502    0 -0.00000000000E+00 -0.00000000000E+00 -0.41812423095E+03  0.41812423095E+03  0.00000000000E+00 0. -1.
         24    2    1    2    0    0  0.73443647842E+02  0.14378399346E+03 -0.11902908930E+03  0.21595200504E+03  0.79997113666E+02 0.  0.
         23    2    1    2    0    0 -0.36883624126E+02  0.37317252629E+02 -0.14731022015E+03  0.18116817010E+03  0.91480193622E+02 0.  0.
        -13    1    3    3    0    0  0.53608795988E+02  0.55967203605E+02 -0.95326638186E+02  0.12285519458E+03  0.00000000000E+00 0.  1.
         14    1    3    3    0    0  0.19834851854E+02  0.87816789856E+02 -0.23702451116E+02  0.93096810459E+02  0.00000000000E+00 0. -1.
        -11    1    4    4    0    0 -0.23488921188E+02  0.68018415730E+02 -0.10116608493E+03  0.12414834287E+03  0.00000000000E+00 0. -1.
         11    1    4    4    0    0 -0.13394702938E+02 -0.30701163101E+02 -0.46144135221E+02  0.57019827234E+02  0.00000000000E+00 0.  1.
          1    1    1    2  501    0 -0.36560023716E+02 -0.18110124609E+03  0.12380031587E+02  0.18516900889E+03  0.00000000000E+00 0. -1.
<scales pt_clust_5="13000.00000" pt_clust_6="13000.00000" pt_clust_7="13000.00000" pt_clust_8="13000.00000" pt_clust_9="13000.00000"></scales>
<clustering>
<clus scale="   79.997">  5  6 -1 -1</clus>
<clus scale="   91.480">  7  8 -1 -1</clus>
<clus scale="  180.187">  2  5  1 -1</clus>
<clus scale="  132.018">  7  9 -1 -1</clus>
<clus scale="  340.583">  1  5  2 -1</clus>
</clustering>
</event>
<event>
 9    2  0.2147756E-005  0.3067870E+03  0.7546771E-02  0.1124005E+00
         21   -1    0    0  501  502  0.00000000000E+00  0.00000000000E+00  0.46089532645E+02  0.46089532645E+02  0.00000000000E+00 0. -1.
          2   -1    0    0  502    0 -0.00000000000E+00 -0.00000000000E+00 -0.93424844916E+03  0.93424844916E+03  0.00000000000E+00 0. -1.
         24    2    1    2    0    0 -0.41291935791E+02 -0.51114129892E+02 -0.16438997177E+03  0.19423382169E+03  0.79906422985E+02 0.  0.
         23    2    1    2    0    0 -0.31133167971E+02  0.12477846016E+03 -0.21204855044E+03  0.26406049225E+03  0.90688574565E+02 0.  0.
        -11    1    3    3    0    0 -0.33760968878E+02  0.92028055028E+01 -0.27671713148E+02  0.44611863414E+02  0.00000000000E+00 0.  1.
         12    1    3    3    0    0 -0.75309669127E+01 -0.60316935394E+02 -0.13671825862E+03  0.14962195828E+03  0.00000000000E+00 0. -1.
        -13    1    4    4    0    0  0.17067960285E+02  0.85459811330E+02 -0.16304164488E+03  0.18487096199E+03  0.00000000000E+00 0. -1.
         13    1    4    4    0    0 -0.48201128255E+02  0.39318648827E+02 -0.49006905558E+02  0.79189530262E+02  0.00000000000E+00 0.  1.
          1    1    1    2  501    0  0.72425103762E+02 -0.73664330265E+02 -0.51172039430E+03  0.52204366786E+03  0.00000000000E+00 0. -1.
<scales pt_clust_5="13000.00000" pt_clust_6="13000.00000" pt_clust_7="13000.00000" pt_clust_8="13000.00000" pt_clust_9="13000.00000"></scales>
<clustering>
<clus scale="   79.906">  5  6 -1 -1</clus>
<clus scale="   90.689">  7  8 -1 -1</clus>
<clus scale="  103.305">  7  9 -1 -1</clus>
<clus scale="  103.454">  2  5  1 -1</clus>
<clus scale="  306.787">  1  5  2 -1</clus>
</clustering>
</event>
<event>
 9    2  0.2251390E-005  0.1004862E+04  0.7546771E-02  0.9760400E-01
          2   -1    0    0  502    0 -0.00000000000E+00  0.00000000000E+00  0.10646094005E+04  0.10646094005E+04  0.00000000000E+00 0. -1.
         21   -1    0    0  501  502  0.00000000000E+00 -0.00000000000E+00 -0.34800953975E+03  0.34800953975E+03  0.00000000000E+00 0. -1.
         24    2    1    2    0    0  0.13218975726E+03 -0.13409018307E+03  0.18343079215E+03  0.27507028234E+03  0.81009231558E+02 0.  0.
         23    2    1    2    0    0  0.16515838421E+03 -0.26175738422E+03  0.55504251645E+03  0.64197862095E+03  0.90940280532E+02 0.  0.
        -13    1    3    3    0    0  0.17860818923E+01 -0.27463298427E+02  0.60720298293E+02  0.66666164385E+02  0.00000000000E+00 0.  1.
         14    1    3    3    0    0  0.13040367536E+03 -0.10662688465E+03  0.12271049385E+03  0.20840411795E+03  0.00000000000E+00 0. -1.
        -11    1    4    4    0    0  0.57320141179E+02 -0.16894566327E+03  0.27378412137E+03  0.32678124309E+03  0.00000000000E+00 0.  1.
         11    1    4    4    0    0  0.10783824304E+03 -0.92811720946E+02  0.28125839508E+03  0.31519737786E+03  0.00000000000E+00 0. -1.
          1    1    1    2  501    0 -0.29734814147E+03  0.39584756729E+03 -0.21873447885E+02  0.49557003691E+03  0.00000000000E+00 0. -1.
<scales pt_clust_5="13000.00000" pt_clust_6="13000.00000" pt_clust_7="13000.00000" pt_clust_8="13000.00000" pt_clust_9="13000.00000"></scales>
<clustering>
<clus scale="   81.009">  5  6 -1 -1</clus>
<clus scale="   90.940">  7  8 -1 -1</clus>
<clus scale="  204.980">  1  5  2 -1</clus>
<clus scale="  442.237">  7  9 -1 -1</clus>
<clus scale=" 1004.862">  2  5  1 -1</clus>
</clustering>
</event>
<event>
 9    2  0.2147756E-005  0.1582893E+03  0.7546771E-02  0.1217513E+00
         21   -1    0    0  501  502  0.00000000000E+00  0.00000000000E+00  0.38395274421E+02  0.38395274421E+02  0.00000000000E+00 0.  1.
          2   -1    0    0  502    0 -0.00000000000E+00 -0.00000000000E+00 -0.43061748956E+03  0.43061748956E+03  0.00000000000E+00 0. -1.
         24    2    1    2    0    0  0.54988869920E+01 -0.29437487887E+02 -0.82108537073E+02  0.12083754228E+03  0.83445169501E+02 0.  0.
         23    2    1    2    0    0  0.30571555336E+02 -0.16433316868E+02 -0.16314082926E+03  0.19004165213E+03  0.91083618035E+02 0.  0.
        -11    1    3    3    0    0 -0.60330802406E+01  0.24364240854E+02 -0.41870450710E+01  0.25446918006E+02  0.00000000000E+00 0.  1.
         12    1    3    3    0    0  0.11531967233E+02 -0.53801728741E+02 -0.77921492002E+02  0.95390624275E+02  0.00000000000E+00 0. -1.
        -11    1    4    4    0    0  0.51648516064E+02 -0.39153844310E+02 -0.12581101848E+03  0.14152386763E+03  0.00000000000E+00 0.  1.
         11    1    4    4    0    0 -0.21076960728E+02  0.22720527442E+02 -0.37329810779E+02  0.48517784508E+02  0.00000000000E+00 0. -1.
          1    1    1    2  501    0 -0.36070442328E+02  0.45870804754E+02 -0.14697284880E+03  0.15813356957E+03  0.00000000000E+00 0. -1.
<scales pt_clust_5="13000.00000" pt_clust_6="13000.00000" pt_clust_7="13000.00000" pt_clust_8="13000.00000" pt_clust_9="13000.00000"></scales>
<clustering>
<clus scale="   83.445">  5  6 -1 -1</clus>
<clus scale="   88.656">  2  5  1 -1</clus>
<clus scale="   91.084">  7  8 -1 -1</clus>
<clus scale="   46.500">  7  9 -1 -1</clus>
<clus scale="  158.289">  1  5  2 -1</clus>
</clustering>
</event>
<event>
 9    2  0.2147756E-005  0.4172986E+03  0.7546771E-02  0.1063460E+00
         21   -1    0    0  501  502  0.00000000000E+00  0.00000000000E+00  0.22744046581E+03  0.22744046581E+03  0.00000000000E+00 0. -1.
          2   -1    0    0  502    0 -0.00000000000E+00 -0.00000000000E+00 -0.65726160391E+03  0.65726160391E+03  0.00000000000E+00 0. -1.
         24    2    1    2    0    0 -0.74511035552E+02 -0.17559453878E+03 -0.42154845290E+03  0.46732145015E+03  0.65581271451E+02 0.  0.
         23    2    1    2    0    0  0.13699687003E+03  0.39732322379E+02  0.12975965228E+03  0.21387153488E+03  0.92502249885E+02 0.  0.
        -11    1    3    3    0    0 -0.16212552816E+02 -0.17133966094E+02 -0.17372121603E+02  0.29295226094E+02  0.00000000000E+00 0.  1.
         12    1    3    3    0    0 -0.58298482736E+02 -0.15846057269E+03 -0.40417633129E+03  0.43802622406E+03  0.00000000000E+00 0. -1.
        -11    1    4    4    0    0  0.29415940032E+02 -0.29428594332E+02  0.24940785572E+02  0.48511673618E+02  0.00000000000E+00 0.  1.
         11    1    4    4    0    0  0.10758093000E+03  0.69160916711E+02  0.10481886671E+03  0.16535986126E+03  0.00000000000E+00 0. -1.
          1    1    1    2  501    0 -0.62485834477E+02  0.13586221641E+03 -0.13803233748E+03  0.20350908468E+03  0.00000000000E+00 0. -1.
<scales pt_clust_5="13000.00000" pt_clust_6="13000.00000" pt_clust_7="13000.00000" pt_clust_8="13000.00000" pt_clust_9="13000.00000"></scales>
<clustering>
<clus scale="   65.581">  5  6 -1 -1</clus>
<clus scale="   92.502">  7  8 -1 -1</clus>
<clus scale="  149.543">  7  9 -1 -1</clus>
<clus scale="  201.708">  2  5  1 -1</clus>
<clus scale="  417.299">  1  5  2 -1</clus>
</clustering>
</event>
<event>
 9    2  0.2147756E-005  0.2684773E+03  0.7546771E-02  0.1138199E+00
         21   -1    0    0  501  502  0.00000000000E+00  0.00000000000E+00  0.54514901629E+02  0.54514901629E+02  0.00000000000E+00 0.  1.
         -1   -1    0    0    0  501 -0.00000000000E+00 -0.00000000000E+00 -0.70143496951E+03  0.70143496951E+03  0.00000000000E+00 0.  1.
         24    2    1    2    0    0 -0.60696597137E+02 -0.42229486846E+02 -0.10588765890E+03  0.15196633323E+03  0.80088473973E+02 0.  0.
         23    2    1    2    0    0  0.48241794499E-01  0.67980764122E+02 -0.86516369607E+02  0.14471653351E+03  0.94002160844E+02 0.  0.
        -13    1    3    3    0    0 -0.69026943388E+02 -0.56005884955E+02 -0.71790576365E+02  0.11425963818E+03  0.00000000000E+00 0.  1.
         14    1    3    3    0    0  0.83303462504E+01  0.13776398109E+02 -0.34097082539E+02  0.37706695045E+02  0.00000000000E+00 0. -1.
        -11    1    4    4    0    0  0.29688151881E+02  0.28132618257E+02  0.43837747424E+01  0.41134511703E+02  0.00000000000E+00 0.  1.
         11    1    4    4    0    0 -0.29639910086E+02  0.39848145866E+02 -0.90900144349E+02  0.10358202181E+03  0.00000000000E+00 0. -1.
         -2    1    1    2    0  502  0.60648355343E+02 -0.25751277276E+02 -0.45451603937E+03  0.45926700440E+03  0.00000000000E+00 0.  1.
<scales pt_clust_5="13000.00000" pt_clust_6="13000.00000" pt_clust_7="13000.00000" pt_clust_8="13000.00000" pt_clust_9="13000.00000"></scales>
<clustering>
<clus scale="   80.088">  5  6 -1 -1</clus>
<clus scale="   94.002">  7  8 -1 -1</clus>
<clus scale="   65.889">  7  9 -1 -1</clus>
<clus scale="  109.003">  2  5  1 -1</clus>
<clus scale="  268.477">  1  5  2 -1</clus>
</clustering>
</event>
<event>
 9    2  0.2147756E-005  0.1749172E+03  0.7546771E-02  0.1204211E+00
         21   -1    0    0  501  502  0.00000000000E+00  0.00000000000E+00  0.41868636674E+02  0.41868636674E+02  0.00000000000E+00 0. -1.
          2   -1    0    0  502    0 -0.00000000000E+00 -0.00000000000E+00 -0.41227035437E+03  0.41227035437E+03  0.00000000000E+00 0. -1.
         24    2    1    2    0    0 -0.22622673349E+02 -0.27323678156E+02 -0.13800550235E+03  0.16327126051E+03  0.79709579676E+02 0.  0.
         23    2    1    2    0    0 -0.20754586534E+02 -0.15012646491E+02 -0.19966004456E+03  0.22197935752E+03  0.93565855700E+02 0.  0.
        -11    1    3    3    0    0  0.14948156281E+02 -0.23067423535E+02 -0.11665280000E+03  0.11984752460E+03  0.00000000000E+00 0.  1.
         12    1    3    3    0    0 -0.37570829630E+02 -0.42562546207E+01 -0.21352702342E+02  0.43423735903E+02  0.00000000000E+00 0. -1.
        -13    1    4    4    0    0 -0.39722448112E+02  0.17890921220E+01 -0.19116112314E+03  0.19525278163E+03  0.00000000000E+00 0. -1.
         13    1    4    4    0    0  0.18967861579E+02 -0.16801738613E+02 -0.84989214220E+01  0.26726575887E+02  0.00000000000E+00 0.  1.
          1    1    1    2  501    0  0.43377259883E+02  0.42336324647E+02 -0.32736170789E+02  0.68888373021E+02  0.00000000000E+00 0. -1.
<scales pt_clust_5="13000.00000" pt_clust_6="13000.00000" pt_clust_7="13000.00000" pt_clust_8="13000.00000" pt_clust_9="13000.00000"></scales>
<clustering>
<clus scale="   79.710">  5  6 -1 -1</clus>
<clus scale="   87.247">  2  5  1 -1</clus>
<clus scale="   93.566">  7  8 -1 -1</clus>
<clus scale="   53.767">  7  9 -1 -1</clus>
<clus scale="  174.917">  1  5  2 -1</clus>
</clustering>
</event>
<event>
 9    2  0.2147756E-005  0.2119305E+03  0.7546771E-02  0.1160332E+00
         21   -1    0    0  501  502  0.00000000000E+00  0.00000000000E+00  0.65196419842E+02  0.65196419842E+02  0.00000000000E+00 0. -1.
          2   -1    0    0  502    0 -0.00000000000E+00 -0.00000000000E+00 -0.56746584603E+03  0.56746584603E+03  0.00000000000E+00 0. -1.
         24    2    1    2    0    0 -0.76195880915E+02 -0.46509630246E+02 -0.34409367089E+03  0.36821172957E+03  0.95971170006E+02 0.  0.
         23    2    1    2    0    0  0.14309691139E+02  0.93919633430E+02 -0.12043428734E+03  0.17783629214E+03  0.89975910296E+02 0.  0.
        -13    1    3    3    0    0 -0.55042749246E+01  0.26604927053E+02 -0.48218193068E+02  0.55345400249E+02  0.00000000000E+00 0.  1.
         14    1    3    3    0    0 -0.70691605990E+02 -0.73114557299E+02 -0.29587547783E+03  0.31286632932E+03  0.00000000000E+00 0. -1.
        -11    1    4    4    0    0  0.38221754617E+02  0.92505098066E+01 -0.57507854215E+02  0.69667982274E+02  0.00000000000E+00 0.  1.
         11    1    4    4    0    0 -0.23912063479E+02  0.84669123624E+02 -0.62926433120E+02  0.10816830987E+03  0.00000000000E+00 0. -1.
          1    1    1    2  501    0  0.61886189776E+02 -0.47410003184E+02 -0.37741467960E+02  0.86614244156E+02  0.00000000000E+00 0. -1.
<scales pt_clust_5="13000.00000" pt_clust_6="13000.00000" pt_clust_7="13000.00000" pt_clust_8="13000.00000" pt_clust_9="13000.00000"></scales>
<clustering>
<clus scale="   89.976">  7  8 -1 -1</clus>
<clus scale="   77.959">  7  9 -1 -1</clus>
<clus scale="   95.971">  5  6 -1 -1</clus>
<clus scale="  131.070">  2  5  1 -1</clus>
<clus scale="  211.930">  1  5  2 -1</clus>
</clustering>
</event>
<event>
 9    2  0.2147756E-005  0.2110873E+03  0.7546771E-02  0.1159409E+00
          2   -1    0    0  502    0 -0.00000000000E+00  0.00000000000E+00  0.64584848231E+03  0.64584848231E+03  0.00000000000E+00 0. -1.
         21   -1    0    0  501  502  0.00000000000E+00 -0.00000000000E+00 -0.61448421101E+02  0.61448421101E+02  0.00000000000E+00 0. -1.
         24    2    1    2    0    0  0.75715094336E+02  0.80485551332E+02  0.41522221619E+03  0.43678075950E+03  0.78468105392E+02 0.  0.
         23    2    1    2    0    0  0.23423855176E+02 -0.28216026344E+02  0.77336724353E+02  0.12561815912E+03  0.91946353015E+02 0.  0.
        -11    1    3    3    0    0  0.50239920238E+01  0.35294182729E+02  0.46280660626E+02  0.58419340790E+02  0.00000000000E+00 0.  1.
         12    1    3    3    0    0  0.70691102312E+02  0.45191368602E+02  0.36894155557E+03  0.37836141871E+03  0.00000000000E+00 0. -1.
        -13    1    4    4    0    0  0.41093738299E+02 -0.44588368790E+02  0.81073636903E+02  0.10124106163E+03  0.00000000000E+00 0.  1.
         13    1    4    4    0    0 -0.17669883122E+02  0.16372342445E+02 -0.37369125499E+01  0.24377097492E+02  0.00000000000E+00 0. -1.
          1    1    1    2  501    0 -0.99138949513E+02 -0.52269524987E+02  0.91841120663E+02  0.14489798479E+03  0.00000000000E+00 0. -1.
<scales pt_clust_5="13000.00000" pt_clust_6="13000.00000" pt_clust_7="13000.00000" pt_clust_8="13000.00000" pt_clust_9="13000.00000"></scales>
<clustering>
<clus scale="   78.468">  5  6 -1 -1</clus>
<clus scale="   91.946">  7  8 -1 -1</clus>
<clus scale="  112.074">  7  9 -1 -1</clus>
<clus scale="  135.528">  1  5  2 -1</clus>
<clus scale="  211.087">  2  5  1 -1</clus>
</clustering>
</event>
<event>
 9    2  0.2147756E-005  0.3201198E+03  0.7546771E-02  0.1126136E+00
          2   -1    0    0  502    0 -0.00000000000E+00  0.00000000000E+00  0.41198267399E+03  0.41198267399E+03  0.00000000000E+00 0. -1.
         21   -1    0    0  501  502  0.00000000000E+00 -0.00000000000E+00 -0.12811773233E+03  0.12811773233E+03  0.00000000000E+00 0. -1.
         24    2    1    2    0    0  0.44162125635E+01  0.29880540880E+02  0.18645302505E+03  0.20548755106E+03  0.80920043467E+02 0.  0.
         23    2    1    2    0    0  0.10663606756E+03 -0.15809262546E+02  0.15408162240E+03  0.20914546767E+03  0.91539590333E+02 0.  0.
        -13    1    3    3    0    0 -0.34178784786E+02  0.28106941405E+02  0.12787845436E+03  0.13531847093E+03  0.00000000000E+00 0.  1.
         14    1    3    3    0    0  0.38594997349E+02  0.17735994754E+01  0.58574570687E+02  0.70169080133E+02  0.00000000000E+00 0. -1.
        -11    1    4    4    0    0 -0.10287923492E+02 -0.20101667823E+02  0.13757510758E+02  0.26442154249E+02  0.00000000000E+00 0.  1.
         11    1    4    4    0    0  0.11692399105E+03  0.42924052771E+01  0.14032411165E+03  0.18270331342E+03  0.00000000000E+00 0. -1.
          1    1    1    2  501    0 -0.11105228012E+03 -0.14071278334E+02 -0.56669705792E+02  0.12546738759E+03  0.00000000000E+00 0. -1.
<scales pt_clust_5="13000.00000" pt_clust_6="13000.00000" pt_clust_7="13000.00000" pt_clust_8="13000.00000" pt_clust_9="13000.00000"></scales>
<clustering>
<clus scale="   80.920">  5  6 -1 -1</clus>
<clus scale="   86.374">  1  5  2 -1</clus>
<clus scale="   91.540">  7  8 -1 -1</clus>
<clus scale="  110.741">  7  9 -1 -1</clus>
<clus scale="  320.120">  2  5  1 -1</clus>
</clustering>
</event>
<event>
 9    2  0.2147756E-005  0.3684481E+03  0.7546771E-02  0.1077936E+00
          2   -1    0    0  502    0 -0.00000000000E+00  0.00000000000E+00  0.21612726341E+04  0.21612726341E+04  0.00000000000E+00 0. -1.
         21   -1    0    0  501  502  0.00000000000E+00 -0.00000000000E+00 -0.41554560384E+02  0.41554560384E+02  0.00000000000E+00 0. -1.
         24    2    1    2    0    0  0.15024536311E+03 -0.92419421610E+02  0.11237031839E+04  0.11408480816E+04  0.87809345444E+02 0.  0.
         23    2    1    2    0    0 -0.23627013175E+03  0.93795940925E+02  0.62255336548E+03  0.67873550136E+03  0.92129985545E+02 0.  0.
        -11    1    3    3    0    0  0.10088690725E+03 -0.64854514666E+02  0.48348105407E+03  0.49813472653E+03  0.00000000000E+00 0.  1.
         12    1    3    3    0    0  0.49358455855E+02 -0.27564906944E+02  0.64022212984E+03  0.64271335508E+03  0.00000000000E+00 0. -1.
        -11    1    4    4    0    0 -0.17647180508E+03  0.10773623165E+03  0.51388251669E+03  0.55391753408E+03  0.00000000000E+00 0. -1.
         11    1    4    4    0    0 -0.59798326670E+02 -0.13940290729E+02  0.10867084879E+03  0.12481796728E+03  0.00000000000E+00 0.  1.
          1    1    1    2  501    0  0.86024768637E+02 -0.13765193152E+01  0.37346152433E+03  0.38324361153E+03  0.00000000000E+00 0. -1.
<scales pt_clust_5="13000.00000" pt_clust_6="13000.00000" pt_clust_7="13000.00000" pt_clust_8="13000.00000" pt_clust_9="13000.00000"></scales>
<clustering>
<clus scale="   87.809">  5  6 -1 -1</clus>
<clus scale="   92.130">  7  8 -1 -1</clus>
<clus scale="   86.036">  7  9 -1 -1</clus>
<clus scale="  197.042">  1  5  2 -1</clus>
<clus scale="  368.448">  2  5  1 -1</clus>
</clustering>
</event>
<event>
 9    2  0.2147756E-005  0.3038330E+03  0.7546771E-02  0.1119717E+00
         21   -1    0    0  501  502  0.00000000000E+00  0.00000000000E+00  0.48793554467E+03  0.48793554467E+03  0.00000000000E+00 0.  1.
         -1   -1    0    0    0  501 -0.00000000000E+00 -0.00000000000E+00 -0.92373825290E+02  0.92373825290E+02  0.00000000000E+00 0.  1.
         24    2    1    2    0    0 -0.85987828364E+02 -0.11020135922E+02  0.13882276486E+03  0.18252883127E+03  0.80806337486E+02 0.  0.
         23    2    1    2    0    0 -0.35113040347E+01 -0.10732600725E+03  0.73207865046E+02  0.16177298562E+03  0.96332270204E+02 0.  0.
        -13    1    3    3    0    0 -0.65116282740E+02  0.14768906320E+02  0.13303531109E+03  0.14885108286E+03  0.00000000000E+00 0.  1.
         14    1    3    3    0    0 -0.20871545624E+02 -0.25789042243E+02  0.57874537681E+01  0.33677748405E+02  0.00000000000E+00 0. -1.
        -11    1    4    4    0    0 -0.23074681544E+02 -0.22660757329E+02 -0.16985409811E+02  0.36530192958E+02  0.00000000000E+00 0. -1.
         11    1    4    4    0    0  0.19563377509E+02 -0.84665249922E+02  0.90193274857E+02  0.12524279266E+03  0.00000000000E+00 0.  1.
         -2    1    1    2    0  502  0.89499132399E+02  0.11834614317E+03  0.18353108947E+03  0.23600755307E+03  0.00000000000E+00 0.  1.
<scales pt_clust_5="13000.00000" pt_clust_6="13000.00000" pt_clust_7="13000.00000" pt_clust_8="13000.00000" pt_clust_9="13000.00000"></scales>
<clustering>
<clus scale="   80.806">  5  6 -1 -1</clus>
<clus scale="   96.332">  7  8 -1 -1</clus>
<clus scale="  118.512">  2  5  1 -1</clus>
<clus scale="  127.903">  7  9 -1 -1</clus>
<clus scale="  303.833">  1  5  2 -1</clus>
</clustering>
</event>
<event>
 9    2  0.2147756E-005  0.5231989E+03  0.7546771E-02  0.1068289E+00
         21   -1    0    0  501  502  0.00000000000E+00  0.00000000000E+00  0.17673627928E+03  0.17673627928E+03  0.00000000000E+00 0. -1.
         -3   -1    0    0    0  501 -0.00000000000E+00 -0.00000000000E+00 -0.53723778225E+03  0.53723778225E+03  0.00000000000E+00 0.  1.
         24    2    1    2    0    0 -0.38118182550E+02 -0.17173089522E+01 -0.27009216958E+02  0.93527326400E+02  0.81005666419E+02 0.  0.
         23    2    1    2    0    0 -0.35805517280E+01 -0.18742268579E+03  0.28001386354E+02  0.21033650944E+03  0.91199156069E+02 0.  0.
        -13    1    3    3    0    0 -0.41424337400E+02 -0.30182078386E+02 -0.36962924016E+02  0.63191703067E+02  0.00000000000E+00 0.  1.
         14    1    3    3    0    0  0.33061548508E+01  0.28464769434E+02  0.99537070577E+01  0.30335623333E+02  0.00000000000E+00 0. -1.
        -11    1    4    4    0    0 -0.47102020395E+01 -0.11002652478E+03 -0.29384312976E+02  0.11398008601E+03  0.00000000000E+00 0.  1.
         11    1    4    4    0    0  0.11296503115E+01 -0.77396161014E+02  0.57385699330E+02  0.96356423435E+02  0.00000000000E+00 0. -1.
         -4    1    1    2    0  502  0.41698734278E+02  0.18913999474E+03 -0.36149367237E+03  0.41011022569E+03  0.00000000000E+00 0.  1.
<scales pt_clust_5="13000.00000" pt_clust_6="13000.00000" pt_clust_7="13000.00000" pt_clust_8="13000.00000" pt_clust_9="13000.00000"></scales>
<clustering>
<clus scale="   81.006">  5  6 -1 -1</clus>
<clus scale="   89.543">  2  5  1 -1</clus>
<clus scale="   91.199">  7  8 -1 -1</clus>
<clus scale="  188.065">  7  9 -1 -1</clus>
<clus scale="  523.199">  1  5  2 -1</clus>
</clustering>
</event>
<event>
 9    2  0.2147756E-005  0.4814970E+03  0.7546771E-02  0.1051708E+00
         21   -1    0    0  501  502  0.00000000000E+00  0.00000000000E+00  0.21089171658E+03  0.21089171658E+03  0.00000000000E+00 0.  1.
          2   -1    0    0  502    0 -0.00000000000E+00 -0.00000000000E+00 -0.53091935077E+03  0.53091935077E+03  0.00000000000E+00 0. -1.
         24    2    1    2    0    0  0.16605512471E+03 -0.83273434691E+01 -0.48572148896E+02  0.18906565946E+03  0.75782061498E+02 0.  0.
         23    2    1    2    0    0  0.10444753799E+03 -0.10961499362E+03 -0.48865597217E+02  0.18311269332E+03  0.90651402880E+02 0.  0.
        -11    1    3    3    0    0  0.81388825283E+02 -0.19050500625E+02 -0.60094640679E+02  0.10294866824E+03  0.00000000000E+00 0.  1.
         12    1    3    3    0    0  0.84666299431E+02  0.10723157156E+02  0.11522491783E+02  0.86116991214E+02  0.00000000000E+00 0. -1.
        -11    1    4    4    0    0  0.11454419824E+02 -0.23321654003E+02 -0.49884335939E+02  0.56245446492E+02  0.00000000000E+00 0.  1.
         11    1    4    4    0    0  0.92993118168E+02 -0.86293339616E+02  0.10187387222E+01  0.12686724683E+03  0.00000000000E+00 0. -1.
          1    1    1    2  501    0 -0.27050266271E+03  0.11794233709E+03 -0.22258988808E+03  0.36963271457E+03  0.00000000000E+00 0. -1.
<scales pt_clust_5="13000.00000" pt_clust_6="13000.00000" pt_clust_7="13000.00000" pt_clust_8="13000.00000" pt_clust_9="13000.00000"></scales>
<clustering>
<clus scale="   75.782">  5  6 -1 -1</clus>
<clus scale="   90.651">  7  8 -1 -1</clus>
<clus scale="  182.720">  2  5  1 -1</clus>
<clus scale="  188.127">  7  9 -1 -1</clus>
<clus scale="  481.497">  1  5  2 -1</clus>
</clustering>
</event>
<event>
 9    2  0.2147756E-005  0.4906498E+03  0.7546771E-02  0.1037721E+00
         21   -1    0    0  501  502  0.00000000000E+00  0.00000000000E+00  0.73049544950E+02  0.73049544950E+02  0.00000000000E+00 0. -1.
          2   -1    0    0  502    0 -0.00000000000E+00 -0.00000000000E+00 -0.19792735150E+04  0.19792735150E+04  0.00000000000E+00 0. -1.
         24    2    1    2    0    0  0.13490340393E+03  0.20506542722E+03 -0.83494046282E+03  0.87402529803E+03  0.80894297136E+02 0.  0.
         23    2    1    2    0    0  0.11280999590E+03 -0.99083510519E+02 -0.68737686031E+03  0.70927920294E+03  0.89701741341E+02 0.  0.
        -13    1    3    3    0    0  0.72689504021E+02  0.99056103209E+02 -0.55251456955E+03  0.56601079950E+03  0.00000000000E+00 0.  1.
         14    1    3    3    0    0  0.62213899904E+02  0.10600932402E+03 -0.28242589327E+03  0.30801449853E+03  0.00000000000E+00 0. -1.
        -13    1    4    4    0    0  0.58756989189E+02 -0.98592636526E+02 -0.37199045369E+03  0.38929396269E+03  0.00000000000E+00 0. -1.
         13    1    4    4    0    0  0.54053006716E+02 -0.49087399359E+00 -0.31538640662E+03  0.31998524024E+03  0.00000000000E+00 0.  1.
          1    1    1    2  501    0 -0.24771339983E+03 -0.10598191670E+03 -0.38390664695E+03  0.46901855901E+03  0.00000000000E+00 0. -1.
<scales pt_clust_5="13000.00000" pt_clust_6="13000.00000" pt_clust_7="13000.00000" pt_clust_8="13000.00000" pt_clust_9="13000.00000"></scales>
<clustering>
<clus scale="   80.894">  5  6 -1 -1</clus>
<clus scale="   89.702">  7  8 -1 -1</clus>
<clus scale="  258.447">  2  5  1 -1</clus>
<clus scale="  198.582">  7  9 -1 -1</clus>
<clus scale="  490.650">  1  5  2 -1</clus>
</clustering>
</event>
<event>
 9    2  0.2147756E-005  0.3931437E+03  0.7546771E-02  0.1071541E+00
         21   -1    0    0  501  502  0.00000000000E+00  0.00000000000E+00  0.87593467817E+02  0.87593467817E+02  0.00000000000E+00 0.  1.
          2   -1    0    0  502    0 -0.00000000000E+00 -0.00000000000E+00 -0.10269708592E+04  0.10269708592E+04  0.00000000000E+00 0. -1.
         24    2    1    2    0    0  0.11089583632E+03  0.13566568858E+03 -0.20495976767E+03  0.28153899842E+03  0.80948352013E+02 0.  0.
         23    2    1    2    0    0  0.63156303040E+01 -0.21943497546E+03 -0.35115889227E+03  0.42358293148E+03  0.88985035719E+02 0.  0.
        -13    1    3    3    0    0  0.47618661151E+02  0.11810654569E+03 -0.13611468461E+03  0.18639715768E+03  0.00000000000E+00 0.  1.
         14    1    3    3    0    0  0.63277175172E+02  0.17559142888E+02 -0.68845083056E+02  0.95141840731E+02  0.00000000000E+00 0. -1.
        -13    1    4    4    0    0  0.28876054346E+02 -0.18882898110E+03 -0.24401673564E+03  0.30989413981E+03  0.00000000000E+00 0.  1.
         13    1    4    4    0    0 -0.22560424041E+02 -0.30605994356E+02 -0.10714215663E+03  0.11368879167E+03  0.00000000000E+00 0. -1.
          1    1    1    2  501    0 -0.11721146663E+03  0.83769286879E+02 -0.38325873147E+03  0.40944239715E+03  0.00000000000E+00 0. -1.
<scales pt_clust_5="13000.00000" pt_clust_6="13000.00000" pt_clust_7="13000.00000" pt_clust_8="13000.00000" pt_clust_9="13000.00000"></scales>
<clustering>
<clus scale="   80.948">  5  6 -1 -1</clus>
<clus scale="   88.985">  7  8 -1 -1</clus>
<clus scale="  144.069">  7  9 -1 -1</clus>
<clus scale="  193.017">  2  5  1 -1</clus>
<clus scale="  393.144">  1  5  2 -1</clus>
</clustering>
</event>
<event>
 9    2  0.2147756E-005  0.1734494E+03  0.7546771E-02  0.1191213E+00
         21   -1    0    0  501  502  0.00000000000E+00  0.00000000000E+00  0.17928934946E+03  0.17928934946E+03  0.00000000000E+00 0. -1.
          2   -1    0    0  502    0 -0.00000000000E+00 -0.00000000000E+00 -0.13501128424E+03  0.13501128424E+03  0.00000000000E+00 0. -1.
         24    2    1    2    0    0 -0.33109300469E+02 -0.91001467021E+02 -0.34632911529E+02  0.12374451227E+03  0.68816952690E+02 0.  0.
         23    2    1    2    0    0  0.96944886458E+01  0.13504183498E+02  0.39648186881E+02  0.10058029671E+03  0.90928935333E+02 0.  0.
        -11    1    3    3    0    0  0.18601791155E+02 -0.22194603897E+02  0.43000060357E+01  0.29276562781E+02  0.00000000000E+00 0.  1.
         12    1    3    3    0    0 -0.51711091625E+02 -0.68806863123E+02 -0.38932917565E+02  0.94467949485E+02  0.00000000000E+00 0. -1.
        -13    1    4    4    0    0 -0.11542869985E+02 -0.16764569806E+02 -0.21193043101E+02  0.29384242787E+02  0.00000000000E+00 0.  1.
         13    1    4    4    0    0  0.21237358631E+02  0.30268753304E+02  0.60841229982E+02  0.71196053921E+02  0.00000000000E+00 0. -1.
          1    1    1    2  501    0  0.23414811824E+02  0.77497283522E+02  0.39262789874E+02  0.89975824724E+02  0.00000000000E+00 0. -1.
<scales pt_clust_5="13000.00000" pt_clust_6="13000.00000" pt_clust_7="13000.00000" pt_clust_8="13000.00000" pt_clust_9="13000.00000"></scales>
<clustering>
<clus scale="   68.817">  5  6 -1 -1</clus>
<clus scale="   90.929">  7  8 -1 -1</clus>
<clus scale="   80.957">  7  9 -1 -1</clus>
<clus scale="  118.799">  2  5  1 -1</clus>
<clus scale="  173.449">  1  5  2 -1</clus>
</clustering>
</event>
<event>
 9    2  0.2147756E-005  0.9336201E+03  0.7546771E-02  0.9722428E-01
          2   -1    0    0  502    0 -0.00000000000E+00  0.00000000000E+00  0.11738721504E+04  0.11738721504E+04  0.00000000000E+00 0. -1.
         21   -1    0    0  501  502  0.00000000000E+00 -0.00000000000E+00 -0.41361357961E+03  0.41361357961E+03  0.00000000000E+00 0. -1.
         24    2    1    2    0    0 -0.27828580499E+02  0.27682666689E+03  0.56295639409E+03  0.63324540175E+03  0.81684783181E+02 0.  0.
         23    2    1    2    0    0  0.33200115415E+03  0.15867825552E+03  0.18575779257E+03  0.42290355668E+03  0.94540497222E+02 0.  0.
        -11    1    3    3    0    0 -0.31021732734E+02  0.31124033356E+02  0.96113908904E+02  0.10568319090E+03  0.00000000000E+00 0.  1.
         12    1    3    3    0    0  0.31931522355E+01  0.24570263353E+03  0.46684248518E+03  0.52756221085E+03  0.00000000000E+00 0. -1.
        -11    1    4    4    0    0  0.25435172181E+03  0.94972550076E+02  0.95326138764E+02  0.28775276955E+03  0.00000000000E+00 0. -1.
         11    1    4    4    0    0  0.77649432347E+02  0.63705705444E+02  0.90431653807E+02  0.13515078712E+03  0.00000000000E+00 0.  1.
          1    1    1    2  501    0 -0.30417257365E+03 -0.43550492241E+03  0.11544384104E+02  0.53133677156E+03  0.00000000000E+00 0. -1.
<scales pt_clust_5="13000.00000" pt_clust_6="13000.00000" pt_clust_7="13000.00000" pt_clust_8="13000.00000" pt_clust_9="13000.00000"></scales>
<clustering>
<clus scale="   81.685">  5  6 -1 -1</clus>
<clus scale="   94.540">  7  8 -1 -1</clus>
<clus scale="  289.965">  1  5  2 -1</clus>
<clus scale="  440.112">  7  9 -1 -1</clus>
<clus scale="  933.620">  2  5  1 -1</clus>
</clustering>
</event>
<event>
 9    2  0.2147756E-005  0.5134643E+03  0.7546771E-02  0.1065594E+00
         21   -1    0    0  501  502  0.00000000000E+00  0.00000000000E+00  0.30684664744E+03  0.30684664744E+03  0.00000000000E+00 0. -1.
          2   -1    0    0  502    0 -0.00000000000E+00 -0.00000000000E+00 -0.37019145336E+03  0.37019145336E+03  0.00000000000E+00 0. -1.
         24    2    1    2    0    0 -0.43541531846E+02  0.35311954062E+02 -0.12333536003E+03  0.16008115696E+03  0.85273481710E+02 0.  0.
         23    2    1    2    0    0  0.19932932735E+01 -0.10142754461E+03  0.26538756106E+03  0.29721742099E+03  0.87270371550E+02 0.  0.
        -13    1    3    3    0    0 -0.46185414432E+01  0.19685964824E+02  0.83507133938E+01  0.21876986773E+02  0.00000000000E+00 0.  1.
         14    1    3    3    0    0 -0.38922990403E+02  0.15625989239E+02 -0.13168607342E+03  0.13820417018E+03  0.00000000000E+00 0. -1.
        -13    1    4    4    0    0 -0.37652759043E+02 -0.32407194201E+02  0.66608251946E+02  0.83094017395E+02  0.00000000000E+00 0.  1.
         13    1    4    4    0    0  0.39646052317E+02 -0.69020350408E+02  0.19877930912E+03  0.21412340360E+03  0.00000000000E+00 0. -1.
          1    1    1    2  501    0  0.41548238573E+02  0.66115590547E+02 -0.20539700695E+03  0.21973952285E+03  0.00000000000E+00 0. -1.
<scales pt_clust_5="13000.00000" pt_clust_6="13000.00000" pt_clust_7="13000.00000" pt_clust_8="13000.00000" pt_clust_9="13000.00000"></scales>
<clustering>
<clus scale="   85.273">  5  6 -1 -1</clus>
<clus scale="   87.270">  7  8 -1 -1</clus>
<clus scale="   78.087">  7  9 -1 -1</clus>
<clus scale="  102.051">  2  5  1 -1</clus>
<clus scale="  513.464">  1  5  2 -1</clus>
</clustering>
</event>
<event>
 9    2  0.2147756E-005  0.1946490E+03  0.7546771E-02  0.1172575E+00
          2   -1    0    0  502    0 -0.00000000000E+00  0.00000000000E+00  0.78177979673E+03  0.78177979673E+03  0.00000000000E+00 0. -1.
         21   -1    0    0  501  502  0.00000000000E+00 -0.00000000000E+00 -0.33560312264E+02  0.33560312264E+02  0.00000000000E+00 0.  1.
         24    2    1    2    0    0  0.35129144668E+02  0.91744194917E+02  0.25655811860E+03  0.28654984453E+03  0.81472026358E+02 0.  0.
         23    2    1    2    0    0  0.34215369175E+02 -0.52069330858E+02  0.33620454328E+03  0.35400588264E+03  0.91677496250E+02 0.  0.
        -11    1    3    3    0    0 -0.14954519506E+02  0.65943596097E+02  0.10530867469E+03  0.12514836189E+03  0.00000000000E+00 0.  1.
         12    1    3    3    0    0  0.50083664174E+02  0.25800598821E+02  0.15124944390E+03  0.16140148264E+03  0.00000000000E+00 0. -1.
        -11    1    4    4    0    0 -0.30224519246E+02 -0.90090291876E+01  0.12846879435E+03  0.13228346568E+03  0.00000000000E+00 0. -1.
         11    1    4    4    0    0  0.64439888421E+02 -0.43060301670E+02  0.20773574893E+03  0.22172241696E+03  0.00000000000E+00 0.  1.
          1    1    1    2  501    0 -0.69344513843E+02 -0.39674864060E+02  0.15545682259E+03  0.17478438182E+03  0.00000000000E+00 0. -1.
<scales pt_clust_5="13000.00000" pt_clust_6="13000.00000" pt_clust_7="13000.00000" pt_clust_8="13000.00000" pt_clust_9="13000.00000"></scales>
<clustering>
<clus scale="   81.472">  5  6 -1 -1</clus>
<clus scale="   91.677">  7  8 -1 -1</clus>
<clus scale="   79.892">  7  9 -1 -1</clus>
<clus scale="  127.627">  1  5  2 -1</clus>
<clus scale="  194.649">  2  5  1 -1</clus>
</clustering>
</event>
<event>
 9    2  0.2147756E-005  0.2316017E+03  0.7546771E-02  0.1141464E+00
         21   -1    0    0  501  502  0.00000000000E+00  0.00000000000E+00  0.74351780693E+02  0.74351780693E+02  0.00000000000E+00 0.  1.
         -1   -1    0    0    0  501 -0.00000000000E+00 -0.00000000000E+00 -0.52225945393E+03  0.52225945393E+03  0.00000000000E+00 0.  1.
         24    2    1    2    0    0  0.36014278934E+02 -0.12879453777E+03 -0.13303341007E+03  0.20573384479E+03  0.82118606010E+02 0.  0.
         23    2    1    2    0    0 -0.50624773138E+02  0.15423029535E+02 -0.96077785924E+02  0.14402021680E+03  0.93328154401E+02 0.  0.
        -11    1    3    3    0    0  0.41174671385E+02 -0.13427719105E+03 -0.13785050453E+03  0.19679552637E+03  0.00000000000E+00 0.  1.
         12    1    3    3    0    0 -0.51603924503E+01  0.54826532799E+01  0.48170944611E+01  0.89383184255E+01  0.00000000000E+00 0. -1.
        -13    1    4    4    0    0 -0.70639058440E+02  0.25593172252E+02 -0.95566792547E+02  0.12156438163E+03  0.00000000000E+00 0. -1.
         13    1    4    4    0    0  0.20014285301E+02 -0.10170142717E+02 -0.51099337695E+00  0.22455835171E+02  0.00000000000E+00 0.  1.
         -2    1    1    2    0  502  0.14610494204E+02  0.11337150823E+03 -0.21879647725E+03  0.24685717303E+03  0.00000000000E+00 0.  1.
<scales pt_clust_5="13000.00000" pt_clust_6="13000.00000" pt_clust_7="13000.00000" pt_clust_8="13000.00000" pt_clust_9="13000.00000"></scales>
<clustering>
<clus scale="   82.119">  5  6 -1 -1</clus>
<clus scale="   93.328">  7  8 -1 -1</clus>
<clus scale="  114.309">  7  9 -1 -1</clus>
<clus scale="  156.935">  2  5  1 -1</clus>
<clus scale="  231.602">  1  5  2 -1</clus>
</clustering>
</event>
<event>
 9    2  0.2147756E-005  0.5579289E+03  0.7546771E-02  0.1037739E+00
          2   -1    0    0  502    0 -0.00000000000E+00  0.00000000000E+00  0.62515565328E+03  0.62515565328E+03  0.00000000000E+00 0. -1.
         21   -1    0    0  501  502  0.00000000000E+00 -0.00000000000E+00 -0.22365254176E+03  0.22365254176E+03  0.00000000000E+00 0.  1.
         24    2    1    2    0    0 -0.10256954701E+03  0.11791347870E+03  0.17092793283E+03  0.24511157688E+03  0.80244790894E+02 0.  0.
         23    2    1    2    0    0 -0.11089686012E+03  0.52273472709E+01  0.31215649152E+03  0.34410640147E+03  0.92962904380E+02 0.  0.
        -11    1    3    3    0    0 -0.10721203248E+03  0.72255365956E+02  0.13403897049E+03  0.18623024305E+03  0.00000000000E+00 0.  1.
         12    1    3    3    0    0  0.46424854695E+01  0.45658112740E+02  0.36888962341E+02  0.58881333824E+02  0.00000000000E+00 0. -1.
        -11    1    4    4    0    0 -0.87286103855E+02  0.20066422358E+02  0.30104871829E+03  0.31408893011E+03  0.00000000000E+00 0.  1.
         11    1    4    4    0    0 -0.23610756266E+02 -0.14839075087E+02  0.11107773231E+02  0.30017471363E+02  0.00000000000E+00 0. -1.
          1    1    1    2  501    0  0.21346640713E+03 -0.12314082597E+03 -0.81581312839E+02  0.25959021668E+03  0.00000000000E+00 0. -1.
<scales pt_clust_5="13000.00000" pt_clust_6="13000.00000" pt_clust_7="13000.00000" pt_clust_8="13000.00000" pt_clust_9="13000.00000"></scales>
<clustering>
<clus scale="   80.245">  5  6 -1 -1</clus>
<clus scale="   92.963">  7  8 -1 -1</clus>
<clus scale="  175.680">  1  5  2 -1</clus>
<clus scale="  215.183">  7  9 -1 -1</clus>
<clus scale="  557.929">  2  5  1 -1</clus>
</clustering>
</event>
<event>
 9    2  0.2147756E-005  0.1818626E+03  0.7546771E-02  0.1185299E+00
          2   -1    0    0  502    0 -0.00000000000E+00  0.00000000000E+00  0.40948043339E+03  0.40948043339E+03  0.00000000000E+00 0. -1.
         21   -1    0    0  501  502  0.00000000000E+00 -0.00000000000E+00 -0.55769099310E+02  0.55769099310E+02  0.00000000000E+00 0. -1.
         24    2    1    2    0    0  0.56833478282E+02 -0.62302209470E+02  0.10826497071E+03  0.15976971043E+03  0.81813488678E+02 0.  0.
         23    2    1    2    0    0  0.62091311340E+01  0.22354082279E+02  0.79684386558E+02  0.12369077853E+03  0.91714496822E+02 0.  0.
        -11    1    3    3    0    0  0.44377883602E+02 -0.74309772741E+02  0.11251527525E+03  0.14195430970E+03  0.00000000000E+00 0.  1.
         12    1    3    3    0    0  0.12455594680E+02  0.12007563272E+02 -0.42503045382E+01  0.17815400732E+02  0.00000000000E+00 0. -1.
        -13    1    4    4    0    0 -0.13308967254E+02 -0.32856627045E+02  0.36883350585E+02  0.51157287854E+02  0.00000000000E+00 0. -1.
         13    1    4    4    0    0  0.19518098388E+02  0.55210709324E+02  0.42801035973E+02  0.72533490672E+02  0.00000000000E+00 0.  1.
          1    1    1    2  501    0 -0.63042609416E+02  0.39948127190E+02  0.16576197681E+03  0.18178904374E+03  0.00000000000E+00 0. -1.
<scales pt_clust_5="13000.00000" pt_clust_6="13000.00000" pt_clust_7="13000.00000" pt_clust_8="13000.00000" pt_clust_9="13000.00000"></scales>
<clustering>
<clus scale="   81.813">  5  6 -1 -1</clus>
<clus scale="   91.714">  7  8 -1 -1</clus>
<clus scale="   74.634">  7  9 -1 -1</clus>
<clus scale="  117.495">  1  5  2 -1</clus>
<clus scale="  181.863">  2  5  1 -1</clus>
</clustering>
</event>
<event>
 9    2  0.2147756E-005  0.3569723E+03  0.7546771E-02  0.1115557E+00
         21   -1    0    0  501  502  0.00000000000E+00  0.00000000000E+00  0.29677521851E+03  0.29677521851E+03  0.00000000000E+00 0.  1.
          2   -1    0    0  502    0 -0.00000000000E+00 -0.00000000000E+00 -0.16232082221E+03  0.16232082221E+03  0.00000000000E+00 0. -1.
         24    2    1    2    0    0  0.21383484104E+02  0.12804450240E+02  0.13822190154E+02  0.82291946926E+02  0.77199120784E+02 0.  0.
         23    2    1    2    0    0 -0.16619972302E+03  0.52760575486E+02  0.79103659581E+02  0.21250212840E+03  0.92161485229E+02 0.  0.
        -13    1    3    3    0    0 -0.14976902638E+02  0.33771765336E+02  0.16007008559E+02  0.40262439936E+02  0.00000000000E+00 0.  1.
         14    1    3    3    0    0  0.36360386743E+02 -0.20967315096E+02 -0.21848184049E+01  0.42029506991E+02  0.00000000000E+00 0. -1.
        -11    1    4    4    0    0 -0.15988409795E+03  0.19891337732E+02  0.51590675832E+02  0.16917502158E+03  0.00000000000E+00 0.  1.
         11    1    4    4    0    0 -0.63156250637E+01  0.32869237753E+02  0.27512983749E+02  0.43327106818E+02  0.00000000000E+00 0. -1.
          1    1    1    2  501    0  0.14481623891E+03 -0.65565025726E+02  0.41528546561E+02  0.16430196539E+03  0.00000000000E+00 0. -1.
<scales pt_clust_5="13000.00000" pt_clust_6="13000.00000" pt_clust_7="13000.00000" pt_clust_8="13000.00000" pt_clust_9="13000.00000"></scales>
<clustering>
<clus scale="   77.199">  5  6 -1 -1</clus>
<clus scale="   81.123">  2  5  1 -1</clus>
<clus scale="   92.161">  7  8 -1 -1</clus>
<clus scale="  166.063">  7  9 -1 -1</clus>
<clus scale="  356.972">  1  5  2 -1</clus>
</clustering>
</event>
<event>
 9    2  0.2147756E-005  0.3403330E+03  0.7546771E-02  0.1117131E+00
         21   -1    0    0  501  502  0.00000000000E+00  0.00000000000E+00  0.17494687642E+03  0.17494687642E+03  0.00000000000E+00 0. -1.
          2   -1    0    0  502    0 -0.00000000000E+00 -0.00000000000E+00 -0.36746300534E+03  0.36746300534E+03  0.00000000000E+00 0. -1.
         24    2    1    2    0    0  0.39867587627E+02  0.10074199107E+02 -0.18071156482E+03  0.20187221266E+03  0.80030035320E+02 0.  0.
         23    2    1    2    0    0  0.11591908785E+03  0.66594954739E+02 -0.33478605621E+02  0.16555935192E+03  0.91743986443E+02 0.  0.
        -13    1    3    3    0    0  0.36055131263E+02 -0.20659127295E+02 -0.39597088509E+02  0.57399489975E+02  0.00000000000E+00 0.  1.
         14    1    3    3    0    0  0.38124563640E+01  0.30733326402E+02 -0.14111447631E+03  0.14447272269E+03  0.00000000000E+00 0. -1.
        -11    1    4    4    0    0  0.40596299227E+02 -0.48243482204E+01 -0.45381135173E+02  0.61080121776E+02  0.00000000000E+00 0.  1.
         11    1    4    4    0    0  0.75322788623E+02  0.71419302959E+02  0.11902529551E+02  0.10447923014E+03  0.00000000000E+00 0. -1.
          1    1    1    2  501    0 -0.15578667548E+03 -0.76669153845E+02  0.21674041532E+02  0.17497831718E+03  0.00000000000E+00 0. -1.
<scales pt_clust_5="13000.00000" pt_clust_6="13000.00000" pt_clust_7="13000.00000" pt_clust_8="13000.00000" pt_clust_9="13000.00000"></scales>
<clustering>
<clus scale="   80.030">  5  6 -1 -1</clus>
<clus scale="   89.976">  2  5  1 -1</clus>
<clus scale="   91.744">  7  8 -1 -1</clus>
<clus scale="  156.176">  7  9 -1 -1</clus>
<clus scale="  340.333">  1  5  2 -1</clus>
</clustering>
</event>
<event>
 9    2  0.2147756E-005  0.1811983E+03  0.7546771E-02  0.1200411E+00
         -1   -1    0    0    0  501 -0.00000000000E+00  0.00000000000E+00  0.15293138049E+03  0.15293138049E+03  0.00000000000E+00 0.  1.
         21   -1    0    0  501  502  0.00000000000E+00 -0.00000000000E+00 -0.13566669688E+03  0.13566669688E+03  0.00000000000E+00 0.  1.
         24    2    1    2    0    0  0.12928479377E+02  0.33696133955E+02  0.57745992094E+02  0.10293287544E+03  0.77188096365E+02 0.  0.
         23    2    1    2    0    0  0.88744276813E+00  0.31409409115E+02 -0.63328949337E+02  0.11529741005E+03  0.91080175689E+02 0.  0.
        -13    1    3    3    0    0  0.32137547202E+02 -0.11346782161E+02  0.12620836896E+02  0.36343595441E+02  0.00000000000E+00 0.  1.
         14    1    3    3    0    0 -0.19209067825E+02  0.45042916116E+02  0.45125155198E+02  0.66589279998E+02  0.00000000000E+00 0. -1.
        -13    1    4    4    0    0  0.35949974647E+02  0.14598364402E+02  0.24573024504E+01  0.38878673533E+02  0.00000000000E+00 0. -1.
         13    1    4    4    0    0 -0.35062531879E+02  0.16811044712E+02 -0.65786251787E+02  0.76418736513E+02  0.00000000000E+00 0.  1.
         -2    1    1    2    0  502 -0.13815922145E+02 -0.65105543070E+02  0.22847640855E+02  0.70367791892E+02  0.00000000000E+00 0.  1.
<scales pt_clust_5="13000.00000" pt_clust_6="13000.00000" pt_clust_7="13000.00000" pt_clust_8="13000.00000" pt_clust_9="13000.00000"></scales>
<clustering>
<clus scale="   77.188">  5  6 -1 -1</clus>
<clus scale="   85.209">  1  5  2 -1</clus>
<clus scale="   91.080">  7  8 -1 -1</clus>
<clus scale="   43.819">  7  9 -1 -1</clus>
<clus scale="  181.198">  2  5  1 -1</clus>
</clustering>
</event>
<event>
 9    2  0.2147756E-005  0.2897027E+03  0.7546771E-02  0.1133392E+00
          2   -1    0    0  502    0 -0.00000000000E+00  0.00000000000E+00  0.39527138797E+03  0.39527138797E+03  0.00000000000E+00 0. -1.
         21   -1    0    0  501  502  0.00000000000E+00 -0.00000000000E+00 -0.15833277476E+03  0.15833277476E+03  0.00000000000E+00 0.  1.
         24    2    1    2    0    0  0.45235201069E+02 -0.33310082059E+02  0.24510335546E+03  0.26378647579E+03  0.79698588278E+02 0.  0.
         23    2    1    2    0    0  0.24996131324E+02 -0.10006185190E+03 -0.38491722241E+01  0.13902267057E+03  0.93141322830E+02 0.  0.
        -13    1    3    3    0    0  0.52662430107E+02  0.98551179300E+01  0.14162435148E+03  0.15141965469E+03  0.00000000000E+00 0.  1.
         14    1    3    3    0    0 -0.74272290373E+01 -0.43165199989E+02  0.10347900397E+03  0.11236682110E+03  0.00000000000E+00 0. -1.
        -13    1    4    4    0    0 -0.32818309179E+02 -0.60565293809E+02  0.23668086641E+00  0.68885791346E+02  0.00000000000E+00 0.  1.
         13    1    4    4    0    0  0.57814440503E+02 -0.39496558092E+02 -0.40858530905E+01  0.70136879223E+02  0.00000000000E+00 0. -1.
          1    1    1    2  501    0 -0.70231332393E+02  0.13337193396E+03 -0.43155700250E+01  0.15079501637E+03  0.00000000000E+00 0. -1.
<scales pt_clust_5="13000.00000" pt_clust_6="13000.00000" pt_clust_7="13000.00000" pt_clust_8="13000.00000" pt_clust_9="13000.00000"></scales>
<clustering>
<clus scale="   79.699">  5  6 -1 -1</clus>
<clus scale="   93.141">  7  8 -1 -1</clus>
<clus scale="   97.507">  1  5  2 -1</clus>
<clus scale="  125.095">  7  9 -1 -1</clus>
<clus scale="  289.703">  2  5  1 -1</clus>
</clustering>
</event>
<event>
 9    2  0.2147756E-005  0.1917088E+03  0.7546771E-02  0.1187726E+00
         21   -1    0    0  501  502  0.00000000000E+00  0.00000000000E+00  0.36239952776E+03  0.36239952776E+03  0.00000000000E+00 0. -1.
          4   -1    0    0  502    0 -0.00000000000E+00 -0.00000000000E+00 -0.58943764241E+02  0.58943764241E+02  0.00000000000E+00 0. -1.
         24    2    1    2    0    0  0.38367147754E+02  0.54115292169E+02  0.63905554644E+02  0.11452647487E+03  0.68057994811E+02 0.  0.
         23    2    1    2    0    0 -0.11953252208E+02  0.19935091411E+02  0.67751534902E+02  0.11788313151E+03  0.93626246876E+02 0.  0.
        -11    1    3    3    0    0  0.47639436614E+02  0.46114144681E+02  0.20459896052E+02  0.69387589719E+02  0.00000000000E+00 0.  1.
         12    1    3    3    0    0 -0.92722888599E+01  0.80011474877E+01  0.43445658592E+02  0.45138885147E+02  0.00000000000E+00 0. -1.
        -13    1    4    4    0    0 -0.11965139841E+02 -0.32607468711E+02  0.35387467844E+01  0.34913239838E+02  0.00000000000E+00 0.  1.
         13    1    4    4    0    0  0.11887632889E-01  0.52542560123E+02  0.64212788117E+02  0.82969891668E+02  0.00000000000E+00 0. -1.
          3    1    1    2  501    0 -0.26413895546E+02 -0.74050383580E+02  0.17179867397E+03  0.18893368563E+03  0.00000000000E+00 0. -1.
<scales pt_clust_5="13000.00000" pt_clust_6="13000.00000" pt_clust_7="13000.00000" pt_clust_8="13000.00000" pt_clust_9="13000.00000"></scales>
<clustering>
<clus scale="   68.058">  5  6 -1 -1</clus>
<clus scale="   93.626">  7  8 -1 -1</clus>
<clus scale="   78.620">  7  9 -1 -1</clus>
<clus scale="   95.039">  2  5  1 -1</clus>
<clus scale="  191.709">  1  5  2 -1</clus>
</clustering>
</event>
<event>
 9    2  0.2147756E-005  0.4245398E+03  0.7546771E-02  0.1093306E+00
         21   -1    0    0  501  502  0.00000000000E+00  0.00000000000E+00  0.10221918365E+03  0.10221918365E+03  0.00000000000E+00 0. -1.
          2   -1    0    0  502    0 -0.00000000000E+00 -0.00000000000E+00 -0.63816019155E+03  0.63816019155E+03  0.00000000000E+00 0. -1.
         24    2    1    2    0    0  0.18098424583E+02 -0.15573789566E+02 -0.75231185979E+02  0.11389109839E+03  0.82105755309E+02 0.  0.
         23    2    1    2    0    0  0.14990978020E+03 -0.11741659093E+03 -0.21540747551E+03  0.30077914379E+03  0.88363537747E+02 0.  0.
        -13    1    3    3    0    0  0.24630112591E+02 -0.27157692301E+02 -0.88076055645E+02  0.95402171229E+02  0.00000000000E+00 0.  1.
         14    1    3    3    0    0 -0.65316880074E+01  0.11583902735E+02  0.12844869666E+02  0.18488927160E+02  0.00000000000E+00 0. -1.
        -11    1    4    4    0    0  0.11984340433E+03 -0.12454719496E+03 -0.15169674601E+03  0.22997032000E+03  0.00000000000E+00 0. -1.
         11    1    4    4    0    0  0.30066375873E+02  0.71306040207E+01 -0.63710729500E+02  0.70808823781E+02  0.00000000000E+00 0.  1.
          1    1    1    2  501    0 -0.16800820479E+03  0.13299038050E+03 -0.24530234641E+03  0.32570913302E+03  0.00000000000E+00 0. -1.
<scales pt_clust_5="13000.00000" pt_clust_6="13000.00000" pt_clust_7="13000.00000" pt_clust_8="13000.00000" pt_clust_9="13000.00000"></scales>
<clustering>
<clus scale="   82.106">  5  6 -1 -1</clus>
<clus scale="   85.507">  2  5  1 -1</clus>
<clus scale="   88.364">  7  8 -1 -1</clus>
<clus scale="  201.745">  7  9 -1 -1</clus>
<clus scale="  424.540">  1  5  2 -1</clus>
</clustering>
</event>
<event>
 9    2  0.2147756E-005  0.6755765E+03  0.7546771E-02  0.1044253E+00
         21   -1    0    0  501  502  0.00000000000E+00  0.00000000000E+00  0.14892043889E+03  0.14892043889E+03  0.00000000000E+00 0.  1.
          2   -1    0    0  502    0 -0.00000000000E+00 -0.00000000000E+00 -0.11681081461E+04  0.11681081461E+04  0.00000000000E+00 0. -1.
         24    2    1    2    0    0  0.98648220562E+01 -0.11531012036E+02 -0.37399129698E+03  0.38285406745E+03  0.80482717372E+02 0.  0.
         23    2    1    2    0    0  0.18603262447E+03 -0.24191319133E+03 -0.17055601335E+03  0.36155485307E+03  0.92208614465E+02 0.  0.
        -11    1    3    3    0    0  0.37777642441E+02  0.74198514610E+01 -0.10653098945E+03  0.11327425205E+03  0.00000000000E+00 0.  1.
         12    1    3    3    0    0 -0.27912820384E+02 -0.18950863497E+02 -0.26746030753E+03  0.26957981540E+03  0.00000000000E+00 0. -1.
        -11    1    4    4    0    0  0.16002521241E+03 -0.20224325212E+03 -0.10014821657E+03  0.27665875536E+03  0.00000000000E+00 0.  1.
         11    1    4    4    0    0  0.26007412059E+02 -0.39669939209E+02 -0.70407796778E+02  0.84896097708E+02  0.00000000000E+00 0. -1.
          1    1    1    2  501    0 -0.19589744652E+03  0.25344420337E+03 -0.47464039683E+03  0.57261966442E+03  0.00000000000E+00 0. -1.
<scales pt_clust_5="13000.00000" pt_clust_6="13000.00000" pt_clust_7="13000.00000" pt_clust_8="13000.00000" pt_clust_9="13000.00000"></scales>
<clustering>
<clus scale="   80.483">  5  6 -1 -1</clus>
<clus scale="   81.901">  2  5  1 -1</clus>
<clus scale="   92.209">  7  8 -1 -1</clus>
<clus scale="  310.278">  7  9 -1 -1</clus>
<clus scale="  675.577">  1  5  2 -1</clus>
</clustering>
</event>
<event>
 9    2  0.2147756E-005  0.2997747E+03  0.7546771E-02  0.1120262E+00
         21   -1    0    0  501  502  0.00000000000E+00  0.00000000000E+00  0.62150893457E+02  0.62150893457E+02  0.00000000000E+00 0. -1.
         -1   -1    0    0    0  501 -0.00000000000E+00 -0.00000000000E+00 -0.80795657495E+03  0.80795657495E+03  0.00000000000E+00 0.  1.
         24    2    1    2    0    0  0.82530638706E+02 -0.15601703729E+02 -0.36926711826E+03  0.38881116253E+03  0.88097650314E+02 0.  0.
         23    2    1    2    0    0  0.67748585964E+02 -0.40043250243E+02 -0.86099727250E+02  0.14958118154E+03  0.93637781095E+02 0.  0.
        -13    1    3    3    0    0  0.15318335640E+02  0.34459013504E+02 -0.12522844665E+03  0.13078317502E+03  0.00000000000E+00 0.  1.
         14    1    3    3    0    0  0.67212303066E+02 -0.50060717233E+02 -0.24403867162E+03  0.25802798751E+03  0.00000000000E+00 0. -1.
        -13    1    4    4    0    0 -0.17557976721E+02 -0.11153269788E+02 -0.46994612200E+02  0.51392329674E+02  0.00000000000E+00 0.  1.
         13    1    4    4    0    0  0.85306562685E+02 -0.28889980455E+02 -0.39105115051E+02  0.98188851867E+02  0.00000000000E+00 0. -1.
         -2    1    1    2    0  502 -0.15027922467E+03  0.55644953972E+02 -0.29043883598E+03  0.33171512434E+03  0.00000000000E+00 0.  1.
<scales pt_clust_5="13000.00000" pt_clust_6="13000.00000" pt_clust_7="13000.00000" pt_clust_8="13000.00000" pt_clust_9="13000.00000"></scales>
<clustering>
<clus scale="   88.098">  5  6 -1 -1</clus>
<clus scale="   93.638">  7  8 -1 -1</clus>
<clus scale="  121.721">  2  5  1 -1</clus>
<clus scale="  100.705">  7  9 -1 -1</clus>
<clus scale="  299.775">  1  5  2 -1</clus>
</clustering>
</event>
<event>
 9    2  0.2147756E-005  0.3604294E+03  0.7546771E-02  0.1102237E+00
         21   -1    0    0  501  502  0.00000000000E+00  0.00000000000E+00  0.12593628767E+04  0.12593628767E+04  0.00000000000E+00 0.  1.
         -1   -1    0    0    0  501 -0.00000000000E+00 -0.00000000000E+00 -0.87145107925E+02  0.87145107925E+02  0.00000000000E+00 0.  1.
         24    2    1    2    0    0  0.42926506505E+02 -0.68799184087E+02 -0.94200622294E+01  0.11112248962E+03  0.75388708934E+02 0.  0.
         23    2    1    2    0    0  0.46196278938E+02 -0.85777212879E+02  0.25011968673E+03  0.28693265670E+03  0.10138375290E+03 0.  0.
        -11    1    3    3    0    0  0.19456361426E+02 -0.45263615694E+02 -0.41880666330E+02  0.64663243948E+02  0.00000000000E+00 0.  1.
         12    1    3    3    0    0  0.23470145079E+02 -0.23535568393E+02  0.32460604101E+02  0.46459245670E+02  0.00000000000E+00 0. -1.
        -13    1    4    4    0    0  0.26851770998E+02  0.35796268171E+01  0.81844237544E+01  0.28298694777E+02  0.00000000000E+00 0. -1.
         13    1    4    4    0    0  0.19344507940E+02 -0.89356839697E+02  0.24193526297E+03  0.25863396192E+03  0.00000000000E+00 0.  1.
         -2    1    1    2    0  502 -0.89122785443E+02  0.15457639697E+03  0.93151814430E+03  0.94845283834E+03  0.00000000000E+00 0.  1.
<scales pt_clust_5="13000.00000" pt_clust_6="13000.00000" pt_clust_7="13000.00000" pt_clust_8="13000.00000" pt_clust_9="13000.00000"></scales>
<clustering>
<clus scale="   75.389">  5  6 -1 -1</clus>
<clus scale="  101.384">  7  8 -1 -1</clus>
<clus scale="  110.722">  2  5  1 -1</clus>
<clus scale="  152.896">  7  9 -1 -1</clus>
<clus scale="  360.429">  1  5  2 -1</clus>
</clustering>
</event>
<event>
 9    2  0.2147756E-005  0.2516700E+03  0.7546771E-02  0.1157358E+00
         -3   -1    0    0    0  501 -0.00000000000E+00  0.00000000000E+00  0.22698939679E+03  0.22698939679E+03  0.00000000000E+00 0.  1.
         21   -1    0    0  501  502  0.00000000000E+00 -0.00000000000E+00 -0.12410593627E+03  0.12410593627E+03  0.00000000000E+00 0.  1.
         24    2    1    2    0    0 -0.23337329451E+02 -0.15889197033E+01  0.29847597531E+02  0.89041823547E+02  0.80563091118E+02 0.  0.
         23    2    1    2    0    0 -0.69397105017E+02  0.69101496058E+02  0.20118056908E+02  0.13572885830E+03  0.91796578474E+02 0.  0.
        -13    1    3    3    0    0  0.20467740216E+01  0.37181647810E+02  0.17117994897E+02  0.40984020875E+02  0.00000000000E+00 0.  1.
         14    1    3    3    0    0 -0.25384103472E+02 -0.38770567514E+02  0.12729602634E+02  0.48057802672E+02  0.00000000000E+00 0. -1.
        -11    1    4    4    0    0 -0.77934900922E+02  0.47228691336E+02 -0.16125561081E+02  0.92544215309E+02  0.00000000000E+00 0.  1.
         11    1    4    4    0    0  0.85377959057E+01  0.21872804722E+02  0.36243617988E+02  0.43184642991E+02  0.00000000000E+00 0. -1.
         -4    1    1    2    0  502  0.92734434467E+02 -0.67512576355E+02  0.52917806086E+02  0.12632465121E+03  0.00000000000E+00 0.  1.
<scales pt_clust_5="13000.00000" pt_clust_6="13000.00000" pt_clust_7="13000.00000" pt_clust_8="13000.00000" pt_clust_9="13000.00000"></scales>
<clustering>
<clus scale="   80.563">  5  6 -1 -1</clus>
<clus scale="   83.890">  1  5  2 -1</clus>
<clus scale="   91.797">  7  8 -1 -1</clus>
<clus scale="  105.421">  7  9 -1 -1</clus>
<clus scale="  251.670">  2  5  1 -1</clus>
</clustering>
</event>
<event>
 9    2  0.2147756E-005  0.2068586E+03  0.7546771E-02  0.1171234E+00
         21   -1    0    0  501  502  0.00000000000E+00  0.00000000000E+00  0.39461229417E+02  0.39461229417E+02  0.00000000000E+00 0.  1.
          2   -1    0    0  502    0 -0.00000000000E+00 -0.00000000000E+00 -0.64219392418E+03  0.64219392418E+03  0.00000000000E+00 0. -1.
         24    2    1    2    0    0 -0.73863769741E+02 -0.12083421883E+02 -0.17460900418E+03  0.20617606249E+03  0.80114910228E+02 0.  0.
         23    2    1    2    0    0  0.36831788271E+02  0.77272026264E+02 -0.32510289929E+03  0.34806557050E+03  0.90167619309E+02 0.  0.
        -11    1    3    3    0    0 -0.55835247028E+02 -0.37009053298E+02 -0.68958008566E+02  0.96137670983E+02  0.00000000000E+00 0.  1.
         12    1    3    3    0    0 -0.18028522713E+02  0.24925631414E+02 -0.10565099561E+03  0.11003839151E+03  0.00000000000E+00 0. -1.
        -11    1    4    4    0    0 -0.28834675229E+02  0.16638853774E+02 -0.11549620401E+03  0.12019843215E+03  0.00000000000E+00 0.  1.
         11    1    4    4    0    0  0.65666463500E+02  0.60633172490E+02 -0.20960669528E+03  0.22786713835E+03  0.00000000000E+00 0. -1.
          1    1    1    2  501    0  0.37031981470E+02 -0.65188604381E+02 -0.10302079130E+03  0.12741352060E+03  0.00000000000E+00 0. -1.
<scales pt_clust_5="13000.00000" pt_clust_6="13000.00000" pt_clust_7="13000.00000" pt_clust_8="13000.00000" pt_clust_9="13000.00000"></scales>
<clustering>
<clus scale="   80.115">  5  6 -1 -1</clus>
<clus scale="   90.168">  7  8 -1 -1</clus>
<clus scale="   74.973">  7  9 -1 -1</clus>
<clus scale="  109.637">  2  5  1 -1</clus>
<clus scale="  206.859">  1  5  2 -1</clus>
</clustering>
</event>
<event>
 9    2  0.2147756E-005  0.4112696E+03  0.7546771E-02  0.1098504E+00
          4   -1    0    0  502    0 -0.00000000000E+00  0.00000000000E+00  0.36455204805E+03  0.36455204805E+03  0.00000000000E+00 0. -1.
         21   -1    0    0  501  502  0.00000000000E+00 -0.00000000000E+00 -0.30955738228E+03  0.30955738228E+03  0.00000000000E+00 0.  1.
         24    2    1    2    0    0  0.14561889373E+02 -0.22242603319E+01  0.21705336098E+03  0.23206223151E+03  0.80769560011E+02 0.  0.
         23    2    1    2    0    0 -0.17775217418E+03 -0.29204404385E+02  0.10829582855E+02  0.20223646781E+03  0.91288424160E+02 0.  0.
        -11    1    3    3    0    0  0.60882565697E+01 -0.35982676567E+02  0.16798229547E+03  0.17190076053E+03  0.00000000000E+00 0.  1.
         12    1    3    3    0    0  0.84736328030E+01  0.33758416236E+02  0.49071065510E+02  0.60161470975E+02  0.00000000000E+00 0. -1.
        -13    1    4    4    0    0 -0.66267787018E+02  0.16928055571E+02 -0.30244357079E+02  0.74784355294E+02  0.00000000000E+00 0. -1.
         13    1    4    4    0    0 -0.11148438716E+03 -0.46132459956E+02  0.41073939934E+02  0.12745211251E+03  0.00000000000E+00 0.  1.
          3    1    1    2  501    0  0.16319028480E+03  0.31428664717E+02 -0.17288827806E+03  0.23981073102E+03  0.00000000000E+00 0. -1.
<scales pt_clust_5="13000.00000" pt_clust_6="13000.00000" pt_clust_7="13000.00000" pt_clust_8="13000.00000" pt_clust_9="13000.00000"></scales>
<clustering>
<clus scale="   80.770">  5  6 -1 -1</clus>
<clus scale="   82.102">  1  5  2 -1</clus>
<clus scale="   91.288">  7  8 -1 -1</clus>
<clus scale="  169.511">  7  9 -1 -1</clus>
<clus scale="  411.270">  2  5  1 -1</clus>
</clustering>
</event>
<event>
 9    2  0.2147756E-005  0.2729831E+03  0.7546771E-02  0.1125795E+00
          2   -1    0    0  502    0 -0.00000000000E+00  0.00000000000E+00  0.76300464055E+03  0.76300464055E+03  0.00000000000E+00 0. -1.
         21   -1    0    0  501  502  0.00000000000E+00 -0.00000000000E+00 -0.62668157386E+02  0.62668157386E+02  0.00000000000E+00 0.  1.
         24    2    1    2    0    0  0.86826567587E+02 -0.75975341926E+02  0.37810660721E+03  0.40335555665E+03  0.80124860366E+02 0.  0.
         23    2    1    2    0    0 -0.73951014147E+02  0.11775236069E+03  0.95769893671E+02  0.19167634563E+03  0.90739065441E+02 0.  0.
        -11    1    3    3    0    0  0.37977437873E+02 -0.70155999605E+02  0.14884851104E+03  0.16887874143E+03  0.00000000000E+00 0.  1.
         12    1    3    3    0    0  0.48849129714E+02 -0.58193423212E+01  0.22925809616E+03  0.23447681522E+03  0.00000000000E+00 0. -1.
        -11    1    4    4    0    0  0.17413183781E+02  0.25833235552E+02  0.39703745589E+02  0.50467439426E+02  0.00000000000E+00 0.  1.
         11    1    4    4    0    0 -0.91364197928E+02  0.91919125139E+02  0.56066148083E+02  0.14120890620E+03  0.00000000000E+00 0. -1.
          1    1    1    2  501    0 -0.12875553441E+02 -0.41777018764E+02  0.22645998229E+03  0.23064089566E+03  0.00000000000E+00 0. -1.
<scales pt_clust_5="13000.00000" pt_clust_6="13000.00000" pt_clust_7="13000.00000" pt_clust_8="13000.00000" pt_clust_9="13000.00000"></scales>
<clustering>
<clus scale="   80.125">  5  6 -1 -1</clus>
<clus scale="   90.739">  7  8 -1 -1</clus>
<clus scale="   43.716">  7  9 -1 -1</clus>
<clus scale="  140.467">  1  5  2 -1</clus>
<clus scale="  272.983">  2  5  1 -1</clus>
</clustering>
</event>
<event>
 9    2  0.2147756E-005  0.1242700E+03  0.7546771E-02  0.1255705E+00
          2   -1    0    0  502    0 -0.00000000000E+00  0.00000000000E+00  0.83508728041E+03  0.83508728041E+03  0.00000000000E+00 0. -1.
         21   -1    0    0  501  502  0.00000000000E+00 -0.00000000000E+00 -0.23435341365E+02  0.23435341365E+02  0.00000000000E+00 0.  1.
         24    2    1    2    0    0 -0.20706781291E+02 -0.10400718660E+02  0.64602393673E+03  0.65145824010E+03  0.80709144628E+02 0.  0.
         23    2    1    2    0    0  0.29266700591E+02  0.29520431188E+02  0.14515994957E+03  0.17777655470E+03  0.93835477417E+02 0.  0.
        -13    1    3    3    0    0  0.14746694276E+02  0.20229597380E+02  0.88601323154E+02  0.92070060643E+02  0.00000000000E+00 0.  1.
         14    1    3    3    0    0 -0.35453475567E+02 -0.30630316040E+02  0.55742261357E+03  0.55938817945E+03  0.00000000000E+00 0. -1.
        -13    1    4    4    0    0  0.52828917258E+02  0.20480004036E+02  0.14131202290E+03  0.15224786659E+03  0.00000000000E+00 0.  1.
         13    1    4    4    0    0 -0.23562216666E+02  0.90404271525E+01  0.38479266694E+01  0.25528688117E+02  0.00000000000E+00 0. -1.
          1    1    1    2  501    0 -0.85599193000E+01 -0.19119712528E+02  0.20468052750E+02  0.29287826975E+02  0.00000000000E+00 0. -1.
<scales pt_clust_5="13000.00000" pt_clust_6="13000.00000" pt_clust_7="13000.00000" pt_clust_8="13000.00000" pt_clust_9="13000.00000"></scales>
<clustering>
<clus scale="   80.709">  5  6 -1 -1</clus>
<clus scale="   83.970">  1  5  2 -1</clus>
<clus scale="   93.835">  7  8 -1 -1</clus>
<clus scale="   23.427">  7  9 -1 -1</clus>
<clus scale="  124.270">  2  5  1 -1</clus>
</clustering>
</event>
<event>
 9    2  0.2147756E-005  0.1716271E+03  0.7546771E-02  0.1209541E+00
         21   -1    0    0  501  502  0.00000000000E+00  0.00000000000E+00  0.13976987370E+02  0.13976987370E+02  0.00000000000E+00 0.  1.
         -1   -1    0    0    0  501 -0.00000000000E+00 -0.00000000000E+00 -0.11704273680E+04  0.11704273680E+04  0.00000000000E+00 0.  1.
         24    2    1    2    0    0 -0.15695232276E+02 -0.98323045060E+01 -0.31213013083E+03  0.32281712380E+03  0.80266196600E+02 0.  0.
         23    2    1    2    0    0  0.42961453216E+02  0.53757014542E+02 -0.48093702257E+03  0.49454473160E+03  0.92404376508E+02 0.  0.
        -13    1    3    3    0    0 -0.43222675833E+02 -0.25666440141E+02 -0.20546614261E+03  0.21152612513E+03  0.00000000000E+00 0.  1.
         14    1    3    3    0    0  0.27527443558E+02  0.15834135635E+02 -0.10666398823E+03  0.11129099867E+03  0.00000000000E+00 0. -1.
        -13    1    4    4    0    0 -0.29026677601E+01 -0.24409241592E+02 -0.10424065414E+03  0.10709972237E+03  0.00000000000E+00 0. -1.
         13    1    4    4    0    0  0.45864120976E+02  0.78166256134E+02 -0.37669636843E+03  0.38744500923E+03  0.00000000000E+00 0.  1.
         -2    1    1    2    0  502 -0.27266220940E+02 -0.43924710036E+02 -0.36338322720E+03  0.36704249995E+03  0.00000000000E+00 0.  1.
<scales pt_clust_5="13000.00000" pt_clust_6="13000.00000" pt_clust_7="13000.00000" pt_clust_8="13000.00000" pt_clust_9="13000.00000"></scales>
<clustering>
<clus scale="   80.266">  5  6 -1 -1</clus>
<clus scale="   82.375">  2  5  1 -1</clus>
<clus scale="   92.404">  7  8 -1 -1</clus>
<clus scale="   58.924">  7  9 -1 -1</clus>
<clus scale="  171.627">  1  5  2 -1</clus>
</clustering>
</event>
<event>
 9    2  0.2147756E-005  0.4289700E+03  0.7546771E-02  0.1081438E+00
          2   -1    0    0  502    0 -0.00000000000E+00  0.00000000000E+00  0.10715745752E+04  0.10715745752E+04  0.00000000000E+00 0. -1.
         21   -1    0    0  501  502  0.00000000000E+00 -0.00000000000E+00 -0.84184100797E+02  0.84184100797E+02  0.00000000000E+00 0. -1.
         24    2    1    2    0    0  0.72747410876E+02  0.31918012461E+02  0.48529428866E+02  0.12354004913E+03  0.81216334349E+02 0.  0.
         23    2    1    2    0    0  0.18887690234E+02  0.16807668622E+03  0.58190331074E+03  0.61291718912E+03  0.91921163955E+02 0.  0.
        -11    1    3    3    0    0  0.48641413309E+02  0.69394154814E+01 -0.14805212268E+02  0.51316049012E+02  0.00000000000E+00 0.  1.
         12    1    3    3    0    0  0.24105997567E+02  0.24978596980E+02  0.63334641135E+02  0.72224000120E+02  0.00000000000E+00 0. -1.
        -13    1    4    4    0    0  0.35910310303E+02  0.15835745403E+02  0.12509913664E+03  0.13111107965E+03  0.00000000000E+00 0.  1.
         13    1    4    4    0    0 -0.17022620068E+02  0.15224094081E+03  0.45680417409E+03  0.48180610947E+03  0.00000000000E+00 0. -1.
          1    1    1    2  501    0 -0.91635101110E+02 -0.19999469868E+03  0.35695773476E+03  0.41930143771E+03  0.00000000000E+00 0. -1.
<scales pt_clust_5="13000.00000" pt_clust_6="13000.00000" pt_clust_7="13000.00000" pt_clust_8="13000.00000" pt_clust_9="13000.00000"></scales>
<clustering>
<clus scale="   81.216">  5  6 -1 -1</clus>
<clus scale="   91.921">  7  8 -1 -1</clus>
<clus scale="  113.609">  1  5  2 -1</clus>
<clus scale="  197.725">  7  9 -1 -1</clus>
<clus scale="  428.970">  2  5  1 -1</clus>
</clustering>
</event>
<event>
 9    2  0.2147756E-005  0.1832478E+03  0.7546771E-02  0.1191930E+00
         21   -1    0    0  501  502  0.00000000000E+00  0.00000000000E+00  0.22393299753E+03  0.22393299753E+03  0.00000000000E+00 0. -1.
         -1   -1    0    0    0  501 -0.00000000000E+00 -0.00000000000E+00 -0.10638391316E+03  0.10638391316E+03  0.00000000000E+00 0.  1.
         24    2    1    2    0    0  0.55922357043E+02  0.18380136250E+02  0.10829199951E+03  0.14683547108E+03  0.79801998624E+02 0.  0.
         23    2    1    2    0    0 -0.65074527934E+02  0.22729739235E+02 -0.37702988178E+02  0.12040186642E+03  0.91234636450E+02 0.  0.
        -13    1    3    3    0    0 -0.15891677885E+02  0.21927680890E+02  0.33679330153E+02  0.43216500261E+02  0.00000000000E+00 0.  1.
         14    1    3    3    0    0  0.71814034928E+02 -0.35475446398E+01  0.74612669353E+02  0.10361897082E+03  0.00000000000E+00 0. -1.
        -11    1    4    4    0    0 -0.78237479730E+02 -0.15668809619E+01 -0.62022449545E+01  0.78498574465E+02  0.00000000000E+00 0.  1.
         11    1    4    4    0    0  0.13162951797E+02  0.24296620197E+02 -0.31500743223E+02  0.41903291954E+02  0.00000000000E+00 0. -1.
         -2    1    1    2    0  502  0.91521708907E+01 -0.41109875485E+02  0.46960073039E+02  0.63079573193E+02  0.00000000000E+00 0.  1.
<scales pt_clust_5="13000.00000" pt_clust_6="13000.00000" pt_clust_7="13000.00000" pt_clust_8="13000.00000" pt_clust_9="13000.00000"></scales>
<clustering>
<clus scale="   79.802">  5  6 -1 -1</clus>
<clus scale="   91.235">  7  8 -1 -1</clus>
<clus scale="   42.116">  7  9 -1 -1</clus>
<clus scale="   99.164">  2  5  1 -1</clus>
<clus scale="  183.248">  1  5  2 -1</clus>
</clustering>
</event>
<event>
 9    2  0.2147756E-005  0.5225605E+03  0.7546771E-02  0.1026907E+00
          2   -1    0    0  502    0 -0.00000000000E+00  0.00000000000E+00  0.15321034385E+04  0.15321034385E+04  0.00000000000E+00 0. -1.
         21   -1    0    0  501  502  0.00000000000E+00 -0.00000000000E+00 -0.10960742598E+03  0.10960742598E+03  0.00000000000E+00 0.  1.
         24    2    1    2    0    0  0.18450793290E+03  0.21511248282E+03  0.45139813691E+03  0.53894136848E+03  0.79880930661E+02 0.  0.
         23    2    1    2    0    0 -0.39345920746E+00  0.10105853800E+03  0.14611084990E+03  0.20029188054E+03  0.92495805525E+02 0.  0.
        -13    1    3    3    0    0  0.12695696697E+03  0.14514814227E+03  0.23266913784E+03  0.30219361735E+03  0.00000000000E+00 0.  1.
         14    1    3    3    0    0  0.57550965936E+02  0.69964340547E+02  0.21872899907E+03  0.23674775112E+03  0.00000000000E+00 0. -1.
        -11    1    4    4    0    0  0.14655832729E+02  0.60702198869E+02  0.14424324977E+03  0.15718035973E+03  0.00000000000E+00 0. -1.
         11    1    4    4    0    0 -0.15049291936E+02  0.40356339135E+02  0.18676001222E+01  0.43111520808E+02  0.00000000000E+00 0.  1.
          1    1    1    2  501    0 -0.18411447370E+03 -0.31617102082E+03  0.82498702576E+03  0.90247761551E+03  0.00000000000E+00 0. -1.
<scales pt_clust_5="13000.00000" pt_clust_6="13000.00000" pt_clust_7="13000.00000" pt_clust_8="13000.00000" pt_clust_9="13000.00000"></scales>
<clustering>
<clus scale="   79.881">  5  6 -1 -1</clus>
<clus scale="   92.496">  7  8 -1 -1</clus>
<clus scale="  294.445">  1  5  2 -1</clus>
<clus scale="  140.327">  7  9 -1 -1</clus>
<clus scale="  522.561">  2  5  1 -1</clus>
</clustering>
</event>
<event>
 9    2  0.2147756E-005  0.5900519E+03  0.7546771E-02  0.1042031E+00
          2   -1    0    0  502    0 -0.00000000000E+00  0.00000000000E+00  0.79383439413E+03  0.79383439413E+03  0.00000000000E+00 0. -1.
         21   -1    0    0  501  502  0.00000000000E+00 -0.00000000000E+00 -0.21825819598E+03  0.21825819598E+03  0.00000000000E+00 0. -1.
         24    2    1    2    0    0 -0.80973759511E+02 -0.69451257705E+02 -0.60593585014E+02  0.14440993884E+03  0.76173623812E+02 0.  0.
         23    2    1    2    0    0 -0.16801838109E+03 -0.49699598544E+01  0.56771218775E+03  0.59894105406E+03  0.90434402917E+02 0.  0.
        -11    1    3    3    0    0  0.13946116071E+02 -0.16918883043E+02 -0.49181785382E+01  0.22470675046E+02  0.00000000000E+00 0.  1.
         12    1    3    3    0    0 -0.94919875583E+02 -0.52532374662E+02 -0.55675406476E+02  0.12193926379E+03  0.00000000000E+00 0. -1.
        -11    1    4    4    0    0 -0.93759167968E+02 -0.76835375649E+01  0.16950762936E+03  0.19386246346E+03  0.00000000000E+00 0.  1.
         11    1    4    4    0    0 -0.74259213121E+02  0.27135777105E+01  0.39820455840E+03  0.40507859060E+03  0.00000000000E+00 0. -1.
          1    1    1    2  501    0  0.24899214060E+03  0.74421217559E+02  0.68457595412E+02  0.26874159721E+03  0.00000000000E+00 0. -1.
<scales pt_clust_5="13000.00000" pt_clust_6="13000.00000" pt_clust_7="13000.00000" pt_clust_8="13000.00000" pt_clust_9="13000.00000"></scales>
<clustering>
<clus scale="   76.174">  5  6 -1 -1</clus>
<clus scale="   90.434">  7  8 -1 -1</clus>
<clus scale="  131.083">  1  5  2 -1</clus>
<clus scale="  238.219">  7  9 -1 -1</clus>
<clus scale="  590.052">  2  5  1 -1</clus>
</clustering>
</event>
<event>
 9    2  0.2147756E-005  0.2674208E+03  0.7546771E-02  0.1131622E+00
         21   -1    0    0  501  502  0.00000000000E+00  0.00000000000E+00  0.51886109158E+03  0.51886109158E+03  0.00000000000E+00 0. -1.
          2   -1    0    0  502    0 -0.00000000000E+00 -0.00000000000E+00 -0.42725177243E+03  0.42725177243E+03  0.00000000000E+00 0. -1.
         24    2    1    2    0    0 -0.61694849822E+02  0.80844573807E+02 -0.38138486266E+03  0.40275536412E+03  0.80096006436E+02 0.  0.
         23    2    1    2    0    0  0.77530482710E+02  0.42552129120E+02  0.33592725565E+03  0.35824981284E+03  0.87602213827E+02 0.  0.
        -11    1    3    3    0    0 -0.26533097475E+02  0.10426437517E+02 -0.25429327547E+02  0.38201656514E+02  0.00000000000E+00 0.  1.
         12    1    3    3    0    0 -0.35161752347E+02  0.70418136290E+02 -0.35595553512E+03  0.36455370760E+03  0.00000000000E+00 0. -1.
        -11    1    4    4    0    0 -0.13187433239E+02  0.18463500627E+02  0.26432103921E+02  0.34834829819E+02  0.00000000000E+00 0.  1.
         11    1    4    4    0    0  0.90717915949E+02  0.24088628493E+02  0.30949515173E+03  0.32341498302E+03  0.00000000000E+00 0. -1.
          1    1    1    2  501    0 -0.15835632888E+02 -0.12339670293E+03  0.13706692615E+03  0.18510768706E+03  0.00000000000E+00 0. -1.
<scales pt_clust_5="13000.00000" pt_clust_6="13000.00000" pt_clust_7="13000.00000" pt_clust_8="13000.00000" pt_clust_9="13000.00000"></scales>
<clustering>
<clus scale="   80.096">  5  6 -1 -1</clus>
<clus scale="   87.602">  7  8 -1 -1</clus>
<clus scale="  124.409">  7  9 -1 -1</clus>
<clus scale="  129.451">  2  5  1 -1</clus>
<clus scale="  267.421">  1  5  2 -1</clus>
</clustering>
</event>
<event>
 9    2  0.2147756E-005  0.4160139E+03  0.7546771E-02  0.1090095E+00
         21   -1    0    0  501  502  0.00000000000E+00  0.00000000000E+00  0.31924599090E+03  0.31924599090E+03  0.00000000000E+00 0.  1.
         -1   -1    0    0    0  501 -0.00000000000E+00 -0.00000000000E+00 -0.21953945806E+03  0.21953945806E+03  0.00000000000E+00 0.  1.
         24    2    1    2    0    0  0.15303679304E+02  0.52392247902E+02  0.71072970538E+02  0.12178733658E+03  0.82472043558E+02 0.  0.
         23    2    1    2    0    0  0.88308707711E+01  0.89716607470E+02 -0.14358232602E+03  0.19241913858E+03  0.91006519609E+02 0.  0.
        -11    1    3    3    0    0 -0.40802657577E+01  0.69927319623E+02  0.38187865602E+02  0.79779644506E+02  0.00000000000E+00 0.  1.
         12    1    3    3    0    0  0.19383945061E+02 -0.17535071721E+02  0.32885104936E+02  0.42007692070E+02  0.00000000000E+00 0. -1.
        -11    1    4    4    0    0  0.42302895085E+02  0.19167857168E+02 -0.76404774592E+02  0.89412701902E+02  0.00000000000E+00 0. -1.
         11    1    4    4    0    0 -0.33472024314E+02  0.70548750302E+02 -0.67177551431E+02  0.10300643668E+03  0.00000000000E+00 0.  1.
         -2    1    1    2    0  502 -0.24134550075E+02 -0.14210885537E+03  0.17221588832E+03  0.22457897380E+03  0.00000000000E+00 0.  1.
<scales pt_clust_5="13000.00000" pt_clust_6="13000.00000" pt_clust_7="13000.00000" pt_clust_8="13000.00000" pt_clust_9="13000.00000"></scales>
<clustering>
<clus scale="   82.472">  5  6 -1 -1</clus>
<clus scale="   91.007">  7  8 -1 -1</clus>
<clus scale="   98.898">  2  5  1 -1</clus>
<clus scale="  136.837">  7  9 -1 -1</clus>
<clus scale="  416.014">  1  5  2 -1</clus>
</clustering>
</event>
<event>
 9    2  0.2147756E-005  0.1420942E+03  0.7546771E-02  0.1238863E+00
         21   -1    0    0  501  502  0.00000000000E+00  0.00000000000E+00  0.18330626313E+02  0.18330626313E+02  0.00000000000E+00 0.  1.
          2   -1    0    0  502    0 -0.00000000000E+00 -0.00000000000E+00 -0.76016128817E+03  0.76016128817E+03  0.00000000000E+00 0. -1.
         24    2    1    2    0    0 -0.10705159678E+02 -0.33519246384E+02 -0.41035537519E+03  0.41784440914E+03  0.70457618314E+02 0.  0.
         23    2    1    2    0    0  0.41483384749E+02  0.33689084951E+02 -0.20699475195E+03  0.23241829063E+03  0.91189960130E+02 0.  0.
        -13    1    3    3    0    0 -0.45420324542E-01  0.20437855426E+02 -0.65015143251E+02  0.68151866074E+02  0.00000000000E+00 0.  1.
         14    1    3    3    0    0 -0.10659739353E+02 -0.53957101809E+02 -0.34534023194E+03  0.34969254307E+03  0.00000000000E+00 0. -1.
        -13    1    4    4    0    0  0.47404729791E+02  0.85669711564E+01 -0.19993946147E+03  0.20566086077E+03  0.00000000000E+00 0.  1.
         13    1    4    4    0    0 -0.59213450423E+01  0.25122113795E+02 -0.70552904804E+01  0.26757429854E+02  0.00000000000E+00 0. -1.
          1    1    1    2  501    0 -0.30778225071E+02 -0.16983856779E+00 -0.12448053471E+03  0.12822921471E+03  0.00000000000E+00 0. -1.
<scales pt_clust_5="13000.00000" pt_clust_6="13000.00000" pt_clust_7="13000.00000" pt_clust_8="13000.00000" pt_clust_9="13000.00000"></scales>
<clustering>
<clus scale="   70.458">  5  6 -1 -1</clus>
<clus scale="   78.755">  2  5  1 -1</clus>
<clus scale="   91.190">  7  8 -1 -1</clus>
<clus scale="   36.840">  7  9 -1 -1</clus>
<clus scale="  142.094">  1  5  2 -1</clus>
</clustering>
</event>
<event>
 9    2  0.2147756E-005  0.2823654E+03  0.7546771E-02  0.1104327E+00
          2   -1    0    0  502    0 -0.00000000000E+00  0.00000000000E+00  0.59688470013E+03  0.59688470013E+03  0.00000000000E+00 0. -1.
         21   -1    0    0  501  502  0.00000000000E+00 -0.00000000000E+00 -0.15125009998E+03  0.15125009998E+03  0.00000000000E+00 0.  1.
         24    2    1    2    0    0 -0.20182590749E+03 -0.13353112803E+02 -0.27862712607E+01  0.21821829619E+03  0.81850222533E+02 0.  0.
         23    2    1    2    0    0  0.38893967030E+02 -0.22689557286E+02  0.25480846578E+03  0.27431592704E+03  0.91073140467E+02 0.  0.
        -13    1    3    3    0    0 -0.14485416335E+03 -0.11572450920E+02 -0.39287693865E+02  0.15053296366E+03  0.00000000000E+00 0.  1.
         14    1    3    3    0    0 -0.56971744144E+02 -0.17806618830E+01  0.36501422604E+02  0.67685332530E+02  0.00000000000E+00 0. -1.
        -13    1    4    4    0    0 -0.22383812344E+02  0.15420150211E+02  0.46488846193E+02  0.53851916474E+02  0.00000000000E+00 0.  1.
         13    1    4    4    0    0  0.61277779374E+02 -0.38109707497E+02  0.20831961959E+03  0.22046401057E+03  0.00000000000E+00 0. -1.
          1    1    1    2  501    0  0.16293194046E+03  0.36042670089E+02  0.19361240563E+03  0.25560057688E+03  0.00000000000E+00 0. -1.
<scales pt_clust_5="13000.00000" pt_clust_6="13000.00000" pt_clust_7="13000.00000" pt_clust_8="13000.00000" pt_clust_9="13000.00000"></scales>
<clustering>
<clus scale="   81.850">  5  6 -1 -1</clus>
<clus scale="   91.073">  7  8 -1 -1</clus>
<clus scale="  166.871">  7  9 -1 -1</clus>
<clus scale="  218.201">  1  5  2 -1</clus>
<clus scale="  282.365">  2  5  1 -1</clus>
</clustering>
</event>
<event>
 9    2  0.2147756E-005  0.2396130E+03  0.7546771E-02  0.1141196E+00
         21   -1    0    0  501  502  0.00000000000E+00  0.00000000000E+00  0.87155291756E+02  0.87155291756E+02  0.00000000000E+00 0.  1.
          4   -1    0    0  502    0 -0.00000000000E+00 -0.00000000000E+00 -0.44241484269E+03  0.44241484269E+03  0.00000000000E+00 0. -1.
         24    2    1    2    0    0  0.27620320087E+02 -0.10917642173E+03 -0.76044779752E+02  0.16163632523E+03  0.87527823938E+02 0.  0.
         23    2    1    2    0    0 -0.36747422231E+02  0.20629107497E+01 -0.72845177387E+02  0.13524298974E+03  0.10784070550E+03 0.  0.
        -11    1    3    3    0    0 -0.29293563772E+02 -0.54009532422E+02 -0.46467851512E+02  0.77035080938E+02  0.00000000000E+00 0.  1.
         12    1    3    3    0    0  0.56913883860E+02 -0.55166889304E+02 -0.29576928240E+02  0.84601244291E+02  0.00000000000E+00 0. -1.
        -11    1    4    4    0    0 -0.23737514500E+02  0.49713037005E+02 -0.11142731960E+02  0.56205125375E+02  0.00000000000E+00 0.  1.
         11    1    4    4    0    0 -0.13009907731E+02 -0.47650126255E+02 -0.61702445427E+02  0.79037864362E+02  0.00000000000E+00 0. -1.
          3    1    1    2  501    0  0.91271021432E+01  0.10711351098E+03 -0.20636959380E+03  0.23269081948E+03  0.00000000000E+00 0. -1.
<scales pt_clust_5="13000.00000" pt_clust_6="13000.00000" pt_clust_7="13000.00000" pt_clust_8="13000.00000" pt_clust_9="13000.00000"></scales>
<clustering>
<clus scale="   87.528">  5  6 -1 -1</clus>
<clus scale="  107.841">  7  8 -1 -1</clus>
<clus scale="  107.502">  7  9 -1 -1</clus>
<clus scale="  142.631">  2  5  1 -1</clus>
<clus scale="  239.613">  1  5  2 -1</clus>
</clustering>
</event>
<event>
 9    2  0.2147756E-005  0.7899225E+03  0.7546771E-02  0.9959100E-01
         21   -1    0    0  501  502  0.00000000000E+00  0.00000000000E+00  0.12186320053E+04  0.12186320053E+04  0.00000000000E+00 0.  1.
         -1   -1    0    0    0  501 -0.00000000000E+00 -0.00000000000E+00 -0.20990508861E+03  0.20990508861E+03  0.00000000000E+00 0.  1.
         24    2    1    2    0    0 -0.12213954460E+03  0.14941685490E+03  0.21161831721E+03  0.30632511854E+03  0.10867060867E+03 0.  0.
         23    2    1    2    0    0  0.29318138220E+02  0.29628002444E+03  0.18631606583E+03  0.36041866949E+03  0.80910659457E+02 0.  0.
        -13    1    3    3    0    0 -0.35962573098E+02  0.38049384736E+02  0.13763589219E+03  0.14725726183E+03  0.00000000000E+00 0.  1.
         14    1    3    3    0    0 -0.86176971499E+02  0.11136747017E+03  0.73982425016E+02  0.15906785671E+03  0.00000000000E+00 0. -1.
        -11    1    4    4    0    0  0.85701843533E+01  0.20401106670E+03  0.83171781310E+02  0.22048017735E+03  0.00000000000E+00 0.  1.
         11    1    4    4    0    0  0.20747953867E+02  0.92268957742E+02  0.10314428452E+03  0.13993849214E+03  0.00000000000E+00 0. -1.
         -2    1    1    2    0  502  0.92821406377E+02 -0.44569687934E+03  0.61079253369E+03  0.76179330592E+03  0.00000000000E+00 0.  1.
<scales pt_clust_5="13000.00000" pt_clust_6="13000.00000" pt_clust_7="13000.00000" pt_clust_8="13000.00000" pt_clust_9="13000.00000"></scales>
<clustering>
<clus scale="   80.911">  7  8 -1 -1</clus>
<clus scale="  108.671">  5  6 -1 -1</clus>
<clus scale="  221.479">  2  5  1 -1</clus>
<clus scale="  378.024">  7  9 -1 -1</clus>
<clus scale="  789.923">  1  5  2 -1</clus>
</clustering>
</event>
<event>
 9    2  0.2147756E-005  0.1899980E+03  0.7546771E-02  0.1184753E+00
         21   -1    0    0  501  502  0.00000000000E+00  0.00000000000E+00  0.69897747675E+02  0.69897747675E+02  0.00000000000E+00 0. -1.
          2   -1    0    0  502    0 -0.00000000000E+00 -0.00000000000E+00 -0.30995429434E+03  0.30995429434E+03  0.00000000000E+00 0. -1.
         24    2    1    2    0    0 -0.46343029717E+02  0.45244070049E+02 -0.89417084119E+02  0.13738247879E+03  0.81754683461E+02 0.  0.
         23    2    1    2    0    0  0.53358373520E+02  0.33120482497E+02 -0.84171973680E+02  0.13947371273E+03  0.91781877311E+02 0.  0.
        -11    1    3    3    0    0  0.19759231468E+02 -0.42277217969E+01 -0.27763255204E+02  0.34338013910E+02  0.00000000000E+00 0.  1.
         12    1    3    3    0    0 -0.66102261184E+02  0.49471791846E+02 -0.61653828915E+02  0.10304446488E+03  0.00000000000E+00 0. -1.
        -11    1    4    4    0    0  0.64975210445E+02 -0.35314687925E+01 -0.26720946711E+02  0.70343857140E+02  0.00000000000E+00 0. -1.
         11    1    4    4    0    0 -0.11616836925E+02  0.36651951290E+02 -0.57451026969E+02  0.69129855586E+02  0.00000000000E+00 0.  1.
          1    1    1    2  501    0 -0.70153438036E+01 -0.78364552546E+02 -0.66467488865E+02  0.10299585050E+03  0.00000000000E+00 0. -1.
<scales pt_clust_5="13000.00000" pt_clust_6="13000.00000" pt_clust_7="13000.00000" pt_clust_8="13000.00000" pt_clust_9="13000.00000"></scales>
<clustering>
<clus scale="   81.755">  5  6 -1 -1</clus>
<clus scale="   91.782">  7  8 -1 -1</clus>
<clus scale="   78.678">  7  9 -1 -1</clus>
<clus scale="  104.300">  2  5  1 -1</clus>
<clus scale="  189.998">  1  5  2 -1</clus>
</clustering>
</event>
<event>
 9    2  0.2147756E-005  0.3357299E+03  0.7546771E-02  0.1108085E+00
         21   -1    0    0  501  502  0.00000000000E+00  0.00000000000E+00  0.35225950683E+03  0.35225950683E+03  0.00000000000E+00 0. -1.
          2   -1    0    0  502    0 -0.00000000000E+00 -0.00000000000E+00 -0.15121275949E+03  0.15121275949E+03  0.00000000000E+00 0. -1.
         24    2    1    2    0    0  0.85288416432E+02 -0.11369160545E+01  0.94978095510E+02  0.15138540891E+03  0.81371351520E+02 0.  0.
         23    2    1    2    0    0 -0.55265918640E+02 -0.11596156488E+03  0.15609529049E+03  0.22125846146E+03  0.89934202415E+02 0.  0.
        -13    1    3    3    0    0  0.41411441697E+01 -0.30320086053E+02  0.34152167319E+02  0.45856594137E+02  0.00000000000E+00 0.  1.
         14    1    3    3    0    0  0.81147272262E+02  0.29183169999E+02  0.60825928192E+02  0.10552881477E+03  0.00000000000E+00 0. -1.
        -11    1    4    4    0    0 -0.55179371773E+02 -0.51495735046E+02  0.33145428308E+02  0.82432961945E+02  0.00000000000E+00 0.  1.
         11    1    4    4    0    0 -0.86546866954E-01 -0.64465829835E+02  0.12294986218E+03  0.13882549952E+03  0.00000000000E+00 0. -1.
          1    1    1    2  501    0 -0.30022497791E+02  0.11709848093E+03 -0.50026638656E+02  0.13082839595E+03  0.00000000000E+00 0. -1.
<scales pt_clust_5="13000.00000" pt_clust_6="13000.00000" pt_clust_7="13000.00000" pt_clust_8="13000.00000" pt_clust_9="13000.00000"></scales>
<clustering>
<clus scale="   81.371">  5  6 -1 -1</clus>
<clus scale="   89.934">  7  8 -1 -1</clus>
<clus scale="  117.884">  2  5  1 -1</clus>
<clus scale="  120.767">  7  9 -1 -1</clus>
<clus scale="  335.730">  1  5  2 -1</clus>
</clustering>
</event>
<event>
 9    2  0.2147756E-005  0.1453454E+03  0.7546771E-02  0.1234097E+00
          2   -1    0    0  502    0 -0.00000000000E+00  0.00000000000E+00  0.74275511435E+03  0.74275511435E+03  0.00000000000E+00 0. -1.
         21   -1    0    0  501  502  0.00000000000E+00 -0.00000000000E+00 -0.62061070797E+02  0.62061070797E+02  0.00000000000E+00 0. -1.
         24    2    1    2    0    0  0.81916209170E+01  0.10039049628E+02  0.65154778837E+03  0.65657724391E+03  0.80070415951E+02 0.  0.
         23    2    1    2    0    0  0.26602338130E+02 -0.14877315933E+02  0.54010071560E+02  0.10520130919E+03  0.84977695320E+02 0.  0.
        -11    1    3    3    0    0 -0.18410001682E+02  0.88088455554E+01  0.44624945108E+02  0.49070455957E+02  0.00000000000E+00 0.  1.
         12    1    3    3    0    0  0.26601622599E+02  0.12302040721E+01  0.60692284327E+03  0.60750678795E+03  0.00000000000E+00 0. -1.
        -11    1    4    4    0    0  0.44909551998E+02  0.20618649700E+02  0.22349620515E+02  0.54235616649E+02  0.00000000000E+00 0. -1.
         11    1    4    4    0    0 -0.18307213868E+02 -0.35495965633E+02  0.31660451045E+02  0.50965692541E+02  0.00000000000E+00 0.  1.
          1    1    1    2  501    0 -0.34793959047E+02  0.48382663052E+01 -0.24863816384E+02  0.43037632047E+02  0.00000000000E+00 0. -1.
<scales pt_clust_5="13000.00000" pt_clust_6="13000.00000" pt_clust_7="13000.00000" pt_clust_8="13000.00000" pt_clust_9="13000.00000"></scales>
<clustering>
<clus scale="   80.070">  5  6 -1 -1</clus>
<clus scale="   81.112">  1  5  2 -1</clus>
<clus scale="   84.978">  7  8 -1 -1</clus>
<clus scale="   34.458">  7  9 -1 -1</clus>
<clus scale="  145.345">  2  5  1 -1</clus>
</clustering>
</event>
<event>
 9    2  0.2147756E-005  0.2530597E+03  0.7546771E-02  0.1140241E+00
         21   -1    0    0  501  502  0.00000000000E+00  0.00000000000E+00  0.54814116986E+03  0.54814116986E+03  0.00000000000E+00 0.  1.
         -3   -1    0    0    0  501 -0.00000000000E+00 -0.00000000000E+00 -0.80123736869E+02  0.80123736869E+02  0.00000000000E+00 0.  1.
         24    2    1    2    0    0 -0.74812463238E+02 -0.58722045114E+02  0.38497454198E+02  0.12974048529E+03  0.79406273724E+02 0.  0.
         23    2    1    2    0    0 -0.32298353805E+02  0.87412775154E+02  0.16057216912E+03  0.20761410975E+03  0.92930189668E+02 0.  0.
        -11    1    3    3    0    0 -0.52784762794E+02  0.47106075726E+01  0.32860715347E+02  0.62355814645E+02  0.00000000000E+00 0.  1.
         12    1    3    3    0    0 -0.22027700444E+02 -0.63432652687E+02  0.56367388506E+01  0.67384670650E+02  0.00000000000E+00 0. -1.
        -11    1    4    4    0    0  0.23250442569E+01  0.49258786500E+02  0.14595224094E+03  0.15405807514E+03  0.00000000000E+00 0. -1.
         11    1    4    4    0    0 -0.34623398062E+02  0.38153988654E+02  0.14619928179E+02  0.53556034613E+02  0.00000000000E+00 0.  1.
         -4    1    1    2    0  502  0.10711081704E+03 -0.28690730040E+02  0.26894780968E+03  0.29091031169E+03  0.00000000000E+00 0.  1.
<scales pt_clust_5="13000.00000" pt_clust_6="13000.00000" pt_clust_7="13000.00000" pt_clust_8="13000.00000" pt_clust_9="13000.00000"></scales>
<clustering>
<clus scale="   79.406">  5  6 -1 -1</clus>
<clus scale="   92.930">  7  8 -1 -1</clus>
<clus scale="  110.887">  7  9 -1 -1</clus>
<clus scale="  123.897">  2  5  1 -1</clus>
<clus scale="  253.060">  1  5  2 -1</clus>
</clustering>
</event>
<event>
 9    2  0.2147756E-005  0.2076310E+03  0.7546771E-02  0.1170658E+00
         21   -1    0    0  501  502  0.00000000000E+00  0.00000000000E+00  0.68921979849E+02  0.68921979849E+02  0.00000000000E+00 0. -1.
         -1   -1    0    0    0  501 -0.00000000000E+00 -0.00000000000E+00 -0.36606993218E+03  0.36606993218E+03  0.00000000000E+00 0.  1.
         24    2    1    2    0    0 -0.73520021091E+02 -0.41294577845E+01 -0.11015660476E+03  0.15557038542E+03  0.81519453662E+02 0.  0.
         23    2    1    2    0    0 -0.14648494176E+02 -0.16621939100E+02 -0.16413739899E+03  0.18600519761E+03  0.84652114867E+02 0.  0.
        -11    1    3    3    0    0 -0.47376299647E+02  0.35554992977E+02 -0.79019581649E+02  0.98756091345E+02  0.00000000000E+00 0.  1.
         12    1    3    3    0    0 -0.26143721444E+02 -0.39684450762E+02 -0.31137023108E+02  0.56814294075E+02  0.00000000000E+00 0. -1.
        -11    1    4    4    0    0 -0.38027024873E+02  0.17744192893E+02 -0.11014144274E+03  0.11786453415E+03  0.00000000000E+00 0.  1.
         11    1    4    4    0    0  0.23378530696E+02 -0.34366131993E+02 -0.53995956247E+02  0.68140663460E+02  0.00000000000E+00 0. -1.
         -2    1    1    2    0  502  0.88168515267E+02  0.20751396884E+02 -0.22853948585E+02  0.93416328995E+02  0.00000000000E+00 0.  1.
<scales pt_clust_5="13000.00000" pt_clust_6="13000.00000" pt_clust_7="13000.00000" pt_clust_8="13000.00000" pt_clust_9="13000.00000"></scales>
<clustering>
<clus scale="   81.519">  5  6 -1 -1</clus>
<clus scale="   84.652">  7  8 -1 -1</clus>
<clus scale="   90.578">  7  9 -1 -1</clus>
<clus scale="  109.853">  2  5  1 -1</clus>
<clus scale="  207.631">  1  5  2 -1</clus>
</clustering>
</event>
<event>
 9    2  0.2147756E-005  0.1524369E+03  0.7546771E-02  0.1225449E+00
         21   -1    0    0  501  502  0.00000000000E+00  0.00000000000E+00  0.70561663599E+02  0.70561663599E+02  0.00000000000E+00 0.  1.
          2   -1    0    0  502    0 -0.00000000000E+00 -0.00000000000E+00 -0.56538708935E+03  0.56538708935E+03  0.00000000000E+00 0. -1.
         24    2    1    2    0    0 -0.28852624489E+02 -0.13513634440E+02 -0.47482100570E+03  0.48220482766E+03  0.77790848458E+02 0.  0.
         23    2    1    2    0    0  0.23756755568E+02 -0.36686165342E+02  0.86553610019E+01  0.95714873705E+02  0.84712240034E+02 0.  0.
        -13    1    3    3    0    0  0.14631364462E+01 -0.42004937203E+02 -0.21427844361E+03  0.21836164249E+03  0.00000000000E+00 0.  1.
         14    1    3    3    0    0 -0.30315760935E+02  0.28491302763E+02 -0.26054256209E+03  0.26384318516E+03  0.00000000000E+00 0. -1.
        -13    1    4    4    0    0  0.20318980341E+02 -0.42888209847E+01 -0.35328080695E+02  0.40979607528E+02  0.00000000000E+00 0. -1.
         13    1    4    4    0    0  0.34377752269E+01 -0.32397344357E+02  0.43983441697E+02  0.54735266177E+02  0.00000000000E+00 0.  1.
          1    1    1    2  501    0  0.50958689206E+01  0.50199799782E+02 -0.28659781048E+02  0.58029051585E+02  0.00000000000E+00 0. -1.
<scales pt_clust_5="13000.00000" pt_clust_6="13000.00000" pt_clust_7="13000.00000" pt_clust_8="13000.00000" pt_clust_9="13000.00000"></scales>
<clustering>
<clus scale="   77.791">  5  6 -1 -1</clus>
<clus scale="   84.063">  2  5  1 -1</clus>
<clus scale="   84.712">  7  8 -1 -1</clus>
<clus scale="   44.441">  7  9 -1 -1</clus>
<clus scale="  152.437">  1  5  2 -1</clus>
</clustering>
</event>
<event>
 9    2  0.2147756E-005  0.3233322E+03  0.7546771E-02  0.1109591E+00
         21   -1    0    0  501  502  0.00000000000E+00  0.00000000000E+00  0.50593944674E+02  0.50593944674E+02  0.00000000000E+00 0.  1.
          2   -1    0    0  502    0 -0.00000000000E+00 -0.00000000000E+00 -0.10811802984E+04  0.10811802984E+04  0.00000000000E+00 0. -1.
         24    2    1    2    0    0  0.87182490689E+02  0.47053840650E+02 -0.16814085583E+03  0.21071184113E+03  0.79456163946E+02 0.  0.
         23    2    1    2    0    0 -0.16992844257E+03  0.30495287202E+02 -0.40876980151E+03  0.45342750454E+03  0.93263675205E+02 0.  0.
        -13    1    3    3    0    0  0.91913670489E+02  0.56177421369E+02 -0.16898543042E+03  0.20039985327E+03  0.00000000000E+00 0.  1.
         14    1    3    3    0    0 -0.47311797994E+01 -0.91235807186E+01  0.84457458992E+00  0.10311987862E+02  0.00000000000E+00 0. -1.
        -13    1    4    4    0    0 -0.12802611841E+03  0.62955102979E+02 -0.28239949072E+03  0.31639137843E+03  0.00000000000E+00 0. -1.
         13    1    4    4    0    0 -0.41902324153E+02 -0.32459815777E+02 -0.12637031079E+03  0.13703612611E+03  0.00000000000E+00 0.  1.
          1    1    1    2  501    0  0.82745951876E+02 -0.77549127853E+02 -0.45367569639E+03  0.46763489742E+03  0.00000000000E+00 0. -1.
<scales pt_clust_5="13000.00000" pt_clust_6="13000.00000" pt_clust_7="13000.00000" pt_clust_8="13000.00000" pt_clust_9="13000.00000"></scales>
<clustering>
<clus scale="   79.456">  5  6 -1 -1</clus>
<clus scale="   93.264">  7  8 -1 -1</clus>
<clus scale="  113.405">  7  9 -1 -1</clus>
<clus scale="  126.997">  2  5  1 -1</clus>
<clus scale="  323.332">  1  5  2 -1</clus>
</clustering>
</event>
<event>
 9    2  0.2147756E-005  0.1660525E+03  0.7546771E-02  0.1202769E+00
         21   -1    0    0  501  502  0.00000000000E+00  0.00000000000E+00  0.23796408928E+03  0.23796408928E+03  0.00000000000E+00 0.  1.
         -1   -1    0    0    0  501 -0.00000000000E+00 -0.00000000000E+00 -0.83925990374E+02  0.83925990374E+02  0.00000000000E+00 0.  1.
         24    2    1    2    0    0 -0.68390673510E+02 -0.33685844255E+02  0.16950592424E+02  0.10656147128E+03  0.72498305156E+02 0.  0.
         23    2    1    2    0    0  0.53523374425E+02 -0.21195933476E+02  0.80650240696E+02  0.13521486999E+03  0.92003155036E+02 0.  0.
        -11    1    3    3    0    0 -0.65354912547E+02 -0.20545715811E+02 -0.16523472811E+02  0.70472804584E+02  0.00000000000E+00 0.  1.
         12    1    3    3    0    0 -0.30357609630E+01 -0.13140128444E+02  0.33474065235E+02  0.36088666691E+02  0.00000000000E+00 0. -1.
        -13    1    4    4    0    0 -0.72162067078E+01 -0.35450978716E+02  0.58936091554E+02  0.69154236449E+02  0.00000000000E+00 0.  1.
         13    1    4    4    0    0  0.60739581133E+02  0.14255045240E+02  0.21714149141E+02  0.66060633541E+02  0.00000000000E+00 0. -1.
         -2    1    1    2    0  502  0.14867299085E+02  0.54881777731E+02  0.56437265787E+02  0.80113738388E+02  0.00000000000E+00 0.  1.
<scales pt_clust_5="13000.00000" pt_clust_6="13000.00000" pt_clust_7="13000.00000" pt_clust_8="13000.00000" pt_clust_9="13000.00000"></scales>
<clustering>
<clus scale="   72.498">  5  6 -1 -1</clus>
<clus scale="   92.003">  7  8 -1 -1</clus>
<clus scale="   56.860">  7  9 -1 -1</clus>
<clus scale="  105.205">  2  5  1 -1</clus>
<clus scale="  166.052">  1  5  2 -1</clus>
</clustering>
</event>
<event>
 9    2  0.2147756E-005  0.2492327E+03  0.7546771E-02  0.1141466E+00
         21   -1    0    0  501  502  0.00000000000E+00  0.00000000000E+00  0.56743433285E+02  0.56743433285E+02  0.00000000000E+00 0.  1.
         -3   -1    0    0    0  501 -0.00000000000E+00 -0.00000000000E+00 -0.69823717470E+03  0.69823717470E+03  0.00000000000E+00 0.  1.
         24    2    1    2    0    0 -0.19510384761E+02  0.95509168955E+02 -0.34720348291E+03  0.36933347000E+03  0.79713844799E+02 0.  0.
         23    2    1    2    0    0 -0.26466000479E+01  0.33308903505E+02 -0.51034543130E+02  0.10949795578E+03  0.90932888344E+02 0.  0.
        -13    1    3    3    0    0  0.20156515264E+02  0.80166862090E+02 -0.20976296232E+03  0.22546288220E+03  0.00000000000E+00 0.  1.
         14    1    3    3    0    0 -0.39666900025E+02  0.15342306865E+02 -0.13744052059E+03  0.14387058781E+03  0.00000000000E+00 0. -1.
        -11    1    4    4    0    0  0.21069949451E+02 -0.22272550044E+02 -0.35883178711E+02  0.47197582245E+02  0.00000000000E+00 0. -1.
         11    1    4    4    0    0 -0.23716549499E+02  0.55581453549E+02 -0.15151364419E+02  0.62300373534E+02  0.00000000000E+00 0.  1.
         -4    1    1    2    0  502  0.22156984809E+02 -0.12881807246E+03 -0.24325571537E+03  0.27614918220E+03  0.00000000000E+00 0.  1.
<scales pt_clust_5="13000.00000" pt_clust_6="13000.00000" pt_clust_7="13000.00000" pt_clust_8="13000.00000" pt_clust_9="13000.00000"></scales>
<clustering>
<clus scale="   79.714">  5  6 -1 -1</clus>
<clus scale="   90.933">  7  8 -1 -1</clus>
<clus scale="  125.924">  2  5  1 -1</clus>
<clus scale="   56.327">  7  9 -1 -1</clus>
<clus scale="  249.233">  1  5  2 -1</clus>
</clustering>
</event>
<event>
 9    2  0.2147756E-005  0.2367295E+03  0.7546771E-02  0.1140661E+00
         21   -1    0    0  501  502  0.00000000000E+00  0.00000000000E+00  0.11153831877E+03  0.11153831877E+03  0.00000000000E+00 0.  1.
          2   -1    0    0  502    0 -0.00000000000E+00 -0.00000000000E+00 -0.33571457710E+03  0.33571457710E+03  0.00000000000E+00 0. -1.
         24    2    1    2    0    0  0.59265799584E+02 -0.11814986478E+03 -0.76310734296E+02  0.16813812321E+03  0.70535627599E+02 0.  0.
         23    2    1    2    0    0  0.18570949223E+02  0.12716901993E+03 -0.10255261495E+03  0.18859867269E+03  0.92388206613E+02 0.  0.
        -13    1    3    3    0    0  0.46424834916E+02 -0.12270872121E+03 -0.80447666465E+02  0.15389776671E+03  0.00000000000E+00 0.  1.
         14    1    3    3    0    0  0.12840964668E+02  0.45588564315E+01  0.41369321690E+01  0.14240356503E+02  0.00000000000E+00 0. -1.
        -11    1    4    4    0    0 -0.24329883241E+01  0.13158919122E+03 -0.68564719437E+02  0.14840065846E+03  0.00000000000E+00 0.  1.
         11    1    4    4    0    0  0.21003937547E+02 -0.44201712911E+01 -0.33987895515E+02  0.40198014233E+02  0.00000000000E+00 0. -1.
          1    1    1    2  501    0 -0.77836748807E+02 -0.90191551503E+01 -0.45312909083E+02  0.90516099971E+02  0.00000000000E+00 0. -1.
<scales pt_clust_5="13000.00000" pt_clust_6="13000.00000" pt_clust_7="13000.00000" pt_clust_8="13000.00000" pt_clust_9="13000.00000"></scales>
<clustering>
<clus scale="   70.536">  5  6 -1 -1</clus>
<clus scale="   92.388">  7  8 -1 -1</clus>
<clus scale="   78.358">  7  9 -1 -1</clus>
<clus scale="  149.824">  2  5  1 -1</clus>
<clus scale="  236.729">  1  5  2 -1</clus>
</clustering>
</event>
<event>
 9    2  0.2147756E-005  0.5055170E+03  0.7546771E-02  0.1054580E+00
          2   -1    0    0  502    0 -0.00000000000E+00  0.00000000000E+00  0.14259949927E+04  0.14259949927E+04  0.00000000000E+00 0. -1.
         21   -1    0    0  501  502  0.00000000000E+00 -0.00000000000E+00 -0.76127614349E+02  0.76127614349E+02  0.00000000000E+00 0. -1.
         24    2    1    2    0    0  0.35880375854E+02 -0.11549950934E+03  0.40779694531E+03  0.43299019854E+03  0.80960641089E+02 0.  0.
         23    2    1    2    0    0 -0.68106947368E+02 -0.17202670298E+03  0.29720099909E+03  0.36233225178E+03  0.93404946380E+02 0.  0.
        -13    1    3    3    0    0  0.38647868372E+02 -0.39710286171E+02  0.85468323697E+02  0.10185970211E+03  0.00000000000E+00 0.  1.
         14    1    3    3    0    0 -0.27674925184E+01 -0.75789223168E+02  0.32232862161E+03  0.33113049644E+03  0.00000000000E+00 0. -1.
        -13    1    4    4    0    0 -0.83626350296E+02 -0.90969438329E+02  0.15907871765E+03  0.20143198252E+03  0.00000000000E+00 0. -1.
         13    1    4    4    0    0  0.15519402928E+02 -0.81057264647E+02  0.13812228143E+03  0.16090026926E+03  0.00000000000E+00 0.  1.
          1    1    1    2  501    0  0.32226571514E+02  0.28752621232E+03  0.64486943391E+03  0.70680015667E+03  0.00000000000E+00 0. -1.
<scales pt_clust_5="13000.00000" pt_clust_6="13000.00000" pt_clust_7="13000.00000" pt_clust_8="13000.00000" pt_clust_9="13000.00000"></scales>
<clustering>
<clus scale="   80.961">  5  6 -1 -1</clus>
<clus scale="   93.405">  7  8 -1 -1</clus>
<clus scale="  145.541">  1  5  2 -1</clus>
<clus scale="  217.332">  7  9 -1 -1</clus>
<clus scale="  505.517">  2  5  1 -1</clus>
</clustering>
</event>
<event>
 9    2  0.2147756E-005  0.3164202E+03  0.7546771E-02  0.1126357E+00
          2   -1    0    0  502    0 -0.00000000000E+00  0.00000000000E+00  0.71710556066E+03  0.71710556066E+03  0.00000000000E+00 0. -1.
         21   -1    0    0  501  502  0.00000000000E+00 -0.00000000000E+00 -0.83265993561E+02  0.83265993561E+02  0.00000000000E+00 0. -1.
         24    2    1    2    0    0  0.17471247571E+02 -0.26285010964E+02  0.39240595610E+03  0.40236158886E+03  0.83164099935E+02 0.  0.
         23    2    1    2    0    0 -0.49499542598E+02  0.14799040258E+03  0.93480156781E+02  0.20377238237E+03  0.91832892430E+02 0.  0.
        -11    1    3    3    0    0  0.22892029979E+02  0.26865875761E+02  0.17043797866E+03  0.17405437336E+03  0.00000000000E+00 0.  1.
         12    1    3    3    0    0 -0.54207824081E+01 -0.53150886725E+02  0.22196797744E+03  0.22830721550E+03  0.00000000000E+00 0. -1.
        -11    1    4    4    0    0 -0.69987501301E+02  0.12872970449E+03  0.55876920981E+02  0.15681778424E+03  0.00000000000E+00 0. -1.
         11    1    4    4    0    0  0.20487958703E+02  0.19260698088E+02  0.37603235800E+02  0.46954598127E+02  0.00000000000E+00 0.  1.
          1    1    1    2  501    0  0.32028295027E+02 -0.12170539161E+03  0.14795345422E+03  0.19423758299E+03  0.00000000000E+00 0. -1.
<scales pt_clust_5="13000.00000" pt_clust_6="13000.00000" pt_clust_7="13000.00000" pt_clust_8="13000.00000" pt_clust_9="13000.00000"></scales>
<clustering>
<clus scale="   83.164">  5  6 -1 -1</clus>
<clus scale="   88.952">  1  5  2 -1</clus>
<clus scale="   91.833">  7  8 -1 -1</clus>
<clus scale="  141.937">  7  9 -1 -1</clus>
<clus scale="  316.420">  2  5  1 -1</clus>
</clustering>
</event>
<event>
 9    2  0.2147756E-005  0.2675461E+03  0.7546771E-02  0.1134632E+00
          4   -1    0    0  502    0 -0.00000000000E+00  0.00000000000E+00  0.44586502510E+02  0.44586502510E+02  0.00000000000E+00 0. -1.
         21   -1    0    0  501  502  0.00000000000E+00 -0.00000000000E+00 -0.90397465111E+03  0.90397465111E+03  0.00000000000E+00 0. -1.
         24    2    1    2    0    0  0.55913239636E+02 -0.68049692245E+02 -0.16241874247E+03  0.20200421140E+03  0.81662736520E+02 0.  0.
         23    2    1    2    0    0  0.21072749608E+02 -0.58758365492E+02 -0.39701890338E+03  0.41192665347E+03  0.90349055943E+02 0.  0.
        -13    1    3    3    0    0  0.64939384733E+02 -0.24005653497E+02 -0.66157515658E+02  0.95761223715E+02  0.00000000000E+00 0.  1.
         14    1    3    3    0    0 -0.90261450977E+01 -0.44044038749E+02 -0.96261226810E+02  0.10624298768E+03  0.00000000000E+00 0. -1.
        -13    1    4    4    0    0  0.55704133694E+02 -0.24278634881E+02 -0.20820042147E+03  0.21688664810E+03  0.00000000000E+00 0. -1.
         13    1    4    4    0    0 -0.34631384086E+02 -0.34479730611E+02 -0.18881848191E+03  0.19504000538E+03  0.00000000000E+00 0.  1.
          3    1    1    2  501    0 -0.76985989243E+02  0.12680805774E+03 -0.29995050275E+03  0.33463028875E+03  0.00000000000E+00 0. -1.
<scales pt_clust_5="13000.00000" pt_clust_6="13000.00000" pt_clust_7="13000.00000" pt_clust_8="13000.00000" pt_clust_9="13000.00000"></scales>
<clustering>
<clus scale="   81.663">  5  6 -1 -1</clus>
<clus scale="   90.349">  7  8 -1 -1</clus>
<clus scale="  120.108">  1  5  2 -1</clus>
<clus scale="   87.808">  7  9 -1 -1</clus>
<clus scale="  267.546">  2  5  1 -1</clus>
</clustering>
</event>
<event>
 9    2  0.2147756E-005  0.1511450E+03  0.7546771E-02  0.1219888E+00
         21   -1    0    0  501  502  0.00000000000E+00  0.00000000000E+00  0.36724148469E+02  0.36724148469E+02  0.00000000000E+00 0.  1.
          2   -1    0    0  502    0 -0.00000000000E+00 -0.00000000000E+00 -0.47531165637E+03  0.47531165637E+03  0.00000000000E+00 0. -1.
         24    2    1    2    0    0 -0.23691324854E+02  0.41148675267E+02 -0.26346181843E+03  0.28070528986E+03  0.84432444233E+02 0.  0.
         23    2    1    2    0    0 -0.12882171504E+02 -0.12852602346E+02 -0.69917057397E+02  0.11640817319E+03  0.91276109360E+02 0.  0.
        -13    1    3    3    0    0 -0.15209233198E+02 -0.21562009282E+02 -0.13438093106E+03  0.13694698116E+03  0.00000000000E+00 0.  1.
         14    1    3    3    0    0 -0.84820916558E+01  0.62710684549E+02 -0.12908088737E+03  0.14375830870E+03  0.00000000000E+00 0. -1.
        -11    1    4    4    0    0 -0.43818614821E+02  0.76501147272E+01 -0.94724672257E+01  0.45478818097E+02  0.00000000000E+00 0.  1.
         11    1    4    4    0    0  0.30936443317E+02 -0.20502717073E+02 -0.60444590171E+02  0.70929355089E+02  0.00000000000E+00 0. -1.
          1    1    1    2  501    0  0.36573496358E+02 -0.28296072921E+02 -0.10520863208E+03  0.11492234179E+03  0.00000000000E+00 0. -1.
<scales pt_clust_5="13000.00000" pt_clust_6="13000.00000" pt_clust_7="13000.00000" pt_clust_8="13000.00000" pt_clust_9="13000.00000"></scales>
<clustering>
<clus scale="   84.432">  5  6 -1 -1</clus>
<clus scale="   91.276">  7  8 -1 -1</clus>
<clus scale="   46.242">  7  9 -1 -1</clus>
<clus scale="   96.868">  2  5  1 -1</clus>
<clus scale="  151.145">  1  5  2 -1</clus>
</clustering>
</event>
<event>
 9    2  0.2147756E-005  0.1987114E+03  0.7546771E-02  0.1186370E+00
          2   -1    0    0  502    0 -0.00000000000E+00  0.00000000000E+00  0.48538377464E+03  0.48538377464E+03  0.00000000000E+00 0. -1.
         21   -1    0    0  501  502  0.00000000000E+00 -0.00000000000E+00 -0.47310048166E+02  0.47310048166E+02  0.00000000000E+00 0. -1.
         24    2    1    2    0    0 -0.31543287072E+02  0.20634946237E+02  0.22380623152E+03  0.24046652841E+03  0.79461575948E+02 0.  0.
         23    2    1    2    0    0 -0.21588542115E+02  0.16651611995E+02  0.22959218285E+02  0.90207158225E+02  0.82866545469E+02 0.  0.
        -11    1    3    3    0    0  0.21960068744E+02  0.21138058711E+02  0.11836341825E+03  0.12222504213E+03  0.00000000000E+00 0.  1.
         12    1    3    3    0    0 -0.53503355816E+02 -0.50311247431E+00  0.10544281327E+03  0.11824148627E+03  0.00000000000E+00 0. -1.
        -13    1    4    4    0    0 -0.40329818277E+02 -0.17614042999E+02 -0.16590159732E+01  0.44039767109E+02  0.00000000000E+00 0. -1.
         13    1    4    4    0    0  0.18741276163E+02  0.34265654994E+02  0.24618234259E+02  0.46167391115E+02  0.00000000000E+00 0.  1.
          1    1    1    2  501    0  0.53131829186E+02 -0.37286558232E+02  0.19130827667E+03  0.20202013618E+03  0.00000000000E+00 0. -1.
<scales pt_clust_5="13000.00000" pt_clust_6="13000.00000" pt_clust_7="13000.00000" pt_clust_8="13000.00000" pt_clust_9="13000.00000"></scales>
<clustering>
<clus scale="   79.462">  5  6 -1 -1</clus>
<clus scale="   82.867">  7  8 -1 -1</clus>
<clus scale="   64.910">  7  9 -1 -1</clus>
<clus scale="   87.948">  1  5  2 -1</clus>
<clus scale="  198.711">  2  5  1 -1</clus>
</clustering>
</event>
<event>
 9    2  0.2147756E-005  0.3186359E+03  0.7546771E-02  0.1116989E+00
         21   -1    0    0  501  502  0.00000000000E+00  0.00000000000E+00  0.57291257874E+02  0.57291257874E+02  0.00000000000E+00 0. -1.
          2   -1    0    0  502    0 -0.00000000000E+00 -0.00000000000E+00 -0.80314278037E+03  0.80314278037E+03  0.00000000000E+00 0. -1.
         24    2    1    2    0    0 -0.71287703064E+02 -0.13669389722E+02 -0.20688592190E+03  0.23432482609E+03  0.82689483136E+02 0.  0.
         23    2    1    2    0    0  0.81095284973E+02 -0.10704921972E+03 -0.44037669285E+03  0.46993961184E+03  0.94210543423E+02 0.  0.
        -13    1    3    3    0    0 -0.26321698934E+02 -0.40644450712E+02 -0.53191117890E+02  0.71931204848E+02  0.00000000000E+00 0.  1.
         14    1    3    3    0    0 -0.44966004130E+02  0.26975060990E+02 -0.15369480400E+03  0.16239362124E+03  0.00000000000E+00 0. -1.
        -13    1    4    4    0    0  0.39332196000E+02  0.42069705053E+01 -0.17098884010E+03  0.17550471128E+03  0.00000000000E+00 0.  1.
         13    1    4    4    0    0  0.41763088973E+02 -0.11125619022E+03 -0.26938785275E+03  0.29443490057E+03  0.00000000000E+00 0. -1.
          1    1    1    2  501    0 -0.98075819092E+01  0.12071860944E+03 -0.98588907750E+02  0.15616960030E+03  0.00000000000E+00 0. -1.
<scales pt_clust_5="13000.00000" pt_clust_6="13000.00000" pt_clust_7="13000.00000" pt_clust_8="13000.00000" pt_clust_9="13000.00000"></scales>
<clustering>
<clus scale="   82.689">  5  6 -1 -1</clus>
<clus scale="   94.211">  7  8 -1 -1</clus>
<clus scale="  110.029">  2  5  1 -1</clus>
<clus scale="  120.438">  7  9 -1 -1</clus>
<clus scale="  318.636">  1  5  2 -1</clus>
</clustering>
</event>
<event>
 9    2  0.2147756E-005  0.5064989E+03  0.7546771E-02  0.1043544E+00
         21   -1    0    0  501  502  0.00000000000E+00  0.00000000000E+00  0.57496117083E+02  0.57496117083E+02  0.00000000000E+00 0.  1.
          2   -1    0    0  502    0 -0.00000000000E+00 -0.00000000000E+00 -0.21665794568E+04  0.21665794568E+04  0.00000000000E+00 0. -1.
         24    2    1    2    0    0  0.83142192182E+02  0.16109017437E+03 -0.54087857736E+03  0.57610491447E+03  0.80526819371E+02 0.  0.
         23    2    1    2    0    0  0.16619817942E+03 -0.22961521689E+02 -0.37865101894E+03  0.42474204051E+03  0.94234497463E+02 0.  0.
        -11    1    3    3    0    0  0.80335947353E+02  0.14055395694E+03 -0.36862233559E+03  0.40260614196E+03  0.00000000000E+00 0.  1.
         12    1    3    3    0    0  0.28062448286E+01  0.20536217435E+02 -0.17225624176E+03  0.17349877251E+03  0.00000000000E+00 0. -1.
        -11    1    4    4    0    0  0.95499151154E+02 -0.55206830328E+02 -0.26524971799E+03  0.28727216168E+03  0.00000000000E+00 0.  1.
         11    1    4    4    0    0  0.70699028266E+02  0.32245308639E+02 -0.11340130095E+03  0.13746987883E+03  0.00000000000E+00 0. -1.
          1    1    1    2  501    0 -0.24934037160E+03 -0.13812865268E+03 -0.11895537434E+04  0.12232286189E+04  0.00000000000E+00 0. -1.
<scales pt_clust_5="13000.00000" pt_clust_6="13000.00000" pt_clust_7="13000.00000" pt_clust_8="13000.00000" pt_clust_9="13000.00000"></scales>
<clustering>
<clus scale="   80.527">  5  6 -1 -1</clus>
<clus scale="   94.234">  7  8 -1 -1</clus>
<clus scale="  198.361">  2  5  1 -1</clus>
<clus scale="  187.764">  7  9 -1 -1</clus>
<clus scale="  506.499">  1  5  2 -1</clus>
</clustering>
</event>
<event>
 9    2  0.2147756E-005  0.3211281E+03  0.7546771E-02  0.1116230E+00
          2   -1    0    0  502    0 -0.00000000000E+00  0.00000000000E+00  0.29159605881E+03  0.29159605881E+03  0.00000000000E+00 0. -1.
         21   -1    0    0  501  502  0.00000000000E+00 -0.00000000000E+00 -0.27040280897E+03  0.27040280897E+03  0.00000000000E+00 0. -1.
         24    2    1    2    0    0  0.71757279965E+02  0.45592654502E+01  0.17458666987E+03  0.20611571484E+03  0.82663707132E+02 0.  0.
         23    2    1    2    0    0 -0.11739231524E+03  0.10213577625E+03 -0.15788290500E+03  0.23975157308E+03  0.91329801460E+02 0.  0.
        -13    1    3    3    0    0 -0.96463632311E+01  0.23725553374E+02  0.47855322749E+02  0.54277860329E+02  0.00000000000E+00 0.  1.
         14    1    3    3    0    0  0.81403643196E+02 -0.19166287924E+02  0.12673134712E+03  0.15183785451E+03  0.00000000000E+00 0. -1.
        -11    1    4    4    0    0 -0.58375271621E+02  0.43510096165E+02 -0.14877410195E+02  0.74311090284E+02  0.00000000000E+00 0.  1.
         11    1    4    4    0    0 -0.59017043621E+02  0.58625680082E+02 -0.14300549480E+03  0.16544048279E+03  0.00000000000E+00 0. -1.
          1    1    1    2  501    0  0.45635035277E+02 -0.10669504170E+03  0.44894849737E+01  0.11613157987E+03  0.00000000000E+00 0. -1.
<scales pt_clust_5="13000.00000" pt_clust_6="13000.00000" pt_clust_7="13000.00000" pt_clust_8="13000.00000" pt_clust_9="13000.00000"></scales>
<clustering>
<clus scale="   82.664">  5  6 -1 -1</clus>
<clus scale="   91.330">  7  8 -1 -1</clus>
<clus scale="  109.559">  1  5  2 -1</clus>
<clus scale="  136.465">  7  9 -1 -1</clus>
<clus scale="  321.128">  2  5  1 -1</clus>
</clustering>
</event>
<event>
 9    2  0.2147756E-005  0.2260185E+03  0.7546771E-02  0.1143835E+00
         21   -1    0    0  501  502  0.00000000000E+00  0.00000000000E+00  0.52280327916E+02  0.52280327916E+02  0.00000000000E+00 0. -1.
          2   -1    0    0  502    0 -0.00000000000E+00 -0.00000000000E+00 -0.91548957248E+03  0.91548957248E+03  0.00000000000E+00 0. -1.
         24    2    1    2    0    0 -0.10722092681E+03  0.87324731388E+02 -0.59997471140E+03  0.62081632511E+03  0.79506725162E+02 0.  0.
         23    2    1    2    0    0  0.56976879473E+02 -0.25862684984E+02 -0.23926509567E+03  0.26402842002E+03  0.92455271924E+02 0.  0.
        -13    1    3    3    0    0 -0.71204623236E+02  0.20283627386E+02 -0.19152295333E+03  0.20533525163E+03  0.00000000000E+00 0.  1.
         14    1    3    3    0    0 -0.36016303572E+02  0.67041104002E+02 -0.40845175807E+03  0.41548107348E+03  0.00000000000E+00 0. -1.
        -13    1    4    4    0    0 -0.20843063289E+02 -0.25604891149E+02 -0.57491861386E+02  0.66297495154E+02  0.00000000000E+00 0. -1.
         13    1    4    4    0    0  0.77819942762E+02 -0.25779383507E+00 -0.18177323428E+03  0.19773092487E+03  0.00000000000E+00 0.  1.
          1    1    1    2  501    0  0.50244047335E+02 -0.61462046404E+02 -0.23969437493E+02  0.82925155257E+02  0.00000000000E+00 0. -1.
<scales pt_clust_5="13000.00000" pt_clust_6="13000.00000" pt_clust_7="13000.00000" pt_clust_8="13000.00000" pt_clust_9="13000.00000"></scales>
<clustering>
<clus scale="   79.507">  5  6 -1 -1</clus>
<clus scale="   92.455">  7  8 -1 -1</clus>
<clus scale="   79.385">  7  9 -1 -1</clus>
<clus scale="  159.509">  2  5  1 -1</clus>
<clus scale="  226.019">  1  5  2 -1</clus>
</clustering>
</event>
<event>
 9    2  0.2147756E-005  0.2135610E+03  0.7546771E-02  0.1150521E+00
         21   -1    0    0  501  502  0.00000000000E+00  0.00000000000E+00  0.19832360341E+02  0.19832360341E+02  0.00000000000E+00 0. -1.
          2   -1    0    0  502    0 -0.00000000000E+00 -0.00000000000E+00 -0.18234289187E+04  0.18234289187E+04  0.00000000000E+00 0. -1.
         24    2    1    2    0    0  0.13096370675E+03 -0.48957885231E+02 -0.93447409617E+03  0.94828521757E+03  0.80340839142E+02 0.  0.
         23    2    1    2    0    0 -0.10804226939E+03 -0.13368219690E+02 -0.40702449058E+03  0.42813082907E+03  0.75994931417E+02 0.  0.
        -11    1    3    3    0    0  0.30333910750E+02 -0.67647206549E+00 -0.65662647129E+02  0.72333857798E+02  0.00000000000E+00 0.  1.
         12    1    3    3    0    0  0.10062979600E+03 -0.48281413165E+02 -0.86881144904E+03  0.87595135977E+03  0.00000000000E+00 0. -1.
        -11    1    4    4    0    0 -0.54417796917E+02  0.64337917826E+01 -0.31548668179E+03  0.32021014457E+03  0.00000000000E+00 0. -1.
         11    1    4    4    0    0 -0.53624472474E+02 -0.19802011473E+02 -0.91537808787E+02  0.10792068450E+03  0.00000000000E+00 0.  1.
          1    1    1    2  501    0 -0.22921437363E+02  0.62326104921E+02 -0.46209797163E+03  0.46684523242E+03  0.00000000000E+00 0. -1.
<scales pt_clust_5="13000.00000" pt_clust_6="13000.00000" pt_clust_7="13000.00000" pt_clust_8="13000.00000" pt_clust_9="13000.00000"></scales>
<clustering>
<clus scale="   75.995">  7  8 -1 -1</clus>
<clus scale="   66.407">  7  9 -1 -1</clus>
<clus scale="   80.341">  5  6 -1 -1</clus>
<clus scale="  161.255">  2  5  1 -1</clus>
<clus scale="  213.561">  1  5  2 -1</clus>
</clustering>
</event>
<event>
 9    2  0.2147756E-005  0.2405161E+03  0.7546771E-02  0.1132202E+00
         21   -1    0    0  501  502  0.00000000000E+00  0.00000000000E+00  0.20613975686E+03  0.20613975686E+03  0.00000000000E+00 0. -1.
         -1   -1    0    0    0  501 -0.00000000000E+00 -0.00000000000E+00 -0.23814561589E+03  0.23814561589E+03  0.00000000000E+00 0.  1.
         24    2    1    2    0    0 -0.10348021462E+03  0.11585737117E+03 -0.89582840101E+02  0.19697365254E+03  0.81501222592E+02 0.  0.
         23    2    1    2    0    0  0.64135339676E+02 -0.34753139509E+02  0.95337940898E+02  0.14957838063E+03  0.89237024126E+02 0.  0.
        -13    1    3    3    0    0 -0.84958678004E+02  0.97004542138E+02 -0.10507510742E+03  0.16633892017E+03  0.00000000000E+00 0.  1.
         14    1    3    3    0    0 -0.18521536621E+02  0.18852829028E+02  0.15492267318E+02  0.30634732377E+02  0.00000000000E+00 0. -1.
        -13    1    4    4    0    0  0.55417688361E+02 -0.62885501689E+02  0.81957035620E+02  0.11722910131E+03  0.00000000000E+00 0. -1.
         13    1    4    4    0    0  0.87176513152E+01  0.28132362180E+02  0.13380905277E+02  0.32349279317E+02  0.00000000000E+00 0.  1.
         -2    1    1    2    0  502  0.39344874949E+02 -0.81104231657E+02 -0.37760959825E+02  0.97733339574E+02  0.00000000000E+00 0.  1.
<scales pt_clust_5="13000.00000" pt_clust_6="13000.00000" pt_clust_7="13000.00000" pt_clust_8="13000.00000" pt_clust_9="13000.00000"></scales>
<clustering>
<clus scale="   81.501">  5  6 -1 -1</clus>
<clus scale="   89.237">  7  8 -1 -1</clus>
<clus scale="   90.144">  7  9 -1 -1</clus>
<clus scale="  175.424">  2  5  1 -1</clus>
<clus scale="  240.516">  1  5  2 -1</clus>
</clustering>
</event>
<event>
 9    2  0.2147756E-005  0.8862886E+03  0.7546771E-02  0.9901722E-01
          2   -1    0    0  502    0 -0.00000000000E+00  0.00000000000E+00  0.53578475499E+03  0.53578475499E+03  0.00000000000E+00 0. -1.
         21   -1    0    0  501  502  0.00000000000E+00 -0.00000000000E+00 -0.55788712473E+03  0.55788712473E+03  0.00000000000E+00 0. -1.
         24    2    1    2    0    0 -0.87547947105E+02  0.14544226728E+03  0.73576043751E+02  0.20223376257E+03  0.81651481022E+02 0.  0.
         23    2    1    2    0    0  0.44427300745E+03 -0.17629759855E+03 -0.18453041424E+03  0.52252146237E+03  0.10255660119E+03 0.  0.
        -11    1    3    3    0    0 -0.19570869457E+01  0.74846588517E+02  0.46126090727E+02  0.87940083282E+02  0.00000000000E+00 0.  1.
         12    1    3    3    0    0 -0.85590860160E+02  0.70595678766E+02  0.27449953024E+02  0.11429367928E+03  0.00000000000E+00 0. -1.
        -13    1    4    4    0    0  0.40280732455E+03 -0.17867535599E+03 -0.19138896849E+03  0.48042518752E+03  0.00000000000E+00 0. -1.
         13    1    4    4    0    0  0.41465682904E+02  0.23777574398E+01  0.68585542499E+01  0.42096274842E+02  0.00000000000E+00 0.  1.
          1    1    1    2  501    0 -0.35672506035E+03  0.30855331264E+02  0.88852000748E+02  0.36891665479E+03  0.00000000000E+00 0. -1.
<scales pt_clust_5="13000.00000" pt_clust_6="13000.00000" pt_clust_7="13000.00000" pt_clust_8="13000.00000" pt_clust_9="13000.00000"></scales>
<clustering>
<clus scale="   81.651">  5  6 -1 -1</clus>
<clus scale="  102.557">  7  8 -1 -1</clus>
<clus scale="  188.375">  1  5  2 -1</clus>
<clus scale="  422.890">  7  9 -1 -1</clus>
<clus scale="  886.289">  2  5  1 -1</clus>
</clustering>
</event>
<event>
 9    2  0.2147756E-005  0.1494981E+03  0.7546771E-02  0.1229447E+00
          2   -1    0    0  502    0 -0.00000000000E+00  0.00000000000E+00  0.24201797800E+03  0.24201797800E+03  0.00000000000E+00 0. -1.
         21   -1    0    0  501  502  0.00000000000E+00 -0.00000000000E+00 -0.86787305699E+02  0.86787305699E+02  0.00000000000E+00 0. -1.
         24    2    1    2    0    0 -0.10557471104E+02 -0.15633951398E+02  0.15937900531E+03  0.17924962678E+03  0.79830324659E+02 0.  0.
         23    2    1    2    0    0 -0.11912807165E+02 -0.11391470069E+02  0.22030561891E+02  0.10573076274E+03  0.10208804028E+03 0.  0.
        -13    1    3    3    0    0 -0.11911790245E+02  0.19521981522E+02  0.86198087521E+01  0.24439713834E+02  0.00000000000E+00 0.  1.
         14    1    3    3    0    0  0.13543191410E+01 -0.35155932920E+02  0.15075919656E+03  0.15480991295E+03  0.00000000000E+00 0. -1.
        -13    1    4    4    0    0  0.13033529495E+02  0.31399695532E+02  0.40490753691E+02  0.52870737701E+02  0.00000000000E+00 0.  1.
         13    1    4    4    0    0 -0.24946336661E+02 -0.42791165601E+02 -0.18460191800E+02  0.52860025043E+02  0.00000000000E+00 0. -1.
          1    1    1    2  501    0  0.22470278269E+02  0.27025421467E+02 -0.26178894901E+02  0.43824894172E+02  0.00000000000E+00 0. -1.
<scales pt_clust_5="13000.00000" pt_clust_6="13000.00000" pt_clust_7="13000.00000" pt_clust_8="13000.00000" pt_clust_9="13000.00000"></scales>
<clustering>
<clus scale="   79.830">  5  6 -1 -1</clus>
<clus scale="   82.029">  1  5  2 -1</clus>
<clus scale="  102.088">  7  8 -1 -1</clus>
<clus scale="   32.869">  7  9 -1 -1</clus>
<clus scale="  149.498">  2  5  1 -1</clus>
</clustering>
</event>
<event>
 9    2  0.2147756E-005  0.3095821E+03  0.7546771E-02  0.1116456E+00
         -3   -1    0    0    0  501 -0.00000000000E+00  0.00000000000E+00  0.48505013555E+03  0.48505013555E+03  0.00000000000E+00 0.  1.
         21   -1    0    0  501  502  0.00000000000E+00 -0.00000000000E+00 -0.95845480331E+02  0.95845480331E+02  0.00000000000E+00 0.  1.
         24    2    1    2    0    0  0.81328196872E+02  0.40693022478E+02  0.11419535275E+03  0.16680481514E+03  0.80703593979E+02 0.  0.
         23    2    1    2    0    0  0.73138630867E+02 -0.73349413666E+02  0.19137618455E+03  0.23542648093E+03  0.89840904399E+02 0.  0.
        -11    1    3    3    0    0  0.47607349160E+02  0.59718273025E+02  0.99410739463E+02  0.12536038827E+03  0.00000000000E+00 0.  1.
         12    1    3    3    0    0  0.33720847713E+02 -0.19025250547E+02  0.14784613286E+02  0.41444426873E+02  0.00000000000E+00 0. -1.
        -11    1    4    4    0    0  0.30014491896E+02 -0.84335796121E+02  0.14989097374E+03  0.17458722817E+03  0.00000000000E+00 0.  1.
         11    1    4    4    0    0  0.43124138970E+02  0.10986382455E+02  0.41485210810E+02  0.60839252768E+02  0.00000000000E+00 0. -1.
         -4    1    1    2    0  502 -0.15446682774E+03  0.32656391188E+02  0.83633117929E+02  0.17866431981E+03  0.00000000000E+00 0.  1.
<scales pt_clust_5="13000.00000" pt_clust_6="13000.00000" pt_clust_7="13000.00000" pt_clust_8="13000.00000" pt_clust_9="13000.00000"></scales>
<clustering>
<clus scale="   80.704">  5  6 -1 -1</clus>
<clus scale="   89.841">  7  8 -1 -1</clus>
<clus scale="  121.586">  1  5  2 -1</clus>
<clus scale="  132.562">  7  9 -1 -1</clus>
<clus scale="  309.582">  2  5  1 -1</clus>
</clustering>
</event>
<event>
 9    2  0.2147756E-005  0.4081137E+03  0.7546771E-02  0.1088844E+00
         21   -1    0    0  501  502  0.00000000000E+00  0.00000000000E+00  0.16977591696E+03  0.16977591696E+03  0.00000000000E+00 0. -1.
          2   -1    0    0  502    0 -0.00000000000E+00 -0.00000000000E+00 -0.39490799478E+03  0.39490799478E+03  0.00000000000E+00 0. -1.
         24    2    1    2    0    0 -0.21884966382E+02  0.68818735124E+02 -0.30231464931E+02  0.11241956566E+03  0.80679905887E+02 0.  0.
         23    2    1    2    0    0  0.80375235718E+02  0.13980745241E+03 -0.58413493888E+02  0.19618871001E+03  0.95244797246E+02 0.  0.
        -13    1    3    3    0    0 -0.51026080649E+02  0.29796524577E+02 -0.21859851574E+02  0.63002753068E+02  0.00000000000E+00 0.  1.
         14    1    3    3    0    0  0.29141114267E+02  0.39022210547E+02 -0.83716133571E+01  0.49416812593E+02  0.00000000000E+00 0. -1.
        -11    1    4    4    0    0  0.61522658472E+02  0.95796659449E+02  0.82089776242E+01  0.11414650578E+03  0.00000000000E+00 0. -1.
         11    1    4    4    0    0  0.18852577246E+02  0.44010792961E+02 -0.66622471512E+02  0.82042204238E+02  0.00000000000E+00 0.  1.
          1    1    1    2  501    0 -0.58490269336E+02 -0.20862618753E+03 -0.13648711901E+03  0.25607563607E+03  0.00000000000E+00 0. -1.
<scales pt_clust_5="13000.00000" pt_clust_6="13000.00000" pt_clust_7="13000.00000" pt_clust_8="13000.00000" pt_clust_9="13000.00000"></scales>
<clustering>
<clus scale="   80.680">  5  6 -1 -1</clus>
<clus scale="   95.245">  7  8 -1 -1</clus>
<clus scale="  108.278">  2  5  1 -1</clus>
<clus scale="  181.658">  7  9 -1 -1</clus>
<clus scale="  408.114">  1  5  2 -1</clus>
</clustering>
</event>
<event>
 9    2  0.2147756E-005  0.8567988E+03  0.7546771E-02  0.9921205E-01
          2   -1    0    0  502    0 -0.00000000000E+00  0.00000000000E+00  0.16646053392E+04  0.16646053392E+04  0.00000000000E+00 0. -1.
         21   -1    0    0  501  502  0.00000000000E+00 -0.00000000000E+00 -0.16841107317E+03  0.16841107317E+03  0.00000000000E+00 0. -1.
         24    2    1    2    0    0  0.13349222372E+03 -0.11866993523E+03  0.20609627658E+03  0.28432118036E+03  0.80374940518E+02 0.  0.
         23    2    1    2    0    0  0.24752654323E+03 -0.19938676259E+03  0.32765178632E+03  0.46581109339E+03  0.92735165627E+02 0.  0.
        -13    1    3    3    0    0  0.28944668007E+02 -0.36669469921E+02  0.11244683833E+03  0.12176508236E+03  0.00000000000E+00 0.  1.
         14    1    3    3    0    0  0.10454755571E+03 -0.82000465306E+02  0.93649438251E+02  0.16255609801E+03  0.00000000000E+00 0. -1.
        -13    1    4    4    0    0  0.11614046740E+03 -0.71856489463E+02  0.81552974205E+02  0.15906869852E+03  0.00000000000E+00 0.  1.
         13    1    4    4    0    0  0.13138607582E+03 -0.12753027313E+03  0.24609881212E+03  0.30674239487E+03  0.00000000000E+00 0. -1.
          1    1    1    2  501    0 -0.38101876694E+03  0.31805669782E+03  0.96244620316E+03  0.10828841387E+04  0.00000000000E+00 0. -1.
<scales pt_clust_5="13000.00000" pt_clust_6="13000.00000" pt_clust_7="13000.00000" pt_clust_8="13000.00000" pt_clust_9="13000.00000"></scales>
<clustering>
<clus scale="   80.375">  5  6 -1 -1</clus>
<clus scale="   92.735">  7  8 -1 -1</clus>
<clus scale="  195.864">  1  5  2 -1</clus>
<clus scale="  367.716">  7  9 -1 -1</clus>
<clus scale="  856.799">  2  5  1 -1</clus>
</clustering>
</event>
<event>
 9    2  0.2147756E-005  0.2637345E+03  0.7546771E-02  0.1140068E+00
          2   -1    0    0  502    0 -0.00000000000E+00  0.00000000000E+00  0.60950025480E+03  0.60950025480E+03  0.00000000000E+00 0. -1.
         21   -1    0    0  501  502  0.00000000000E+00 -0.00000000000E+00 -0.57288103239E+02  0.57288103239E+02  0.00000000000E+00 0.  1.
         24    2    1    2    0    0 -0.77541739738E+02  0.60512001995E+01  0.16858908921E+03  0.20125369877E+03  0.77662293572E+02 0.  0.
         23    2    1    2    0    0 -0.61146613837E+02  0.31700975238E+02  0.12109878571E+03  0.16623767967E+03  0.90698346337E+02 0.  0.
        -11    1    3    3    0    0 -0.51415489157E+02  0.41026234900E+02  0.11037865274E+03  0.12849183420E+03  0.00000000000E+00 0.  1.
         12    1    3    3    0    0 -0.26126250581E+02 -0.34975034701E+02  0.58210436461E+02  0.72761864564E+02  0.00000000000E+00 0. -1.
        -11    1    4    4    0    0 -0.67670337337E+02  0.18384027393E+01  0.37858071442E+02  0.77562154774E+02  0.00000000000E+00 0.  1.
         11    1    4    4    0    0  0.65237234996E+01  0.29862572499E+02  0.83240714266E+02  0.88675524898E+02  0.00000000000E+00 0. -1.
          1    1    1    2  501    0  0.13868835358E+03 -0.37752175438E+02  0.26252427665E+03  0.29929697960E+03  0.00000000000E+00 0. -1.
<scales pt_clust_5="13000.00000" pt_clust_6="13000.00000" pt_clust_7="13000.00000" pt_clust_8="13000.00000" pt_clust_9="13000.00000"></scales>
<clustering>
<clus scale="   77.662">  5  6 -1 -1</clus>
<clus scale="   90.698">  7  8 -1 -1</clus>
<clus scale="  109.913">  1  5  2 -1</clus>
<clus scale="   93.676">  7  9 -1 -1</clus>
<clus scale="  263.734">  2  5  1 -1</clus>
</clustering>
</event>
<event>
 9    2  0.2147756E-005  0.1589559E+03  0.7546771E-02  0.1219697E+00
          2   -1    0    0  502    0 -0.00000000000E+00  0.00000000000E+00  0.48171016344E+03  0.48171016344E+03  0.00000000000E+00 0. -1.
         21   -1    0    0  501  502  0.00000000000E+00 -0.00000000000E+00 -0.96395442299E+02  0.96395442299E+02  0.00000000000E+00 0. -1.
         24    2    1    2    0    0 -0.75775496065E+01  0.22436622751E+02  0.40894288708E+03  0.41740322711E+03  0.80189449492E+02 0.  0.
         23    2    1    2    0    0  0.16616159343E+02 -0.38133285398E+01  0.35521992401E+02  0.98034485861E+02  0.89768091480E+02 0.  0.
        -11    1    3    3    0    0  0.30779505556E+02  0.63666384248E+01  0.81854516526E+02  0.87681662409E+02  0.00000000000E+00 0.  1.
         12    1    3    3    0    0 -0.38357055163E+02  0.16069984326E+02  0.32708837055E+03  0.32972156470E+03  0.00000000000E+00 0. -1.
        -11    1    4    4    0    0 -0.30718512741E+02  0.20173077284E+02  0.57778583835E+01  0.37201662861E+02  0.00000000000E+00 0. -1.
         11    1    4    4    0    0  0.47334672085E+02 -0.23986405824E+02  0.29744134018E+02  0.60832823000E+02  0.00000000000E+00 0.  1.
          1    1    1    2  501    0 -0.90386097369E+01 -0.18623294211E+02 -0.59150158337E+02  0.62667892772E+02  0.00000000000E+00 0. -1.
<scales pt_clust_5="13000.00000" pt_clust_6="13000.00000" pt_clust_7="13000.00000" pt_clust_8="13000.00000" pt_clust_9="13000.00000"></scales>
<clustering>
<clus scale="   80.189">  5  6 -1 -1</clus>
<clus scale="   83.613">  1  5  2 -1</clus>
<clus scale="   89.768">  7  8 -1 -1</clus>
<clus scale="   20.272">  7  9 -1 -1</clus>
<clus scale="  158.956">  2  5  1 -1</clus>
</clustering>
</event>
<event>
 9    2  0.2147756E-005  0.4513788E+03  0.7546771E-02  0.1070734E+00
         21   -1    0    0  501  502  0.00000000000E+00  0.00000000000E+00  0.39341081648E+03  0.39341081648E+03  0.00000000000E+00 0.  1.
         -1   -1    0    0    0  501 -0.00000000000E+00 -0.00000000000E+00 -0.43712068689E+03  0.43712068689E+03  0.00000000000E+00 0.  1.
         24    2    1    2    0    0  0.58550669747E+02 -0.84840516534E+02  0.25698289071E+03  0.28816730606E+03  0.79837935792E+02 0.  0.
         23    2    1    2    0    0 -0.92832176711E+02 -0.15108890873E+03 -0.73847270305E+02  0.21327941777E+03  0.92676962287E+02 0.  0.
        -11    1    3    3    0    0  0.68988326296E+02 -0.93860978653E+02  0.22609922556E+03  0.25434254909E+03  0.00000000000E+00 0.  1.
         12    1    3    3    0    0 -0.10437656549E+02  0.90204621192E+01  0.30883665154E+02  0.33824756975E+02  0.00000000000E+00 0. -1.
        -11    1    4    4    0    0 -0.38837713885E+02 -0.13269816693E+03 -0.30376387133E+02  0.14156234112E+03  0.00000000000E+00 0.  1.
         11    1    4    4    0    0 -0.53994462826E+02 -0.18390741794E+02 -0.43470883172E+02  0.71717076651E+02  0.00000000000E+00 0. -1.
         -2    1    1    2    0  502  0.34281506963E+02  0.23592942526E+03 -0.22684549082E+03  0.32908477955E+03  0.00000000000E+00 0.  1.
<scales pt_clust_5="13000.00000" pt_clust_6="13000.00000" pt_clust_7="13000.00000" pt_clust_8="13000.00000" pt_clust_9="13000.00000"></scales>
<clustering>
<clus scale="   79.838">  5  6 -1 -1</clus>
<clus scale="   92.677">  7  8 -1 -1</clus>
<clus scale="  130.385">  2  5  1 -1</clus>
<clus scale="  194.184">  7  9 -1 -1</clus>
<clus scale="  451.379">  1  5  2 -1</clus>
</clustering>
</event>
<event>
 9    2  0.2147756E-005  0.2336257E+03  0.7546771E-02  0.1163532E+00
         21   -1    0    0  501  502  0.00000000000E+00  0.00000000000E+00  0.30933814869E+02  0.30933814869E+02  0.00000000000E+00 0. -1.
          2   -1    0    0  502    0 -0.00000000000E+00 -0.00000000000E+00 -0.87795907240E+03  0.87795907240E+03  0.00000000000E+00 0. -1.
         24    2    1    2    0    0 -0.37896136174E+02  0.22294123599E+02 -0.17089752126E+03  0.19354003470E+03  0.79489855808E+02 0.  0.
         23    2    1    2    0    0 -0.19025788988E+02 -0.98089815196E+02 -0.28607855854E+03  0.31395099223E+03  0.82101713604E+02 0.  0.
        -11    1    3    3    0    0 -0.22936747660E+02  0.49071069599E+02 -0.72680086657E+02  0.90644686890E+02  0.00000000000E+00 0.  1.
         12    1    3    3    0    0 -0.14959388514E+02 -0.26776946000E+02 -0.98217434601E+02  0.10289534781E+03  0.00000000000E+00 0. -1.
        -13    1    4    4    0    0  0.26344741011E+02 -0.59572599560E+02 -0.19079471945E+03  0.20160745266E+03  0.00000000000E+00 0.  1.
         13    1    4    4    0    0 -0.45370529999E+02 -0.38517215636E+02 -0.95283839090E+02  0.11234353958E+03  0.00000000000E+00 0. -1.
          1    1    1    2  501    0  0.56921925162E+02  0.75795691597E+02 -0.39004917773E+03  0.40140186033E+03  0.00000000000E+00 0. -1.
<scales pt_clust_5="13000.00000" pt_clust_6="13000.00000" pt_clust_7="13000.00000" pt_clust_8="13000.00000" pt_clust_9="13000.00000"></scales>
<clustering>
<clus scale="   79.490">  5  6 -1 -1</clus>
<clus scale="   82.102">  7  8 -1 -1</clus>
<clus scale="   90.839">  2  5  1 -1</clus>
<clus scale="   95.283">  7  9 -1 -1</clus>
<clus scale="  233.626">  1  5  2 -1</clus>
</clustering>
</event>
<event>
 9    2  0.2147756E-005  0.2885040E+03  0.7546771E-02  0.1132689E+00
         21   -1    0    0  501  502  0.00000000000E+00  0.00000000000E+00  0.37835855293E+02  0.37835855293E+02  0.00000000000E+00 0.  1.
          2   -1    0    0  502    0 -0.00000000000E+00 -0.00000000000E+00 -0.11969734342E+04  0.11969734342E+04  0.00000000000E+00 0. -1.
         24    2    1    2    0    0  0.32214690330E+02 -0.48093487892E+02 -0.12061425956E+03  0.15695715384E+03  0.82079100157E+02 0.  0.
         23    2    1    2    0    0  0.66152249162E+02 -0.43358421897E+02 -0.37159540759E+03  0.39753430840E+03  0.11702267557E+03 0.  0.
        -11    1    3    3    0    0  0.30994327199E+01 -0.43203948673E+02 -0.12789540921E+02  0.45163702473E+02  0.00000000000E+00 0.  1.
         12    1    3    3    0    0  0.29115257610E+02 -0.48895392193E+01 -0.10782471864E+03  0.11179345137E+03  0.00000000000E+00 0. -1.
        -13    1    4    4    0    0  0.58479590810E+01 -0.73407160357E+02 -0.20535150458E+03  0.21815602273E+03  0.00000000000E+00 0.  1.
         13    1    4    4    0    0  0.60304290081E+02  0.30048738460E+02 -0.16624390300E+03  0.17937828567E+03  0.00000000000E+00 0. -1.
          1    1    1    2  501    0 -0.98366939492E+02  0.91451909789E+02 -0.66692791174E+03  0.68031782723E+03  0.00000000000E+00 0. -1.
<scales pt_clust_5="13000.00000" pt_clust_6="13000.00000" pt_clust_7="13000.00000" pt_clust_8="13000.00000" pt_clust_9="13000.00000"></scales>
<clustering>
<clus scale="   82.079">  5  6 -1 -1</clus>
<clus scale="  100.438">  2  5  1 -1</clus>
<clus scale="  117.023">  7  8 -1 -1</clus>
<clus scale="   98.809">  7  9 -1 -1</clus>
<clus scale="  288.504">  1  5  2 -1</clus>
</clustering>
</event>
<event>
 9    2  0.2147756E-005  0.2612356E+03  0.7546771E-02  0.1131655E+00
         21   -1    0    0  501  502  0.00000000000E+00  0.00000000000E+00  0.42390574649E+03  0.42390574649E+03  0.00000000000E+00 0. -1.
          2   -1    0    0  502    0 -0.00000000000E+00 -0.00000000000E+00 -0.96244361787E+02  0.96244361787E+02  0.00000000000E+00 0. -1.
         24    2    1    2    0    0 -0.59486644845E+00 -0.11290591469E+03  0.14937990606E+03  0.20387753697E+03  0.80644865357E+02 0.  0.
         23    2    1    2    0    0  0.47509764521E+02  0.22126009591E+02 -0.16999489250E+01  0.10930563409E+03  0.95906693153E+02 0.  0.
        -11    1    3    3    0    0  0.13650845122E+01 -0.52178586948E+02  0.11850680452E+02  0.53524826191E+02  0.00000000000E+00 0.  1.
         12    1    3    3    0    0 -0.19599509607E+01 -0.60727327747E+02  0.13752922561E+03  0.15035271078E+03  0.00000000000E+00 0. -1.
        -11    1    4    4    0    0  0.30985070072E+02 -0.36540462965E+02  0.40820189461E+01  0.48082667144E+02  0.00000000000E+00 0. -1.
         11    1    4    4    0    0  0.16524694449E+02  0.58666472556E+02 -0.57819678712E+01  0.61222966943E+02  0.00000000000E+00 0.  1.
          1    1    1    2  501    0 -0.46914898073E+02  0.90779905104E+02  0.17998142757E+03  0.20696693722E+03  0.00000000000E+00 0. -1.
<scales pt_clust_5="13000.00000" pt_clust_6="13000.00000" pt_clust_7="13000.00000" pt_clust_8="13000.00000" pt_clust_9="13000.00000"></scales>
<clustering>
<clus scale="   80.645">  5  6 -1 -1</clus>
<clus scale="   95.907">  7  8 -1 -1</clus>
<clus scale="  102.186">  7  9 -1 -1</clus>
<clus scale="  138.751">  2  5  1 -1</clus>
<clus scale="  261.236">  1  5  2 -1</clus>
</clustering>
</event>
<event>
 9    2  0.2147756E-005  0.5090227E+03  0.7546771E-02  0.1060375E+00
          2   -1    0    0  502    0 -0.00000000000E+00  0.00000000000E+00  0.98474402830E+03  0.98474402830E+03  0.00000000000E+00 0. -1.
         21   -1    0    0  501  502  0.00000000000E+00 -0.00000000000E+00 -0.10141257306E+03  0.10141257306E+03  0.00000000000E+00 0.  1.
         24    2    1    2    0    0 -0.87141172983E+02  0.22029745434E+02  0.13827936944E+03  0.18382257566E+03  0.81182889811E+02 0.  0.
         23    2    1    2    0    0  0.78711281162E+02 -0.24739807819E+03  0.48774509040E+03  0.56018078757E+03  0.92227797769E+02 0.  0.
        -13    1    3    3    0    0  0.24487510492E+00  0.32583978890E+02  0.45133505658E+02  0.55666946900E+02  0.00000000000E+00 0.  1.
         14    1    3    3    0    0 -0.87386048088E+02 -0.10554233456E+02  0.93145863781E+02  0.12815562876E+03  0.00000000000E+00 0. -1.
        -11    1    4    4    0    0 -0.16310966155E+01 -0.14054702918E+03  0.22307352438E+03  0.26366252135E+03  0.00000000000E+00 0. -1.
         11    1    4    4    0    0  0.80342377778E+02 -0.10685104901E+03  0.26467156602E+03  0.29651826622E+03  0.00000000000E+00 0.  1.
          1    1    1    2  501    0  0.84298918209E+01  0.22536833275E+03  0.25730699540E+03  0.34215323813E+03  0.00000000000E+00 0. -1.
<scales pt_clust_5="13000.00000" pt_clust_6="13000.00000" pt_clust_7="13000.00000" pt_clust_8="13000.00000" pt_clust_9="13000.00000"></scales>
<clustering>
<clus scale="   81.183">  5  6 -1 -1</clus>
<clus scale="   92.228">  7  8 -1 -1</clus>
<clus scale="  121.118">  1  5  2 -1</clus>
<clus scale="  234.543">  7  9 -1 -1</clus>
<clus scale="  509.023">  2  5  1 -1</clus>
</clustering>
</event>
<event>
 9    2  0.2147756E-005  0.4299686E+03  0.7546771E-02  0.1084239E+00
         21   -1    0    0  501  502  0.00000000000E+00  0.00000000000E+00  0.29765266630E+03  0.29765266630E+03  0.00000000000E+00 0. -1.
          2   -1    0    0  502    0 -0.00000000000E+00 -0.00000000000E+00 -0.24285280351E+03  0.24285280351E+03  0.00000000000E+00 0. -1.
         24    2    1    2    0    0 -0.42243483050E+02 -0.53725861086E+02 -0.12119012601E+02  0.10536055851E+03  0.79265356958E+02 0.  0.
         23    2    1    2    0    0 -0.53589188620E+02 -0.16122520799E+03  0.51321130752E+02  0.19928233967E+03  0.90632354106E+02 0.  0.
        -13    1    3    3    0    0 -0.36304296437E+02 -0.46329393417E+02  0.27252625207E+02  0.64862317372E+02  0.00000000000E+00 0.  1.
         14    1    3    3    0    0 -0.59391866130E+01 -0.73964676694E+01 -0.39371637809E+02  0.40498241139E+02  0.00000000000E+00 0. -1.
        -11    1    4    4    0    0 -0.13057579526E+02 -0.14822807222E+03  0.30489625217E+02  0.15189364379E+03  0.00000000000E+00 0. -1.
         11    1    4    4    0    0 -0.40531609094E+02 -0.12997135774E+02  0.20831505535E+02  0.47388695877E+02  0.00000000000E+00 0.  1.
          1    1    1    2  501    0  0.95832671670E+02  0.21495106908E+03  0.15597744642E+02  0.23586257163E+03  0.00000000000E+00 0. -1.
<scales pt_clust_5="13000.00000" pt_clust_6="13000.00000" pt_clust_7="13000.00000" pt_clust_8="13000.00000" pt_clust_9="13000.00000"></scales>
<clustering>
<clus scale="   79.265">  5  6 -1 -1</clus>
<clus scale="   90.632">  7  8 -1 -1</clus>
<clus scale="  104.661">  2  5  1 -1</clus>
<clus scale="  195.959">  7  9 -1 -1</clus>
<clus scale="  429.969">  1  5  2 -1</clus>
</clustering>
</event>
<event>
 9    2  0.2147756E-005  0.2182504E+03  0.7546771E-02  0.1160355E+00
          2   -1    0    0  502    0 -0.00000000000E+00  0.00000000000E+00  0.72082331470E+03  0.72082331470E+03  0.00000000000E+00 0. -1.
         21   -1    0    0  501  502  0.00000000000E+00 -0.00000000000E+00 -0.98790811295E+02  0.98790811295E+02  0.00000000000E+00 0. -1.
         24    2    1    2    0    0 -0.89769411321E+02 -0.40255152463E+01  0.58631743328E+03  0.59846081482E+03  0.79451005804E+02 0.  0.
         23    2    1    2    0    0 -0.28917560797E+02  0.40141506216E+01  0.36025200913E+02  0.10246593332E+03  0.91373484466E+02 0.  0.
        -13    1    3    3    0    0 -0.70489087630E+02  0.18766415975E+02  0.23952758661E+03  0.25038840746E+03  0.00000000000E+00 0.  1.
         14    1    3    3    0    0 -0.19280323690E+02 -0.22791931221E+02  0.34678984668E+03  0.34807240736E+03  0.00000000000E+00 0. -1.
        -11    1    4    4    0    0 -0.15459918599E+02 -0.42536000200E+02  0.28352415911E+02  0.53405803843E+02  0.00000000000E+00 0. -1.
         11    1    4    4    0    0 -0.13457642198E+02  0.46550150822E+02  0.76727850026E+01  0.49060129481E+02  0.00000000000E+00 0.  1.
          1    1    1    2  501    0  0.11868697212E+03  0.11364624654E-01 -0.31013079241E+00  0.11868737785E+03  0.00000000000E+00 0. -1.
<scales pt_clust_5="13000.00000" pt_clust_6="13000.00000" pt_clust_7="13000.00000" pt_clust_8="13000.00000" pt_clust_9="13000.00000"></scales>
<clustering>
<clus scale="   79.451">  5  6 -1 -1</clus>
<clus scale="   91.373">  7  8 -1 -1</clus>
<clus scale="  118.687">  7  9 -1 -1</clus>
<clus scale="  119.947">  1  5  2 -1</clus>
<clus scale="  218.250">  2  5  1 -1</clus>
</clustering>
</event>
<event>
 9    2  0.2147756E-005  0.2636866E+03  0.7546771E-02  0.1140456E+00
          2   -1    0    0  502    0 -0.00000000000E+00  0.00000000000E+00  0.21163814000E+03  0.21163814000E+03  0.00000000000E+00 0. -1.
         21   -1    0    0  501  502  0.00000000000E+00 -0.00000000000E+00 -0.16745135886E+03  0.16745135886E+03  0.00000000000E+00 0.  1.
         24    2    1    2    0    0 -0.10240986964E+02 -0.75364658423E+02 -0.11605000010E+02  0.10956520478E+03  0.78007361965E+02 0.  0.
         23    2    1    2    0    0  0.35082706003E+02 -0.66886855474E+02  0.32151119760E+02  0.12319765576E+03  0.91865772660E+02 0.  0.
        -13    1    3    3    0    0 -0.25101918832E+02 -0.35202591526E+02  0.27774322250E+02  0.51388148007E+02  0.00000000000E+00 0.  1.
         14    1    3    3    0    0  0.14860931868E+02 -0.40162066897E+02 -0.39379322260E+02  0.58177056776E+02  0.00000000000E+00 0. -1.
        -13    1    4    4    0    0 -0.14609255055E+02  0.15574644436E+02  0.13106296137E+02  0.25055436156E+02  0.00000000000E+00 0. -1.
         13    1    4    4    0    0  0.49691961057E+02 -0.82461499910E+02  0.19044823623E+02  0.98142219599E+02  0.00000000000E+00 0.  1.
          1    1    1    2  501    0 -0.24841719039E+02  0.14225151390E+03  0.23640661398E+02  0.14632663832E+03  0.00000000000E+00 0. -1.
<scales pt_clust_5="13000.00000" pt_clust_6="13000.00000" pt_clust_7="13000.00000" pt_clust_8="13000.00000" pt_clust_9="13000.00000"></scales>
<clustering>
<clus scale="   78.007">  5  6 -1 -1</clus>
<clus scale="   91.866">  7  8 -1 -1</clus>
<clus scale="  108.949">  1  5  2 -1</clus>
<clus scale="  107.215">  7  9 -1 -1</clus>
<clus scale="  263.687">  2  5  1 -1</clus>
</clustering>
</event>
<event>
 9    2  0.2147756E-005  0.1400172E+03  0.7546771E-02  0.1234986E+00
         21   -1    0    0  501  502  0.00000000000E+00  0.00000000000E+00  0.83417758047E+02  0.83417758047E+02  0.00000000000E+00 0.  1.
          2   -1    0    0  502    0 -0.00000000000E+00 -0.00000000000E+00 -0.19354029543E+03  0.19354029543E+03  0.00000000000E+00 0. -1.
         24    2    1    2    0    0 -0.21703948058E+02 -0.33584783730E+02 -0.10381050281E+03  0.13679868285E+03  0.79613190347E+02 0.  0.
         23    2    1    2    0    0 -0.13734156139E+01  0.46835048225E+02 -0.27964908147E+02  0.10585221165E+03  0.90704170852E+02 0.  0.
        -11    1    3    3    0    0 -0.10894909387E+02  0.26074971662E+02 -0.37362832197E+02  0.46846391830E+02  0.00000000000E+00 0.  1.
         12    1    3    3    0    0 -0.10809038671E+02 -0.59659755392E+02 -0.66447670611E+02  0.89952291021E+02  0.00000000000E+00 0. -1.
        -13    1    4    4    0    0  0.40356957726E+02  0.14899774890E+01 -0.13153761125E+02  0.42472644155E+02  0.00000000000E+00 0.  1.
         13    1    4    4    0    0 -0.41730373340E+02  0.45345070736E+02 -0.14811147022E+02  0.63379567490E+02  0.00000000000E+00 0. -1.
          1    1    1    2  501    0  0.23077363672E+02 -0.13250264495E+02  0.21652873573E+02  0.34307158979E+02  0.00000000000E+00 0. -1.
<scales pt_clust_5="13000.00000" pt_clust_6="13000.00000" pt_clust_7="13000.00000" pt_clust_8="13000.00000" pt_clust_9="13000.00000"></scales>
<clustering>
<clus scale="   79.613">  5  6 -1 -1</clus>
<clus scale="   89.091">  2  5  1 -1</clus>
<clus scale="   90.704">  7  8 -1 -1</clus>
<clus scale="   26.654">  7  9 -1 -1</clus>
<clus scale="  140.017">  1  5  2 -1</clus>
</clustering>
</event>
<event>
 9    2  0.2147756E-005  0.5283110E+03  0.7546771E-02  0.1044698E+00
          2   -1    0    0  502    0 -0.00000000000E+00  0.00000000000E+00  0.68215334631E+03  0.68215334631E+03  0.00000000000E+00 0. -1.
         21   -1    0    0  501  502  0.00000000000E+00 -0.00000000000E+00 -0.17856559103E+03  0.17856559103E+03  0.00000000000E+00 0. -1.
         24    2    1    2    0    0 -0.17847535029E+02 -0.14814295123E+03  0.13814304067E+03  0.21833091839E+03  0.79498564366E+02 0.  0.
         23    2    1    2    0    0 -0.17942034491E+03 -0.52815930260E+02  0.27910549251E+03  0.34784846341E+03  0.90097141413E+02 0.  0.
        -11    1    3    3    0    0  0.23171665862E+02 -0.10257460224E+03  0.10512923466E+03  0.14869643945E+03  0.00000000000E+00 0.  1.
         12    1    3    3    0    0 -0.41019200891E+02 -0.45568348985E+02  0.33013806011E+02  0.69634478948E+02  0.00000000000E+00 0. -1.
        -11    1    4    4    0    0 -0.12187324818E+03 -0.15253098951E+02  0.10835662462E+03  0.16378920523E+03  0.00000000000E+00 0.  1.
         11    1    4    4    0    0 -0.57547096731E+02 -0.37562831309E+02  0.17074886789E+03  0.18405925819E+03  0.00000000000E+00 0. -1.
          1    1    1    2  501    0  0.19726787994E+03  0.20095888149E+03  0.86339222089E+02  0.29453955554E+03  0.00000000000E+00 0. -1.
<scales pt_clust_5="13000.00000" pt_clust_6="13000.00000" pt_clust_7="13000.00000" pt_clust_8="13000.00000" pt_clust_9="13000.00000"></scales>
<clustering>
<clus scale="   79.499">  5  6 -1 -1</clus>
<clus scale="   90.097">  7  8 -1 -1</clus>
<clus scale="  169.071">  1  5  2 -1</clus>
<clus scale="  239.408">  7  9 -1 -1</clus>
<clus scale="  528.311">  2  5  1 -1</clus>
</clustering>
</event>
<event>
 9    2  0.2147756E-005  0.4390977E+03  0.7546771E-02  0.1058910E+00
          2   -1    0    0  502    0 -0.00000000000E+00  0.00000000000E+00  0.25974394724E+04  0.25974394724E+04  0.00000000000E+00 0. -1.
         21   -1    0    0  501  502  0.00000000000E+00 -0.00000000000E+00 -0.39590387865E+02  0.39590387865E+02  0.00000000000E+00 0. -1.
         24    2    1    2    0    0  0.72882763849E+02  0.16393190000E+03  0.96156376347E+03  0.98145334279E+03  0.80375542026E+02 0.  0.
         23    2    1    2    0    0  0.17541602550E+02  0.94234593393E+02  0.26204571838E+03  0.29358465930E+03  0.91302394520E+02 0.  0.
        -11    1    3    3    0    0  0.17636211912E+02  0.10967946637E+02  0.34788693573E+02  0.40516478432E+02  0.00000000000E+00 0.  1.
         12    1    3    3    0    0  0.55246551938E+02  0.15296395336E+03  0.92677506990E+03  0.94093686436E+03  0.00000000000E+00 0. -1.
        -13    1    4    4    0    0  0.38030640471E+02  0.58076414512E+02  0.75913568724E+02  0.10286918612E+03  0.00000000000E+00 0. -1.
         13    1    4    4    0    0 -0.20489037921E+02  0.36158178881E+02  0.18613214965E+03  0.19071547318E+03  0.00000000000E+00 0.  1.
          1    1    1    2  501    0 -0.90424366399E+02 -0.25816649339E+03  0.13342396027E+04  0.13619918582E+04  0.00000000000E+00 0. -1.
<scales pt_clust_5="13000.00000" pt_clust_6="13000.00000" pt_clust_7="13000.00000" pt_clust_8="13000.00000" pt_clust_9="13000.00000"></scales>
<clustering>
<clus scale="   80.376">  5  6 -1 -1</clus>
<clus scale="   91.302">  7  8 -1 -1</clus>
<clus scale="  196.585">  1  5  2 -1</clus>
<clus scale="  125.871">  7  9 -1 -1</clus>
<clus scale="  439.098">  2  5  1 -1</clus>
</clustering>
</event>
<event>
 9    2  0.2147756E-005  0.3711938E+03  0.7546771E-02  0.1106918E+00
         21   -1    0    0  501  502  0.00000000000E+00  0.00000000000E+00  0.59663811550E+02  0.59663811550E+02  0.00000000000E+00 0. -1.
          2   -1    0    0  502    0 -0.00000000000E+00 -0.00000000000E+00 -0.10113275984E+04  0.10113275984E+04  0.00000000000E+00 0. -1.
         24    2    1    2    0    0  0.58781135179E+02 -0.10206730867E+02 -0.37171309124E+03  0.38242215909E+03  0.67206296981E+02 0.  0.
         23    2    1    2    0    0 -0.10774809764E+03  0.14337671039E+03 -0.20266707224E+03  0.28548744859E+03  0.90898886163E+02 0.  0.
        -13    1    3    3    0    0  0.39765386191E+02 -0.37906808852E+02 -0.19750093141E+03  0.20499958537E+03  0.00000000000E+00 0.  1.
         14    1    3    3    0    0  0.19015748988E+02  0.27700077985E+02 -0.17421215984E+03  0.17742257372E+03  0.00000000000E+00 0. -1.
        -13    1    4    4    0    0 -0.71294036367E+02  0.22426354925E+02 -0.74154570921E+02  0.10528381360E+03  0.00000000000E+00 0. -1.
         13    1    4    4    0    0 -0.36454061273E+02  0.12095035547E+03 -0.12851250132E+03  0.18020363500E+03  0.00000000000E+00 0.  1.
          1    1    1    2  501    0  0.48966962462E+02 -0.13316997952E+03 -0.37728362336E+03  0.40308180226E+03  0.00000000000E+00 0. -1.
<scales pt_clust_5="13000.00000" pt_clust_6="13000.00000" pt_clust_7="13000.00000" pt_clust_8="13000.00000" pt_clust_9="13000.00000"></scales>
<clustering>
<clus scale="   67.206">  5  6 -1 -1</clus>
<clus scale="   89.867">  2  5  1 -1</clus>
<clus scale="   90.899">  7  8 -1 -1</clus>
<clus scale="  163.379">  7  9 -1 -1</clus>
<clus scale="  371.194">  1  5  2 -1</clus>
</clustering>
</event>
<event>
 9    2  0.2147756E-005  0.2250947E+03  0.7546771E-02  0.1165341E+00
         21   -1    0    0  501  502  0.00000000000E+00  0.00000000000E+00  0.11931323632E+03  0.11931323632E+03  0.00000000000E+00 0. -1.
          2   -1    0    0  502    0 -0.00000000000E+00 -0.00000000000E+00 -0.22685025917E+03  0.22685025917E+03  0.00000000000E+00 0. -1.
         24    2    1    2    0    0 -0.48397233984E+02  0.29686421119E+02 -0.64947000275E+02  0.11707499345E+03  0.79150902651E+02 0.  0.
         23    2    1    2    0    0  0.70304287945E+02  0.61212463654E+02 -0.33027803406E+02  0.13509934149E+03  0.92039869959E+02 0.  0.
        -11    1    3    3    0    0 -0.38278866199E+02 -0.55411538668E+01  0.41086037467E+01  0.38895457427E+02  0.00000000000E+00 0.  1.
         12    1    3    3    0    0 -0.10118367785E+02  0.35227574985E+02 -0.69055604022E+02  0.78179536023E+02  0.00000000000E+00 0. -1.
        -11    1    4    4    0    0  0.67884304986E+02  0.28682986079E+01 -0.35485548608E+02  0.76653311476E+02  0.00000000000E+00 0.  1.
         11    1    4    4    0    0  0.24199829592E+01  0.58344165046E+02  0.24577452012E+01  0.58446030010E+02  0.00000000000E+00 0. -1.
          1    1    1    2  501    0 -0.21907053961E+02 -0.90898884772E+02 -0.95622191685E+01  0.93989160553E+02  0.00000000000E+00 0. -1.
<scales pt_clust_5="13000.00000" pt_clust_6="13000.00000" pt_clust_7="13000.00000" pt_clust_8="13000.00000" pt_clust_9="13000.00000"></scales>
<clustering>
<clus scale="   79.151">  5  6 -1 -1</clus>
<clus scale="   92.040">  7  8 -1 -1</clus>
<clus scale="   93.502">  7  9 -1 -1</clus>
<clus scale="   97.409">  2  5  1 -1</clus>
<clus scale="  225.095">  1  5  2 -1</clus>
</clustering>
</event>
<event>
 9    2  0.2147756E-005  0.5409970E+03  0.7546771E-02  0.1038256E+00
         21   -1    0    0  501  502  0.00000000000E+00  0.00000000000E+00  0.13879363834E+03  0.13879363834E+03  0.00000000000E+00 0. -1.
          2   -1    0    0  502    0 -0.00000000000E+00 -0.00000000000E+00 -0.96604900639E+03  0.96604900639E+03  0.00000000000E+00 0. -1.
         24    2    1    2    0    0  0.17150116250E+03  0.88884643170E+01 -0.24709387696E+03  0.31158029795E+03  0.80840859111E+02 0.  0.
         23    2    1    2    0    0  0.86517611225E+02  0.14758312771E+03 -0.81102740854E+02  0.21006711112E+03  0.91019008812E+02 0.  0.
        -13    1    3    3    0    0  0.12065883137E+03  0.43484029839E+02 -0.17052872139E+03  0.21337633247E+03  0.00000000000E+00 0.  1.
         14    1    3    3    0    0  0.50842331126E+02 -0.34595565522E+02 -0.76565155566E+02  0.98203965475E+02  0.00000000000E+00 0. -1.
        -11    1    4    4    0    0  0.10999781539E+02  0.82562191007E+02 -0.28129110787E+01  0.83339204739E+02  0.00000000000E+00 0.  1.
         11    1    4    4    0    0  0.75517829687E+02  0.65020936700E+02 -0.78289829775E+02  0.12672790638E+03  0.00000000000E+00 0. -1.
          1    1    1    2  501    0 -0.25801877372E+03 -0.15647159202E+03 -0.49905875025E+03  0.58319523566E+03  0.00000000000E+00 0. -1.
<scales pt_clust_5="13000.00000" pt_clust_6="13000.00000" pt_clust_7="13000.00000" pt_clust_8="13000.00000" pt_clust_9="13000.00000"></scales>
<clustering>
<clus scale="   80.841">  5  6 -1 -1</clus>
<clus scale="   91.019">  7  8 -1 -1</clus>
<clus scale="  189.808">  2  5  1 -1</clus>
<clus scale="  193.492">  7  9 -1 -1</clus>
<clus scale="  540.997">  1  5  2 -1</clus>
</clustering>
</event>
<event>
 9    2  0.2147756E-005  0.3278379E+03  0.7546771E-02  0.1111878E+00
         21   -1    0    0  501  502  0.00000000000E+00  0.00000000000E+00  0.40627625662E+03  0.40627625662E+03  0.00000000000E+00 0. -1.
          2   -1    0    0  502    0 -0.00000000000E+00 -0.00000000000E+00 -0.17023799466E+03  0.17023799466E+03  0.00000000000E+00 0. -1.
         24    2    1    2    0    0 -0.58991090770E+02  0.44069748902E+02  0.22007853323E+03  0.24828814747E+03  0.88262969735E+02 0.  0.
         23    2    1    2    0    0  0.12855614841E+03 -0.12169332113E+03 -0.49221509698E+02  0.20528990063E+03  0.91570948342E+02 0.  0.
        -11    1    3    3    0    0 -0.48145490124E+02  0.56408539919E+02  0.87520066737E+02  0.11471562089E+03  0.00000000000E+00 0.  1.
         12    1    3    3    0    0 -0.10845600646E+02 -0.12338791017E+02  0.13255846649E+03  0.13357252658E+03  0.00000000000E+00 0. -1.
        -13    1    4    4    0    0 -0.99988784640E+01 -0.25384738360E+02 -0.20494422386E+02  0.34123069339E+02  0.00000000000E+00 0.  1.
         13    1    4    4    0    0  0.13855502688E+03 -0.96308582774E+02 -0.28727087311E+02  0.17116683129E+03  0.00000000000E+00 0. -1.
          1    1    1    2  501    0 -0.69565057642E+02  0.77623572232E+02  0.65181238431E+02  0.12293620319E+03  0.00000000000E+00 0. -1.
<scales pt_clust_5="13000.00000" pt_clust_6="13000.00000" pt_clust_7="13000.00000" pt_clust_8="13000.00000" pt_clust_9="13000.00000"></scales>
<clustering>
<clus scale="   88.263">  5  6 -1 -1</clus>
<clus scale="   91.571">  7  8 -1 -1</clus>
<clus scale="  104.234">  7  9 -1 -1</clus>
<clus scale="  114.945">  2  5  1 -1</clus>
<clus scale="  327.838">  1  5  2 -1</clus>
</clustering>
</event>
<event>
 9    2  0.2147756E-005  0.3738623E+03  0.7546771E-02  0.1062905E+00
          2   -1    0    0  502    0 -0.00000000000E+00  0.00000000000E+00  0.14993931282E+04  0.14993931282E+04  0.00000000000E+00 0. -1.
         21   -1    0    0  501  502  0.00000000000E+00 -0.00000000000E+00 -0.72792992656E+02  0.72792992656E+02  0.00000000000E+00 0. -1.
         24    2    1    2    0    0 -0.35329841374E+01 -0.27427618188E+03  0.67838003138E+03  0.73576140403E+03  0.76847060881E+02 0.  0.
         23    2    1    2    0    0  0.49449872834E+02  0.55064261847E+02  0.43769050949E+03  0.45355286395E+03  0.93058344282E+02 0.  0.
        -13    1    3    3    0    0  0.14645608885E+02 -0.12498710538E+03  0.22133069074E+03  0.25460468384E+03  0.00000000000E+00 0.  1.
         14    1    3    3    0    0 -0.18178593022E+02 -0.14928907650E+03  0.45704934063E+03  0.48115672019E+03  0.00000000000E+00 0. -1.
        -11    1    4    4    0    0 -0.17999714746E+02 -0.11226256961E+02  0.46780289225E+02  0.51365494607E+02  0.00000000000E+00 0.  1.
         11    1    4    4    0    0  0.67449587580E+02  0.66290518807E+02  0.39091022027E+03  0.40218736934E+03  0.00000000000E+00 0. -1.
          1    1    1    2  501    0 -0.45916888697E+02  0.21921192003E+03  0.31052959464E+03  0.38287185284E+03  0.00000000000E+00 0. -1.
<scales pt_clust_5="13000.00000" pt_clust_6="13000.00000" pt_clust_7="13000.00000" pt_clust_8="13000.00000" pt_clust_9="13000.00000"></scales>
<clustering>
<clus scale="   76.847">  5  6 -1 -1</clus>
<clus scale="   93.058">  7  8 -1 -1</clus>
<clus scale="  223.969">  7  9 -1 -1</clus>
<clus scale="  284.860">  1  5  2 -1</clus>
<clus scale="  373.862">  2  5  1 -1</clus>
</clustering>
</event>
<event>
 9    2  0.2147756E-005  0.1711977E+03  0.7546771E-02  0.1206480E+00
         21   -1    0    0  501  502  0.00000000000E+00  0.00000000000E+00  0.20492805561E+02  0.20492805561E+02  0.00000000000E+00 0. -1.
          2   -1    0    0  502    0 -0.00000000000E+00 -0.00000000000E+00 -0.83701512829E+03  0.83701512829E+03  0.00000000000E+00 0. -1.
         24    2    1    2    0    0  0.35872221737E+02 -0.10846684586E+02 -0.22896306276E+03  0.24551567697E+03  0.80308135790E+02 0.  0.
         23    2    1    2    0    0  0.28706126824E+02  0.21459482504E+02 -0.24369785495E+03  0.26195845787E+03  0.89157377917E+02 0.  0.
        -13    1    3    3    0    0 -0.29851873191E+01  0.30206147516E+02 -0.10447772942E+03  0.10879760400E+03  0.00000000000E+00 0.  1.
         14    1    3    3    0    0  0.38857409056E+02 -0.41052832102E+02 -0.12448533334E+03  0.13671807298E+03  0.00000000000E+00 0. -1.
        -11    1    4    4    0    0  0.48895584992E+02  0.44013389365E+02 -0.17010875487E+03  0.18238680094E+03  0.00000000000E+00 0. -1.
         11    1    4    4    0    0 -0.20189458168E+02 -0.22553906860E+02 -0.73589100079E+02  0.79571656928E+02  0.00000000000E+00 0.  1.
          1    1    1    2  501    0 -0.64578348561E+02 -0.10612797919E+02 -0.34386140503E+03  0.35003379901E+03  0.00000000000E+00 0. -1.
<scales pt_clust_5="13000.00000" pt_clust_6="13000.00000" pt_clust_7="13000.00000" pt_clust_8="13000.00000" pt_clust_9="13000.00000"></scales>
<clustering>
<clus scale="   80.308">  5  6 -1 -1</clus>
<clus scale="   88.622">  2  5  1 -1</clus>
<clus scale="   89.157">  7  8 -1 -1</clus>
<clus scale="   46.969">  7  9 -1 -1</clus>
<clus scale="  171.198">  1  5  2 -1</clus>
</clustering>
</event>
<event>
 9    2  0.2147756E-005  0.1738758E+03  0.7546771E-02  0.1199131E+00
         21   -1    0    0  501  502  0.00000000000E+00  0.00000000000E+00  0.23108896238E+02  0.23108896238E+02  0.00000000000E+00 0.  1.
         -1   -1    0    0    0  501 -0.00000000000E+00 -0.00000000000E+00 -0.88838752161E+03  0.88838752161E+03  0.00000000000E+00 0.  1.
         24    2    1    2    0    0  0.57510567471E+02  0.28084879690E+02 -0.45876820897E+03  0.46936124682E+03  0.75732982404E+02 0.  0.
         23    2    1    2    0    0 -0.12368377192E+02  0.28635827060E+02 -0.27306410478E+03  0.29027018492E+03  0.93379802897E+02 0.  0.
        -13    1    3    3    0    0  0.64625799332E+02 -0.16267344903E+01 -0.24347672590E+03  0.25191279495E+03  0.00000000000E+00 0.  1.
         14    1    3    3    0    0 -0.71152318604E+01  0.29711614180E+02 -0.21529148306E+03  0.21744845187E+03  0.00000000000E+00 0. -1.
        -13    1    4    4    0    0 -0.27489585355E+02 -0.20209476596E+02 -0.44599129110E+02  0.56153206183E+02  0.00000000000E+00 0. -1.
         13    1    4    4    0    0  0.15121208163E+02  0.48845303656E+02 -0.22846497567E+03  0.23411697874E+03  0.00000000000E+00 0.  1.
         -2    1    1    2    0  502 -0.45142190279E+02 -0.56720706750E+02 -0.13344631163E+03  0.15186498610E+03  0.00000000000E+00 0.  1.
<scales pt_clust_5="13000.00000" pt_clust_6="13000.00000" pt_clust_7="13000.00000" pt_clust_8="13000.00000" pt_clust_9="13000.00000"></scales>
<clustering>
<clus scale="   75.733">  5  6 -1 -1</clus>
<clus scale="   93.380">  7  8 -1 -1</clus>
<clus scale="   72.492">  7  9 -1 -1</clus>
<clus scale="   99.155">  2  5  1 -1</clus>
<clus scale="  173.876">  1  5  2 -1</clus>
</clustering>
</event>
<event>
 9    2  0.2147756E-005  0.4036463E+03  0.7546771E-02  0.1063502E+00
          2   -1    0    0  502    0 -0.00000000000E+00  0.00000000000E+00  0.53346499586E+03  0.53346499586E+03  0.00000000000E+00 0. -1.
         21   -1    0    0  501  502  0.00000000000E+00 -0.00000000000E+00 -0.21934622862E+03  0.21934622862E+03  0.00000000000E+00 0. -1.
         24    2    1    2    0    0 -0.20236833984E+03 -0.46780266858E+02  0.26514227243E+03  0.34620447375E+03  0.80098531052E+02 0.  0.
         23    2    1    2    0    0 -0.29482556360E+02  0.12311040950E+03  0.43581785273E+02  0.16245468411E+03  0.92014989682E+02 0.  0.
        -11    1    3    3    0    0 -0.59116552184E+02 -0.35914551264E+02  0.13797748409E+03  0.15434509338E+03  0.00000000000E+00 0.  1.
         12    1    3    3    0    0 -0.14325178765E+03 -0.10865715594E+02  0.12716478834E+03  0.19185938037E+03  0.00000000000E+00 0. -1.
        -11    1    4    4    0    0  0.11422031712E+02  0.72077535142E+02  0.60618148123E+02  0.94869351018E+02  0.00000000000E+00 0.  1.
         11    1    4    4    0    0 -0.40904588072E+02  0.51032874359E+02 -0.17036362850E+02  0.67585333097E+02  0.00000000000E+00 0. -1.
          1    1    1    2  501    0  0.23185089620E+03 -0.76330142644E+02  0.53947095297E+01  0.24415206662E+03  0.00000000000E+00 0. -1.
<scales pt_clust_5="13000.00000" pt_clust_6="13000.00000" pt_clust_7="13000.00000" pt_clust_8="13000.00000" pt_clust_9="13000.00000"></scales>
<clustering>
<clus scale="   80.099">  5  6 -1 -1</clus>
<clus scale="   92.015">  7  8 -1 -1</clus>
<clus scale="  222.614">  1  5  2 -1</clus>
<clus scale="  158.229">  7  9 -1 -1</clus>
<clus scale="  403.646">  2  5  1 -1</clus>
</clustering>
</event>
<event>
 9    2  0.2147756E-005  0.2115014E+03  0.7546771E-02  0.1175991E+00
         21   -1    0    0  501  502  0.00000000000E+00  0.00000000000E+00  0.36099698313E+02  0.36099698313E+02  0.00000000000E+00 0.  1.
          2   -1    0    0  502    0 -0.00000000000E+00 -0.00000000000E+00 -0.75682013497E+03  0.75682013497E+03  0.00000000000E+00 0. -1.
         24    2    1    2    0    0 -0.20269313847E+02  0.27604212234E+02 -0.38717824656E+03  0.39797269179E+03  0.85454263695E+02 0.  0.
         23    2    1    2    0    0  0.52743606339E+02  0.46482860722E+02 -0.80504513006E+02  0.12929409694E+03  0.72756048127E+02 0.  0.
        -11    1    3    3    0    0  0.17205637901E+02 -0.13317380043E+02 -0.33348296452E+02  0.39818280513E+02  0.00000000000E+00 0.  1.
         12    1    3    3    0    0 -0.37474951748E+02  0.40921592277E+02 -0.35382995011E+03  0.35815441128E+03  0.00000000000E+00 0. -1.
        -11    1    4    4    0    0  0.21678003613E+02  0.22554808029E+01  0.99215465929E+01  0.23947027396E+02  0.00000000000E+00 0.  1.
         11    1    4    4    0    0  0.31065602726E+02  0.44227379919E+02 -0.90426059599E+02  0.10534706954E+03  0.00000000000E+00 0. -1.
          1    1    1    2  501    0 -0.32474292492E+02 -0.74087072956E+02 -0.25303767708E+03  0.26565304455E+03  0.00000000000E+00 0. -1.
<scales pt_clust_5="13000.00000" pt_clust_6="13000.00000" pt_clust_7="13000.00000" pt_clust_8="13000.00000" pt_clust_9="13000.00000"></scales>
<clustering>
<clus scale="   72.756">  7  8 -1 -1</clus>
<clus scale="   80.892">  7  9 -1 -1</clus>
<clus scale="   85.454">  5  6 -1 -1</clus>
<clus scale="   92.061">  2  5  1 -1</clus>
<clus scale="  211.501">  1  5  2 -1</clus>
</clustering>
</event>
<event>
 9    2  0.2949423E-005  0.4533889E+03  0.7546771E-02  0.1085052E+00
         21   -1    0    0  501  502  0.00000000000E+00  0.00000000000E+00  0.16767349473E+03  0.16767349473E+03  0.00000000000E+00 0.  1.
          2   -1    0    0  502    0 -0.00000000000E+00 -0.00000000000E+00 -0.80543068726E+03  0.80543068726E+03  0.00000000000E+00 0. -1.
         24    2    1    2    0    0  0.33135072230E+01  0.35470813917E+02  0.83721966281E+02  0.12099288488E+03  0.79754326429E+02 0.  0.
         23    2    1    2    0    0 -0.13731304103E+03  0.29363236443E+02 -0.73308789724E+02  0.18706682002E+03  0.99512539960E+02 0.  0.
        -13    1    3    3    0    0  0.11397625875E+02  0.49673413037E+02  0.90047387646E+02  0.10346925080E+03  0.00000000000E+00 0.  1.
         14    1    3    3    0    0 -0.80841186520E+01 -0.14202599120E+02 -0.63254213652E+01  0.17523634086E+02  0.00000000000E+00 0. -1.
        -13    1    4    4    0    0 -0.16357092576E+02 -0.26054893304E+02  0.71493595007E+01  0.31583623666E+02  0.00000000000E+00 0.  1.
         13    1    4    4    0    0 -0.12095594845E+03  0.55418129747E+02 -0.80458149225E+02  0.15548319635E+03  0.00000000000E+00 0. -1.
          1    1    1    2  501    0  0.13399953381E+03 -0.64834050360E+02 -0.64817036909E+03  0.66504447709E+03  0.00000000000E+00 0. -1.
<scales pt_clust_5="13000.00000" pt_clust_6="13000.00000" pt_clust_7="13000.00000" pt_clust_8="13000.00000" pt_clust_9="13000.00000"></scales>
<clustering>
<clus scale="   79.754">  5  6 -1 -1</clus>
<clus scale="   87.349">  2  5  1 -1</clus>
<clus scale="   99.513">  7  8 -1 -1</clus>
<clus scale="  141.230">  7  9 -1 -1</clus>
<clus scale="  453.389">  1  5  2 -1</clus>
</clustering>
</event>
<event>
 9    2  0.2147756E-005  0.2815140E+03  0.7546771E-02  0.1115199E+00
          2   -1    0    0  502    0 -0.00000000000E+00  0.00000000000E+00  0.81288826021E+03  0.81288826021E+03  0.00000000000E+00 0. -1.
         21   -1    0    0  501  502  0.00000000000E+00 -0.00000000000E+00 -0.63362609519E+02  0.63362609519E+02  0.00000000000E+00 0. -1.
         24    2    1    2    0    0  0.14072538629E+03 -0.35626006015E+02  0.21558827291E+03  0.27264563403E+03  0.82368025859E+02 0.  0.
         23    2    1    2    0    0 -0.25794540183E+02 -0.19247161357E+02  0.42559491970E+03  0.43639802262E+03  0.90974650037E+02 0.  0.
        -11    1    3    3    0    0  0.27582566497E+02  0.24982075917E+02  0.34976107476E+02  0.51070834983E+02  0.00000000000E+00 0.  1.
         12    1    3    3    0    0  0.11314281980E+03 -0.60608081933E+02  0.18061216544E+03  0.22157479904E+03  0.00000000000E+00 0. -1.
        -13    1    4    4    0    0 -0.45133640923E+02  0.22543327804E+02  0.22151659649E+03  0.22718901754E+03  0.00000000000E+00 0.  1.
         13    1    4    4    0    0  0.19339100739E+02 -0.41790489161E+02  0.20407832321E+03  0.20920900508E+03  0.00000000000E+00 0. -1.
          1    1    1    2  501    0 -0.11493084611E+03  0.54873167372E+02  0.10834245808E+03  0.16720721308E+03  0.00000000000E+00 0. -1.
<scales pt_clust_5="13000.00000" pt_clust_6="13000.00000" pt_clust_7="13000.00000" pt_clust_8="13000.00000" pt_clust_9="13000.00000"></scales>
<clustering>
<clus scale="   82.368">  5  6 -1 -1</clus>
<clus scale="   90.975">  7  8 -1 -1</clus>
<clus scale="  127.358">  7  9 -1 -1</clus>
<clus scale="  166.905">  1  5  2 -1</clus>
<clus scale="  281.514">  2  5  1 -1</clus>
</clustering>
</event>
<event>
 9    2  0.2398093E-005  0.4812037E+03  0.7546771E-02  0.1074827E+00
          2   -1    0    0  502    0 -0.00000000000E+00  0.00000000000E+00  0.47433223747E+03  0.47433223747E+03  0.00000000000E+00 0. -1.
         21   -1    0    0  501  502  0.00000000000E+00 -0.00000000000E+00 -0.18905913326E+03  0.18905913326E+03  0.00000000000E+00 0. -1.
         24    2    1    2    0    0 -0.52658985553E+02  0.47357061346E+01 -0.13207813826E+02  0.97133628709E+02  0.80405844365E+02 0.  0.
         23    2    1    2    0    0 -0.72996765719E+02 -0.32324941439E+02 -0.93923486303E+02  0.15330284099E+03  0.91141154987E+02 0.  0.
        -11    1    3    3    0    0  0.11769345405E+02 -0.20109708377E+02 -0.15597711987E+02  0.28039373771E+02  0.00000000000E+00 0.  1.
         12    1    3    3    0    0 -0.64428330958E+02  0.24845414511E+02  0.23898981608E+01  0.69094254938E+02  0.00000000000E+00 0. -1.
        -11    1    4    4    0    0 -0.21589770659E+02 -0.74181991003E+01  0.17048275690E+02  0.28491956391E+02  0.00000000000E+00 0.  1.
         11    1    4    4    0    0 -0.51406995060E+02 -0.24906742339E+02 -0.11097176199E+03  0.12481088460E+03  0.00000000000E+00 0. -1.
          1    1    1    2  501    0  0.12565575127E+03  0.27589235304E+02  0.39240440434E+03  0.41295490102E+03  0.00000000000E+00 0. -1.
<scales pt_clust_5="13000.00000" pt_clust_6="13000.00000" pt_clust_7="13000.00000" pt_clust_8="13000.00000" pt_clust_9="13000.00000"></scales>
<clustering>
<clus scale="   80.406">  5  6 -1 -1</clus>
<clus scale="   91.141">  7  8 -1 -1</clus>
<clus scale="   96.232">  1  5  2 -1</clus>
<clus scale="   83.027">  7  9 -1 -1</clus>
<clus scale="  481.204">  2  5  1 -1</clus>
</clustering>
</event>
<event>
 9    2  0.2147756E-005  0.2703989E+03  0.7546771E-02  0.1119502E+00
          2   -1    0    0  502    0 -0.00000000000E+00  0.00000000000E+00  0.55687068919E+03  0.55687068919E+03  0.00000000000E+00 0. -1.
         21   -1    0    0  501  502  0.00000000000E+00 -0.00000000000E+00 -0.89188208033E+02  0.89188208033E+02  0.00000000000E+00 0.  1.
         24    2    1    2    0    0 -0.97727930072E+02  0.11259436980E+03  0.23403046924E+03  0.28869517193E+03  0.79664304019E+02 0.  0.
         23    2    1    2    0    0  0.10796976210E+02 -0.39821084650E+02  0.82801814514E+01  0.10508331833E+03  0.96289401846E+02 0.  0.
        -13    1    3    3    0    0 -0.92846748301E+02  0.53379263521E+02  0.12567262105E+03  0.16511654104E+03  0.00000000000E+00 0.  1.
         14    1    3    3    0    0 -0.48811817717E+01  0.59215106284E+02  0.10835784819E+03  0.12357863089E+03  0.00000000000E+00 0. -1.
        -13    1    4    4    0    0  0.33454549670E+02 -0.32530440180E+01 -0.31811492511E+02  0.46279155619E+02  0.00000000000E+00 0.  1.
         13    1    4    4    0    0 -0.22657573461E+02 -0.36568040632E+02  0.40091673962E+02  0.58804162709E+02  0.00000000000E+00 0. -1.
          1    1    1    2  501    0  0.86930953863E+02 -0.72773285155E+02  0.22537183047E+03  0.25228040697E+03  0.00000000000E+00 0. -1.
<scales pt_clust_5="13000.00000" pt_clust_6="13000.00000" pt_clust_7="13000.00000" pt_clust_8="13000.00000" pt_clust_9="13000.00000"></scales>
<clustering>
<clus scale="   79.664">  5  6 -1 -1</clus>
<clus scale="   96.289">  7  8 -1 -1</clus>
<clus scale="  113.371">  7  9 -1 -1</clus>
<clus scale="  169.040">  1  5  2 -1</clus>
<clus scale="  270.399">  2  5  1 -1</clus>
</clustering>
</event>
<event>
 9    2  0.2147756E-005  0.3661453E+03  0.7546771E-02  0.1097325E+00
         21   -1    0    0  501  502  0.00000000000E+00  0.00000000000E+00  0.79288025395E+03  0.79288025395E+03  0.00000000000E+00 0. -1.
          4   -1    0    0  502    0 -0.00000000000E+00 -0.00000000000E+00 -0.11613203961E+03  0.11613203961E+03  0.00000000000E+00 0. -1.
         24    2    1    2    0    0 -0.34407627479E+02  0.82640685253E+02 -0.20265007146E+02  0.12168146885E+03  0.79889559140E+02 0.  0.
         23    2    1    2    0    0 -0.40457494836E+02  0.43339774185E+02  0.42507548628E+02  0.11661960629E+03  0.90984042368E+02 0.  0.
        -13    1    3    3    0    0  0.11879777189E+02  0.71265690528E+02 -0.14218725694E+02  0.73634909607E+02  0.00000000000E+00 0.  1.
         14    1    3    3    0    0 -0.46287404668E+02  0.11374994725E+02 -0.60462814524E+01  0.48046559245E+02  0.00000000000E+00 0. -1.
        -11    1    4    4    0    0  0.16775070460E+02  0.13556903787E+02 -0.18056634417E+02  0.28128893965E+02  0.00000000000E+00 0.  1.
         11    1    4    4    0    0 -0.57232565296E+02  0.29782870397E+02  0.60564183045E+02  0.88490712323E+02  0.00000000000E+00 0. -1.
          3    1    1    2  501    0  0.74865122315E+02 -0.12598045944E+03  0.65450567286E+03  0.67071121842E+03  0.00000000000E+00 0. -1.
<scales pt_clust_5="13000.00000" pt_clust_6="13000.00000" pt_clust_7="13000.00000" pt_clust_8="13000.00000" pt_clust_9="13000.00000"></scales>
<clustering>
<clus scale="   79.890">  5  6 -1 -1</clus>
<clus scale="   90.984">  7  8 -1 -1</clus>
<clus scale="  119.982">  2  5  1 -1</clus>
<clus scale="  130.665">  7  9 -1 -1</clus>
<clus scale="  366.145">  1  5  2 -1</clus>
</clustering>
</event>
<event>
 9    2  0.4180314E-005  0.5025297E+03  0.7546771E-02  0.1031612E+00
          2   -1    0    0  502    0 -0.00000000000E+00  0.00000000000E+00  0.73724245974E+03  0.73724245974E+03  0.00000000000E+00 0. -1.
         21   -1    0    0  501  502  0.00000000000E+00 -0.00000000000E+00 -0.21304053302E+03  0.21304053302E+03  0.00000000000E+00 0. -1.
         24    2    1    2    0    0  0.25170182761E+03 -0.12548456618E+03  0.15714764019E+03  0.32797685260E+03  0.61426774727E+02 0.  0.
         23    2    1    2    0    0  0.57141279363E+02 -0.66161425248E+02  0.15897552817E+03  0.20348753930E+03  0.92149335823E+02 0.  0.
        -11    1    3    3    0    0  0.80423296922E+02 -0.37048613563E+02  0.18309165309E+02  0.90419754418E+02  0.00000000000E+00 0.  1.
         12    1    3    3    0    0  0.17127853069E+03 -0.88435952619E+02  0.13883847488E+03  0.23755709818E+03  0.00000000000E+00 0. -1.
        -13    1    4    4    0    0  0.35756867885E+02  0.77149584204E+01  0.13608419751E+02  0.39029005528E+02  0.00000000000E+00 0.  1.
         13    1    4    4    0    0  0.21384411478E+02 -0.73876383669E+02  0.14536710842E+03  0.16445853377E+03  0.00000000000E+00 0. -1.
          1    1    1    2  501    0 -0.30884310697E+03  0.19164599143E+03  0.20807875836E+03  0.41881860087E+03  0.00000000000E+00 0. -1.
<scales pt_clust_5="13000.00000" pt_clust_6="13000.00000" pt_clust_7="13000.00000" pt_clust_8="13000.00000" pt_clust_9="13000.00000"></scales>
<clustering>
<clus scale="   61.427">  5  6 -1 -1</clus>
<clus scale="   92.149">  7  8 -1 -1</clus>
<clus scale="  287.878">  1  5  2 -1</clus>
<clus scale="  186.765">  7  9 -1 -1</clus>
<clus scale="  502.530">  2  5  1 -1</clus>
</clustering>
</event>
<event>
 9    2  0.2147756E-005  0.3655185E+03  0.7546771E-02  0.1084481E+00
          2   -1    0    0  502    0 -0.00000000000E+00  0.00000000000E+00  0.45027061753E+02  0.45027061753E+02  0.00000000000E+00 0. -1.
         21   -1    0    0  501  502  0.00000000000E+00 -0.00000000000E+00 -0.17656570546E+04  0.17656570546E+04  0.00000000000E+00 0. -1.
         24    2    1    2    0    0  0.62954263003E+02 -0.13574164978E+03 -0.30706491794E+03  0.35062588904E+03  0.79124051441E+02 0.  0.
         23    2    1    2    0    0 -0.23298428360E+02 -0.86877350409E+02 -0.35937080202E+03  0.38188506431E+03  0.92727224776E+02 0.  0.
        -13    1    3    3    0    0  0.44794513928E+02 -0.36879332229E+02 -0.17687007513E+03  0.18614418363E+03  0.00000000000E+00 0.  1.
         14    1    3    3    0    0  0.18159749075E+02 -0.98862317548E+02 -0.13019484282E+03  0.16448170541E+03  0.00000000000E+00 0. -1.
        -13    1    4    4    0    0 -0.50819145362E+01 -0.21570961457E+02 -0.72811074676E+01  0.23326953498E+02  0.00000000000E+00 0.  1.
         13    1    4    4    0    0 -0.18216513824E+02 -0.65306388952E+02 -0.35208969456E+03  0.35855811081E+03  0.00000000000E+00 0. -1.
          1    1    1    2  501    0 -0.39655834643E+02  0.22261900019E+03 -0.10541942729E+04  0.10781731630E+04  0.00000000000E+00 0. -1.
<scales pt_clust_5="13000.00000" pt_clust_6="13000.00000" pt_clust_7="13000.00000" pt_clust_8="13000.00000" pt_clust_9="13000.00000"></scales>
<clustering>
<clus scale="   79.124">  5  6 -1 -1</clus>
<clus scale="   92.727">  7  8 -1 -1</clus>
<clus scale="  169.262">  1  5  2 -1</clus>
<clus scale="  152.779">  7  9 -1 -1</clus>
<clus scale="  365.519">  2  5  1 -1</clus>
</clustering>
</event>
<event>
 9    2  0.2147756E-005  0.2481989E+03  0.7546771E-02  0.1158807E+00
          2   -1    0    0  502    0 -0.00000000000E+00  0.00000000000E+00  0.19966797572E+03  0.19966797572E+03  0.00000000000E+00 0. -1.
         21   -1    0    0  501  502  0.00000000000E+00 -0.00000000000E+00 -0.39726054609E+03  0.39726054609E+03  0.00000000000E+00 0. -1.
         24    2    1    2    0    0  0.21790990332E+02 -0.12399446284E+02  0.14859258180E+03  0.17096271366E+03  0.80745901236E+02 0.  0.
         23    2    1    2    0    0  0.65062083984E+02 -0.10716736065E+02 -0.63498177003E+02  0.12933516183E+03  0.91365433285E+02 0.  0.
        -11    1    3    3    0    0 -0.18688583678E+02  0.17491256616E+02  0.18805783066E+02  0.31762630474E+02  0.00000000000E+00 0.  1.
         12    1    3    3    0    0  0.40479574010E+02 -0.29890702900E+02  0.12978679874E+03  0.13920008319E+03  0.00000000000E+00 0. -1.
        -11    1    4    4    0    0 -0.33707039057E+01 -0.38621744620E+02 -0.22257372599E+02  0.44703371655E+02  0.00000000000E+00 0.  1.
         11    1    4    4    0    0  0.68432787890E+02  0.27905008555E+02 -0.41240804404E+02  0.84631790178E+02  0.00000000000E+00 0. -1.
          1    1    1    2  501    0 -0.86853074316E+02  0.23116182349E+02 -0.28268697517E+03  0.29663064632E+03  0.00000000000E+00 0. -1.
<scales pt_clust_5="13000.00000" pt_clust_6="13000.00000" pt_clust_7="13000.00000" pt_clust_8="13000.00000" pt_clust_9="13000.00000"></scales>
<clustering>
<clus scale="   80.746">  5  6 -1 -1</clus>
<clus scale="   84.549">  1  5  2 -1</clus>
<clus scale="   91.365">  7  8 -1 -1</clus>
<clus scale="   85.646">  7  9 -1 -1</clus>
<clus scale="  248.199">  2  5  1 -1</clus>
</clustering>
</event>
<event>
 9    2  0.2147756E-005  0.5051300E+03  0.7546771E-02  0.1035716E+00
         21   -1    0    0  501  502  0.00000000000E+00  0.00000000000E+00  0.13161909153E+03  0.13161909153E+03  0.00000000000E+00 0. -1.
          2   -1    0    0  502    0 -0.00000000000E+00 -0.00000000000E+00 -0.14315034262E+04  0.14315034262E+04  0.00000000000E+00 0. -1.
         24    2    1    2    0    0 -0.21916420608E+01 -0.23812935684E+03 -0.85122891612E+03  0.88751315917E+03  0.79865801138E+02 0.  0.
         23    2    1    2    0    0 -0.55678720716E+02 -0.51020122639E+02 -0.34247872461E+03  0.36219287732E+03  0.90492158342E+02 0.  0.
        -13    1    3    3    0    0 -0.27858393726E+02 -0.15782389188E+03 -0.45458318477E+03  0.48200657965E+03  0.00000000000E+00 0.  1.
         14    1    3    3    0    0  0.25666751666E+02 -0.80305464963E+02 -0.39664573135E+03  0.40550657953E+03  0.00000000000E+00 0. -1.
        -11    1    4    4    0    0  0.21960112862E+02 -0.12876851336E+02 -0.38574492209E+02  0.46217435092E+02  0.00000000000E+00 0.  1.
         11    1    4    4    0    0 -0.77638833578E+02 -0.38143271303E+02 -0.30390423240E+03  0.31597544223E+03  0.00000000000E+00 0. -1.
          1    1    1    2  501    0  0.57870362777E+02  0.28914947948E+03 -0.10617669396E+03  0.31341648124E+03  0.00000000000E+00 0. -1.
<scales pt_clust_5="13000.00000" pt_clust_6="13000.00000" pt_clust_7="13000.00000" pt_clust_8="13000.00000" pt_clust_9="13000.00000"></scales>
<clustering>
<clus scale="   79.866">  5  6 -1 -1</clus>
<clus scale="   90.492">  7  8 -1 -1</clus>
<clus scale="  251.175">  2  5  1 -1</clus>
<clus scale="  208.244">  7  9 -1 -1</clus>
<clus scale="  505.130">  1  5  2 -1</clus>
</clustering>
</event>
<event>
 9    2  0.2147756E-005  0.2853851E+03  0.7546771E-02  0.1131436E+00
          2   -1    0    0  502    0 -0.00000000000E+00  0.00000000000E+00  0.40509287242E+03  0.40509287242E+03  0.00000000000E+00 0. -1.
         21   -1    0    0  501  502  0.00000000000E+00 -0.00000000000E+00 -0.11395981559E+03  0.11395981559E+03  0.00000000000E+00 0. -1.
         24    2    1    2    0    0 -0.57172757973E+02 -0.43776360854E+02  0.18664815890E+03  0.21514189192E+03  0.79141673061E+02 0.  0.
         23    2    1    2    0    0  0.75948238633E+02 -0.59140368726E+02  0.13713085838E+03  0.19432005452E+03  0.98436238786E+02 0.  0.
        -11    1    3    3    0    0 -0.13486428876E+02 -0.55127075490E+02  0.13561785783E+03  0.14701388226E+03  0.00000000000E+00 0.  1.
         12    1    3    3    0    0 -0.43686329096E+02  0.11350714636E+02  0.51030301074E+02  0.68128009661E+02  0.00000000000E+00 0. -1.
        -11    1    4    4    0    0  0.79753978011E+02 -0.81858201089E+02  0.10865253745E+03  0.15769221918E+03  0.00000000000E+00 0. -1.
         11    1    4    4    0    0 -0.38057393781E+01  0.22717832363E+02  0.28478320924E+02  0.36627835346E+02  0.00000000000E+00 0.  1.
          1    1    1    2  501    0 -0.18775480660E+02  0.10291672958E+03 -0.32645960450E+02  0.10959074156E+03  0.00000000000E+00 0. -1.
<scales pt_clust_5="13000.00000" pt_clust_6="13000.00000" pt_clust_7="13000.00000" pt_clust_8="13000.00000" pt_clust_9="13000.00000"></scales>
<clustering>
<clus scale="   79.142">  5  6 -1 -1</clus>
<clus scale="   98.436">  7  8 -1 -1</clus>
<clus scale="  104.615">  7  9 -1 -1</clus>
<clus scale="  106.998">  1  5  2 -1</clus>
<clus scale="  285.385">  2  5  1 -1</clus>
</clustering>
</event>
<event>
 9    2  0.2147756E-005  0.4812269E+03  0.7546771E-02  0.1029628E+00
          2   -1    0    0  502    0 -0.00000000000E+00  0.00000000000E+00  0.18191076319E+04  0.18191076319E+04  0.00000000000E+00 0. -1.
         21   -1    0    0  501  502  0.00000000000E+00 -0.00000000000E+00 -0.17371694097E+03  0.17371694097E+03  0.00000000000E+00 0. -1.
         24    2    1    2    0    0  0.25761116551E+03 -0.22087274729E+03  0.14190609257E+04  0.14610309272E+04  0.75691322509E+02 0.  0.
         23    2    1    2    0    0  0.82920903221E+01 -0.26032375665E+02  0.12144944402E+03  0.15408137028E+03  0.90800098405E+02 0.  0.
        -11    1    3    3    0    0  0.17423165345E+02 -0.49434142903E+02  0.19843960769E+03  0.20524516822E+03  0.00000000000E+00 0.  1.
         12    1    3    3    0    0  0.24018800017E+03 -0.17143860439E+03  0.12206213180E+04  0.12557857590E+04  0.00000000000E+00 0. -1.
        -11    1    4    4    0    0  0.34613676633E+02 -0.28557601381E+02  0.19797922462E+02  0.49046925903E+02  0.00000000000E+00 0. -1.
         11    1    4    4    0    0 -0.26321586311E+02  0.25252257163E+01  0.10165152156E+03  0.10503444438E+03  0.00000000000E+00 0.  1.
          1    1    1    2  501    0 -0.26590325583E+03  0.24690512296E+03  0.10488032123E+03  0.37771227540E+03  0.00000000000E+00 0. -1.
<scales pt_clust_5="13000.00000" pt_clust_6="13000.00000" pt_clust_7="13000.00000" pt_clust_8="13000.00000" pt_clust_9="13000.00000"></scales>
<clustering>
<clus scale="   75.691">  5  6 -1 -1</clus>
<clus scale="   90.800">  7  8 -1 -1</clus>
<clus scale="  347.674">  1  5  2 -1</clus>
<clus scale="  147.269">  7  9 -1 -1</clus>
<clus scale="  481.227">  2  5  1 -1</clus>
</clustering>
</event>
<event>
 9    2  0.2147756E-005  0.5516040E+03  0.7546771E-02  0.1053514E+00
         21   -1    0    0  501  502  0.00000000000E+00  0.00000000000E+00  0.56072627256E+03  0.56072627256E+03  0.00000000000E+00 0.  1.
         -1   -1    0    0    0  501 -0.00000000000E+00 -0.00000000000E+00 -0.28767493908E+03  0.28767493908E+03  0.00000000000E+00 0.  1.
         24    2    1    2    0    0  0.77853317665E+02 -0.29250502427E+02 -0.12348881018E+03  0.16905513739E+03  0.80083845278E+02 0.  0.
         23    2    1    2    0    0  0.42549815428E+02 -0.45313829238E+02 -0.11156544360E+03  0.15187281255E+03  0.82186818122E+02 0.  0.
        -13    1    3    3    0    0  0.93350988905E+02 -0.21731493749E+02 -0.11543580847E+03  0.15004029734E+03  0.00000000000E+00 0.  1.
         14    1    3    3    0    0 -0.15497671240E+02 -0.75190086775E+01 -0.80530017058E+01  0.19014840042E+02  0.00000000000E+00 0. -1.
        -11    1    4    4    0    0  0.82219692562E+01 -0.36364051995E+02 -0.11023909378E+03  0.11637268946E+03  0.00000000000E+00 0.  1.
         11    1    4    4    0    0  0.34327846172E+02 -0.89497772427E+01 -0.13263498260E+01  0.35500123089E+02  0.00000000000E+00 0. -1.
         -2    1    1    2    0  502 -0.12040313309E+03  0.74564331665E+02  0.50810558726E+03  0.52747326171E+03  0.00000000000E+00 0.  1.
<scales pt_clust_5="13000.00000" pt_clust_6="13000.00000" pt_clust_7="13000.00000" pt_clust_8="13000.00000" pt_clust_9="13000.00000"></scales>
<clustering>
<clus scale="   80.084">  5  6 -1 -1</clus>
<clus scale="   82.187">  7  8 -1 -1</clus>
<clus scale="  115.456">  2  5  1 -1</clus>
<clus scale="  136.039">  7  9 -1 -1</clus>
<clus scale="  551.604">  1  5  2 -1</clus>
</clustering>
</event>
<event>
 9    2  0.2147756E-005  0.3283317E+03  0.7546771E-02  0.1106812E+00
         21   -1    0    0  501  502  0.00000000000E+00  0.00000000000E+00  0.10013950406E+03  0.10013950406E+03  0.00000000000E+00 0.  1.
          4   -1    0    0  502    0 -0.00000000000E+00 -0.00000000000E+00 -0.68234374837E+03  0.68234374837E+03  0.00000000000E+00 0. -1.
         24    2    1    2    0    0 -0.94568649152E+02  0.39741290380E+02 -0.20434376730E+02  0.13180123188E+03  0.80196018658E+02 0.  0.
         23    2    1    2    0    0 -0.52962261677E+02  0.19394410571E+02 -0.56625605407E+02  0.12112265052E+03  0.91011499044E+02 0.  0.
        -11    1    3    3    0    0 -0.24665784147E+02 -0.24499112028E+02 -0.10652932272E+02  0.36360588056E+02  0.00000000000E+00 0.  1.
         12    1    3    3    0    0 -0.69902865005E+02  0.64240402408E+02 -0.97814444579E+01  0.95440643822E+02  0.00000000000E+00 0. -1.
        -11    1    4    4    0    0 -0.58061941468E+02 -0.43907267055E+01  0.13575178728E+01  0.58243543701E+02  0.00000000000E+00 0.  1.
         11    1    4    4    0    0  0.50996797911E+01  0.23785137277E+02 -0.57983123280E+02  0.62879106820E+02  0.00000000000E+00 0. -1.
          3    1    1    2  501    0  0.14753091083E+03 -0.59135700951E+02 -0.50514426217E+03  0.52955937003E+03  0.00000000000E+00 0. -1.
<scales pt_clust_5="13000.00000" pt_clust_6="13000.00000" pt_clust_7="13000.00000" pt_clust_8="13000.00000" pt_clust_9="13000.00000"></scales>
<clustering>
<clus scale="   80.196">  5  6 -1 -1</clus>
<clus scale="   91.011">  7  8 -1 -1</clus>
<clus scale="  130.208">  2  5  1 -1</clus>
<clus scale="   71.427">  7  9 -1 -1</clus>
<clus scale="  328.332">  1  5  2 -1</clus>
</clustering>
</event>
<event>
 9    2  0.2147756E-005  0.2847299E+03  0.7546771E-02  0.1124419E+00
          4   -1    0    0  502    0 -0.00000000000E+00  0.00000000000E+00  0.24430658395E+03  0.24430658395E+03  0.00000000000E+00 0. -1.
         21   -1    0    0  501  502  0.00000000000E+00 -0.00000000000E+00 -0.17484629451E+03  0.17484629451E+03  0.00000000000E+00 0. -1.
         24    2    1    2    0    0 -0.92896852526E+02 -0.35439237592E+02  0.11623392683E+02  0.12860819738E+03  0.80741565538E+02 0.  0.
         23    2    1    2    0    0  0.53664821730E+02 -0.88846813780E+02 -0.12934730901E+02  0.14223824802E+03  0.96388497887E+02 0.  0.
        -13    1    3    3    0    0 -0.10023110618E+03 -0.90363261555E+01  0.77890709378E+01  0.10093859254E+03  0.00000000000E+00 0.  1.
         14    1    3    3    0    0  0.73342536562E+01 -0.26402911437E+02  0.38343217455E+01  0.27669604845E+02  0.00000000000E+00 0. -1.
        -13    1    4    4    0    0  0.76887415653E+02 -0.47141569757E+02 -0.23813172186E+02  0.93279523233E+02  0.00000000000E+00 0. -1.
         13    1    4    4    0    0 -0.23222593923E+02 -0.41705244023E+02  0.10878441285E+02  0.48958724783E+02  0.00000000000E+00 0.  1.
          3    1    1    2  501    0  0.39232030797E+02  0.12428605137E+03  0.70771627662E+02  0.14830643306E+03  0.00000000000E+00 0. -1.
<scales pt_clust_5="13000.00000" pt_clust_6="13000.00000" pt_clust_7="13000.00000" pt_clust_8="13000.00000" pt_clust_9="13000.00000"></scales>
<clustering>
<clus scale="   80.742">  5  6 -1 -1</clus>
<clus scale="   96.388">  7  8 -1 -1</clus>
<clus scale="  128.082">  1  5  2 -1</clus>
<clus scale="  103.789">  7  9 -1 -1</clus>
<clus scale="  284.730">  2  5  1 -1</clus>
</clustering>
</event>
<event>
 9    2  0.2147756E-005  0.2928799E+03  0.7546771E-02  0.1129818E+00
         21   -1    0    0  501  502  0.00000000000E+00  0.00000000000E+00  0.40717755061E+02  0.40717755061E+02  0.00000000000E+00 0. -1.
          2   -1    0    0  502    0 -0.00000000000E+00 -0.00000000000E+00 -0.10208211870E+04  0.10208211870E+04  0.00000000000E+00 0. -1.
         24    2    1    2    0    0 -0.62202864918E+02  0.20707337133E+02 -0.15596156165E+03  0.18690275205E+03  0.79439535473E+02 0.  0.
         23    2    1    2    0    0 -0.47113603590E+02 -0.84292349095E+02 -0.62387239776E+03  0.63777968143E+03  0.90671172927E+02 0.  0.
        -13    1    3    3    0    0 -0.64136242942E+02  0.17822782434E+02 -0.16462249276E+03  0.17757160346E+03  0.00000000000E+00 0.  1.
         14    1    3    3    0    0  0.19333780235E+01  0.28845546996E+01  0.86609311078E+01  0.93311485923E+01  0.00000000000E+00 0. -1.
        -13    1    4    4    0    0  0.82623478247E+01 -0.75682598912E+02 -0.37993245980E+03  0.38748522060E+03  0.00000000000E+00 0.  1.
         13    1    4    4    0    0 -0.55375951415E+02 -0.86097501832E+01 -0.24393993796E+03  0.25029446083E+03  0.00000000000E+00 0. -1.
          1    1    1    2  501    0  0.10931646851E+03  0.63585011962E+02 -0.20026947257E+03  0.23685650862E+03  0.00000000000E+00 0. -1.
<scales pt_clust_5="13000.00000" pt_clust_6="13000.00000" pt_clust_7="13000.00000" pt_clust_8="13000.00000" pt_clust_9="13000.00000"></scales>
<clustering>
<clus scale="   79.440">  5  6 -1 -1</clus>
<clus scale="   90.671">  7  8 -1 -1</clus>
<clus scale="  102.998">  2  5  1 -1</clus>
<clus scale="  116.000">  7  9 -1 -1</clus>
<clus scale="  292.880">  1  5  2 -1</clus>
</clustering>
</event>
<event>
 9    2  0.2147756E-005  0.1814936E+03  0.7546771E-02  0.1197330E+00
         21   -1    0    0  501  502  0.00000000000E+00  0.00000000000E+00  0.18251079154E+03  0.18251079154E+03  0.00000000000E+00 0. -1.
          2   -1    0    0  502    0 -0.00000000000E+00 -0.00000000000E+00 -0.26706754657E+03  0.26706754657E+03  0.00000000000E+00 0. -1.
         24    2    1    2    0    0 -0.12980005994E+02  0.39373989512E+02 -0.21014288557E+03  0.22887086557E+03  0.80641485275E+02 0.  0.
         23    2    1    2    0    0 -0.38172533737E+02  0.11603458434E+00  0.28106383340E+02  0.10375301371E+03  0.92290645643E+02 0.  0.
        -13    1    3    3    0    0 -0.10552491338E+02  0.27592873008E+02 -0.14589829822E+02  0.32948214649E+02  0.00000000000E+00 0.  1.
         14    1    3    3    0    0 -0.24275146560E+01  0.11781116504E+02 -0.19555305575E+03  0.19592265093E+03  0.00000000000E+00 0. -1.
        -13    1    4    4    0    0  0.72995295457E+00 -0.31388364397E+02 -0.17576945932E+02  0.35982096647E+02  0.00000000000E+00 0.  1.
         13    1    4    4    0    0 -0.38902486692E+02  0.31504398981E+02  0.45683329272E+02  0.67770917061E+02  0.00000000000E+00 0. -1.
          1    1    1    2  501    0  0.51152539732E+02 -0.39490024096E+02  0.97479747208E+02  0.11695445883E+03  0.00000000000E+00 0. -1.
<scales pt_clust_5="13000.00000" pt_clust_6="13000.00000" pt_clust_7="13000.00000" pt_clust_8="13000.00000" pt_clust_9="13000.00000"></scales>
<clustering>
<clus scale="   80.641">  5  6 -1 -1</clus>
<clus scale="   90.674">  2  5  1 -1</clus>
<clus scale="   92.291">  7  8 -1 -1</clus>
<clus scale="   57.789">  7  9 -1 -1</clus>
<clus scale="  181.494">  1  5  2 -1</clus>
</clustering>
</event>
<event>
 9    2  0.2147756E-005  0.2913095E+03  0.7546771E-02  0.1130011E+00
          2   -1    0    0  502    0 -0.00000000000E+00  0.00000000000E+00  0.15766073819E+03  0.15766073819E+03  0.00000000000E+00 0. -1.
         21   -1    0    0  501  502  0.00000000000E+00 -0.00000000000E+00 -0.30619469008E+03  0.30619469008E+03  0.00000000000E+00 0. -1.
         24    2    1    2    0    0  0.24472971722E+02 -0.61781618768E+02  0.45665345296E+02  0.11374886529E+03  0.80234567564E+02 0.  0.
         23    2    1    2    0    0  0.32496341277E+01 -0.84204421850E+02 -0.14860588912E+03  0.19467417965E+03  0.93345493517E+02 0.  0.
        -13    1    3    3    0    0 -0.22922254403E+01 -0.23742216875E+02 -0.21458861445E+02  0.32084729921E+02  0.00000000000E+00 0.  1.
         14    1    3    3    0    0  0.26765197162E+02 -0.38039401893E+02  0.67124206741E+02  0.81664135372E+02  0.00000000000E+00 0. -1.
        -13    1    4    4    0    0 -0.25585294940E+02 -0.84973845048E+01 -0.91938259378E+02  0.95809479688E+02  0.00000000000E+00 0.  1.
         13    1    4    4    0    0  0.28834929068E+02 -0.75707037345E+02 -0.56667629743E+02  0.98864699963E+02  0.00000000000E+00 0. -1.
          1    1    1    2  501    0 -0.27722605849E+02  0.14598604062E+03 -0.45593408065E+02  0.15543238334E+03  0.00000000000E+00 0. -1.
<scales pt_clust_5="13000.00000" pt_clust_6="13000.00000" pt_clust_7="13000.00000" pt_clust_8="13000.00000" pt_clust_9="13000.00000"></scales>
<clustering>
<clus scale="   80.235">  5  6 -1 -1</clus>
<clus scale="   93.345">  7  8 -1 -1</clus>
<clus scale="  104.180">  1  5  2 -1</clus>
<clus scale="  102.995">  7  9 -1 -1</clus>
<clus scale="  291.310">  2  5  1 -1</clus>
</clustering>
</event>
<event>
 9    2  0.2147756E-005  0.5414521E+03  0.7546771E-02  0.1065433E+00
          2   -1    0    0  502    0 -0.00000000000E+00  0.00000000000E+00  0.13163203806E+04  0.13163203806E+04  0.00000000000E+00 0. -1.
         21   -1    0    0  501  502  0.00000000000E+00 -0.00000000000E+00 -0.85097201575E+02  0.85097201575E+02  0.00000000000E+00 0. -1.
         24    2    1    2    0    0  0.75662344890E+01 -0.31152374264E+02  0.46929310416E+02  0.99218534603E+02  0.81327972470E+02 0.  0.
         23    2    1    2    0    0  0.85039892432E+02 -0.22650981558E+03  0.69201421201E+03  0.73890076148E+03  0.92478028900E+02 0.  0.
        -11    1    3    3    0    0  0.36481808006E+02  0.51088038431E+01  0.59221522053E+01  0.37310776980E+02  0.00000000000E+00 0.  1.
         12    1    3    3    0    0 -0.28915573517E+02 -0.36261178107E+02  0.41007158210E+02  0.61907757624E+02  0.00000000000E+00 0. -1.
        -13    1    4    4    0    0  0.97077490296E+02 -0.14959130337E+03  0.52899104193E+03  0.55824109452E+03  0.00000000000E+00 0. -1.
         13    1    4    4    0    0 -0.12037597865E+02 -0.76918512211E+02  0.16302317008E+03  0.18065966696E+03  0.00000000000E+00 0.  1.
          1    1    1    2  501    0 -0.92606126921E+02  0.25766218984E+03  0.49227965660E+03  0.56329828610E+03  0.00000000000E+00 0. -1.
<scales pt_clust_5="13000.00000" pt_clust_6="13000.00000" pt_clust_7="13000.00000" pt_clust_8="13000.00000" pt_clust_9="13000.00000"></scales>
<clustering>
<clus scale="   81.328">  5  6 -1 -1</clus>
<clus scale="   87.418">  1  5  2 -1</clus>
<clus scale="   92.478">  7  8 -1 -1</clus>
<clus scale="  260.271">  7  9 -1 -1</clus>
<clus scale="  541.452">  2  5  1 -1</clus>
</clustering>
</event>
<event>
 9    2  0.2147756E-005  0.2535463E+03  0.7546771E-02  0.1133137E+00
         21   -1    0    0  501  502  0.00000000000E+00  0.00000000000E+00  0.12928248166E+03  0.12928248166E+03  0.00000000000E+00 0.  1.
          2   -1    0    0  502    0 -0.00000000000E+00 -0.00000000000E+00 -0.33300067828E+03  0.33300067828E+03  0.00000000000E+00 0. -1.
         24    2    1    2    0    0  0.10628570228E+03  0.59352838363E+02 -0.16881732210E+02  0.14733304760E+03  0.81256532680E+02 0.  0.
         23    2    1    2    0    0 -0.82922186625E+01  0.28464023383E+02 -0.17427485500E+02  0.10044154334E+03  0.94370677973E+02 0.  0.
        -11    1    3    3    0    0  0.10955797332E+03  0.56162183051E+02  0.67154400142E+01  0.12329735381E+03  0.00000000000E+00 0.  1.
         12    1    3    3    0    0 -0.32722710391E+01  0.31906553116E+01 -0.23597172224E+02  0.24035693791E+02  0.00000000000E+00 0. -1.
        -13    1    4    4    0    0  0.38516313430E+02  0.29404452976E+02 -0.22354034599E+02  0.53365073952E+02  0.00000000000E+00 0. -1.
         13    1    4    4    0    0 -0.46808532093E+02 -0.94042959253E+00  0.49265490984E+01  0.47076469393E+02  0.00000000000E+00 0.  1.
          1    1    1    2  501    0 -0.97993483616E+02 -0.87816861746E+02 -0.16940897890E+03  0.21450856899E+03  0.00000000000E+00 0. -1.
<scales pt_clust_5="13000.00000" pt_clust_6="13000.00000" pt_clust_7="13000.00000" pt_clust_8="13000.00000" pt_clust_9="13000.00000"></scales>
<clustering>
<clus scale="   81.257">  5  6 -1 -1</clus>
<clus scale="   94.371">  7  8 -1 -1</clus>
<clus scale="  131.585">  7  9 -1 -1</clus>
<clus scale="  146.363">  2  5  1 -1</clus>
<clus scale="  253.546">  1  5  2 -1</clus>
</clustering>
</event>
<event>
 9    2  0.2147756E-005  0.4458074E+03  0.7546771E-02  0.1070812E+00
          2   -1    0    0  502    0 -0.00000000000E+00  0.00000000000E+00  0.10307879772E+03  0.10307879772E+03  0.00000000000E+00 0. -1.
         21   -1    0    0  501  502  0.00000000000E+00 -0.00000000000E+00 -0.85507212977E+03  0.85507212977E+03  0.00000000000E+00 0.  1.
         24    2    1    2    0    0 -0.49268146078E+02  0.94712261599E+02 -0.26816170326E+03  0.30024723702E+03  0.82703939016E+02 0.  0.
         23    2    1    2    0    0 -0.36099198353E+01  0.10127032780E+03 -0.36277467295E+01  0.13655828333E+03  0.91467444397E+02 0.  0.
        -11    1    3    3    0    0 -0.57721765674E+02  0.72350063382E+02 -0.12740623709E+03  0.15747597643E+03  0.00000000000E+00 0.  1.
         12    1    3    3    0    0  0.84536195959E+01  0.22362198217E+02 -0.14075546617E+03  0.14277126059E+03  0.00000000000E+00 0. -1.
        -11    1    4    4    0    0  0.35250423244E+02  0.48435303860E+02  0.25106295823E+02  0.64953037565E+02  0.00000000000E+00 0.  1.
         11    1    4    4    0    0 -0.38860343080E+02  0.52835023944E+02 -0.28734042553E+02  0.71605245764E+02  0.00000000000E+00 0. -1.
          1    1    1    2  501    0  0.52878065913E+02 -0.19598258940E+03 -0.48020388206E+03  0.52134540715E+03  0.00000000000E+00 0. -1.
<scales pt_clust_5="13000.00000" pt_clust_6="13000.00000" pt_clust_7="13000.00000" pt_clust_8="13000.00000" pt_clust_9="13000.00000"></scales>
<clustering>
<clus scale="   82.704">  5  6 -1 -1</clus>
<clus scale="   91.467">  7  8 -1 -1</clus>
<clus scale="  135.047">  1  5  2 -1</clus>
<clus scale="  178.427">  7  9 -1 -1</clus>
<clus scale="  445.807">  2  5  1 -1</clus>
</clustering>
</event>
<event>
 9    2  0.2147756E-005  0.2320532E+03  0.7546771E-02  0.1140669E+00
         21   -1    0    0  501  502  0.00000000000E+00  0.00000000000E+00  0.23343843947E+03  0.23343843947E+03  0.00000000000E+00 0. -1.
          2   -1    0    0  502    0 -0.00000000000E+00 -0.00000000000E+00 -0.20603137518E+03  0.20603137518E+03  0.00000000000E+00 0. -1.
         24    2    1    2    0    0  0.13199230789E+03 -0.38780709207E+02  0.10976270520E+03  0.19323588551E+03  0.79789367990E+02 0.  0.
         23    2    1    2    0    0 -0.13278659936E+02  0.46445258666E+02 -0.51839545441E+01  0.10443426515E+03  0.92445429796E+02 0.  0.
        -13    1    3    3    0    0  0.18758839727E+02 -0.32053924723E+02  0.57239769636E+02  0.68232978727E+02  0.00000000000E+00 0.  1.
         14    1    3    3    0    0  0.11323346817E+03 -0.67267844842E+01  0.52522935568E+02  0.12500290678E+03  0.00000000000E+00 0. -1.
        -13    1    4    4    0    0 -0.34875463057E+02  0.65117190439E+02  0.52095277187E+01  0.74051911475E+02  0.00000000000E+00 0. -1.
         13    1    4    4    0    0  0.21596803121E+02 -0.18671931773E+02 -0.10393482263E+02  0.30382353673E+02  0.00000000000E+00 0.  1.
          1    1    1    2  501    0 -0.11871364796E+03 -0.76645494586E+01 -0.77171686375E+02  0.14179966399E+03  0.00000000000E+00 0. -1.
<scales pt_clust_5="13000.00000" pt_clust_6="13000.00000" pt_clust_7="13000.00000" pt_clust_8="13000.00000" pt_clust_9="13000.00000"></scales>
<clustering>
<clus scale="   79.789">  5  6 -1 -1</clus>
<clus scale="   92.445">  7  8 -1 -1</clus>
<clus scale="  118.961">  7  9 -1 -1</clus>
<clus scale="  159.035">  2  5  1 -1</clus>
<clus scale="  232.053">  1  5  2 -1</clus>
</clustering>
</event>
<event>
 9    2  0.2147756E-005  0.9904485E+03  0.7546771E-02  0.9581124E-01
          2   -1    0    0  502    0 -0.00000000000E+00  0.00000000000E+00  0.16056520030E+04  0.16056520030E+04  0.00000000000E+00 0. -1.
         21   -1    0    0  501  502  0.00000000000E+00 -0.00000000000E+00 -0.37916565142E+03  0.37916565142E+03  0.00000000000E+00 0.  1.
         24    2    1    2    0    0 -0.31134457124E+02  0.38223680847E+03  0.83009584370E+03  0.91799353116E+03  0.81109070664E+02 0.  0.
         23    2    1    2    0    0  0.14460172502E+03  0.27042807699E+03  0.19603655080E+03  0.37473454691E+03  0.89188831651E+02 0.  0.
        -11    1    3    3    0    0  0.25341546846E+02  0.12375112056E+03  0.30096388592E+03  0.32639821455E+03  0.00000000000E+00 0.  1.
         12    1    3    3    0    0 -0.56476003970E+02  0.25848568792E+03  0.52913195778E+03  0.59159531661E+03  0.00000000000E+00 0. -1.
        -11    1    4    4    0    0  0.10264647526E+03  0.99115868575E+02  0.79571356152E+02  0.16337642121E+03  0.00000000000E+00 0.  1.
         11    1    4    4    0    0  0.41955249764E+02  0.17131220842E+03  0.11646519464E+03  0.21135812570E+03  0.00000000000E+00 0. -1.
          1    1    1    2  501    0 -0.11346726790E+03 -0.65266488546E+03  0.20035395710E+03  0.69208957638E+03  0.00000000000E+00 0. -1.
<scales pt_clust_5="13000.00000" pt_clust_6="13000.00000" pt_clust_7="13000.00000" pt_clust_8="13000.00000" pt_clust_9="13000.00000"></scales>
<clustering>
<clus scale="   81.109">  5  6 -1 -1</clus>
<clus scale="   89.189">  7  8 -1 -1</clus>
<clus scale="  391.986">  1  5  2 -1</clus>
<clus scale="  439.945">  7  9 -1 -1</clus>
<clus scale="  990.449">  2  5  1 -1</clus>
</clustering>
</event>
<event>
 9    2  0.2158581E-005  0.4307992E+03  0.7546771E-02  0.1052139E+00
         21   -1    0    0  501  502  0.00000000000E+00  0.00000000000E+00  0.43272619723E+02  0.43272619723E+02  0.00000000000E+00 0. -1.
          2   -1    0    0  502    0 -0.00000000000E+00 -0.00000000000E+00 -0.28104120089E+04  0.28104120089E+04  0.00000000000E+00 0. -1.
         24    2    1    2    0    0  0.38423123704E+02 -0.23575726387E+03 -0.13175943543E+04  0.13414780507E+04  0.80315965007E+02 0.  0.
         23    2    1    2    0    0  0.51660785682E+02 -0.56041034987E+02 -0.30596834339E+03  0.32855586620E+03  0.92319530331E+02 0.  0.
        -13    1    3    3    0    0  0.12036602865E+02 -0.27318033317E+02 -0.66888951818E+02  0.73248116892E+02  0.00000000000E+00 0.  1.
         14    1    3    3    0    0  0.26386520839E+02 -0.20843923055E+03 -0.12507054024E+04  0.12682299338E+04  0.00000000000E+00 0. -1.
        -13    1    4    4    0    0 -0.19707524954E+02 -0.16827324142E+02 -0.15380696325E+03  0.15597476501E+03  0.00000000000E+00 0.  1.
         13    1    4    4    0    0  0.71368310636E+02 -0.39213710846E+02 -0.15216138014E+03  0.17258110119E+03  0.00000000000E+00 0. -1.
          1    1    1    2  501    0 -0.90083909386E+02  0.29179829885E+03 -0.11435766915E+04  0.11836507117E+04  0.00000000000E+00 0. -1.
<scales pt_clust_5="13000.00000" pt_clust_6="13000.00000" pt_clust_7="13000.00000" pt_clust_8="13000.00000" pt_clust_9="13000.00000"></scales>
<clustering>
<clus scale="   80.316">  5  6 -1 -1</clus>
<clus scale="   92.320">  7  8 -1 -1</clus>
<clus scale="  252.009">  2  5  1 -1</clus>
<clus scale="  122.229">  7  9 -1 -1</clus>
<clus scale="  430.799">  1  5  2 -1</clus>
</clustering>
</event>
<event>
 9    2  0.2147756E-005  0.4182081E+03  0.7546771E-02  0.1056186E+00
         21   -1    0    0  501  502  0.00000000000E+00  0.00000000000E+00  0.61313417673E+03  0.61313417673E+03  0.00000000000E+00 0.  1.
         -1   -1    0    0    0  501 -0.00000000000E+00 -0.00000000000E+00 -0.18876011232E+03  0.18876011232E+03  0.00000000000E+00 0.  1.
         24    2    1    2    0    0 -0.22643583574E+03 -0.50768828679E+02  0.74693279536E+02  0.25675697036E+03  0.80587803962E+02 0.  0.
         23    2    1    2    0    0 -0.49663739257E+02  0.27735441008E+02  0.22936062268E+03  0.24308028154E+03  0.56973558368E+02 0.  0.
        -11    1    3    3    0    0 -0.18949178938E+03 -0.28713857107E+02  0.28728244708E+02  0.19379611935E+03  0.00000000000E+00 0.  1.
         12    1    3    3    0    0 -0.36944046356E+02 -0.22054971572E+02  0.45965034828E+02  0.62960851003E+02  0.00000000000E+00 0. -1.
        -11    1    4    4    0    0 -0.24920636816E+02  0.35668810435E+02  0.19612080889E+03  0.20088970571E+03  0.00000000000E+00 0.  1.
         11    1    4    4    0    0 -0.24743102441E+02 -0.79333694268E+01  0.33239813789E+02  0.42190575839E+02  0.00000000000E+00 0. -1.
         -2    1    1    2    0  502  0.27609957499E+03  0.23033387672E+02  0.12032016220E+03  0.30205703715E+03  0.00000000000E+00 0.  1.
<scales pt_clust_5="13000.00000" pt_clust_6="13000.00000" pt_clust_7="13000.00000" pt_clust_8="13000.00000" pt_clust_9="13000.00000"></scales>
<clustering>
<clus scale="   56.974">  7  8 -1 -1</clus>
<clus scale="   80.588">  5  6 -1 -1</clus>
<clus scale="  245.652">  2  5  1 -1</clus>
<clus scale="   69.872">  7  9 -1 -1</clus>
<clus scale="  418.208">  1  5  2 -1</clus>
</clustering>
</event>
<event>
 9    2  0.2147756E-005  0.6730956E+03  0.7546771E-02  0.1031953E+00
         21   -1    0    0  501  502  0.00000000000E+00  0.00000000000E+00  0.84222340536E+03  0.84222340536E+03  0.00000000000E+00 0. -1.
          2   -1    0    0  502    0 -0.00000000000E+00 -0.00000000000E+00 -0.19045559227E+03  0.19045559227E+03  0.00000000000E+00 0. -1.
         24    2    1    2    0    0 -0.52942723291E+01 -0.87096709119E+02  0.15959500190E+03  0.19883744940E+03  0.80323723747E+02 0.  0.
         23    2    1    2    0    0  0.11178820637E+03  0.28667555672E+03  0.33653710658E+02  0.32255646145E+03  0.90722768249E+02 0.  0.
        -11    1    3    3    0    0 -0.28692857794E+02 -0.75709956037E+02  0.75122216637E+02  0.11044738550E+03  0.00000000000E+00 0.  1.
         12    1    3    3    0    0  0.23398585465E+02 -0.11386753083E+02  0.84472785259E+02  0.88390063904E+02  0.00000000000E+00 0. -1.
        -11    1    4    4    0    0  0.11501543496E+03  0.18776935229E+03  0.80647722116E+01  0.22034273414E+03  0.00000000000E+00 0. -1.
         11    1    4    4    0    0 -0.32272285927E+01  0.98906204432E+02  0.25588938446E+02  0.10221372731E+03  0.00000000000E+00 0.  1.
          1    1    1    2  501    0 -0.10649393404E+03 -0.19957884760E+03  0.45851910054E+03  0.51128508678E+03  0.00000000000E+00 0. -1.
<scales pt_clust_5="13000.00000" pt_clust_6="13000.00000" pt_clust_7="13000.00000" pt_clust_8="13000.00000" pt_clust_9="13000.00000"></scales>
<clustering>
<clus scale="   80.324">  5  6 -1 -1</clus>
<clus scale="   90.723">  7  8 -1 -1</clus>
<clus scale="  118.599">  2  5  1 -1</clus>
<clus scale="  238.532">  7  9 -1 -1</clus>
<clus scale="  673.096">  1  5  2 -1</clus>
</clustering>
</event>
<event>
 9    2  0.2147756E-005  0.2117585E+03  0.7546771E-02  0.1181911E+00
         21   -1    0    0  501  502  0.00000000000E+00  0.00000000000E+00  0.89340657733E+02  0.89340657733E+02  0.00000000000E+00 0. -1.
          2   -1    0    0  502    0 -0.00000000000E+00 -0.00000000000E+00 -0.25654954469E+03  0.25654954469E+03  0.00000000000E+00 0. -1.
         24    2    1    2    0    0  0.17007966763E+01  0.15558794681E+02 -0.74417250193E+01  0.80621996920E+02  0.78737273987E+02 0.  0.
         23    2    1    2    0    0 -0.82925391180E+02 -0.34820215153E+02 -0.86806020115E+02  0.15439997161E+03  0.90636627358E+02 0.  0.
        -13    1    3    3    0    0 -0.28295412551E+02  0.88396004740E+01 -0.30243309027E+02  0.42348868331E+02  0.00000000000E+00 0.  1.
         14    1    3    3    0    0  0.29996209228E+02  0.67191942069E+01  0.22801584007E+02  0.38273128590E+02  0.00000000000E+00 0. -1.
        -11    1    4    4    0    0 -0.16058226185E+02  0.29579240857E+02 -0.32810089111E+02  0.47003192076E+02  0.00000000000E+00 0.  1.
         11    1    4    4    0    0 -0.66867164996E+02 -0.64399456010E+02 -0.53995931004E+02  0.10739677953E+03  0.00000000000E+00 0. -1.
          1    1    1    2  501    0  0.81224594504E+02  0.19261420472E+02 -0.72961141824E+02  0.11086823390E+03  0.00000000000E+00 0. -1.
<scales pt_clust_5="13000.00000" pt_clust_6="13000.00000" pt_clust_7="13000.00000" pt_clust_8="13000.00000" pt_clust_9="13000.00000"></scales>
<clustering>
<clus scale="   78.737">  5  6 -1 -1</clus>
<clus scale="   80.278">  2  5  1 -1</clus>
<clus scale="   90.637">  7  8 -1 -1</clus>
<clus scale="   85.983">  7  9 -1 -1</clus>
<clus scale="  211.759">  1  5  2 -1</clus>
</clustering>
</event>
<event>
 9    2  0.2147756E-005  0.2320365E+03  0.7546771E-02  0.1154783E+00
         21   -1    0    0  501  502  0.00000000000E+00  0.00000000000E+00  0.41732184032E+02  0.41732184032E+02  0.00000000000E+00 0. -1.
          2   -1    0    0  502    0 -0.00000000000E+00 -0.00000000000E+00 -0.99009892267E+03  0.99009892267E+03  0.00000000000E+00 0. -1.
         24    2    1    2    0    0 -0.57154670170E+02  0.56626285677E+02 -0.61646431089E+03  0.62686177350E+03  0.80338309229E+02 0.  0.
         23    2    1    2    0    0 -0.43546763591E+02  0.20981151391E+02 -0.12188685802E+03  0.15946936868E+03  0.90760917008E+02 0.  0.
        -11    1    3    3    0    0 -0.62515461822E+02  0.12572738780E+02 -0.26288749274E+03  0.27051079565E+03  0.00000000000E+00 0.  1.
         12    1    3    3    0    0  0.53607916522E+01  0.44053546897E+02 -0.35357681815E+03  0.35635097785E+03  0.00000000000E+00 0. -1.
        -13    1    4    4    0    0  0.26408551635E+02  0.19515562984E+02 -0.40500959319E+02  0.52140162100E+02  0.00000000000E+00 0.  1.
         13    1    4    4    0    0 -0.69955315226E+02  0.14655884071E+01 -0.81385898701E+02  0.10732920658E+03  0.00000000000E+00 0. -1.
          1    1    1    2  501    0  0.10070143376E+03 -0.77607437067E+02 -0.21001556973E+03  0.24549996452E+03  0.00000000000E+00 0. -1.
<scales pt_clust_5="13000.00000" pt_clust_6="13000.00000" pt_clust_7="13000.00000" pt_clust_8="13000.00000" pt_clust_9="13000.00000"></scales>
<clustering>
<clus scale="   80.338">  5  6 -1 -1</clus>
<clus scale="   90.761">  7  8 -1 -1</clus>
<clus scale="  113.699">  2  5  1 -1</clus>
<clus scale="   78.027">  7  9 -1 -1</clus>
<clus scale="  232.037">  1  5  2 -1</clus>
</clustering>
</event>
<event>
 9    2  0.2147756E-005  0.4147763E+03  0.7546771E-02  0.1050376E+00
         21   -1    0    0  501  502  0.00000000000E+00  0.00000000000E+00  0.10954878274E+03  0.10954878274E+03  0.00000000000E+00 0.  1.
          2   -1    0    0  502    0 -0.00000000000E+00 -0.00000000000E+00 -0.23472948763E+04  0.23472948763E+04  0.00000000000E+00 0. -1.
         24    2    1    2    0    0  0.14799446273E+03  0.24457290065E+03 -0.18968804423E+04  0.19199742559E+04  0.80171480259E+02 0.  0.
         23    2    1    2    0    0  0.15147643113E+02  0.12533401640E+02 -0.23701387843E+02  0.97196607341E+02  0.92189410696E+02 0.  0.
        -13    1    3    3    0    0 -0.17717190574E+00  0.53875325790E+02 -0.27691895473E+03  0.28211112989E+03  0.00000000000E+00 0.  1.
         14    1    3    3    0    0  0.14817163463E+03  0.19069757486E+03 -0.16199614876E+04  0.16378631260E+04  0.00000000000E+00 0. -1.
        -11    1    4    4    0    0 -0.29152248609E+02  0.15846938830E+02 -0.38076115030E+02  0.50505144342E+02  0.00000000000E+00 0. -1.
         11    1    4    4    0    0  0.44299891722E+02 -0.33135371906E+01  0.14374727187E+02  0.46691462999E+02  0.00000000000E+00 0.  1.
          1    1    1    2  501    0 -0.16314210584E+03 -0.25710630229E+03 -0.31716426347E+03  0.43967279584E+03  0.00000000000E+00 0. -1.
<scales pt_clust_5="13000.00000" pt_clust_6="13000.00000" pt_clust_7="13000.00000" pt_clust_8="13000.00000" pt_clust_9="13000.00000"></scales>
<clustering>
<clus scale="   80.171">  5  6 -1 -1</clus>
<clus scale="   92.189">  7  8 -1 -1</clus>
<clus scale="  296.893">  2  5  1 -1</clus>
<clus scale="   58.300">  7  9 -1 -1</clus>
<clus scale="  414.776">  1  5  2 -1</clus>
</clustering>
</event>
<event>
 9    2  0.2147756E-005  0.4645026E+03  0.7546771E-02  0.1083218E+00
         21   -1    0    0  501  502  0.00000000000E+00  0.00000000000E+00  0.32962235799E+03  0.32962235799E+03  0.00000000000E+00 0. -1.
          2   -1    0    0  502    0 -0.00000000000E+00 -0.00000000000E+00 -0.23141657639E+03  0.23141657639E+03  0.00000000000E+00 0. -1.
         24    2    1    2    0    0 -0.22565134119E+02  0.24003654520E+02  0.35184517506E+02  0.92280602669E+02  0.78691795307E+02 0.  0.
         23    2    1    2    0    0 -0.73200197806E+01  0.17521144731E+03 -0.88136396077E+02  0.21690834174E+03  0.92350259566E+02 0.  0.
        -11    1    3    3    0    0 -0.47880152307E+02  0.99888139949E+01  0.39699750703E+02  0.62994885473E+02  0.00000000000E+00 0.  1.
         12    1    3    3    0    0  0.25315018188E+02  0.14014840525E+02 -0.45152331966E+01  0.29285717195E+02  0.00000000000E+00 0. -1.
        -13    1    4    4    0    0  0.57493245128E+01  0.85784863997E+02 -0.92678694062E+02  0.12641771219E+03  0.00000000000E+00 0.  1.
         13    1    4    4    0    0 -0.13069344293E+02  0.89426583317E+02  0.45422979848E+01  0.90490629542E+02  0.00000000000E+00 0. -1.
          1    1    1    2  501    0  0.29885153899E+02 -0.19921510183E+03  0.15115766017E+03  0.25184998998E+03  0.00000000000E+00 0. -1.
<scales pt_clust_5="13000.00000" pt_clust_6="13000.00000" pt_clust_7="13000.00000" pt_clust_8="13000.00000" pt_clust_9="13000.00000"></scales>
<clustering>
<clus scale="   78.692">  5  6 -1 -1</clus>
<clus scale="   85.310">  2  5  1 -1</clus>
<clus scale="   92.350">  7  8 -1 -1</clus>
<clus scale="  194.778">  7  9 -1 -1</clus>
<clus scale="  464.503">  1  5  2 -1</clus>
</clustering>
</event>
<event>
 9    2  0.2147756E-005  0.1941468E+03  0.7546771E-02  0.1192510E+00
         21   -1    0    0  501  502  0.00000000000E+00  0.00000000000E+00  0.51073302715E+03  0.51073302715E+03  0.00000000000E+00 0.  1.
          4   -1    0    0  502    0 -0.00000000000E+00 -0.00000000000E+00 -0.53893003698E+02  0.53893003698E+02  0.00000000000E+00 0. -1.
         24    2    1    2    0    0 -0.64527450080E+01  0.13128775051E+02  0.17309786597E+02  0.84126469634E+02  0.81016242375E+02 0.  0.
         23    2    1    2    0    0  0.71659707817E+02  0.23161486044E+02  0.23660134602E+03  0.26428423849E+03  0.90522889984E+02 0.  0.
        -11    1    3    3    0    0  0.34825012909E+02  0.16144902602E+02  0.18736425268E+02  0.42714084749E+02  0.00000000000E+00 0.  1.
         12    1    3    3    0    0 -0.41277757917E+02 -0.30161275502E+01 -0.14266386708E+01  0.41412384886E+02  0.00000000000E+00 0. -1.
        -13    1    4    4    0    0  0.48448664106E+02 -0.26160726540E+02  0.16721252968E+03  0.17604455899E+03  0.00000000000E+00 0.  1.
         13    1    4    4    0    0  0.23211043711E+02  0.49322212584E+02  0.69388816341E+02  0.88239679496E+02  0.00000000000E+00 0. -1.
          3    1    1    2  501    0 -0.65206962809E+02 -0.36290261095E+02  0.20292889083E+03  0.21621532273E+03  0.00000000000E+00 0. -1.
<scales pt_clust_5="13000.00000" pt_clust_6="13000.00000" pt_clust_7="13000.00000" pt_clust_8="13000.00000" pt_clust_9="13000.00000"></scales>
<clustering>
<clus scale="   81.016">  5  6 -1 -1</clus>
<clus scale="   82.326">  2  5  1 -1</clus>
<clus scale="   90.523">  7  8 -1 -1</clus>
<clus scale="   74.534">  7  9 -1 -1</clus>
<clus scale="  194.147">  1  5  2 -1</clus>
</clustering>
</event>
<event>
 9    2  0.2147756E-005  0.2386086E+03  0.7546771E-02  0.1155432E+00
         -1   -1    0    0    0  501 -0.00000000000E+00  0.00000000000E+00  0.24003563195E+03  0.24003563195E+03  0.00000000000E+00 0.  1.
         21   -1    0    0  501  502  0.00000000000E+00 -0.00000000000E+00 -0.12154661586E+03  0.12154661586E+03  0.00000000000E+00 0.  1.
         24    2    1    2    0    0 -0.43572320278E+02 -0.26287827240E+02  0.37926128273E+02  0.10974010838E+03  0.89525991903E+02 0.  0.
         23    2    1    2    0    0 -0.19604444988E+02 -0.25879493447E+01  0.13474595587E+03  0.16374606116E+03  0.90913520315E+02 0.  0.
        -13    1    3    3    0    0 -0.43327431352E+02  0.23004656435E+02  0.26549325366E+01  0.49127682543E+02  0.00000000000E+00 0.  1.
         14    1    3    3    0    0 -0.24488892648E+00 -0.49292483674E+02  0.35271195736E+02  0.60612425839E+02  0.00000000000E+00 0. -1.
        -11    1    4    4    0    0  0.19056683852E+02 -0.36634241049E+02  0.65702201176E+02  0.77601572510E+02  0.00000000000E+00 0. -1.
         11    1    4    4    0    0 -0.38661128841E+02  0.34046291704E+02  0.69043754699E+02  0.86144488651E+02  0.00000000000E+00 0.  1.
         -2    1    1    2    0  502  0.63176765267E+02  0.28875776584E+02 -0.54183068052E+02  0.88096078270E+02  0.00000000000E+00 0.  1.
<scales pt_clust_5="13000.00000" pt_clust_6="13000.00000" pt_clust_7="13000.00000" pt_clust_8="13000.00000" pt_clust_9="13000.00000"></scales>
<clustering>
<clus scale="   89.526">  5  6 -1 -1</clus>
<clus scale="   90.914">  7  8 -1 -1</clus>
<clus scale="   69.463">  7  9 -1 -1</clus>
<clus scale="  102.978">  1  5  2 -1</clus>
<clus scale="  238.609">  2  5  1 -1</clus>
</clustering>
</event>
<event>
 9    2  0.2147756E-005  0.1603917E+03  0.7546771E-02  0.1219668E+00
         21   -1    0    0  501  502  0.00000000000E+00  0.00000000000E+00  0.36268104243E+03  0.36268104243E+03  0.00000000000E+00 0. -1.
         -1   -1    0    0    0  501 -0.00000000000E+00 -0.00000000000E+00 -0.42255263322E+02  0.42255263322E+02  0.00000000000E+00 0.  1.
         24    2    1    2    0    0  0.21215205008E+02 -0.46928628701E+01  0.15146600854E+03  0.17197084738E+03  0.78485111450E+02 0.  0.
         23    2    1    2    0    0 -0.38552592369E+02  0.31502829004E+02  0.17268702418E+03  0.20082122554E+03  0.89608178726E+02 0.  0.
        -13    1    3    3    0    0  0.40236330548E+02 -0.68789600523E+01  0.14665405705E+03  0.15222908670E+03  0.00000000000E+00 0.  1.
         14    1    3    3    0    0 -0.19021125540E+02  0.21860971822E+01  0.48119514933E+01  0.19741760683E+02  0.00000000000E+00 0. -1.
        -13    1    4    4    0    0 -0.99571455115E+01  0.17895022705E+02 -0.43822998525E+01  0.20942328819E+02  0.00000000000E+00 0.  1.
         13    1    4    4    0    0 -0.28595446858E+02  0.13607806299E+02  0.17706932403E+03  0.17987889672E+03  0.00000000000E+00 0. -1.
         -2    1    1    2    0  502  0.17337387361E+02 -0.26809966134E+02 -0.37272536165E+01  0.32144232829E+02  0.00000000000E+00 0.  1.
<scales pt_clust_5="13000.00000" pt_clust_6="13000.00000" pt_clust_7="13000.00000" pt_clust_8="13000.00000" pt_clust_9="13000.00000"></scales>
<clustering>
<clus scale="   78.485">  5  6 -1 -1</clus>
<clus scale="   81.437">  2  5  1 -1</clus>
<clus scale="   89.608">  7  8 -1 -1</clus>
<clus scale="   41.484">  7  9 -1 -1</clus>
<clus scale="  160.392">  1  5  2 -1</clus>
</clustering>
</event>
<event>
 9    2  0.2147756E-005  0.2883015E+03  0.7546771E-02  0.1125109E+00
         -1   -1    0    0    0  501 -0.00000000000E+00  0.00000000000E+00  0.60661707541E+02  0.60661707541E+02  0.00000000000E+00 0.  1.
         21   -1    0    0  501  502  0.00000000000E+00 -0.00000000000E+00 -0.10143378508E+04  0.10143378508E+04  0.00000000000E+00 0. -1.
         24    2    1    2    0    0  0.79236806201E+02 -0.42457310789E+02 -0.62989096349E+03  0.64146221853E+03  0.81425163264E+02 0.  0.
         23    2    1    2    0    0  0.62226208811E+02 -0.14059640017E+02 -0.58055360512E+02  0.12723962975E+03  0.93539959137E+02 0.  0.
        -11    1    3    3    0    0  0.23318225570E+02 -0.32122488896E+02 -0.87310187234E+02  0.95909659218E+02  0.00000000000E+00 0.  1.
         12    1    3    3    0    0  0.55918580631E+02 -0.10334821893E+02 -0.54258077626E+03  0.54555255931E+03  0.00000000000E+00 0. -1.
        -13    1    4    4    0    0  0.64512855647E+02 -0.41239897798E+02 -0.17793413121E+02  0.78608162837E+02  0.00000000000E+00 0. -1.
         13    1    4    4    0    0 -0.22866468363E+01  0.27180257781E+02 -0.40261947391E+02  0.48631466917E+02  0.00000000000E+00 0.  1.
         -2    1    1    2    0  502 -0.14146301501E+03  0.56516950806E+02 -0.26572981923E+03  0.30629771004E+03  0.00000000000E+00 0.  1.
<scales pt_clust_5="13000.00000" pt_clust_6="13000.00000" pt_clust_7="13000.00000" pt_clust_8="13000.00000" pt_clust_9="13000.00000"></scales>
<clustering>
<clus scale="   81.425">  5  6 -1 -1</clus>
<clus scale="   93.540">  7  8 -1 -1</clus>
<clus scale="  121.290">  1  5  2 -1</clus>
<clus scale="  119.372">  7  9 -1 -1</clus>
<clus scale="  288.302">  2  5  1 -1</clus>
</clustering>
</event>
<event>
 9    2  0.2147756E-005  0.1895467E+03  0.7546771E-02  0.1184552E+00
          2   -1    0    0  502    0 -0.00000000000E+00  0.00000000000E+00  0.64773727412E+03  0.64773727412E+03  0.00000000000E+00 0. -1.
         21   -1    0    0  501  502  0.00000000000E+00 -0.00000000000E+00 -0.36734811095E+02  0.36734811095E+02  0.00000000000E+00 0. -1.
         24    2    1    2    0    0 -0.69962784003E+02 -0.64537373394E+01  0.12977186077E+03  0.16725758415E+03  0.78726880651E+02 0.  0.
         23    2    1    2    0    0  0.10819891355E+03  0.17840123843E+02  0.42645025192E+03  0.44944623280E+03  0.90093417667E+02 0.  0.
        -11    1    3    3    0    0 -0.62323054830E+02 -0.37659884531E+02  0.97808277349E+02  0.12193805470E+03  0.00000000000E+00 0.  1.
         12    1    3    3    0    0 -0.76397291731E+01  0.31206147192E+02  0.31963583421E+02  0.45319529449E+02  0.00000000000E+00 0. -1.
        -13    1    4    4    0    0  0.11906962919E+03 -0.21527421097E+01  0.36329892317E+03  0.38231965483E+03  0.00000000000E+00 0. -1.
         13    1    4    4    0    0 -0.10870715638E+02  0.19992865953E+02  0.63151328745E+02  0.67126577969E+02  0.00000000000E+00 0.  1.
          1    1    1    2  501    0 -0.38236129546E+02 -0.11386386504E+02  0.54780350335E+02  0.67768268261E+02  0.00000000000E+00 0. -1.
<scales pt_clust_5="13000.00000" pt_clust_6="13000.00000" pt_clust_7="13000.00000" pt_clust_8="13000.00000" pt_clust_9="13000.00000"></scales>
<clustering>
<clus scale="   78.727">  5  6 -1 -1</clus>
<clus scale="   90.093">  7  8 -1 -1</clus>
<clus scale="   39.896">  7  9 -1 -1</clus>
<clus scale="  105.520">  1  5  2 -1</clus>
<clus scale="  189.547">  2  5  1 -1</clus>
</clustering>
</event>
<event>
 9    2  0.2147756E-005  0.5382140E+03  0.7546771E-02  0.1065425E+00
          2   -1    0    0  502    0 -0.00000000000E+00  0.00000000000E+00  0.75938507079E+03  0.75938507079E+03  0.00000000000E+00 0. -1.
         21   -1    0    0  501  502  0.00000000000E+00 -0.00000000000E+00 -0.13227870986E+03  0.13227870986E+03  0.00000000000E+00 0. -1.
         24    2    1    2    0    0 -0.38338335749E+02  0.11183208260E+00  0.13908797980E+03  0.16514036168E+03  0.80349439564E+02 0.  0.
         23    2    1    2    0    0  0.18472935597E+03  0.88808977588E+02  0.50687835170E+03  0.55420702484E+03  0.90596873559E+02 0.  0.
        -11    1    3    3    0    0 -0.43195818884E+02 -0.33567767729E+02  0.92163739848E+02  0.10717662405E+03  0.00000000000E+00 0.  1.
         12    1    3    3    0    0  0.48574831351E+01  0.33679599812E+02  0.46924239950E+02  0.57963737637E+02  0.00000000000E+00 0. -1.
        -13    1    4    4    0    0  0.75904099493E+02  0.60715787191E+02  0.33521665321E+03  0.34902441708E+03  0.00000000000E+00 0.  1.
         13    1    4    4    0    0  0.10882525648E+03  0.28093190397E+02  0.17166169850E+03  0.20518260776E+03  0.00000000000E+00 0. -1.
          1    1    1    2  501    0 -0.14639102023E+03 -0.88920809671E+02 -0.18859970571E+02  0.17231639413E+03  0.00000000000E+00 0. -1.
<scales pt_clust_5="13000.00000" pt_clust_6="13000.00000" pt_clust_7="13000.00000" pt_clust_8="13000.00000" pt_clust_9="13000.00000"></scales>
<clustering>
<clus scale="   80.349">  5  6 -1 -1</clus>
<clus scale="   89.027">  1  5  2 -1</clus>
<clus scale="   90.597">  7  8 -1 -1</clus>
<clus scale="  175.432">  7  9 -1 -1</clus>
<clus scale="  538.214">  2  5  1 -1</clus>
</clustering>
</event>
<event>
 9    2  0.2147756E-005  0.2092532E+03  0.7546771E-02  0.1171527E+00
          2   -1    0    0  502    0 -0.00000000000E+00  0.00000000000E+00  0.14879439098E+04  0.14879439098E+04  0.00000000000E+00 0. -1.
         21   -1    0    0  501  502  0.00000000000E+00 -0.00000000000E+00 -0.19320304408E+02  0.19320304408E+02  0.00000000000E+00 0. -1.
         24    2    1    2    0    0 -0.63483714829E+02  0.23934727622E+02  0.79379474110E+03  0.80073687583E+03  0.80413929578E+02 0.  0.
         23    2    1    2    0    0 -0.27878415258E+02 -0.84309643971E+01  0.25445448498E+03  0.27606012213E+03  0.10302339009E+03 0.  0.
        -11    1    3    3    0    0 -0.72471441222E+01  0.20063348252E+02  0.44753555316E+02  0.49577613440E+02  0.00000000000E+00 0.  1.
         12    1    3    3    0    0 -0.56236570707E+02  0.38713793706E+01  0.74904118579E+03  0.75115926239E+03  0.00000000000E+00 0. -1.
        -13    1    4    4    0    0 -0.39116436154E+02 -0.32878460689E+02  0.24026980943E+03  0.24564337988E+03  0.00000000000E+00 0.  1.
         13    1    4    4    0    0  0.11238020896E+02  0.24447496291E+02  0.14184675546E+02  0.30416742247E+02  0.00000000000E+00 0. -1.
          1    1    1    2  501    0  0.91362130087E+02 -0.15503763225E+02  0.42037437929E+03  0.43046721623E+03  0.00000000000E+00 0. -1.
<scales pt_clust_5="13000.00000" pt_clust_6="13000.00000" pt_clust_7="13000.00000" pt_clust_8="13000.00000" pt_clust_9="13000.00000"></scales>
<clustering>
<clus scale="   80.414">  5  6 -1 -1</clus>
<clus scale="  103.023">  7  8 -1 -1</clus>
<clus scale="   92.668">  7  9 -1 -1</clus>
<clus scale="  105.211">  1  5  2 -1</clus>
<clus scale="  209.253">  2  5  1 -1</clus>
</clustering>
</event>
<event>
 9    2  0.2147756E-005  0.2570891E+03  0.7546771E-02  0.1119864E+00
         21   -1    0    0  501  502  0.00000000000E+00  0.00000000000E+00  0.15495934946E+03  0.15495934946E+03  0.00000000000E+00 0.  1.
          2   -1    0    0  502    0 -0.00000000000E+00 -0.00000000000E+00 -0.48853376075E+03  0.48853376075E+03  0.00000000000E+00 0. -1.
         24    2    1    2    0    0  0.17593649513E+03 -0.13455600969E+02  0.31034697002E+02  0.19736018630E+03  0.82783979144E+02 0.  0.
         23    2    1    2    0    0 -0.33369165920E+02 -0.86619928916E+01 -0.17922208983E+03  0.21122234957E+03  0.10632869848E+03 0.  0.
        -11    1    3    3    0    0  0.13807615349E+03 -0.19496684300E+02 -0.11714752911E+02  0.13993705834E+03  0.00000000000E+00 0.  1.
         12    1    3    3    0    0  0.37860341638E+02  0.60410833312E+01  0.42749449913E+02  0.57423127959E+02  0.00000000000E+00 0. -1.
        -13    1    4    4    0    0  0.31352224366E+02 -0.83110211872E+01 -0.17117787170E+02  0.36674973531E+02  0.00000000000E+00 0.  1.
         13    1    4    4    0    0 -0.64721390286E+02 -0.35097170444E+00 -0.16210430266E+03  0.17454737604E+03  0.00000000000E+00 0. -1.
          1    1    1    2  501    0 -0.14256732921E+03  0.22117593861E+02 -0.18538701846E+03  0.23491057433E+03  0.00000000000E+00 0. -1.
<scales pt_clust_5="13000.00000" pt_clust_6="13000.00000" pt_clust_7="13000.00000" pt_clust_8="13000.00000" pt_clust_9="13000.00000"></scales>
<clustering>
<clus scale="   82.784">  5  6 -1 -1</clus>
<clus scale="  106.329">  7  8 -1 -1</clus>
<clus scale="  144.273">  7  9 -1 -1</clus>
<clus scale="  194.905">  2  5  1 -1</clus>
<clus scale="  257.089">  1  5  2 -1</clus>
</clustering>
</event>
<event>
 9    2  0.2147756E-005  0.2066716E+03  0.7546771E-02  0.1176310E+00
         21   -1    0    0  501  502  0.00000000000E+00  0.00000000000E+00  0.12684194026E+03  0.12684194026E+03  0.00000000000E+00 0. -1.
          2   -1    0    0  502    0 -0.00000000000E+00 -0.00000000000E+00 -0.18976051420E+03  0.18976051420E+03  0.00000000000E+00 0. -1.
         24    2    1    2    0    0  0.26962342328E+02 -0.48753799856E+02 -0.48821174388E+02  0.10945057426E+03  0.80573073877E+02 0.  0.
         23    2    1    2    0    0 -0.38853705544E+02 -0.26405223733E+02 -0.57830228654E+02  0.11938603441E+03  0.93283672696E+02 0.  0.
        -13    1    3    3    0    0  0.32574816558E+02 -0.15648837605E+02  0.13566326554E+02  0.38601165894E+02  0.00000000000E+00 0.  1.
         14    1    3    3    0    0 -0.56124742299E+01 -0.33104962252E+02 -0.62387500942E+02  0.70849408371E+02  0.00000000000E+00 0. -1.
        -11    1    4    4    0    0 -0.67418657144E+02 -0.70684973360E+01 -0.26489046653E+02  0.72779863824E+02  0.00000000000E+00 0. -1.
         11    1    4    4    0    0  0.28564951600E+02 -0.19336726397E+02 -0.31341182002E+02  0.46606170589E+02  0.00000000000E+00 0.  1.
          1    1    1    2  501    0  0.11891363215E+02  0.75159023589E+02  0.43732829100E+02  0.87765845789E+02  0.00000000000E+00 0. -1.
<scales pt_clust_5="13000.00000" pt_clust_6="13000.00000" pt_clust_7="13000.00000" pt_clust_8="13000.00000" pt_clust_9="13000.00000"></scales>
<clustering>
<clus scale="   80.573">  5  6 -1 -1</clus>
<clus scale="   93.284">  7  8 -1 -1</clus>
<clus scale="   76.094">  7  9 -1 -1</clus>
<clus scale="   97.959">  2  5  1 -1</clus>
<clus scale="  206.672">  1  5  2 -1</clus>
</clustering>
</event>
<event>
 9    2  0.2147756E-005  0.2327097E+03  0.7546771E-02  0.1168978E+00
         21   -1    0    0  501  502  0.00000000000E+00  0.00000000000E+00  0.69109599836E+02  0.69109599836E+02  0.00000000000E+00 0. -1.
         -3   -1    0    0    0  501 -0.00000000000E+00 -0.00000000000E+00 -0.37192412188E+03  0.37192412188E+03  0.00000000000E+00 0.  1.
         24    2    1    2    0    0 -0.70398675074E+01 -0.56065564594E+01 -0.41388569870E+02  0.91037529578E+02  0.80584271828E+02 0.  0.
         23    2    1    2    0    0  0.55930836479E+02 -0.73421426120E+01 -0.26000573602E+02  0.10919938043E+03  0.89812634583E+02 0.  0.
        -11    1    3    3    0    0 -0.19017636243E+02  0.26196911954E+02 -0.46512833646E+02  0.56669148379E+02  0.00000000000E+00 0.  1.
         12    1    3    3    0    0  0.11977768736E+02 -0.31803468414E+02  0.51242637757E+01  0.34368381199E+02  0.00000000000E+00 0. -1.
        -11    1    4    4    0    0  0.41735182026E+02 -0.35640068606E+02 -0.46120704871E+02  0.71687930133E+02  0.00000000000E+00 0.  1.
         11    1    4    4    0    0  0.14195654453E+02  0.28297925994E+02  0.20120131269E+02  0.37511450295E+02  0.00000000000E+00 0. -1.
         -4    1    1    2    0  502 -0.48890968971E+02  0.12948699071E+02 -0.23542537857E+03  0.24079681171E+03  0.00000000000E+00 0.  1.
<scales pt_clust_5="13000.00000" pt_clust_6="13000.00000" pt_clust_7="13000.00000" pt_clust_8="13000.00000" pt_clust_9="13000.00000"></scales>
<clustering>
<clus scale="   80.584">  5  6 -1 -1</clus>
<clus scale="   81.085">  2  5  1 -1</clus>
<clus scale="   89.813">  7  8 -1 -1</clus>
<clus scale="   55.047">  7  9 -1 -1</clus>
<clus scale="  232.710">  1  5  2 -1</clus>
</clustering>
</event>
<event>
 9    2  0.2147756E-005  0.1891735E+03  0.7546771E-02  0.1182458E+00
          2   -1    0    0  502    0 -0.00000000000E+00  0.00000000000E+00  0.34524263003E+03  0.34524263003E+03  0.00000000000E+00 0. -1.
         21   -1    0    0  501  502  0.00000000000E+00 -0.00000000000E+00 -0.12276446230E+03  0.12276446230E+03  0.00000000000E+00 0. -1.
         24    2    1    2    0    0 -0.63850400139E+02  0.42351553615E+02 -0.61262838937E+02  0.12698573886E+03  0.80633211194E+02 0.  0.
         23    2    1    2    0    0 -0.67290987920E+01 -0.88626245255E+01  0.78289264119E+02  0.12121827671E+03  0.91874016171E+02 0.  0.
        -13    1    3    3    0    0 -0.65240782416E+01  0.45565383002E+02 -0.45032521095E+01  0.46249832482E+02  0.00000000000E+00 0.  1.
         14    1    3    3    0    0 -0.57326321898E+02 -0.32138293877E+01 -0.56759586827E+02  0.80735906377E+02  0.00000000000E+00 0. -1.
        -11    1    4    4    0    0  0.17471791446E+02  0.31704124637E+02  0.89019201335E+01  0.37278132965E+02  0.00000000000E+00 0.  1.
         11    1    4    4    0    0 -0.24200890238E+02 -0.40566749162E+02  0.69387343986E+02  0.83940143741E+02  0.00000000000E+00 0. -1.
          1    1    1    2  501    0  0.70579498931E+02 -0.33488929089E+02  0.20545174254E+03  0.21980307676E+03  0.00000000000E+00 0. -1.
<scales pt_clust_5="13000.00000" pt_clust_6="13000.00000" pt_clust_7="13000.00000" pt_clust_8="13000.00000" pt_clust_9="13000.00000"></scales>
<clustering>
<clus scale="   80.633">  5  6 -1 -1</clus>
<clus scale="   91.874">  7  8 -1 -1</clus>
<clus scale="   78.122">  7  9 -1 -1</clus>
<clus scale="  111.231">  1  5  2 -1</clus>
<clus scale="  189.173">  2  5  1 -1</clus>
</clustering>
</event>
<event>
 9    2  0.2147756E-005  0.2463287E+03  0.7546771E-02  0.1144448E+00
         21   -1    0    0  501  502  0.00000000000E+00  0.00000000000E+00  0.11665363003E+03  0.11665363003E+03  0.00000000000E+00 0. -1.
          2   -1    0    0  502    0 -0.00000000000E+00 -0.00000000000E+00 -0.29543176222E+03  0.29543176222E+03  0.00000000000E+00 0. -1.
         24    2    1    2    0    0  0.90055205858E+02 -0.16010705126E+02 -0.86306044584E+02  0.14897154651E+03  0.79859285986E+02 0.  0.
         23    2    1    2    0    0  0.44843091141E+02  0.19808501913E+01 -0.61973053033E+01  0.10237267047E+03  0.91798314127E+02 0.  0.
        -13    1    3    3    0    0  0.28937382984E+02  0.19746507849E+02  0.28139510863E+01  0.35145626000E+02  0.00000000000E+00 0.  1.
         14    1    3    3    0    0  0.61117822874E+02 -0.35757212975E+02 -0.89119995670E+02  0.11382592051E+03  0.00000000000E+00 0. -1.
        -13    1    4    4    0    0  0.49383240687E+02 -0.25181873147E+02  0.24956213327E+02  0.60791806846E+02  0.00000000000E+00 0. -1.
         13    1    4    4    0    0 -0.45401495465E+01  0.27162723338E+02 -0.31153518631E+02  0.41580863629E+02  0.00000000000E+00 0.  1.
          1    1    1    2  501    0 -0.13489829700E+03  0.14029854935E+02 -0.86274782298E+02  0.16074117526E+03  0.00000000000E+00 0. -1.
<scales pt_clust_5="13000.00000" pt_clust_6="13000.00000" pt_clust_7="13000.00000" pt_clust_8="13000.00000" pt_clust_9="13000.00000"></scales>
<clustering>
<clus scale="   79.859">  5  6 -1 -1</clus>
<clus scale="   91.798">  7  8 -1 -1</clus>
<clus scale="  121.424">  2  5  1 -1</clus>
<clus scale="   72.398">  7  9 -1 -1</clus>
<clus scale="  246.329">  1  5  2 -1</clus>
</clustering>
</event>
<event>
 9    2  0.2147756E-005  0.1848928E+03  0.7546771E-02  0.1194419E+00
         -1   -1    0    0    0  501 -0.00000000000E+00  0.00000000000E+00  0.14221457071E+03  0.14221457071E+03  0.00000000000E+00 0.  1.
         21   -1    0    0  501  502  0.00000000000E+00 -0.00000000000E+00 -0.20750625066E+03  0.20750625066E+03  0.00000000000E+00 0. -1.
         24    2    1    2    0    0 -0.35614112237E+02 -0.27912220198E+02  0.74509498941E+02  0.11792410870E+03  0.79416452662E+02 0.  0.
         23    2    1    2    0    0 -0.24361008959E+02  0.49385379504E+02 -0.12847680066E+03  0.16709467812E+03  0.91553092154E+02 0.  0.
        -13    1    3    3    0    0  0.10329286546E+02 -0.25898335225E+02  0.65327541367E+02  0.71028906714E+02  0.00000000000E+00 0.  1.
         14    1    3    3    0    0 -0.45943398783E+02 -0.20138849739E+01  0.91819575744E+01  0.46895201986E+02  0.00000000000E+00 0. -1.
        -11    1    4    4    0    0 -0.10101982122E+02 -0.27058452878E+02 -0.30439230722E+02  0.41961371306E+02  0.00000000000E+00 0.  1.
         11    1    4    4    0    0 -0.14259026837E+02  0.76443832382E+02 -0.98037569937E+02  0.12513330682E+03  0.00000000000E+00 0. -1.
         -2    1    1    2    0  502  0.59975121196E+02 -0.21473159305E+02 -0.11324378231E+02  0.64702034554E+02  0.00000000000E+00 0.  1.
<scales pt_clust_5="13000.00000" pt_clust_6="13000.00000" pt_clust_7="13000.00000" pt_clust_8="13000.00000" pt_clust_9="13000.00000"></scales>
<clustering>
<clus scale="   79.416">  5  6 -1 -1</clus>
<clus scale="   91.403">  1  5  2 -1</clus>
<clus scale="   91.553">  7  8 -1 -1</clus>
<clus scale="   54.445">  7  9 -1 -1</clus>
<clus scale="  184.893">  2  5  1 -1</clus>
</clustering>
</event>
<event>
 9    2  0.2147756E-005  0.2882818E+03  0.7546771E-02  0.1141002E+00
         21   -1    0    0  501  502  0.00000000000E+00  0.00000000000E+00  0.12072348176E+03  0.12072348176E+03  0.00000000000E+00 0. -1.
          2   -1    0    0  502    0 -0.00000000000E+00 -0.00000000000E+00 -0.30384213635E+03  0.30384213635E+03  0.00000000000E+00 0. -1.
         24    2    1    2    0    0  0.11863283747E+02  0.74416827742E+01  0.13860419293E+01  0.82296174179E+02  0.81084049161E+02 0.  0.
         23    2    1    2    0    0 -0.12912237872E+03 -0.40297773439E+02 -0.86196886447E+02  0.18576499169E+03  0.93713551179E+02 0.  0.
        -13    1    3    3    0    0 -0.27675834387E+02  0.82699533999E+01  0.23274547808E+02  0.37095127900E+02  0.00000000000E+00 0.  1.
         14    1    3    3    0    0  0.39539118134E+02 -0.82827062564E+00 -0.21888505879E+02  0.45201046278E+02  0.00000000000E+00 0. -1.
        -13    1    4    4    0    0 -0.45190721036E+02  0.23846295679E+02 -0.56192736331E+02  0.75950448989E+02  0.00000000000E+00 0.  1.
         13    1    4    4    0    0 -0.83931657689E+02 -0.64144069118E+02 -0.30004150116E+02  0.10981454271E+03  0.00000000000E+00 0. -1.
          1    1    1    2  501    0  0.11725909498E+03  0.32856090665E+02 -0.98307810066E+02  0.15650445223E+03  0.00000000000E+00 0. -1.
<scales pt_clust_5="13000.00000" pt_clust_6="13000.00000" pt_clust_7="13000.00000" pt_clust_8="13000.00000" pt_clust_9="13000.00000"></scales>
<clustering>
<clus scale="   81.084">  5  6 -1 -1</clus>
<clus scale="   82.285">  2  5  1 -1</clus>
<clus scale="   93.714">  7  8 -1 -1</clus>
<clus scale="  128.287">  7  9 -1 -1</clus>
<clus scale="  288.282">  1  5  2 -1</clus>
</clustering>
</event>
<event>
 9    2  0.2147756E-005  0.3266397E+03  0.7546771E-02  0.1091348E+00
          2   -1    0    0  502    0 -0.00000000000E+00  0.00000000000E+00  0.38438120677E+03  0.38438120677E+03  0.00000000000E+00 0. -1.
         21   -1    0    0  501  502  0.00000000000E+00 -0.00000000000E+00 -0.18777267817E+03  0.18777267817E+03  0.00000000000E+00 0. -1.
         24    2    1    2    0    0 -0.44674584638E+02 -0.17683554821E+03  0.13601377724E+03  0.23994124700E+03  0.76193338236E+02 0.  0.
         23    2    1    2    0    0 -0.88392758216E+02  0.36859236185E+02  0.96686306374E+01  0.13247842597E+03  0.91022897839E+02 0.  0.
        -11    1    3    3    0    0 -0.65968479004E+01 -0.15210937223E+03  0.10590831594E+03  0.18546522830E+03  0.00000000000E+00 0.  1.
         12    1    3    3    0    0 -0.38077736738E+02 -0.24726175971E+02  0.30105461299E+02  0.54476018699E+02  0.00000000000E+00 0. -1.
        -11    1    4    4    0    0 -0.63385347153E+02  0.63245536829E+02  0.25087713018E+02  0.92989749473E+02  0.00000000000E+00 0.  1.
         11    1    4    4    0    0 -0.25007411063E+02 -0.26386300645E+02 -0.15419082380E+02  0.39488676494E+02  0.00000000000E+00 0. -1.
          1    1    1    2  501    0  0.13306734285E+03  0.13997631202E+03  0.50926120718E+02  0.19973421197E+03  0.00000000000E+00 0. -1.
<scales pt_clust_5="13000.00000" pt_clust_6="13000.00000" pt_clust_7="13000.00000" pt_clust_8="13000.00000" pt_clust_9="13000.00000"></scales>
<clustering>
<clus scale="   76.193">  5  6 -1 -1</clus>
<clus scale="   91.023">  7  8 -1 -1</clus>
<clus scale="  193.133">  7  9 -1 -1</clus>
<clus scale="  197.667">  1  5  2 -1</clus>
<clus scale="  326.640">  2  5  1 -1</clus>
</clustering>
</event>
<event>
 9    2  0.2147756E-005  0.2073429E+03  0.7546771E-02  0.1158756E+00
         21   -1    0    0  501  502  0.00000000000E+00  0.00000000000E+00  0.35672940339E+03  0.35672940339E+03  0.00000000000E+00 0.  1.
          2   -1    0    0  502    0 -0.00000000000E+00 -0.00000000000E+00 -0.88076965048E+02  0.88076965048E+02  0.00000000000E+00 0. -1.
         24    2    1    2    0    0 -0.12016088973E+03  0.13568689147E+02  0.87848919541E+02  0.16970459777E+03  0.80370822412E+02 0.  0.
         23    2    1    2    0    0  0.11010391612E+03  0.29795140831E+02  0.17869337894E+03  0.23053701824E+03  0.90583499259E+02 0.  0.
        -13    1    3    3    0    0 -0.10266877765E+03  0.41631167195E+02  0.57499803974E+02  0.12482090948E+03  0.00000000000E+00 0.  1.
         14    1    3    3    0    0 -0.17492112080E+02 -0.28062478048E+02  0.30349115567E+02  0.44883688295E+02  0.00000000000E+00 0. -1.
        -11    1    4    4    0    0  0.72803573313E+02 -0.67220417030E+01  0.42235271839E+02  0.84435563119E+02  0.00000000000E+00 0.  1.
         11    1    4    4    0    0  0.37300342806E+02  0.36517182534E+02  0.13645810710E+03  0.14610145512E+03  0.00000000000E+00 0. -1.
          1    1    1    2  501    0  0.10056973608E+02 -0.43363829978E+02  0.21101398545E+01  0.44564752425E+02  0.00000000000E+00 0. -1.
<scales pt_clust_5="13000.00000" pt_clust_6="13000.00000" pt_clust_7="13000.00000" pt_clust_8="13000.00000" pt_clust_9="13000.00000"></scales>
<clustering>
<clus scale="   80.371">  5  6 -1 -1</clus>
<clus scale="   90.583">  7  8 -1 -1</clus>
<clus scale="   44.515">  7  9 -1 -1</clus>
<clus scale="  145.197">  2  5  1 -1</clus>
<clus scale="  207.343">  1  5  2 -1</clus>
</clustering>
</event>
<event>
 9    2  0.2147756E-005  0.1003839E+04  0.7546771E-02  0.9884415E-01
          2   -1    0    0  502    0 -0.00000000000E+00  0.00000000000E+00  0.96011524969E+03  0.96011524969E+03  0.00000000000E+00 0. -1.
         21   -1    0    0  501  502  0.00000000000E+00 -0.00000000000E+00 -0.34246065666E+03  0.34246065666E+03  0.00000000000E+00 0. -1.
         24    2    1    2    0    0 -0.11097380293E+03  0.91231918823E+01  0.11985004934E+03  0.18208412734E+03  0.79951094651E+02 0.  0.
         23    2    1    2    0    0 -0.31884024753E+03 -0.94097508442E+02  0.58056617139E+03  0.67461036040E+03  0.86767588731E+02 0.  0.
        -11    1    3    3    0    0 -0.59292421763E+02  0.26633559014E+02  0.10829921447E+03  0.12630778914E+03  0.00000000000E+00 0.  1.
         12    1    3    3    0    0 -0.51681381166E+02 -0.17510367132E+02  0.11550834872E+02  0.55776338196E+02  0.00000000000E+00 0. -1.
        -11    1    4    4    0    0 -0.15115329758E+03 -0.54992212842E+02  0.36385801012E+03  0.39782422547E+03  0.00000000000E+00 0. -1.
         11    1    4    4    0    0 -0.16768694995E+03 -0.39105295600E+02  0.21670816127E+03  0.27678613493E+03  0.00000000000E+00 0.  1.
          1    1    1    2  501    0  0.42981405046E+03  0.84974316560E+02 -0.82761627690E+02  0.44588141861E+03  0.00000000000E+00 0. -1.
<scales pt_clust_5="13000.00000" pt_clust_6="13000.00000" pt_clust_7="13000.00000" pt_clust_8="13000.00000" pt_clust_9="13000.00000"></scales>
<clustering>
<clus scale="   79.951">  5  6 -1 -1</clus>
<clus scale="   86.768">  7  8 -1 -1</clus>
<clus scale="  137.079">  1  5  2 -1</clus>
<clus scale="  414.159">  7  9 -1 -1</clus>
<clus scale=" 1003.839">  2  5  1 -1</clus>
</clustering>
</event>
<event>
 9    2  0.2147756E-005  0.3263525E+03  0.7546771E-02  0.1119011E+00
         21   -1    0    0  501  502  0.00000000000E+00  0.00000000000E+00  0.14762289845E+03  0.14762289845E+03  0.00000000000E+00 0. -1.
          2   -1    0    0  502    0 -0.00000000000E+00 -0.00000000000E+00 -0.42788555107E+03  0.42788555107E+03  0.00000000000E+00 0. -1.
         24    2    1    2    0    0 -0.52927642142E+02 -0.54418848167E+01 -0.22414310105E+03  0.24436597894E+03  0.81508603845E+02 0.  0.
         23    2    1    2    0    0  0.30918983789E+02  0.14166947857E+03 -0.82450039128E+02  0.19065890244E+03  0.92339500819E+02 0.  0.
        -13    1    3    3    0    0 -0.33589509603E+01  0.31217296123E+02 -0.44682293097E+02  0.54610525040E+02  0.00000000000E+00 0.  1.
         14    1    3    3    0    0 -0.49568691182E+02 -0.36659180939E+02 -0.17946080795E+03  0.18975545390E+03  0.00000000000E+00 0. -1.
        -13    1    4    4    0    0 -0.28456441218E+02  0.32082868025E+02 -0.40943570323E+02  0.59291276072E+02  0.00000000000E+00 0.  1.
         13    1    4    4    0    0  0.59375425007E+02  0.10958661054E+03 -0.41506468805E+02  0.13136762637E+03  0.00000000000E+00 0. -1.
          1    1    1    2  501    0  0.22008658353E+02 -0.13622759375E+03  0.26330487565E+02  0.14048356814E+03  0.00000000000E+00 0. -1.
<scales pt_clust_5="13000.00000" pt_clust_6="13000.00000" pt_clust_7="13000.00000" pt_clust_8="13000.00000" pt_clust_9="13000.00000"></scales>
<clustering>
<clus scale="   81.509">  5  6 -1 -1</clus>
<clus scale="   92.340">  7  8 -1 -1</clus>
<clus scale="   97.338">  2  5  1 -1</clus>
<clus scale="  137.981">  7  9 -1 -1</clus>
<clus scale="  326.352">  1  5  2 -1</clus>
</clustering>
</event>
<event>
 9    2  0.2147756E-005  0.5247357E+03  0.7546771E-02  0.1063963E+00
          2   -1    0    0  502    0 -0.00000000000E+00  0.00000000000E+00  0.13344475781E+04  0.13344475781E+04  0.00000000000E+00 0. -1.
         21   -1    0    0  501  502  0.00000000000E+00 -0.00000000000E+00 -0.88714351690E+02  0.88714351690E+02  0.00000000000E+00 0.  1.
         24    2    1    2    0    0  0.16593678739E+02 -0.59466080341E+02  0.50853313027E+03  0.51827989125E+03  0.78718080567E+02 0.  0.
         23    2    1    2    0    0  0.67579465803E+02  0.24911348968E+03  0.59045501243E+03  0.65074550491E+03  0.90598429989E+02 0.  0.
        -11    1    3    3    0    0  0.34350394785E+02  0.34751866135E+01  0.16398857474E+03  0.16758364834E+03  0.00000000000E+00 0.  1.
         12    1    3    3    0    0 -0.17756716046E+02 -0.62941266955E+02  0.34454455553E+03  0.35069624292E+03  0.00000000000E+00 0. -1.
        -13    1    4    4    0    0 -0.27912564515E+01  0.67910712505E+02  0.24609718242E+03  0.25531055438E+03  0.00000000000E+00 0. -1.
         13    1    4    4    0    0  0.70370722254E+02  0.18120277718E+03  0.34435783002E+03  0.39543495053E+03  0.00000000000E+00 0.  1.
          1    1    1    2  501    0 -0.84173144542E+02 -0.18964740934E+03  0.14674508370E+03  0.25413653362E+03  0.00000000000E+00 0. -1.
<scales pt_clust_5="13000.00000" pt_clust_6="13000.00000" pt_clust_7="13000.00000" pt_clust_8="13000.00000" pt_clust_9="13000.00000"></scales>
<clustering>
<clus scale="   78.718">  5  6 -1 -1</clus>
<clus scale="   90.598">  7  8 -1 -1</clus>
<clus scale="  100.040">  1  5  2 -1</clus>
<clus scale="  219.324">  7  9 -1 -1</clus>
<clus scale="  524.736">  2  5  1 -1</clus>
</clustering>
</event>
<event>
 9    2  0.2147756E-005  0.1293452E+03  0.7546771E-02  0.1249980E+00
         21   -1    0    0  501  502  0.00000000000E+00  0.00000000000E+00  0.53635742102E+02  0.53635742102E+02  0.00000000000E+00 0. -1.
         -3   -1    0    0    0  501 -0.00000000000E+00 -0.00000000000E+00 -0.31203471240E+03  0.31203471240E+03  0.00000000000E+00 0.  1.
         24    2    1    2    0    0  0.13032505043E+02 -0.63611728416E+01 -0.21271030806E+03  0.22849307797E+03  0.82177252442E+02 0.  0.
         23    2    1    2    0    0 -0.27748389344E+02 -0.11770093632E+02 -0.11776415999E+02  0.96002863543E+02  0.90384498778E+02 0.  0.
        -13    1    3    3    0    0 -0.18554790477E+02  0.11753761584E+02 -0.13069320493E+02  0.25558526937E+02  0.00000000000E+00 0.  1.
         14    1    3    3    0    0  0.31587295520E+02 -0.18114934426E+02 -0.19964098756E+03  0.20293455103E+03  0.00000000000E+00 0. -1.
        -13    1    4    4    0    0 -0.32061390594E+02  0.31700783146E+02  0.11462880003E+02  0.46521715756E+02  0.00000000000E+00 0. -1.
         13    1    4    4    0    0  0.43130012504E+01 -0.43470876778E+02 -0.23239296002E+02  0.49481147787E+02  0.00000000000E+00 0.  1.
         -4    1    1    2    0  502  0.14715884300E+02  0.18131266473E+02 -0.33912246244E+02  0.41174512990E+02  0.00000000000E+00 0.  1.
<scales pt_clust_5="13000.00000" pt_clust_6="13000.00000" pt_clust_7="13000.00000" pt_clust_8="13000.00000" pt_clust_9="13000.00000"></scales>
<clustering>
<clus scale="   82.177">  5  6 -1 -1</clus>
<clus scale="   83.447">  2  5  1 -1</clus>
<clus scale="   90.384">  7  8 -1 -1</clus>
<clus scale="   25.368">  7  9 -1 -1</clus>
<clus scale="  129.345">  1  5  2 -1</clus>
</clustering>
</event>
<event>
 9    2  0.2147756E-005  0.2390603E+03  0.7546771E-02  0.1153062E+00
         21   -1    0    0  501  502  0.00000000000E+00  0.00000000000E+00  0.12675580650E+03  0.12675580650E+03  0.00000000000E+00 0.  1.
          2   -1    0    0  502    0 -0.00000000000E+00 -0.00000000000E+00 -0.61118100911E+03  0.61118100911E+03  0.00000000000E+00 0. -1.
         24    2    1    2    0    0 -0.40837398636E+02  0.51072102115E+02 -0.48697324847E+03  0.49886294338E+03  0.86285797252E+02 0.  0.
         23    2    1    2    0    0  0.79639300922E+02  0.37419206657E+02 -0.42902421677E+02  0.13229351660E+03  0.88985063186E+02 0.  0.
        -13    1    3    3    0    0 -0.24577997508E+02  0.64594093171E+02 -0.20993008382E+03  0.22101383424E+03  0.00000000000E+00 0.  1.
         14    1    3    3    0    0 -0.16259401128E+02 -0.13521991056E+02 -0.27704316465E+03  0.27784910914E+03  0.00000000000E+00 0. -1.
        -11    1    4    4    0    0  0.52455753055E+02  0.29653747421E+02  0.19869712576E+02  0.63448847449E+02  0.00000000000E+00 0.  1.
         11    1    4    4    0    0  0.27183547867E+02  0.77654592356E+01 -0.62772134253E+02  0.68844669151E+02  0.00000000000E+00 0. -1.
          1    1    1    2  501    0 -0.38801902286E+02 -0.88491308771E+02  0.45450467535E+02  0.10678035563E+03  0.00000000000E+00 0. -1.
<scales pt_clust_5="13000.00000" pt_clust_6="13000.00000" pt_clust_7="13000.00000" pt_clust_8="13000.00000" pt_clust_9="13000.00000"></scales>
<clustering>
<clus scale="   86.286">  5  6 -1 -1</clus>
<clus scale="   88.985">  7  8 -1 -1</clus>
<clus scale="   96.625">  7  9 -1 -1</clus>
<clus scale="  108.265">  2  5  1 -1</clus>
<clus scale="  239.060">  1  5  2 -1</clus>
</clustering>
</event>
<event>
 9    2  0.2147756E-005  0.3580869E+03  0.7546771E-02  0.1103547E+00
          2   -1    0    0  502    0 -0.00000000000E+00  0.00000000000E+00  0.12155788632E+04  0.12155788632E+04  0.00000000000E+00 0. -1.
         21   -1    0    0  501  502  0.00000000000E+00 -0.00000000000E+00 -0.49920809198E+02  0.49920809198E+02  0.00000000000E+00 0. -1.
         24    2    1    2    0    0  0.71469113679E+02 -0.16377709124E+02  0.47672542841E+03  0.48906269082E+03  0.80864812482E+02 0.  0.
         23    2    1    2    0    0  0.10019619563E+03 -0.44259120589E+02  0.43364007365E+03  0.46287663553E+03  0.11921794693E+03 0.  0.
        -13    1    3    3    0    0  0.45768240669E+02 -0.49178902678E+02  0.27615668765E+03  0.28421085915E+03  0.00000000000E+00 0.  1.
         14    1    3    3    0    0  0.25700873010E+02  0.32801193555E+02  0.20056874076E+03  0.20485183167E+03  0.00000000000E+00 0. -1.
        -11    1    4    4    0    0  0.11862555199E+03 -0.23235345821E+02  0.40580093199E+03  0.42342212895E+03  0.00000000000E+00 0. -1.
         11    1    4    4    0    0 -0.18429356356E+02 -0.21023774768E+02  0.27839141659E+02  0.39454506580E+02  0.00000000000E+00 0.  1.
          1    1    1    2  501    0 -0.17166530931E+03  0.60636829712E+02  0.25529255199E+03  0.31356034609E+03  0.00000000000E+00 0. -1.
<scales pt_clust_5="13000.00000" pt_clust_6="13000.00000" pt_clust_7="13000.00000" pt_clust_8="13000.00000" pt_clust_9="13000.00000"></scales>
<clustering>
<clus scale="   80.865">  5  6 -1 -1</clus>
<clus scale="  109.157">  1  5  2 -1</clus>
<clus scale="  119.218">  7  8 -1 -1</clus>
<clus scale="  153.817">  7  9 -1 -1</clus>
<clus scale="  358.087">  2  5  1 -1</clus>
</clustering>
</event>
<event>
 9    2  0.2147756E-005  0.4926667E+03  0.7546771E-02  0.1044739E+00
          2   -1    0    0  502    0 -0.00000000000E+00  0.00000000000E+00  0.87504648762E+03  0.87504648762E+03  0.00000000000E+00 0. -1.
         21   -1    0    0  501  502  0.00000000000E+00 -0.00000000000E+00 -0.14200307809E+03  0.14200307809E+03  0.00000000000E+00 0.  1.
         24    2    1    2    0    0 -0.18958004147E+03  0.26163671579E+02  0.26965130014E+03  0.34069706833E+03  0.82082512531E+02 0.  0.
         23    2    1    2    0    0 -0.91327273093E+02 -0.11061763999E+03  0.28878517047E+03  0.33498909092E+03  0.90795832858E+02 0.  0.
        -13    1    3    3    0    0 -0.12447932373E+03  0.28284688133E+02  0.23372022915E+03  0.26630860131E+03  0.00000000000E+00 0.  1.
         14    1    3    3    0    0 -0.65100717746E+02 -0.21210165543E+01  0.35931070989E+02  0.74388467014E+02  0.00000000000E+00 0. -1.
        -11    1    4    4    0    0 -0.20605998370E+02  0.15083689619E+02  0.43305167736E+02  0.50273874070E+02  0.00000000000E+00 0. -1.
         11    1    4    4    0    0 -0.70721274723E+02 -0.12570132961E+03  0.24548000273E+03  0.28471521685E+03  0.00000000000E+00 0.  1.
          1    1    1    2  501    0  0.28090731457E+03  0.84453968411E+02  0.17460693892E+03  0.34136340647E+03  0.00000000000E+00 0. -1.
<scales pt_clust_5="13000.00000" pt_clust_6="13000.00000" pt_clust_7="13000.00000" pt_clust_8="13000.00000" pt_clust_9="13000.00000"></scales>
<clustering>
<clus scale="   82.083">  5  6 -1 -1</clus>
<clus scale="   90.796">  7  8 -1 -1</clus>
<clus scale="  208.237">  1  5  2 -1</clus>
<clus scale="  217.557">  7  9 -1 -1</clus>
<clus scale="  492.667">  2  5  1 -1</clus>
</clustering>
</event>
<event>
 9    2  0.2147756E-005  0.5243012E+03  0.7546771E-02  0.1062441E+00
          2   -1    0    0  502    0 -0.00000000000E+00  0.00000000000E+00  0.81498005698E+03  0.81498005698E+03  0.00000000000E+00 0. -1.
         21   -1    0    0  501  502  0.00000000000E+00 -0.00000000000E+00 -0.87764891843E+03  0.87764891843E+03  0.00000000000E+00 0. -1.
         24    2    1    2    0    0  0.63228530531E+02 -0.21611754489E+02  0.73262723743E+03  0.74005998574E+03  0.80505890949E+02 0.  0.
         23    2    1    2    0    0  0.11471974660E+03  0.29913164484E+02 -0.20111311645E+02  0.15717854648E+03  0.10121863934E+03 0.  0.
        -13    1    3    3    0    0  0.24818762229E+02  0.26332723086E+02  0.15464373667E+03  0.15882086940E+03  0.00000000000E+00 0.  1.
         14    1    3    3    0    0  0.38409768302E+02 -0.47944477575E+02  0.57798350075E+03  0.58123911635E+03  0.00000000000E+00 0. -1.
        -13    1    4    4    0    0  0.66312684345E+01  0.29073713542E+02  0.26094201355E+02  0.39625268258E+02  0.00000000000E+00 0.  1.
         13    1    4    4    0    0  0.10808847816E+03  0.83945094188E+00 -0.46205513000E+02  0.11755327822E+03  0.00000000000E+00 0. -1.
          1    1    1    2  501    0 -0.17794827713E+03 -0.83014099949E+01 -0.77518478723E+03  0.79539044318E+03  0.00000000000E+00 0. -1.
<scales pt_clust_5="13000.00000" pt_clust_6="13000.00000" pt_clust_7="13000.00000" pt_clust_8="13000.00000" pt_clust_9="13000.00000"></scales>
<clustering>
<clus scale="   80.506">  5  6 -1 -1</clus>
<clus scale="  101.219">  7  8 -1 -1</clus>
<clus scale="  104.624">  1  5  2 -1</clus>
<clus scale="  170.186">  7  9 -1 -1</clus>
<clus scale="  524.301">  2  5  1 -1</clus>
</clustering>
</event>
<event>
 9    2  0.2147756E-005  0.1924406E+03  0.7546771E-02  0.1175851E+00
         21   -1    0    0  501  502  0.00000000000E+00  0.00000000000E+00  0.31717495639E+02  0.31717495639E+02  0.00000000000E+00 0. -1.
          2   -1    0    0  502    0 -0.00000000000E+00 -0.00000000000E+00 -0.78408348652E+03  0.78408348652E+03  0.00000000000E+00 0. -1.
         24    2    1    2    0    0  0.72471083994E+02  0.53775927059E+02 -0.31180292097E+03  0.33504197901E+03  0.82994926521E+02 0.  0.
         23    2    1    2    0    0  0.47409749717E+01  0.42472071378E+01 -0.16346812071E+03  0.18731395374E+03  0.91236917767E+02 0.  0.
        -11    1    3    3    0    0 -0.40828824491E-01  0.39916649202E+02 -0.17600251279E+03  0.18047222795E+03  0.00000000000E+00 0.  1.
         12    1    3    3    0    0  0.72511912819E+02  0.13859277857E+02 -0.13580040818E+03  0.15456975107E+03  0.00000000000E+00 0. -1.
        -13    1    4    4    0    0 -0.13052280826E+02  0.35092228867E+02 -0.26699607669E+02  0.45985819677E+02  0.00000000000E+00 0. -1.
         13    1    4    4    0    0  0.17793255798E+02 -0.30845021729E+02 -0.13676851304E+03  0.14132813406E+03  0.00000000000E+00 0.  1.
          1    1    1    2  501    0 -0.77212058966E+02 -0.58023134197E+02 -0.27709494920E+03  0.29344504941E+03  0.00000000000E+00 0. -1.
<scales pt_clust_5="13000.00000" pt_clust_6="13000.00000" pt_clust_7="13000.00000" pt_clust_8="13000.00000" pt_clust_9="13000.00000"></scales>
<clustering>
<clus scale="   82.995">  5  6 -1 -1</clus>
<clus scale="   91.237">  7  8 -1 -1</clus>
<clus scale="   96.584">  7  9 -1 -1</clus>
<clus scale="  122.605">  2  5  1 -1</clus>
<clus scale="  192.441">  1  5  2 -1</clus>
</clustering>
</event>
<event>
 9    2  0.2147756E-005  0.4694724E+03  0.7546771E-02  0.1081506E+00
         21   -1    0    0  501  502  0.00000000000E+00  0.00000000000E+00  0.28200304251E+03  0.28200304251E+03  0.00000000000E+00 0.  1.
          2   -1    0    0  502    0 -0.00000000000E+00 -0.00000000000E+00 -0.30217816905E+03  0.30217816905E+03  0.00000000000E+00 0. -1.
         24    2    1    2    0    0 -0.29160130321E+02  0.66461800275E+01 -0.71068955893E+02  0.11195821810E+03  0.81174880341E+02 0.  0.
         23    2    1    2    0    0 -0.13705636495E+03  0.14901973417E+03 -0.43424021561E+02  0.22573636676E+03  0.89888449122E+02 0.  0.
        -11    1    3    3    0    0 -0.47253954702E+02 -0.22386036978E+02 -0.43866756583E+02  0.68252203039E+02  0.00000000000E+00 0.  1.
         12    1    3    3    0    0  0.18093824381E+02  0.29032217005E+02 -0.27202199310E+02  0.43706015058E+02  0.00000000000E+00 0. -1.
        -13    1    4    4    0    0 -0.50882246846E+01  0.37014038402E+02 -0.36913700726E+02  0.52521903721E+02  0.00000000000E+00 0. -1.
         13    1    4    4    0    0 -0.13196814026E+03  0.11200569577E+03 -0.65103208350E+01  0.17321446304E+03  0.00000000000E+00 0.  1.
          1    1    1    2  501    0  0.16621649527E+03 -0.15566591419E+03  0.94317850919E+02  0.24648662670E+03  0.00000000000E+00 0. -1.
<scales pt_clust_5="13000.00000" pt_clust_6="13000.00000" pt_clust_7="13000.00000" pt_clust_8="13000.00000" pt_clust_9="13000.00000"></scales>
<clustering>
<clus scale="   81.175">  5  6 -1 -1</clus>
<clus scale="   86.509">  2  5  1 -1</clus>
<clus scale="   89.888">  7  8 -1 -1</clus>
<clus scale="  218.468">  7  9 -1 -1</clus>
<clus scale="  469.472">  1  5  2 -1</clus>
</clustering>
</event>
<event>
 9    2  0.2147756E-005  0.2665546E+03  0.7546771E-02  0.1118700E+00
         21   -1    0    0  501  502  0.00000000000E+00  0.00000000000E+00  0.93453468905E+02  0.93453468905E+02  0.00000000000E+00 0. -1.
          2   -1    0    0  502    0 -0.00000000000E+00 -0.00000000000E+00 -0.54319163297E+03  0.54319163297E+03  0.00000000000E+00 0. -1.
         24    2    1    2    0    0 -0.15565072355E+03 -0.42145894455E+02 -0.14046742693E+03  0.22835629363E+03  0.80075431029E+02 0.  0.
         23    2    1    2    0    0  0.83506095085E+01  0.49080146687E+02 -0.19777122562E+03  0.22341709997E+03  0.91231296153E+02 0.  0.
        -11    1    3    3    0    0 -0.87863291594E+02  0.13761522522E+02 -0.92207545432E+02  0.12810764593E+03  0.00000000000E+00 0.  1.
         12    1    3    3    0    0 -0.67787431955E+02 -0.55907416978E+02 -0.48259881493E+02  0.10024864770E+03  0.00000000000E+00 0. -1.
        -13    1    4    4    0    0 -0.26165777317E+02  0.61772556838E+02 -0.12379357670E+03  0.14080250820E+03  0.00000000000E+00 0. -1.
         13    1    4    4    0    0  0.34516386826E+02 -0.12692410151E+02 -0.73977648917E+02  0.82614591776E+02  0.00000000000E+00 0.  1.
          1    1    1    2  501    0  0.14730011404E+03 -0.69342522319E+01 -0.11149951152E+03  0.18487170827E+03  0.00000000000E+00 0. -1.
<scales pt_clust_5="13000.00000" pt_clust_6="13000.00000" pt_clust_7="13000.00000" pt_clust_8="13000.00000" pt_clust_9="13000.00000"></scales>
<clustering>
<clus scale="   80.075">  5  6 -1 -1</clus>
<clus scale="   91.231">  7  8 -1 -1</clus>
<clus scale="  147.463">  7  9 -1 -1</clus>
<clus scale="  180.043">  2  5  1 -1</clus>
<clus scale="  266.555">  1  5  2 -1</clus>
</clustering>
</event>
<event>
 9    2  0.2147756E-005  0.2784013E+03  0.7546771E-02  0.1130009E+00
          2   -1    0    0  502    0 -0.00000000000E+00  0.00000000000E+00  0.12206967132E+04  0.12206967132E+04  0.00000000000E+00 0. -1.
         21   -1    0    0  501  502  0.00000000000E+00 -0.00000000000E+00 -0.40095423286E+02  0.40095423286E+02  0.00000000000E+00 0.  1.
         24    2    1    2    0    0 -0.43503170718E+02  0.78004736348E+02  0.65723862140E+03  0.66798883866E+03  0.79178395789E+02 0.  0.
         23    2    1    2    0    0 -0.78992780885E+02  0.17927922290E+02  0.20829393968E+03  0.24141087184E+03  0.91277455628E+02 0.  0.
        -13    1    3    3    0    0 -0.18116764884E+02  0.83262899748E+02  0.37487263801E+03  0.38443519919E+03  0.00000000000E+00 0.  1.
         14    1    3    3    0    0 -0.25386405834E+02 -0.52581634000E+01  0.28236598339E+03  0.28355363948E+03  0.00000000000E+00 0. -1.
        -11    1    4    4    0    0 -0.64790240069E+02 -0.91197245479E+01  0.19899773253E+03  0.20947802304E+03  0.00000000000E+00 0. -1.
         11    1    4    4    0    0 -0.14202540815E+02  0.27047646838E+02  0.92962071458E+01  0.31932848799E+02  0.00000000000E+00 0.  1.
          1    1    1    2  501    0  0.12249595160E+03 -0.95932658639E+02  0.31506872886E+03  0.35139242601E+03  0.00000000000E+00 0. -1.
<scales pt_clust_5="13000.00000" pt_clust_6="13000.00000" pt_clust_7="13000.00000" pt_clust_8="13000.00000" pt_clust_9="13000.00000"></scales>
<clustering>
<clus scale="   79.178">  5  6 -1 -1</clus>
<clus scale="   91.277">  7  8 -1 -1</clus>
<clus scale="  119.359">  1  5  2 -1</clus>
<clus scale="  108.408">  7  9 -1 -1</clus>
<clus scale="  278.401">  2  5  1 -1</clus>
</clustering>
</event>
<event>
 9    2  0.2147756E-005  0.1529618E+03  0.7546771E-02  0.1221920E+00
          2   -1    0    0  502    0 -0.00000000000E+00  0.00000000000E+00  0.94186118738E+03  0.94186118738E+03  0.00000000000E+00 0. -1.
         21   -1    0    0  501  502  0.00000000000E+00 -0.00000000000E+00 -0.36591404035E+02  0.36591404035E+02  0.00000000000E+00 0.  1.
         24    2    1    2    0    0 -0.34775438965E+02 -0.16568339487E+02  0.76714815809E+03  0.77235820498E+03  0.80852082814E+02 0.  0.
         23    2    1    2    0    0  0.68180616079E+02 -0.10358459405E+02  0.98091168051E+02  0.14741393092E+03  0.85750193525E+02 0.  0.
        -11    1    3    3    0    0  0.15911958311E+01 -0.36757302114E+02  0.17905137054E+03  0.18279229868E+03  0.00000000000E+00 0.  1.
         12    1    3    3    0    0 -0.36366634796E+02  0.20188962627E+02  0.58809678755E+03  0.58956590630E+03  0.00000000000E+00 0. -1.
        -11    1    4    4    0    0  0.35968330516E+02  0.41446412883E+01  0.10530743966E+03  0.11135778239E+03  0.00000000000E+00 0. -1.
         11    1    4    4    0    0  0.32212285564E+02 -0.14503100693E+02 -0.72162716069E+01  0.36056148530E+02  0.00000000000E+00 0.  1.
          1    1    1    2  501    0 -0.33405177114E+02  0.26926798891E+02  0.40030457204E+02  0.58680455524E+02  0.00000000000E+00 0. -1.
<scales pt_clust_5="13000.00000" pt_clust_6="13000.00000" pt_clust_7="13000.00000" pt_clust_8="13000.00000" pt_clust_9="13000.00000"></scales>
<clustering>
<clus scale="   80.852">  5  6 -1 -1</clus>
<clus scale="   85.750">  7  8 -1 -1</clus>
<clus scale="   42.906">  7  9 -1 -1</clus>
<clus scale="   89.559">  1  5  2 -1</clus>
<clus scale="  152.962">  2  5  1 -1</clus>
</clustering>
</event>
<event>
 9    2  0.2147756E-005  0.3481407E+03  0.7546771E-02  0.1117658E+00
         21   -1    0    0  501  502  0.00000000000E+00  0.00000000000E+00  0.25599035113E+02  0.25599035113E+02  0.00000000000E+00 0.  1.
          2   -1    0    0  502    0 -0.00000000000E+00 -0.00000000000E+00 -0.18211746983E+04  0.18211746983E+04  0.00000000000E+00 0. -1.
         24    2    1    2    0    0  0.26624797499E+02 -0.89032025731E+01 -0.39015804443E+03  0.39887848139E+03  0.78055085870E+02 0.  0.
         23    2    1    2    0    0  0.92418492936E+02 -0.88520983690E+02 -0.34570923233E+03  0.37708030940E+03  0.79357066655E+02 0.  0.
        -13    1    3    3    0    0  0.51524905383E+02  0.86390429958E+01 -0.23131434934E+03  0.23714083822E+03  0.00000000000E+00 0.  1.
         14    1    3    3    0    0 -0.24900107884E+02 -0.17542245569E+02 -0.15884369508E+03  0.16173764318E+03  0.00000000000E+00 0. -1.
        -13    1    4    4    0    0 -0.12964357886E+02 -0.16647964945E+02 -0.30973597948E+02  0.37477901249E+02  0.00000000000E+00 0. -1.
         13    1    4    4    0    0  0.10538285082E+03 -0.71873018744E+02 -0.31473563438E+03  0.33960240815E+03  0.00000000000E+00 0.  1.
          1    1    1    2  501    0 -0.11904329043E+03  0.97424186263E+02 -0.10597083864E+04  0.10708149426E+04  0.00000000000E+00 0. -1.
<scales pt_clust_5="13000.00000" pt_clust_6="13000.00000" pt_clust_7="13000.00000" pt_clust_8="13000.00000" pt_clust_9="13000.00000"></scales>
<clustering>
<clus scale="   78.055">  5  6 -1 -1</clus>
<clus scale="   79.357">  7  8 -1 -1</clus>
<clus scale="   82.950">  2  5  1 -1</clus>
<clus scale="  134.438">  7  9 -1 -1</clus>
<clus scale="  348.141">  1  5  2 -1</clus>
</clustering>
</event>
<event>
 9    2  0.2147756E-005  0.4968328E+03  0.7546771E-02  0.1056058E+00
          2   -1    0    0  502    0 -0.00000000000E+00  0.00000000000E+00  0.26152434050E+03  0.26152434050E+03  0.00000000000E+00 0. -1.
         21   -1    0    0  501  502  0.00000000000E+00 -0.00000000000E+00 -0.39678579560E+03  0.39678579560E+03  0.00000000000E+00 0. -1.
         24    2    1    2    0    0  0.81202419871E+02  0.92920948660E+02 -0.21310921985E+02  0.14857735523E+03  0.79955859060E+02 0.  0.
         23    2    1    2    0    0  0.42179229165E+02  0.11500606005E+03  0.10017447852E+03  0.18676808794E+03  0.99206407581E+02 0.  0.
        -11    1    3    3    0    0  0.23895154553E+02 -0.12237116306E+02  0.48442792819E+00  0.26850700122E+02  0.00000000000E+00 0.  1.
         12    1    3    3    0    0  0.57307265317E+02  0.10515806497E+03 -0.21795349913E+02  0.12172665511E+03  0.00000000000E+00 0. -1.
        -13    1    4    4    0    0  0.59713089282E+02  0.23235762968E+02  0.37104238737E+02  0.74042408419E+02  0.00000000000E+00 0.  1.
         13    1    4    4    0    0 -0.17533860117E+02  0.91770297084E+02  0.63070239785E+02  0.11272567952E+03  0.00000000000E+00 0. -1.
          1    1    1    2  501    0 -0.12338164904E+03 -0.20792700871E+03 -0.21412501164E+03  0.32296469293E+03  0.00000000000E+00 0. -1.
<scales pt_clust_5="13000.00000" pt_clust_6="13000.00000" pt_clust_7="13000.00000" pt_clust_8="13000.00000" pt_clust_9="13000.00000"></scales>
<clustering>
<clus scale="   79.956">  5  6 -1 -1</clus>
<clus scale="   99.206">  7  8 -1 -1</clus>
<clus scale="  147.041">  1  5  2 -1</clus>
<clus scale="  208.498">  7  9 -1 -1</clus>
<clus scale="  496.833">  2  5  1 -1</clus>
</clustering>
</event>
<event>
 9    2  0.2147756E-005  0.2272848E+03  0.7546771E-02  0.1169195E+00
         -1   -1    0    0    0  501 -0.00000000000E+00  0.00000000000E+00  0.26835093586E+03  0.26835093586E+03  0.00000000000E+00 0.  1.
         21   -1    0    0  501  502  0.00000000000E+00 -0.00000000000E+00 -0.20902767456E+03  0.20902767456E+03  0.00000000000E+00 0.  1.
         24    2    1    2    0    0 -0.29417504788E+02  0.49171600056E+01  0.19451816362E+03  0.21292438111E+03  0.81301340962E+02 0.  0.
         23    2    1    2    0    0 -0.15573095428E+02 -0.88390090257E+02 -0.52136753437E+02  0.13839654297E+03  0.91542518485E+02 0.  0.
        -11    1    3    3    0    0 -0.30702935449E+02 -0.33986177020E+02  0.12677302414E+03  0.13479291570E+03  0.00000000000E+00 0.  1.
         12    1    3    3    0    0  0.12854306609E+01  0.38903337026E+02  0.67745139480E+02  0.78131465408E+02  0.00000000000E+00 0. -1.
        -11    1    4    4    0    0  0.15700215036E+02 -0.51806520948E+02  0.14644703616E+02  0.56079227071E+02  0.00000000000E+00 0. -1.
         11    1    4    4    0    0 -0.31273310464E+02 -0.36583569309E+02 -0.66781457053E+02  0.82317315900E+02  0.00000000000E+00 0.  1.
         -2    1    1    2    0  502  0.44990600217E+02  0.83472930251E+02 -0.83058148874E+02  0.12605768635E+03  0.00000000000E+00 0.  1.
<scales pt_clust_5="13000.00000" pt_clust_6="13000.00000" pt_clust_7="13000.00000" pt_clust_8="13000.00000" pt_clust_9="13000.00000"></scales>
<clustering>
<clus scale="   81.301">  5  6 -1 -1</clus>
<clus scale="   86.600">  1  5  2 -1</clus>
<clus scale="   91.543">  7  8 -1 -1</clus>
<clus scale="   92.102">  7  9 -1 -1</clus>
<clus scale="  227.285">  2  5  1 -1</clus>
</clustering>
</event>
<event>
 9    2  0.2147756E-005  0.1986050E+03  0.7546771E-02  0.1166260E+00
          2   -1    0    0  502    0 -0.00000000000E+00  0.00000000000E+00  0.94855839798E+03  0.94855839798E+03  0.00000000000E+00 0. -1.
         21   -1    0    0  501  502  0.00000000000E+00 -0.00000000000E+00 -0.30075079463E+02  0.30075079463E+02  0.00000000000E+00 0. -1.
         24    2    1    2    0    0  0.25172033642E+02  0.10997405763E+03  0.35602367789E+03  0.38213974285E+03  0.80932065434E+02 0.  0.
         23    2    1    2    0    0  0.89545761757E+01 -0.10140802789E+02  0.23661052272E+03  0.25398979023E+03  0.91341413172E+02 0.  0.
        -11    1    3    3    0    0 -0.28169842856E+02  0.31005206949E+02  0.83189212070E+02  0.93141332981E+02  0.00000000000E+00 0.  1.
         12    1    3    3    0    0  0.53341876498E+02  0.78968850681E+02  0.27283446582E+03  0.28899840987E+03  0.00000000000E+00 0. -1.
        -13    1    4    4    0    0  0.49021179278E+02 -0.13451661300E+02  0.11062814498E+03  0.12174814032E+03  0.00000000000E+00 0.  1.
         13    1    4    4    0    0 -0.40066603103E+02  0.33108585102E+01  0.12598237774E+03  0.13224164991E+03  0.00000000000E+00 0. -1.
          1    1    1    2  501    0 -0.34126609818E+02 -0.99833254842E+02  0.32584911790E+03  0.34250394437E+03  0.00000000000E+00 0. -1.
<scales pt_clust_5="13000.00000" pt_clust_6="13000.00000" pt_clust_7="13000.00000" pt_clust_8="13000.00000" pt_clust_9="13000.00000"></scales>
<clustering>
<clus scale="   80.932">  5  6 -1 -1</clus>
<clus scale="   91.341">  7  8 -1 -1</clus>
<clus scale="  105.505">  7  9 -1 -1</clus>
<clus scale="  138.845">  1  5  2 -1</clus>
<clus scale="  198.605">  2  5  1 -1</clus>
</clustering>
</event>
<event>
 9    2  0.2147756E-005  0.1990214E+03  0.7546771E-02  0.1158044E+00
          2   -1    0    0  502    0 -0.00000000000E+00  0.00000000000E+00  0.47189374805E+03  0.47189374805E+03  0.00000000000E+00 0. -1.
         21   -1    0    0  501  502  0.00000000000E+00 -0.00000000000E+00 -0.78650858444E+02  0.78650858444E+02  0.00000000000E+00 0.  1.
         24    2    1    2    0    0  0.14278748732E+03 -0.30357582580E+02  0.26690500850E+03  0.31481008022E+03  0.80976871327E+02 0.  0.
         23    2    1    2    0    0 -0.77379062401E+02 -0.11918773969E+02  0.97772560256E+02  0.15277953891E+03  0.87478783139E+02 0.  0.
        -11    1    3    3    0    0  0.13260732781E+03 -0.47661119832E+02  0.25533900880E+03  0.29164069529E+03  0.00000000000E+00 0.  1.
         12    1    3    3    0    0  0.10180159510E+02  0.17303537252E+02  0.11565999701E+02  0.23169384933E+02  0.00000000000E+00 0. -1.
        -13    1    4    4    0    0 -0.34021934863E+02  0.54283597910E+01 -0.95380663077E+01  0.35748200664E+02  0.00000000000E+00 0.  1.
         13    1    4    4    0    0 -0.43357127538E+02 -0.17347133760E+02  0.10731062656E+03  0.11703133825E+03  0.00000000000E+00 0. -1.
          1    1    1    2  501    0 -0.65408424921E+02  0.42276356549E+02  0.28565320852E+02  0.82954987367E+02  0.00000000000E+00 0. -1.
<scales pt_clust_5="13000.00000" pt_clust_6="13000.00000" pt_clust_7="13000.00000" pt_clust_8="13000.00000" pt_clust_9="13000.00000"></scales>
<clustering>
<clus scale="   80.977">  5  6 -1 -1</clus>
<clus scale="   87.479">  7  8 -1 -1</clus>
<clus scale="   77.882">  7  9 -1 -1</clus>
<clus scale="  166.934">  1  5  2 -1</clus>
<clus scale="  199.021">  2  5  1 -1</clus>
</clustering>
</event>
<event>
 9    2  0.2147756E-005  0.7398709E+03  0.7546771E-02  0.9834006E-01
          2   -1    0    0  502    0 -0.00000000000E+00  0.00000000000E+00  0.89811237317E+03  0.89811237317E+03  0.00000000000E+00 0. -1.
         21   -1    0    0  501  502  0.00000000000E+00 -0.00000000000E+00 -0.36489622873E+03  0.36489622873E+03  0.00000000000E+00 0. -1.
         24    2    1    2    0    0  0.39412591102E+03  0.31001253248E+02  0.22278505237E+03  0.46065177183E+03  0.79186892182E+02 0.  0.
         23    2    1    2    0    0  0.96146776640E+02 -0.11312088468E+03 -0.58109979242E+02  0.18354065109E+03  0.90938790984E+02 0.  0.
        -13    1    3    3    0    0  0.11747674958E+03  0.32598076699E+02  0.37005596032E+02  0.12740814509E+03  0.00000000000E+00 0.  1.
         14    1    3    3    0    0  0.27664916143E+03 -0.15968234507E+01  0.18577945634E+03  0.33324362674E+03  0.00000000000E+00 0. -1.
        -11    1    4    4    0    0  0.10891959811E+03 -0.97312187907E+02 -0.67796560035E+02  0.16102643981E+03  0.00000000000E+00 0. -1.
         11    1    4    4    0    0 -0.12772821465E+02 -0.15808696777E+02  0.96865807929E+01  0.22514211277E+02  0.00000000000E+00 0.  1.
          1    1    1    2  501    0 -0.49027268766E+03  0.82119631436E+02  0.36854107130E+03  0.61881617898E+03  0.00000000000E+00 0. -1.
<scales pt_clust_5="13000.00000" pt_clust_6="13000.00000" pt_clust_7="13000.00000" pt_clust_8="13000.00000" pt_clust_9="13000.00000"></scales>
<clustering>
<clus scale="   79.187">  5  6 -1 -1</clus>
<clus scale="   90.939">  7  8 -1 -1</clus>
<clus scale="  403.196">  1  5  2 -1</clus>
<clus scale="  178.265">  7  9 -1 -1</clus>
<clus scale="  739.871">  2  5  1 -1</clus>
</clustering>
</event>
<event>
 9    2  0.2147756E-005  0.2267413E+03  0.7546771E-02  0.1148888E+00
          2   -1    0    0  502    0 -0.00000000000E+00  0.00000000000E+00  0.69409455552E+03  0.69409455552E+03  0.00000000000E+00 0. -1.
         21   -1    0    0  501  502  0.00000000000E+00 -0.00000000000E+00 -0.17385937742E+03  0.17385937742E+03  0.00000000000E+00 0.  1.
         24    2    1    2    0    0  0.58947403727E+02 -0.95726050060E+02  0.60867124867E+03  0.62457649419E+03  0.83527450974E+02 0.  0.
         23    2    1    2    0    0  0.42089363557E+02  0.59953082425E+02 -0.55553041927E+02  0.13126398225E+03  0.93692080517E+02 0.  0.
        -11    1    3    3    0    0  0.58391222409E+01 -0.72349609906E+02  0.22171884570E+03  0.23329768096E+03  0.00000000000E+00 0.  1.
         12    1    3    3    0    0  0.53108281486E+02 -0.23376440155E+02  0.38695240297E+03  0.39127881323E+03  0.00000000000E+00 0. -1.
        -11    1    4    4    0    0  0.51178940203E+02  0.25747939962E+01 -0.52641533066E+00  0.51246371555E+02  0.00000000000E+00 0. -1.
         11    1    4    4    0    0 -0.90895766467E+01  0.57378288428E+02 -0.55026626596E+02  0.80017610694E+02  0.00000000000E+00 0.  1.
          1    1    1    2  501    0 -0.10103676728E+03  0.35772967636E+02 -0.32883028645E+02  0.11211345651E+03  0.00000000000E+00 0. -1.
<scales pt_clust_5="13000.00000" pt_clust_6="13000.00000" pt_clust_7="13000.00000" pt_clust_8="13000.00000" pt_clust_9="13000.00000"></scales>
<clustering>
<clus scale="   83.527">  5  6 -1 -1</clus>
<clus scale="   93.692">  7  8 -1 -1</clus>
<clus scale="  107.183">  7  9 -1 -1</clus>
<clus scale="  140.054">  1  5  2 -1</clus>
<clus scale="  226.741">  2  5  1 -1</clus>
</clustering>
</event>
<event>
 9    2  0.2147756E-005  0.2483576E+03  0.7546771E-02  0.1129049E+00
          2   -1    0    0  502    0 -0.00000000000E+00  0.00000000000E+00  0.68406261303E+03  0.68406261303E+03  0.00000000000E+00 0. -1.
         21   -1    0    0  501  502  0.00000000000E+00 -0.00000000000E+00 -0.68345444164E+02  0.68345444164E+02  0.00000000000E+00 0. -1.
         24    2    1    2    0    0  0.62704545274E+01 -0.14819013190E+03  0.34154666084E+03  0.38247431990E+03  0.87366183744E+02 0.  0.
         23    2    1    2    0    0  0.50452728415E+02  0.18871703804E+02  0.10902239589E+03  0.15264435819E+03  0.92264826853E+02 0.  0.
        -11    1    3    3    0    0  0.38404948438E+02 -0.38102423070E+02  0.76652240684E+02  0.93820577222E+02  0.00000000000E+00 0.  1.
         12    1    3    3    0    0 -0.32134493911E+02 -0.11008770883E+03  0.26489442015E+03  0.28865374268E+03  0.00000000000E+00 0. -1.
        -13    1    4    4    0    0 -0.22400587691E+02 -0.80346544919E+01  0.49058444738E+02  0.54525892949E+02  0.00000000000E+00 0.  1.
         13    1    4    4    0    0  0.72853316107E+02  0.26906358296E+02  0.59963951148E+02  0.98118465244E+02  0.00000000000E+00 0. -1.
          1    1    1    2  501    0 -0.56723182943E+02  0.12931842809E+03  0.16514811214E+03  0.21728937911E+03  0.00000000000E+00 0. -1.
<scales pt_clust_5="13000.00000" pt_clust_6="13000.00000" pt_clust_7="13000.00000" pt_clust_8="13000.00000" pt_clust_9="13000.00000"></scales>
<clustering>
<clus scale="   87.366">  5  6 -1 -1</clus>
<clus scale="   92.265">  7  8 -1 -1</clus>
<clus scale="  141.212">  7  9 -1 -1</clus>
<clus scale="  172.141">  1  5  2 -1</clus>
<clus scale="  248.358">  2  5  1 -1</clus>
</clustering>
</event>
<event>
 9    2  0.2147756E-005  0.2822128E+03  0.7546771E-02  0.1119776E+00
          2   -1    0    0  502    0 -0.00000000000E+00  0.00000000000E+00  0.13004196939E+04  0.13004196939E+04  0.00000000000E+00 0. -1.
         21   -1    0    0  501  502  0.00000000000E+00 -0.00000000000E+00 -0.36356605350E+02  0.36356605350E+02  0.00000000000E+00 0. -1.
         24    2    1    2    0    0  0.68719134164E+02  0.10163932105E+03  0.34272538532E+03  0.37318550694E+03  0.82181882815E+02 0.  0.
         23    2    1    2    0    0  0.64808879125E+02 -0.26179217836E+02  0.54558901377E+03  0.55774471910E+03  0.92337735934E+02 0.  0.
        -11    1    3    3    0    0  0.36959188319E+02  0.26192754819E+02  0.22675039634E+03  0.23123101922E+03  0.00000000000E+00 0.  1.
         12    1    3    3    0    0  0.31759945845E+02  0.75446566233E+02  0.11597498897E+03  0.14195448772E+03  0.00000000000E+00 0. -1.
        -13    1    4    4    0    0  0.59659351945E+02 -0.57488869678E+02  0.35558188454E+03  0.36510640233E+03  0.00000000000E+00 0. -1.
         13    1    4    4    0    0  0.51495271795E+01  0.31309651842E+02  0.19000712923E+03  0.19263831677E+03  0.00000000000E+00 0.  1.
          1    1    1    2  501    0 -0.13352801329E+03 -0.75460103216E+02  0.37574868948E+03  0.40584607323E+03  0.00000000000E+00 0. -1.
<scales pt_clust_5="13000.00000" pt_clust_6="13000.00000" pt_clust_7="13000.00000" pt_clust_8="13000.00000" pt_clust_9="13000.00000"></scales>
<clustering>
<clus scale="   82.182">  5  6 -1 -1</clus>
<clus scale="   92.338">  7  8 -1 -1</clus>
<clus scale="  147.671">  1  5  2 -1</clus>
<clus scale="  110.190">  7  9 -1 -1</clus>
<clus scale="  282.213">  2  5  1 -1</clus>
</clustering>
</event>
<event>
 9    2  0.2147756E-005  0.5106489E+03  0.7546771E-02  0.1071978E+00
          4   -1    0    0  502    0 -0.00000000000E+00  0.00000000000E+00  0.65834804471E+03  0.65834804471E+03  0.00000000000E+00 0. -1.
         21   -1    0    0  501  502  0.00000000000E+00 -0.00000000000E+00 -0.13615262159E+03  0.13615262159E+03  0.00000000000E+00 0.  1.
         24    2    1    2    0    0  0.12467219180E+02 -0.27317762351E+02  0.59705314117E+02  0.10554537743E+03  0.81690944838E+02 0.  0.
         23    2    1    2    0    0 -0.11278695349E+03 -0.87730908539E+02 -0.30912304434E+02  0.17248051954E+03  0.91522400892E+02 0.  0.
        -11    1    3    3    0    0  0.17058935560E+02  0.27239751418E+02  0.25042394352E+02  0.40744727936E+02  0.00000000000E+00 0.  1.
         12    1    3    3    0    0 -0.45917163791E+01 -0.54557513768E+02  0.34662919765E+02  0.64800649491E+02  0.00000000000E+00 0. -1.
        -11    1    4    4    0    0 -0.45829506520E+02  0.11995972009E+02  0.35745424688E+01  0.47508150523E+02  0.00000000000E+00 0. -1.
         11    1    4    4    0    0 -0.66957446970E+02 -0.99726880548E+02 -0.34486846903E+02  0.12497236902E+03  0.00000000000E+00 0.  1.
          3    1    1    2  501    0  0.10031973431E+03  0.11504867089E+03  0.49340241344E+03  0.51647476932E+03  0.00000000000E+00 0. -1.
<scales pt_clust_5="13000.00000" pt_clust_6="13000.00000" pt_clust_7="13000.00000" pt_clust_8="13000.00000" pt_clust_9="13000.00000"></scales>
<clustering>
<clus scale="   81.691">  5  6 -1 -1</clus>
<clus scale="   87.035">  1  5  2 -1</clus>
<clus scale="   91.522">  7  8 -1 -1</clus>
<clus scale="  143.787">  7  9 -1 -1</clus>
<clus scale="  510.649">  2  5  1 -1</clus>
</clustering>
</event>
<event>
 9    2  0.2147756E-005  0.3977045E+03  0.7546771E-02  0.1089387E+00
          2   -1    0    0  502    0 -0.00000000000E+00  0.00000000000E+00  0.95339584828E+03  0.95339584828E+03  0.00000000000E+00 0. -1.
         21   -1    0    0  501  502  0.00000000000E+00 -0.00000000000E+00 -0.81015226133E+02  0.81015226133E+02  0.00000000000E+00 0. -1.
         24    2    1    2    0    0 -0.82496336559E+02  0.93620471362E+01  0.40309443209E+03  0.41927014728E+03  0.80056490998E+02 0.  0.
         23    2    1    2    0    0 -0.11252858618E+03 -0.10364938524E+03  0.24947144852E+03  0.30652572463E+03  0.91192864129E+02 0.  0.
        -13    1    3    3    0    0 -0.77156648428E+02  0.37986016534E+02  0.28956717302E+03  0.30206825973E+03  0.00000000000E+00 0.  1.
         14    1    3    3    0    0 -0.53396881305E+01 -0.28623969398E+02  0.11352725907E+03  0.11720188755E+03  0.00000000000E+00 0. -1.
        -11    1    4    4    0    0 -0.23026935983E+02 -0.64709259540E+02  0.51657900776E+02  0.85942229222E+02  0.00000000000E+00 0.  1.
         11    1    4    4    0    0 -0.89501650195E+02 -0.38940125695E+02  0.19781354774E+03  0.22058349541E+03  0.00000000000E+00 0. -1.
          1    1    1    2  501    0  0.19502492274E+03  0.94287338099E+02  0.21981474154E+03  0.30861520250E+03  0.00000000000E+00 0. -1.
<scales pt_clust_5="13000.00000" pt_clust_6="13000.00000" pt_clust_7="13000.00000" pt_clust_8="13000.00000" pt_clust_9="13000.00000"></scales>
<clustering>
<clus scale="   80.056">  5  6 -1 -1</clus>
<clus scale="   91.193">  7  8 -1 -1</clus>
<clus scale="  115.336">  1  5  2 -1</clus>
<clus scale="  183.690">  7  9 -1 -1</clus>
<clus scale="  397.704">  2  5  1 -1</clus>
</clustering>
</event>
<event>
 9    2  0.2147756E-005  0.4468376E+03  0.7546771E-02  0.1083906E+00
          2   -1    0    0  502    0 -0.00000000000E+00  0.00000000000E+00  0.32522128001E+03  0.32522128001E+03  0.00000000000E+00 0. -1.
         21   -1    0    0  501  502  0.00000000000E+00 -0.00000000000E+00 -0.25104903525E+03  0.25104903525E+03  0.00000000000E+00 0. -1.
         24    2    1    2    0    0 -0.10516120206E+01  0.45920962204E+02 -0.57713730482E+02  0.11037574895E+03  0.82110234518E+02 0.  0.
         23    2    1    2    0    0  0.21481132339E+02 -0.22373571940E+03  0.15133115937E+03  0.28585688036E+03  0.91070989194E+02 0.  0.
        -11    1    3    3    0    0 -0.14887111831E+02  0.22130976644E+02  0.16404486044E+02  0.31313150404E+02  0.00000000000E+00 0.  1.
         12    1    3    3    0    0  0.13835499810E+02  0.23789985560E+02 -0.74118216526E+02  0.79062598547E+02  0.00000000000E+00 0. -1.
        -11    1    4    4    0    0  0.20963024963E+02 -0.75605890994E+02  0.65627450208E+01  0.78732260166E+02  0.00000000000E+00 0.  1.
         11    1    4    4    0    0  0.51810737644E+00 -0.14812982840E+03  0.14476841435E+03  0.20712462019E+03  0.00000000000E+00 0. -1.
          1    1    1    2  501    0 -0.20429520319E+02  0.17781475719E+03 -0.19445184124E+02  0.18003768595E+03  0.00000000000E+00 0. -1.
<scales pt_clust_5="13000.00000" pt_clust_6="13000.00000" pt_clust_7="13000.00000" pt_clust_8="13000.00000" pt_clust_9="13000.00000"></scales>
<clustering>
<clus scale="   82.110">  5  6 -1 -1</clus>
<clus scale="   91.071">  7  8 -1 -1</clus>
<clus scale="   94.085">  1  5  2 -1</clus>
<clus scale="  191.276">  7  9 -1 -1</clus>
<clus scale="  446.838">  2  5  1 -1</clus>
</clustering>
</event>
<event>
 9    2  0.2147756E-005  0.3391999E+03  0.7546771E-02  0.1120419E+00
         21   -1    0    0  501  502  0.00000000000E+00  0.00000000000E+00  0.38082775696E+02  0.38082775696E+02  0.00000000000E+00 0. -1.
          2   -1    0    0  502    0 -0.00000000000E+00 -0.00000000000E+00 -0.12276870558E+04  0.12276870558E+04  0.00000000000E+00 0. -1.
         24    2    1    2    0    0  0.20014465208E+02  0.24317069862E+01 -0.35791347107E+03  0.36756818937E+03  0.81227021655E+02 0.  0.
         23    2    1    2    0    0 -0.15647121605E+03  0.56050894562E+02 -0.45142184806E+03  0.48997971447E+03  0.93131581427E+02 0.  0.
        -11    1    3    3    0    0 -0.24973473534E+02 -0.21286465704E+02 -0.14431430934E+03  0.14799799959E+03  0.00000000000E+00 0.  1.
         12    1    3    3    0    0  0.44987938742E+02  0.23718172691E+02 -0.21359916173E+03  0.21957018978E+03  0.00000000000E+00 0. -1.
        -13    1    4    4    0    0 -0.12288094364E+03  0.65183835217E+02 -0.42222141420E+03  0.44454423997E+03  0.00000000000E+00 0.  1.
         13    1    4    4    0    0 -0.33590272415E+02 -0.91329406546E+01 -0.29200433858E+02  0.45435474504E+02  0.00000000000E+00 0. -1.
          1    1    1    2  501    0  0.13645675084E+03 -0.58482601548E+02 -0.38026896099E+03  0.40822192767E+03  0.00000000000E+00 0. -1.
<scales pt_clust_5="13000.00000" pt_clust_6="13000.00000" pt_clust_7="13000.00000" pt_clust_8="13000.00000" pt_clust_9="13000.00000"></scales>
<clustering>
<clus scale="   81.227">  5  6 -1 -1</clus>
<clus scale="   83.692">  2  5  1 -1</clus>
<clus scale="   93.132">  7  8 -1 -1</clus>
<clus scale="  156.477">  7  9 -1 -1</clus>
<clus scale="  339.200">  1  5  2 -1</clus>
</clustering>
</event>
<event>
 9    2  0.2147756E-005  0.3705502E+03  0.7546771E-02  0.1104934E+00
          2   -1    0    0  502    0 -0.00000000000E+00  0.00000000000E+00  0.15025614455E+03  0.15025614455E+03  0.00000000000E+00 0. -1.
         21   -1    0    0  501  502  0.00000000000E+00 -0.00000000000E+00 -0.36128048188E+03  0.36128048188E+03  0.00000000000E+00 0. -1.
         24    2    1    2    0    0 -0.43693410706E+02 -0.21784243236E+02 -0.51482398369E+02  0.10810001497E+03  0.81556780842E+02 0.  0.
         23    2    1    2    0    0 -0.88779956177E+02 -0.11330825680E+03 -0.27797375346E+02  0.17288118095E+03  0.91621869507E+02 0.  0.
        -11    1    3    3    0    0 -0.39224470460E+02 -0.50768738336E+02 -0.25913845355E+02  0.69192132906E+02  0.00000000000E+00 0.  1.
         12    1    3    3    0    0 -0.44689402462E+01  0.28984495099E+02 -0.25568553015E+02  0.38907882060E+02  0.00000000000E+00 0. -1.
        -13    1    4    4    0    0 -0.80747245965E+02 -0.46256428480E+02  0.13032934888E+02  0.93966123143E+02  0.00000000000E+00 0.  1.
         13    1    4    4    0    0 -0.80327102119E+01 -0.67051828325E+02 -0.40830310235E+02  0.78915057808E+02  0.00000000000E+00 0. -1.
          1    1    1    2  501    0  0.13247336688E+03  0.13509250004E+03 -0.13174456361E+03  0.23055543052E+03  0.00000000000E+00 0. -1.
<scales pt_clust_5="13000.00000" pt_clust_6="13000.00000" pt_clust_7="13000.00000" pt_clust_8="13000.00000" pt_clust_9="13000.00000"></scales>
<clustering>
<clus scale="   81.557">  5  6 -1 -1</clus>
<clus scale="   91.622">  7  8 -1 -1</clus>
<clus scale="   95.054">  1  5  2 -1</clus>
<clus scale="  170.634">  7  9 -1 -1</clus>
<clus scale="  370.550">  2  5  1 -1</clus>
</clustering>
</event>
<event>
 9    2  0.2147756E-005  0.9791181E+03  0.7546771E-02  0.9426342E-01
         21   -1    0    0  501  502  0.00000000000E+00  0.00000000000E+00  0.56838516710E+03  0.56838516710E+03  0.00000000000E+00 0.  1.
         -3   -1    0    0    0  501 -0.00000000000E+00 -0.00000000000E+00 -0.12385846352E+04  0.12385846352E+04  0.00000000000E+00 0.  1.
         24    2    1    2    0    0 -0.61815410907E+03 -0.31217488907E+03 -0.32093242868E+03  0.76742197379E+03  0.79819785479E+02 0.  0.
         23    2    1    2    0    0 -0.94948904989E+01 -0.15935235601E+03 -0.93317098663E+01  0.18407296755E+03  0.91172639871E+02 0.  0.
        -13    1    3    3    0    0 -0.51164030203E+03 -0.26086317609E+03 -0.23162730161E+03  0.61925487657E+03  0.00000000000E+00 0.  1.
         14    1    3    3    0    0 -0.10651380704E+03 -0.51311712980E+02 -0.89305127066E+02  0.14816709722E+03  0.00000000000E+00 0. -1.
        -11    1    4    4    0    0 -0.10796973854E+02 -0.25900743716E+02 -0.38327145719E+02  0.47501508064E+02  0.00000000000E+00 0.  1.
         11    1    4    4    0    0  0.13020833552E+01 -0.13345161230E+03  0.28995435852E+02  0.13657145949E+03  0.00000000000E+00 0. -1.
         -4    1    1    2    0  502  0.62764899957E+03  0.47152724509E+03 -0.33993532960E+03  0.85547486101E+03  0.00000000000E+00 0.  1.
<scales pt_clust_5="13000.00000" pt_clust_6="13000.00000" pt_clust_7="13000.00000" pt_clust_8="13000.00000" pt_clust_9="13000.00000"></scales>
<clustering>
<clus scale="   79.820">  5  6 -1 -1</clus>
<clus scale="   91.173">  7  8 -1 -1</clus>
<clus scale="  697.093">  2  5  1 -1</clus>
<clus scale="  224.217">  7  9 -1 -1</clus>
<clus scale="  979.118">  1  5  2 -1</clus>
</clustering>
</event>
<event>
 9    2  0.2147756E-005  0.2851179E+03  0.7546771E-02  0.1137184E+00
          2   -1    0    0  502    0 -0.00000000000E+00  0.00000000000E+00  0.94904678898E+03  0.94904678898E+03  0.00000000000E+00 0. -1.
         21   -1    0    0  501  502  0.00000000000E+00 -0.00000000000E+00 -0.38215287385E+02  0.38215287385E+02  0.00000000000E+00 0. -1.
         24    2    1    2    0    0  0.35364354255E+02 -0.32693145932E+02  0.27623754097E+03  0.29155977026E+03  0.79877664287E+02 0.  0.
         23    2    1    2    0    0  0.80700775238E+02 -0.58479616293E+02  0.35132996040E+03  0.37629335087E+03  0.90727416980E+02 0.  0.
        -13    1    3    3    0    0  0.32232131823E+01  0.25959328750E+02  0.87230631127E+02  0.91068429542E+02  0.00000000000E+00 0.  1.
         14    1    3    3    0    0  0.32141141072E+02 -0.58652474683E+02  0.18900690984E+03  0.20049134072E+03  0.00000000000E+00 0. -1.
        -11    1    4    4    0    0  0.43511088701E+02 -0.75078846863E+02  0.17515078969E+03  0.19546827675E+03  0.00000000000E+00 0. -1.
         11    1    4    4    0    0  0.37189686537E+02  0.16599230570E+02  0.17617917071E+03  0.18082507413E+03  0.00000000000E+00 0.  1.
          1    1    1    2  501    0 -0.11606512949E+03  0.91172762225E+02  0.28326400024E+03  0.31940895524E+03  0.00000000000E+00 0. -1.
<scales pt_clust_5="13000.00000" pt_clust_6="13000.00000" pt_clust_7="13000.00000" pt_clust_8="13000.00000" pt_clust_9="13000.00000"></scales>
<clustering>
<clus scale="   79.878">  5  6 -1 -1</clus>
<clus scale="   90.727">  7  8 -1 -1</clus>
<clus scale="   93.273">  1  5  2 -1</clus>
<clus scale="  125.857">  7  9 -1 -1</clus>
<clus scale="  285.118">  2  5  1 -1</clus>
</clustering>
</event>
<event>
 9    2  0.2147756E-005  0.4646659E+03  0.7546771E-02  0.1064996E+00
          2   -1    0    0  502    0 -0.00000000000E+00  0.00000000000E+00  0.88359113788E+03  0.88359113788E+03  0.00000000000E+00 0. -1.
         21   -1    0    0  501  502  0.00000000000E+00 -0.00000000000E+00 -0.10838731581E+03  0.10838731581E+03  0.00000000000E+00 0.  1.
         24    2    1    2    0    0  0.49752241078E+02 -0.10361552211E+03  0.98820139777E+02  0.17136327235E+03  0.79928024941E+02 0.  0.
         23    2    1    2    0    0  0.11269661131E+03 -0.16800107136E+02  0.38136255127E+02  0.15110093078E+03  0.91620671943E+02 0.  0.
        -11    1    3    3    0    0  0.24992343237E+02 -0.10847248070E+03  0.64125698875E+02  0.12846400875E+03  0.00000000000E+00 0.  1.
         12    1    3    3    0    0  0.24759897841E+02  0.48569585845E+01  0.34694440902E+02  0.42899263599E+02  0.00000000000E+00 0. -1.
        -11    1    4    4    0    0  0.17148990732E+02  0.16644625760E+02  0.43601674609E+02  0.49721599718E+02  0.00000000000E+00 0. -1.
         11    1    4    4    0    0  0.95547620582E+02 -0.33444732896E+02 -0.54654194816E+01  0.10137933107E+03  0.00000000000E+00 0.  1.
          1    1    1    2  501    0 -0.16244885239E+03  0.12041562925E+03  0.63824742717E+03  0.66951425056E+03  0.00000000000E+00 0. -1.
<scales pt_clust_5="13000.00000" pt_clust_6="13000.00000" pt_clust_7="13000.00000" pt_clust_8="13000.00000" pt_clust_9="13000.00000"></scales>
<clustering>
<clus scale="   79.928">  5  6 -1 -1</clus>
<clus scale="   91.621">  7  8 -1 -1</clus>
<clus scale="  140.000">  1  5  2 -1</clus>
<clus scale="  122.685">  7  9 -1 -1</clus>
<clus scale="  464.666">  2  5  1 -1</clus>
</clustering>
</event>
<event>
 9    2  0.2147756E-005  0.3753064E+03  0.7546771E-02  0.1079284E+00
         -1   -1    0    0    0  501 -0.00000000000E+00  0.00000000000E+00  0.52644370540E+03  0.52644370540E+03  0.00000000000E+00 0.  1.
         21   -1    0    0  501  502  0.00000000000E+00 -0.00000000000E+00 -0.15592988918E+03  0.15592988918E+03  0.00000000000E+00 0.  1.
         24    2    1    2    0    0 -0.15892243204E+03  0.81938923617E+01  0.44392958980E+02  0.18517174846E+03  0.83632304419E+02 0.  0.
         23    2    1    2    0    0 -0.73234783400E+02  0.80773322295E+02  0.90155499791E+02  0.15443109492E+03  0.61913535204E+02 0.  0.
        -11    1    3    3    0    0 -0.26032682478E+02  0.11555231983E+02 -0.22556607784E+02  0.36332141389E+02  0.00000000000E+00 0.  1.
         12    1    3    3    0    0 -0.13288974956E+03 -0.33613396217E+01  0.66949566763E+02  0.14883960707E+03  0.00000000000E+00 0. -1.
        -13    1    4    4    0    0 -0.24170373882E+02 -0.18789936291E+01  0.37998519850E+02  0.45073552128E+02  0.00000000000E+00 0. -1.
         13    1    4    4    0    0 -0.49064409519E+02  0.82652315925E+02  0.52156979941E+02  0.10935754279E+03  0.00000000000E+00 0.  1.
         -2    1    1    2    0  502  0.23215721544E+03 -0.88967214657E+02  0.23596535745E+03  0.34277075120E+03  0.00000000000E+00 0.  1.
<scales pt_clust_5="13000.00000" pt_clust_6="13000.00000" pt_clust_7="13000.00000" pt_clust_8="13000.00000" pt_clust_9="13000.00000"></scales>
<clustering>
<clus scale="   61.914">  7  8 -1 -1</clus>
<clus scale="   83.632">  5  6 -1 -1</clus>
<clus scale="  179.772">  1  5  2 -1</clus>
<clus scale="  146.393">  7  9 -1 -1</clus>
<clus scale="  375.306">  2  5  1 -1</clus>
</clustering>
</event>
<event>
 9    2  0.2147756E-005  0.5299951E+03  0.7546771E-02  0.1056452E+00
         21   -1    0    0  501  502  0.00000000000E+00  0.00000000000E+00  0.65128991378E+02  0.65128991378E+02  0.00000000000E+00 0. -1.
          2   -1    0    0  502    0 -0.00000000000E+00 -0.00000000000E+00 -0.16227197179E+04  0.16227197179E+04  0.00000000000E+00 0. -1.
         24    2    1    2    0    0  0.13851948576E+02 -0.89882997073E+02 -0.26480689126E+03  0.29064261476E+03  0.77971855275E+02 0.  0.
         23    2    1    2    0    0 -0.57761494569E+02 -0.19218934156E+03 -0.36769966674E+03  0.42907719230E+03  0.92903491695E+02 0.  0.
        -13    1    3    3    0    0  0.45445233713E+02 -0.43999977569E+02 -0.15772773129E+03  0.16993912001E+03  0.00000000000E+00 0.  1.
         14    1    3    3    0    0 -0.31593285137E+02 -0.45883019505E+02 -0.10707915997E+03  0.12070349475E+03  0.00000000000E+00 0. -1.
        -11    1    4    4    0    0 -0.75908494105E+02 -0.11937561615E+03 -0.19623520757E+03  0.24191092142E+03  0.00000000000E+00 0. -1.
         11    1    4    4    0    0  0.18146999536E+02 -0.72813725406E+02 -0.17146445917E+03  0.18716627089E+03  0.00000000000E+00 0.  1.
          1    1    1    2  501    0  0.43909545994E+02  0.28207233863E+03 -0.92508416848E+03  0.96812890217E+03  0.00000000000E+00 0. -1.
<scales pt_clust_5="13000.00000" pt_clust_6="13000.00000" pt_clust_7="13000.00000" pt_clust_8="13000.00000" pt_clust_9="13000.00000"></scales>
<clustering>
<clus scale="   77.972">  5  6 -1 -1</clus>
<clus scale="   92.903">  7  8 -1 -1</clus>
<clus scale="  119.793">  2  5  1 -1</clus>
<clus scale="  225.296">  7  9 -1 -1</clus>
<clus scale="  529.995">  1  5  2 -1</clus>
</clustering>
</event>
<event>
 9    2  0.2147756E-005  0.1889695E+03  0.7546771E-02  0.1171980E+00
         21   -1    0    0  501  502  0.00000000000E+00  0.00000000000E+00  0.46125640268E+02  0.46125640268E+02  0.00000000000E+00 0. -1.
          4   -1    0    0  502    0 -0.00000000000E+00 -0.00000000000E+00 -0.64083235662E+03  0.64083235662E+03  0.00000000000E+00 0. -1.
         24    2    1    2    0    0  0.67815706904E+02  0.94868959778E+02 -0.35218923850E+03  0.37951013493E+03  0.79947440042E+02 0.  0.
         23    2    1    2    0    0 -0.63418068719E+02 -0.24408506304E+02 -0.11233874771E+03  0.15935830626E+03  0.90318596739E+02 0.  0.
        -13    1    3    3    0    0 -0.11130049456E+02  0.29593207200E+02 -0.14467521566E+03  0.14808968208E+03  0.00000000000E+00 0.  1.
         14    1    3    3    0    0  0.78945756360E+02  0.65275752577E+02 -0.20751402284E+03  0.23142045285E+03  0.00000000000E+00 0. -1.
        -11    1    4    4    0    0 -0.81215552522E+02  0.15258036485E+01 -0.75259975036E+02  0.11073553129E+03  0.00000000000E+00 0. -1.
         11    1    4    4    0    0  0.17797483803E+02 -0.25934309953E+02 -0.37078772677E+02  0.48622774969E+02  0.00000000000E+00 0.  1.
          3    1    1    2  501    0 -0.43976381849E+01 -0.70460453473E+02 -0.13017873015E+03  0.14808955570E+03  0.00000000000E+00 0. -1.
<scales pt_clust_5="13000.00000" pt_clust_6="13000.00000" pt_clust_7="13000.00000" pt_clust_8="13000.00000" pt_clust_9="13000.00000"></scales>
<clustering>
<clus scale="   79.947">  5  6 -1 -1</clus>
<clus scale="   90.319">  7  8 -1 -1</clus>
<clus scale="   70.598">  7  9 -1 -1</clus>
<clus scale="  141.388">  2  5  1 -1</clus>
<clus scale="  188.969">  1  5  2 -1</clus>
</clustering>
</event>
<event>
 9    2  0.2147756E-005  0.8716044E+03  0.7546771E-02  0.9963896E-01
          2   -1    0    0  502    0 -0.00000000000E+00  0.00000000000E+00  0.17845495805E+04  0.17845495805E+04  0.00000000000E+00 0. -1.
         21   -1    0    0  501  502  0.00000000000E+00 -0.00000000000E+00 -0.15056877921E+03  0.15056877921E+03  0.00000000000E+00 0. -1.
         24    2    1    2    0    0  0.60281229597E+02  0.12756504898E+03  0.31087446330E+03  0.35072429035E+03  0.80361231613E+02 0.  0.
         23    2    1    2    0    0  0.30673509735E+03 -0.60743198634E+02  0.11055440049E+04  0.11525381759E+04  0.91326578772E+02 0.  0.
        -13    1    3    3    0    0  0.41630625264E+02  0.11777850331E+03  0.30384163952E+03  0.32851883767E+03  0.00000000000E+00 0.  1.
         14    1    3    3    0    0  0.18650604332E+02  0.97865456720E+01  0.70328237794E+01  0.22205452674E+02  0.00000000000E+00 0. -1.
        -13    1    4    4    0    0  0.26595210602E+03 -0.76595057090E+02  0.10137299768E+04  0.10508310003E+04  0.00000000000E+00 0. -1.
         13    1    4    4    0    0  0.40782991330E+02  0.15851858456E+02  0.91814028175E+02  0.10170717560E+03  0.00000000000E+00 0.  1.
          1    1    1    2  501    0 -0.36701632694E+03 -0.66821850346E+02  0.21756233306E+03  0.43185589343E+03  0.00000000000E+00 0. -1.
<scales pt_clust_5="13000.00000" pt_clust_6="13000.00000" pt_clust_7="13000.00000" pt_clust_8="13000.00000" pt_clust_9="13000.00000"></scales>
<clustering>
<clus scale="   80.361">  5  6 -1 -1</clus>
<clus scale="   91.327">  7  8 -1 -1</clus>
<clus scale="  162.372">  1  5  2 -1</clus>
<clus scale="  355.624">  7  9 -1 -1</clus>
<clus scale="  871.604">  2  5  1 -1</clus>
</clustering>
</event>
<event>
 9    2  0.2147756E-005  0.3620780E+03  0.7546771E-02  0.1091664E+00
         21   -1    0    0  501  502  0.00000000000E+00  0.00000000000E+00  0.23669888286E+03  0.23669888286E+03  0.00000000000E+00 0. -1.
          2   -1    0    0  502    0 -0.00000000000E+00 -0.00000000000E+00 -0.27651413548E+03  0.27651413548E+03  0.00000000000E+00 0. -1.
         24    2    1    2    0    0 -0.43428696212E+02 -0.11049402896E+03  0.22939383501E+02  0.14573700124E+03  0.81351558835E+02 0.  0.
         23    2    1    2    0    0 -0.45196479338E+02 -0.70535585933E+02 -0.10351433690E+03  0.16183677860E+03  0.91967028528E+02 0.  0.
        -11    1    3    3    0    0  0.15582468513E+01 -0.42990503413E+02 -0.26702634212E+02  0.50632422329E+02  0.00000000000E+00 0.  1.
         12    1    3    3    0    0 -0.44986943064E+02 -0.67503525542E+02  0.49642017714E+02  0.95104578909E+02  0.00000000000E+00 0. -1.
        -13    1    4    4    0    0 -0.14828629614E+02 -0.77597128234E+02 -0.10406360049E+03  0.13065387676E+03  0.00000000000E+00 0.  1.
         13    1    4    4    0    0 -0.30367849724E+02  0.70615423013E+01  0.54926358843E+00  0.31182901838E+02  0.00000000000E+00 0. -1.
          1    1    1    2  501    0  0.88625175551E+02  0.18102961489E+03  0.40759700774E+02  0.20563923851E+03  0.00000000000E+00 0. -1.
<scales pt_clust_5="13000.00000" pt_clust_6="13000.00000" pt_clust_7="13000.00000" pt_clust_8="13000.00000" pt_clust_9="13000.00000"></scales>
<clustering>
<clus scale="   81.352">  5  6 -1 -1</clus>
<clus scale="   91.967">  7  8 -1 -1</clus>
<clus scale="  143.920">  2  5  1 -1</clus>
<clus scale="  156.252">  7  9 -1 -1</clus>
<clus scale="  362.078">  1  5  2 -1</clus>
</clustering>
</event>
<event>
 9    2  0.2147756E-005  0.2133932E+03  0.7546771E-02  0.1156189E+00
         21   -1    0    0  501  502  0.00000000000E+00  0.00000000000E+00  0.73871711734E+02  0.73871711734E+02  0.00000000000E+00 0.  1.
         -1   -1    0    0    0  501 -0.00000000000E+00 -0.00000000000E+00 -0.78388690479E+03  0.78388690479E+03  0.00000000000E+00 0.  1.
         24    2    1    2    0    0 -0.36589106751E+02 -0.11313544589E+03 -0.60237127788E+03  0.61875263376E+03  0.76585073735E+02 0.  0.
         23    2    1    2    0    0 -0.93383315988E+01 -0.30086333072E+01 -0.39916683907E+02  0.96929402778E+02  0.87782180181E+02 0.  0.
        -13    1    3    3    0    0 -0.54213281054E+02 -0.97487811440E+02 -0.40857847825E+03  0.42353196587E+03  0.00000000000E+00 0.  1.
         14    1    3    3    0    0  0.17624174303E+02 -0.15647634450E+02 -0.19379279963E+03  0.19522066789E+03  0.00000000000E+00 0. -1.
        -13    1    4    4    0    0  0.88600148971E+01 -0.42619097213E+02 -0.27931157455E+02  0.51720758579E+02  0.00000000000E+00 0. -1.
         13    1    4    4    0    0 -0.18198346496E+02  0.39610463905E+02 -0.11985526452E+02  0.45208644199E+02  0.00000000000E+00 0.  1.
         -2    1    1    2    0  502  0.45927438350E+02  0.11614407920E+03 -0.67727231271E+02  0.14207657999E+03  0.00000000000E+00 0.  1.
<scales pt_clust_5="13000.00000" pt_clust_6="13000.00000" pt_clust_7="13000.00000" pt_clust_8="13000.00000" pt_clust_9="13000.00000"></scales>
<clustering>
<clus scale="   76.585">  5  6 -1 -1</clus>
<clus scale="   87.782">  7  8 -1 -1</clus>
<clus scale="  124.895">  7  9 -1 -1</clus>
<clus scale="  141.434">  2  5  1 -1</clus>
<clus scale="  213.393">  1  5  2 -1</clus>
</clustering>
</event>
<event>
 9    2  0.2147756E-005  0.4443688E+03  0.7546771E-02  0.1042193E+00
         21   -1    0    0  501  502  0.00000000000E+00  0.00000000000E+00  0.28309286627E+03  0.28309286627E+03  0.00000000000E+00 0.  1.
          2   -1    0    0  502    0 -0.00000000000E+00 -0.00000000000E+00 -0.91971668504E+03  0.91971668504E+03  0.00000000000E+00 0. -1.
         24    2    1    2    0    0 -0.29458637134E+03  0.42897627218E+01  0.11768618239E+03  0.32733985107E+03  0.80633791463E+02 0.  0.
         23    2    1    2    0    0  0.10729479416E+03  0.14472520651E+03 -0.28677313462E+03  0.35023230866E+03  0.89254025297E+02 0.  0.
        -13    1    3    3    0    0 -0.19835245772E+03 -0.24486656684E+02  0.10597067915E+03  0.22621467388E+03  0.00000000000E+00 0.  1.
         14    1    3    3    0    0 -0.96233913625E+02  0.28776419406E+02  0.11715503243E+02  0.10112517719E+03  0.00000000000E+00 0. -1.
        -13    1    4    4    0    0  0.83651355066E+02  0.64810233644E+02 -0.21744375551E+03  0.24182576868E+03  0.00000000000E+00 0. -1.
         13    1    4    4    0    0  0.23643439095E+02  0.79914972869E+02 -0.69329379115E+02  0.10840653997E+03  0.00000000000E+00 0.  1.
          1    1    1    2  501    0  0.18729157718E+03 -0.14901496923E+03 -0.46753686654E+03  0.52523739158E+03  0.00000000000E+00 0. -1.
<scales pt_clust_5="13000.00000" pt_clust_6="13000.00000" pt_clust_7="13000.00000" pt_clust_8="13000.00000" pt_clust_9="13000.00000"></scales>
<clustering>
<clus scale="   80.634">  5  6 -1 -1</clus>
<clus scale="   89.254">  7  8 -1 -1</clus>
<clus scale="  239.340">  7  9 -1 -1</clus>
<clus scale="  305.453">  2  5  1 -1</clus>
<clus scale="  444.369">  1  5  2 -1</clus>
</clustering>
</event>
<event>
 9    2  0.2147756E-005  0.5630087E+03  0.7546771E-02  0.1007306E+00
         21   -1    0    0  501  502  0.00000000000E+00  0.00000000000E+00  0.44460146915E+03  0.44460146915E+03  0.00000000000E+00 0. -1.
          2   -1    0    0  502    0 -0.00000000000E+00 -0.00000000000E+00 -0.56066928536E+03  0.56066928536E+03  0.00000000000E+00 0. -1.
         24    2    1    2    0    0 -0.17100120527E+03 -0.38407654347E+03 -0.11279205315E+03  0.44225255974E+03  0.78160577659E+02 0.  0.
         23    2    1    2    0    0  0.19353573146E+03  0.47179367725E+02 -0.51928481858E+00  0.22535695911E+03  0.10537322844E+03 0.  0.
        -13    1    3    3    0    0 -0.85110201329E+02 -0.11016418520E+03 -0.53449236289E+02  0.14911980060E+03  0.00000000000E+00 0.  1.
         14    1    3    3    0    0 -0.85891003936E+02 -0.27391235827E+03 -0.59342816856E+02  0.29313275914E+03  0.00000000000E+00 0. -1.
        -13    1    4    4    0    0  0.11200562650E+02  0.38322884208E+02 -0.14000551711E+02  0.42309709357E+02  0.00000000000E+00 0.  1.
         13    1    4    4    0    0  0.18233516881E+03  0.88564835174E+01  0.13481266892E+02  0.18304724975E+03  0.00000000000E+00 0. -1.
          1    1    1    2  501    0 -0.22534526194E+02  0.33689717574E+03 -0.27564782481E+01  0.33766123566E+03  0.00000000000E+00 0. -1.
<scales pt_clust_5="13000.00000" pt_clust_6="13000.00000" pt_clust_7="13000.00000" pt_clust_8="13000.00000" pt_clust_9="13000.00000"></scales>
<clustering>
<clus scale="   78.161">  5  6 -1 -1</clus>
<clus scale="  105.373">  7  8 -1 -1</clus>
<clus scale="  337.650">  7  9 -1 -1</clus>
<clus scale="  427.628">  2  5  1 -1</clus>
<clus scale="  563.009">  1  5  2 -1</clus>
</clustering>
</event>
<event>
 9    2  0.2147756E-005  0.6130324E+03  0.7546771E-02  0.1001785E+00
         21   -1    0    0  501  502  0.00000000000E+00  0.00000000000E+00  0.18130231271E+03  0.18130231271E+03  0.00000000000E+00 0.  1.
          2   -1    0    0  502    0 -0.00000000000E+00 -0.00000000000E+00 -0.14034537580E+04  0.14034537580E+04  0.00000000000E+00 0. -1.
         24    2    1    2    0    0  0.37830525476E+03  0.72228342503E+02 -0.53009840402E+03  0.66023125849E+03  0.81050586075E+02 0.  0.
         23    2    1    2    0    0 -0.96351871720E+02  0.18587887350E+03 -0.23654785480E+03  0.32988036377E+03  0.95034351635E+02 0.  0.
        -13    1    3    3    0    0  0.28553090606E+03  0.81686689723E+02 -0.43777081443E+03  0.52900274059E+03  0.00000000000E+00 0.  1.
         14    1    3    3    0    0  0.92774348701E+02 -0.94583472200E+01 -0.92327589595E+02  0.13122851790E+03  0.00000000000E+00 0. -1.
        -13    1    4    4    0    0 -0.66087465849E+02  0.97258792981E+02 -0.19437932649E+03  0.22717867092E+03  0.00000000000E+00 0. -1.
         13    1    4    4    0    0 -0.30264405872E+02  0.88620080522E+02 -0.42168528316E+02  0.10270169285E+03  0.00000000000E+00 0.  1.
          1    1    1    2  501    0 -0.28195338304E+03 -0.25810721601E+03 -0.45550518643E+03  0.59464444841E+03  0.00000000000E+00 0. -1.
<scales pt_clust_5="13000.00000" pt_clust_6="13000.00000" pt_clust_7="13000.00000" pt_clust_8="13000.00000" pt_clust_9="13000.00000"></scales>
<clustering>
<clus scale="   81.051">  5  6 -1 -1</clus>
<clus scale="   95.034">  7  8 -1 -1</clus>
<clus scale="  382.253">  7  9 -1 -1</clus>
<clus scale="  393.575">  2  5  1 -1</clus>
<clus scale="  613.032">  1  5  2 -1</clus>
</clustering>
</event>
<event>
 9    2  0.2147756E-005  0.9637794E+03  0.7546771E-02  0.1004469E+00
         21   -1    0    0  501  502  0.00000000000E+00  0.00000000000E+00  0.57013720506E+03  0.57013720506E+03  0.00000000000E+00 0.  1.
         -1   -1    0    0    0  501 -0.00000000000E+00 -0.00000000000E+00 -0.51860382937E+03  0.51860382937E+03  0.00000000000E+00 0.  1.
         24    2    1    2    0    0  0.19789652252E+02 -0.41816888261E+02 -0.71142348522E+02  0.11718550667E+03  0.80814149385E+02 0.  0.
         23    2    1    2    0    0  0.31995602096E+03 -0.26418609589E+01 -0.28571526700E+03  0.43846369275E+03  0.90765419019E+02 0.  0.
        -11    1    3    3    0    0  0.15202353538E+02 -0.63895405894E+02 -0.67788228454E+02  0.94387384562E+02  0.00000000000E+00 0.  1.
         12    1    3    3    0    0  0.45872987140E+01  0.22078517633E+02 -0.33541200683E+01  0.22798122111E+02  0.00000000000E+00 0. -1.
        -11    1    4    4    0    0  0.16064852568E+03 -0.14152146124E+01 -0.83583869607E+02  0.18109725259E+03  0.00000000000E+00 0. -1.
         11    1    4    4    0    0  0.15930749528E+03 -0.12266463465E+01 -0.20213139739E+03  0.25736644017E+03  0.00000000000E+00 0.  1.
         -2    1    1    2    0  502 -0.33974567321E+03  0.44458749220E+02  0.40839099122E+03  0.53309183501E+03  0.00000000000E+00 0.  1.
<scales pt_clust_5="13000.00000" pt_clust_6="13000.00000" pt_clust_7="13000.00000" pt_clust_8="13000.00000" pt_clust_9="13000.00000"></scales>
<clustering>
<clus scale="   80.814">  5  6 -1 -1</clus>
<clus scale="   90.765">  7  8 -1 -1</clus>
<clus scale="   93.119">  2  5  1 -1</clus>
<clus scale="  339.011">  7  9 -1 -1</clus>
<clus scale="  963.779">  1  5  2 -1</clus>
</clustering>
</event>
<event>
 9    2  0.2147756E-005  0.2195209E+03  0.7546771E-02  0.1161841E+00
         21   -1    0    0  501  502  0.00000000000E+00  0.00000000000E+00  0.67643424646E+03  0.67643424646E+03  0.00000000000E+00 0. -1.
          2   -1    0    0  502    0 -0.00000000000E+00 -0.00000000000E+00 -0.54254305216E+03  0.54254305216E+03  0.00000000000E+00 0. -1.
         24    2    1    2    0    0 -0.71070353519E+02  0.38143221143E+02 -0.51838854781E+03  0.53074891650E+03  0.80385479986E+02 0.  0.
         23    2    1    2    0    0  0.53785386284E+02  0.26395047468E+02  0.18061432364E+03  0.21185434295E+03  0.93119076523E+02 0.  0.
        -13    1    3    3    0    0 -0.62942416739E+01  0.46623032232E+02 -0.17573923149E+03  0.18192746384E+03  0.00000000000E+00 0.  1.
         14    1    3    3    0    0 -0.64776111845E+02 -0.84798110891E+01 -0.34264931632E+03  0.34882145266E+03  0.00000000000E+00 0. -1.
        -13    1    4    4    0    0  0.13947275526E+02 -0.34921471438E+02  0.62048305284E+02  0.72553620521E+02  0.00000000000E+00 0. -1.
         13    1    4    4    0    0  0.39838110758E+02  0.61316518906E+02  0.11856601836E+03  0.13930072243E+03  0.00000000000E+00 0.  1.
          1    1    1    2  501    0  0.17284967235E+02 -0.64538268611E+02  0.47166541847E+03  0.47637403917E+03  0.00000000000E+00 0. -1.
<scales pt_clust_5="13000.00000" pt_clust_6="13000.00000" pt_clust_7="13000.00000" pt_clust_8="13000.00000" pt_clust_9="13000.00000"></scales>
<clustering>
<clus scale="   80.385">  5  6 -1 -1</clus>
<clus scale="   93.119">  7  8 -1 -1</clus>
<clus scale="   66.813">  7  9 -1 -1</clus>
<clus scale="  113.876">  2  5  1 -1</clus>
<clus scale="  219.521">  1  5  2 -1</clus>
</clustering>
</event>
<event>
 9    2  0.2147756E-005  0.2202696E+03  0.7546771E-02  0.1160116E+00
         -3   -1    0    0    0  501 -0.00000000000E+00  0.00000000000E+00  0.14766764524E+03  0.14766764524E+03  0.00000000000E+00 0.  1.
         21   -1    0    0  501  502  0.00000000000E+00 -0.00000000000E+00 -0.20643223738E+03  0.20643223738E+03  0.00000000000E+00 0.  1.
         24    2    1    2    0    0  0.14189057682E+02 -0.60657642526E+02  0.22224224361E+02  0.11941311776E+03  0.99422822281E+02 0.  0.
         23    2    1    2    0    0  0.51454779758E+01 -0.49417069494E+02 -0.11837312479E+02  0.10326303411E+03  0.89747476539E+02 0.  0.
        -11    1    3    3    0    0  0.17460375647E+02 -0.63268210589E+02  0.55452253573E+02  0.85922544278E+02  0.00000000000E+00 0.  1.
         12    1    3    3    0    0 -0.32713179654E+01  0.26105680631E+01 -0.33228029213E+02  0.33490573483E+02  0.00000000000E+00 0. -1.
        -13    1    4    4    0    0 -0.33090011800E+02 -0.38318810328E+02  0.17759796418E+02  0.53653429291E+02  0.00000000000E+00 0. -1.
         13    1    4    4    0    0  0.38235489776E+02 -0.11098259167E+02 -0.29597108897E+02  0.49609604816E+02  0.00000000000E+00 0.  1.
         -4    1    1    2    0  502 -0.19334535658E+02  0.11007471202E+03 -0.69151504021E+02  0.13142373075E+03  0.00000000000E+00 0.  1.
<scales pt_clust_5="13000.00000" pt_clust_6="13000.00000" pt_clust_7="13000.00000" pt_clust_8="13000.00000" pt_clust_9="13000.00000"></scales>
<clustering>
<clus scale="   89.747">  7  8 -1 -1</clus>
<clus scale="   99.423">  5  6 -1 -1</clus>
<clus scale="  111.760">  7  9 -1 -1</clus>
<clus scale="  117.327">  1  5  2 -1</clus>
<clus scale="  220.270">  2  5  1 -1</clus>
</clustering>
</event>
<event>
 9    2  0.2147756E-005  0.2371610E+03  0.7546771E-02  0.1155106E+00
         21   -1    0    0  501  502  0.00000000000E+00  0.00000000000E+00  0.38588050766E+03  0.38588050766E+03  0.00000000000E+00 0.  1.
          2   -1    0    0  502    0 -0.00000000000E+00 -0.00000000000E+00 -0.92967163772E+02  0.92967163772E+02  0.00000000000E+00 0. -1.
         24    2    1    2    0    0 -0.64965452738E+02  0.18646284955E+02  0.49521948965E+01  0.10579679313E+03  0.81241880884E+02 0.  0.
         23    2    1    2    0    0  0.44461606021E+02  0.80716700189E+02  0.18943990388E+03  0.23163006553E+03  0.96296365339E+02 0.  0.
        -11    1    3    3    0    0 -0.66675343430E+02  0.43750384566E+02  0.92066363523E+01  0.80277392360E+02  0.00000000000E+00 0.  1.
         12    1    3    3    0    0  0.17098906918E+01 -0.25104099611E+02 -0.42544414558E+01  0.25519400768E+02  0.00000000000E+00 0. -1.
        -11    1    4    4    0    0 -0.19019857741E+02  0.11424698638E+02  0.98106128933E+02  0.10058375247E+03  0.00000000000E+00 0. -1.
         11    1    4    4    0    0  0.63481463762E+02  0.69292001551E+02  0.91333774943E+02  0.13104631306E+03  0.00000000000E+00 0.  1.
          1    1    1    2  501    0  0.20503846717E+02 -0.99362985144E+02  0.98521245114E+02  0.14142081277E+03  0.00000000000E+00 0. -1.
<scales pt_clust_5="13000.00000" pt_clust_6="13000.00000" pt_clust_7="13000.00000" pt_clust_8="13000.00000" pt_clust_9="13000.00000"></scales>
<clustering>
<clus scale="   81.242">  5  6 -1 -1</clus>
<clus scale="   96.296">  7  8 -1 -1</clus>
<clus scale="  101.456">  7  9 -1 -1</clus>
<clus scale="  105.681">  2  5  1 -1</clus>
<clus scale="  237.161">  1  5  2 -1</clus>
</clustering>
</event>
<event>
 9    2  0.2147756E-005  0.2987240E+03  0.7546771E-02  0.1129917E+00
          4   -1    0    0  502    0 -0.00000000000E+00  0.00000000000E+00  0.26472203716E+03  0.26472203716E+03  0.00000000000E+00 0. -1.
         21   -1    0    0  501  502  0.00000000000E+00 -0.00000000000E+00 -0.18087841972E+03  0.18087841972E+03  0.00000000000E+00 0. -1.
         24    2    1    2    0    0  0.24531581933E+01  0.52993793998E+02  0.10902098676E+03  0.14581732438E+03  0.81010840931E+02 0.  0.
         23    2    1    2    0    0  0.12155523792E+03 -0.53272435268E+02  0.34467948830E+02  0.16217599634E+03  0.86598995765E+02 0.  0.
        -11    1    3    3    0    0 -0.19194829331E+02 -0.12686734143E+02  0.49452956260E+02  0.54543465045E+02  0.00000000000E+00 0.  1.
         12    1    3    3    0    0  0.21647987524E+02  0.65680528141E+02  0.59568030502E+02  0.91273859339E+02  0.00000000000E+00 0. -1.
        -11    1    4    4    0    0  0.12798112892E+03 -0.29651526058E+02  0.39507678083E+02  0.13718323143E+03  0.00000000000E+00 0. -1.
         11    1    4    4    0    0 -0.64258910019E+01 -0.23620909209E+02 -0.50397292528E+01  0.24992764913E+02  0.00000000000E+00 0.  1.
          3    1    1    2  501    0 -0.12400839611E+03  0.27864127016E+00 -0.59645318153E+02  0.13760713617E+03  0.00000000000E+00 0. -1.
<scales pt_clust_5="13000.00000" pt_clust_6="13000.00000" pt_clust_7="13000.00000" pt_clust_8="13000.00000" pt_clust_9="13000.00000"></scales>
<clustering>
<clus scale="   81.011">  5  6 -1 -1</clus>
<clus scale="   86.599">  7  8 -1 -1</clus>
<clus scale="   96.836">  1  5  2 -1</clus>
<clus scale="  124.260">  7  9 -1 -1</clus>
<clus scale="  298.724">  2  5  1 -1</clus>
</clustering>
</event>
<event>
 9    2  0.2147756E-005  0.4015884E+03  0.7546771E-02  0.1081515E+00
          2   -1    0    0  502    0 -0.00000000000E+00  0.00000000000E+00  0.26972682167E+03  0.26972682167E+03  0.00000000000E+00 0. -1.
         21   -1    0    0  501  502  0.00000000000E+00 -0.00000000000E+00 -0.30730741154E+03  0.30730741154E+03  0.00000000000E+00 0. -1.
         24    2    1    2    0    0 -0.11306557476E+03  0.19649407433E+00  0.78609423525E+02  0.15897515422E+03  0.79434220502E+02 0.  0.
         23    2    1    2    0    0 -0.69676211784E+02 -0.77115894183E+02  0.60114848176E+02  0.15273934946E+03  0.94413337392E+02 0.  0.
        -13    1    3    3    0    0 -0.56106130542E+02  0.30154001188E+02  0.68999275814E+02  0.93904535220E+02  0.00000000000E+00 0.  1.
         14    1    3    3    0    0 -0.56959444219E+02 -0.29957507113E+02  0.96101477106E+01  0.65070619001E+02  0.00000000000E+00 0. -1.
        -11    1    4    4    0    0  0.19214833310E+02 -0.27458550639E+02  0.33744589589E+02  0.47559217286E+02  0.00000000000E+00 0. -1.
         11    1    4    4    0    0 -0.88891045094E+02 -0.49657343544E+02  0.26370258586E+02  0.10518013217E+03  0.00000000000E+00 0.  1.
          1    1    1    2  501    0  0.18274178654E+03  0.76919400109E+02 -0.17630486158E+03  0.26531972953E+03  0.00000000000E+00 0. -1.
<scales pt_clust_5="13000.00000" pt_clust_6="13000.00000" pt_clust_7="13000.00000" pt_clust_8="13000.00000" pt_clust_9="13000.00000"></scales>
<clustering>
<clus scale="   79.434">  5  6 -1 -1</clus>
<clus scale="   94.413">  7  8 -1 -1</clus>
<clus scale="  138.180">  1  5  2 -1</clus>
<clus scale="  168.066">  7  9 -1 -1</clus>
<clus scale="  401.588">  2  5  1 -1</clus>
</clustering>
</event>
<event>
 9    2  0.2147756E-005  0.1482894E+03  0.7546771E-02  0.1230102E+00
          2   -1    0    0  502    0 -0.00000000000E+00  0.00000000000E+00  0.26360365592E+03  0.26360365592E+03  0.00000000000E+00 0. -1.
         21   -1    0    0  501  502  0.00000000000E+00 -0.00000000000E+00 -0.56949944223E+02  0.56949944223E+02  0.00000000000E+00 0. -1.
         24    2    1    2    0    0  0.23731406677E+02  0.13606235203E+02  0.26145438321E+02  0.86944981385E+02  0.78278582919E+02 0.  0.
         23    2    1    2    0    0 -0.60668744110E+01  0.20490148179E+02  0.17093850874E+03  0.19403363354E+03  0.89288431693E+02 0.  0.
        -13    1    3    3    0    0  0.45284610230E+02 -0.94216266545E+01  0.30057272076E+02  0.55162510613E+02  0.00000000000E+00 0.  1.
         14    1    3    3    0    0 -0.21553203552E+02  0.23027861857E+02 -0.39118337542E+01  0.31782470773E+02  0.00000000000E+00 0. -1.
        -13    1    4    4    0    0  0.96997432768E+00 -0.29939420796E+02  0.11298815173E+03  0.11689154032E+03  0.00000000000E+00 0.  1.
         13    1    4    4    0    0 -0.70368487386E+01  0.50429568976E+02  0.57950357015E+02  0.77142093214E+02  0.00000000000E+00 0. -1.
          1    1    1    2  501    0 -0.17664532266E+02 -0.34096383382E+02  0.95697646270E+01  0.39574985217E+02  0.00000000000E+00 0. -1.
<scales pt_clust_5="13000.00000" pt_clust_6="13000.00000" pt_clust_7="13000.00000" pt_clust_8="13000.00000" pt_clust_9="13000.00000"></scales>
<clustering>
<clus scale="   78.279">  5  6 -1 -1</clus>
<clus scale="   82.921">  1  5  2 -1</clus>
<clus scale="   89.288">  7  8 -1 -1</clus>
<clus scale="   35.715">  7  9 -1 -1</clus>
<clus scale="  148.289">  2  5  1 -1</clus>
</clustering>
</event>
<event>
 9    2  0.2147756E-005  0.1861936E+03  0.7546771E-02  0.1198465E+00
         21   -1    0    0  501  502  0.00000000000E+00  0.00000000000E+00  0.20510801785E+02  0.20510801785E+02  0.00000000000E+00 0. -1.
          2   -1    0    0  502    0 -0.00000000000E+00 -0.00000000000E+00 -0.91356309393E+03  0.91356309393E+03  0.00000000000E+00 0. -1.
         24    2    1    2    0    0  0.15766551151E+02  0.80839400795E+01 -0.36727334016E+03  0.37630014588E+03  0.79988493998E+02 0.  0.
         23    2    1    2    0    0  0.52189978150E+02 -0.37066120319E+02 -0.30544435132E+03  0.32538314569E+03  0.92088265548E+02 0.  0.
        -11    1    3    3    0    0 -0.23618476241E+02  0.27517084602E+02 -0.20530810663E+03  0.20848606911E+03  0.00000000000E+00 0.  1.
         12    1    3    3    0    0  0.39385027391E+02 -0.19433144523E+02 -0.16196523353E+03  0.16781407677E+03  0.00000000000E+00 0. -1.
        -13    1    4    4    0    0  0.11818550924E+02  0.26491123294E+02 -0.39640883738E+02  0.49120845095E+02  0.00000000000E+00 0.  1.
         13    1    4    4    0    0  0.40371427226E+02 -0.63557243613E+02 -0.26580346758E+03  0.27626230060E+03  0.00000000000E+00 0. -1.
          1    1    1    2  501    0 -0.67956529301E+02  0.28982180239E+02 -0.22033460066E+03  0.23239060415E+03  0.00000000000E+00 0. -1.
<scales pt_clust_5="13000.00000" pt_clust_6="13000.00000" pt_clust_7="13000.00000" pt_clust_8="13000.00000" pt_clust_9="13000.00000"></scales>
<clustering>
<clus scale="   79.988">  5  6 -1 -1</clus>
<clus scale="   81.927">  2  5  1 -1</clus>
<clus scale="   92.088">  7  8 -1 -1</clus>
<clus scale="   69.378">  7  9 -1 -1</clus>
<clus scale="  186.194">  1  5  2 -1</clus>
</clustering>
</event>
<event>
 9    2  0.2147756E-005  0.2254609E+03  0.7546771E-02  0.1164408E+00
         -1   -1    0    0    0  501 -0.00000000000E+00  0.00000000000E+00  0.65329071274E+03  0.65329071274E+03  0.00000000000E+00 0.  1.
         21   -1    0    0  501  502  0.00000000000E+00 -0.00000000000E+00 -0.52228009678E+02  0.52228009678E+02  0.00000000000E+00 0.  1.
         24    2    1    2    0    0 -0.57647838259E+02 -0.17151776099E+02  0.36861981966E+03  0.38169421203E+03  0.78692079472E+02 0.  0.
         23    2    1    2    0    0  0.52304406953E+02 -0.76690686614E+02  0.10889235498E+03  0.16858375176E+03  0.89138790571E+02 0.  0.
        -11    1    3    3    0    0 -0.56890440702E+02 -0.37287362729E+02  0.33972261790E+03  0.34646547703E+03  0.00000000000E+00 0.  1.
         12    1    3    3    0    0 -0.75739755756E+00  0.20135586630E+02  0.28897201764E+02  0.35228735002E+02  0.00000000000E+00 0. -1.
        -13    1    4    4    0    0 -0.20406614369E+02 -0.34489873155E+02  0.15610296308E+02  0.43007704090E+02  0.00000000000E+00 0.  1.
         13    1    4    4    0    0  0.72711021323E+02 -0.42200813458E+02  0.93282058674E+02  0.12557604767E+03  0.00000000000E+00 0. -1.
         -2    1    1    2    0  502  0.53434313059E+01  0.93842462713E+02  0.12355052842E+03  0.15524075863E+03  0.00000000000E+00 0.  1.
<scales pt_clust_5="13000.00000" pt_clust_6="13000.00000" pt_clust_7="13000.00000" pt_clust_8="13000.00000" pt_clust_9="13000.00000"></scales>
<clustering>
<clus scale="   78.692">  5  6 -1 -1</clus>
<clus scale="   89.139">  7  8 -1 -1</clus>
<clus scale="   93.995">  7  9 -1 -1</clus>
<clus scale="   99.045">  1  5  2 -1</clus>
<clus scale="  225.461">  2  5  1 -1</clus>
</clustering>
</event>
<event>
 9    2  0.2147756E-005  0.3580200E+03  0.7546771E-02  0.1075344E+00
          2   -1    0    0  502    0 -0.00000000000E+00  0.00000000000E+00  0.67811498934E+02  0.67811498934E+02  0.00000000000E+00 0. -1.
         21   -1    0    0  501  502  0.00000000000E+00 -0.00000000000E+00 -0.12964789765E+04  0.12964789765E+04  0.00000000000E+00 0. -1.
         24    2    1    2    0    0 -0.88176712873E+02  0.19626233817E+03 -0.56589963767E+03  0.61100463500E+03  0.82402827569E+02 0.  0.
         23    2    1    2    0    0  0.76043404649E+02  0.35684856891E+01 -0.43012963577E+03  0.44636547723E+03  0.91843901366E+02 0.  0.
        -11    1    3    3    0    0 -0.74614831418E+02  0.11619924031E+03 -0.25865124847E+03  0.29320659074E+03  0.00000000000E+00 0.  1.
         12    1    3    3    0    0 -0.13561881456E+02  0.80063097861E+02 -0.30724838920E+03  0.31779804426E+03  0.00000000000E+00 0. -1.
        -11    1    4    4    0    0  0.73381444866E+02 -0.31355303101E+02 -0.23668147344E+03  0.24977211885E+03  0.00000000000E+00 0.  1.
         11    1    4    4    0    0  0.26619597824E+01  0.34923788791E+02 -0.19344816233E+03  0.19659335839E+03  0.00000000000E+00 0. -1.
          1    1    1    2  501    0  0.12133308225E+02 -0.19983082386E+03 -0.23263820414E+03  0.30692036322E+03  0.00000000000E+00 0. -1.
<scales pt_clust_5="13000.00000" pt_clust_6="13000.00000" pt_clust_7="13000.00000" pt_clust_8="13000.00000" pt_clust_9="13000.00000"></scales>
<clustering>
<clus scale="   82.403">  5  6 -1 -1</clus>
<clus scale="   91.844">  7  8 -1 -1</clus>
<clus scale="  200.199">  7  9 -1 -1</clus>
<clus scale="  230.400">  1  5  2 -1</clus>
<clus scale="  358.020">  2  5  1 -1</clus>
</clustering>
</event>
<event>
 9    2  0.2147756E-005  0.3917028E+03  0.7546771E-02  0.1096476E+00
         -1   -1    0    0    0  501 -0.00000000000E+00  0.00000000000E+00  0.29250067594E+03  0.29250067594E+03  0.00000000000E+00 0.  1.
         21   -1    0    0  501  502  0.00000000000E+00 -0.00000000000E+00 -0.28398514287E+03  0.28398514287E+03  0.00000000000E+00 0.  1.
         24    2    1    2    0    0 -0.38851361242E+02  0.49777356880E+02  0.13205670929E+03  0.16576269033E+03  0.77788697820E+02 0.  0.
         23    2    1    2    0    0 -0.25705157374E+02  0.38062533406E+02  0.11140314459E+03  0.15172076497E+03  0.92190120584E+02 0.  0.
        -13    1    3    3    0    0 -0.25691731851E+02  0.51939936597E+02  0.13909546458E+03  0.15068301286E+03  0.00000000000E+00 0.  1.
         14    1    3    3    0    0 -0.13159629391E+02 -0.21625797166E+01 -0.70387552823E+01  0.15079677472E+02  0.00000000000E+00 0. -1.
        -13    1    4    4    0    0 -0.28652534395E+01  0.57286769542E+02  0.29403489588E+02  0.64455789824E+02  0.00000000000E+00 0.  1.
         13    1    4    4    0    0 -0.22839903934E+02 -0.19224236136E+02  0.81999654998E+02  0.87264975142E+02  0.00000000000E+00 0. -1.
         -2    1    1    2    0  502  0.64556518615E+02 -0.87839890287E+02 -0.23494432082E+03  0.25900236351E+03  0.00000000000E+00 0.  1.
<scales pt_clust_5="13000.00000" pt_clust_6="13000.00000" pt_clust_7="13000.00000" pt_clust_8="13000.00000" pt_clust_9="13000.00000"></scales>
<clustering>
<clus scale="   77.789">  5  6 -1 -1</clus>
<clus scale="   92.190">  7  8 -1 -1</clus>
<clus scale="  100.191">  1  5  2 -1</clus>
<clus scale="  103.724">  7  9 -1 -1</clus>
<clus scale="  391.703">  2  5  1 -1</clus>
</clustering>
</event>
<event>
 9    2  0.3367923E-005  0.8443384E+03  0.7546771E-02  0.1009891E+00
          2   -1    0    0  502    0 -0.00000000000E+00  0.00000000000E+00  0.17383220487E+04  0.17383220487E+04  0.00000000000E+00 0. -1.
         21   -1    0    0  501  502  0.00000000000E+00 -0.00000000000E+00 -0.17624778322E+03  0.17624778322E+03  0.00000000000E+00 0. -1.
         24    2    1    2    0    0 -0.46260266431E+02  0.71609744147E+02 -0.22416595903E+02  0.11915380738E+03  0.80169559896E+02 0.  0.
         23    2    1    2    0    0  0.28360870747E+03 -0.13960499481E+03  0.14980838578E+04  0.15338365780E+04  0.92064920832E+02 0.  0.
        -11    1    3    3    0    0 -0.44394825738E+02  0.37011396868E+02  0.22847130906E+02  0.62150908610E+02  0.00000000000E+00 0.  1.
         12    1    3    3    0    0 -0.18654406926E+01  0.34598347280E+02 -0.45263726809E+02  0.57002898769E+02  0.00000000000E+00 0. -1.
        -11    1    4    4    0    0  0.18794033815E+03 -0.60872297575E+02  0.10742576975E+04  0.10922713070E+04  0.00000000000E+00 0. -1.
         11    1    4    4    0    0  0.95668369317E+02 -0.78732697240E+02  0.42382616023E+03  0.44156527105E+03  0.00000000000E+00 0.  1.
          1    1    1    2  501    0 -0.23734844103E+03  0.67995250667E+02  0.86407003633E+02  0.26157944654E+03  0.00000000000E+00 0. -1.
<scales pt_clust_5="13000.00000" pt_clust_6="13000.00000" pt_clust_7="13000.00000" pt_clust_8="13000.00000" pt_clust_9="13000.00000"></scales>
<clustering>
<clus scale="   80.170">  5  6 -1 -1</clus>
<clus scale="   92.065">  7  8 -1 -1</clus>
<clus scale="  117.026">  1  5  2 -1</clus>
<clus scale="  253.571">  7  9 -1 -1</clus>
<clus scale="  844.338">  2  5  1 -1</clus>
</clustering>
</event>
<event>
 9    2  0.2147756E-005  0.5010486E+03  0.7546771E-02  0.1075308E+00
         21   -1    0    0  501  502  0.00000000000E+00  0.00000000000E+00  0.36935921988E+03  0.36935921988E+03  0.00000000000E+00 0.  1.
          4   -1    0    0  502    0 -0.00000000000E+00 -0.00000000000E+00 -0.68422486306E+03  0.68422486306E+03  0.00000000000E+00 0. -1.
         24    2    1    2    0    0  0.26314064765E+02 -0.17999846574E+02 -0.50924765910E+03  0.51615121317E+03  0.77861878183E+02 0.  0.
         23    2    1    2    0    0 -0.14893034074E+03 -0.15369997786E+03  0.22542318401E+03  0.32417449371E+03  0.92030217289E+02 0.  0.
        -13    1    3    3    0    0  0.21674548051E+02 -0.37710045295E+02 -0.14603893095E+03  0.15237848569E+03  0.00000000000E+00 0.  1.
         14    1    3    3    0    0  0.46395167145E+01  0.19710198721E+02 -0.36320872816E+03  0.36377272748E+03  0.00000000000E+00 0. -1.
        -13    1    4    4    0    0 -0.11609339920E+03 -0.83487439020E+02  0.92510905204E+02  0.17031176528E+03  0.00000000000E+00 0. -1.
         13    1    4    4    0    0 -0.32836941532E+02 -0.70212538844E+02  0.13291227881E+03  0.15386272843E+03  0.00000000000E+00 0.  1.
          3    1    1    2  501    0  0.12261627597E+03  0.17169982444E+03 -0.31041168083E+02  0.21325837606E+03  0.00000000000E+00 0. -1.
<scales pt_clust_5="13000.00000" pt_clust_6="13000.00000" pt_clust_7="13000.00000" pt_clust_8="13000.00000" pt_clust_9="13000.00000"></scales>
<clustering>
<clus scale="   77.862">  5  6 -1 -1</clus>
<clus scale="   84.136">  2  5  1 -1</clus>
<clus scale="   92.030">  7  8 -1 -1</clus>
<clus scale="  212.661">  7  9 -1 -1</clus>
<clus scale="  501.049">  1  5  2 -1</clus>
</clustering>
</event>
<event>
 9    2  0.2147756E-005  0.1402684E+03  0.7546771E-02  0.1235729E+00
         21   -1    0    0  501  502  0.00000000000E+00  0.00000000000E+00  0.10781099924E+03  0.10781099924E+03  0.00000000000E+00 0. -1.
          2   -1    0    0  502    0 -0.00000000000E+00 -0.00000000000E+00 -0.17080640414E+03  0.17080640414E+03  0.00000000000E+00 0. -1.
         24    2    1    2    0    0 -0.32874056680E+02  0.14228681964E+01 -0.10080976772E+03  0.13334127254E+03  0.80836610138E+02 0.  0.
         23    2    1    2    0    0 -0.16639396805E+02 -0.79503317154E+01  0.36233894921E+02  0.95309264464E+02  0.86202572184E+02 0.  0.
        -13    1    3    3    0    0 -0.30415214906E+01  0.29712222302E+02 -0.66522540199E+01  0.30599338075E+02  0.00000000000E+00 0.  1.
         14    1    3    3    0    0 -0.29832535189E+02 -0.28289354105E+02 -0.94157513704E+02  0.10274193447E+03  0.00000000000E+00 0. -1.
        -11    1    4    4    0    0  0.19488164835E+02  0.13096526398E+02  0.46645113520E+02  0.52221395879E+02  0.00000000000E+00 0.  1.
         11    1    4    4    0    0 -0.36127561640E+02 -0.21046858113E+02 -0.10411218598E+02  0.43087868585E+02  0.00000000000E+00 0. -1.
          1    1    1    2  501    0  0.49513453485E+02  0.65274635190E+01  0.15804679072E+01  0.49966866370E+02  0.00000000000E+00 0. -1.
<scales pt_clust_5="13000.00000" pt_clust_6="13000.00000" pt_clust_7="13000.00000" pt_clust_8="13000.00000" pt_clust_9="13000.00000"></scales>
<clustering>
<clus scale="   80.837">  5  6 -1 -1</clus>
<clus scale="   86.203">  7  8 -1 -1</clus>
<clus scale="   49.942">  7  9 -1 -1</clus>
<clus scale="   87.277">  2  5  1 -1</clus>
<clus scale="  140.268">  1  5  2 -1</clus>
</clustering>
</event>
<event>
 9    2  0.2147756E-005  0.1868346E+03  0.7546771E-02  0.1168536E+00
         21   -1    0    0  501  502  0.00000000000E+00  0.00000000000E+00  0.18654092234E+03  0.18654092234E+03  0.00000000000E+00 0. -1.
          2   -1    0    0  502    0 -0.00000000000E+00 -0.00000000000E+00 -0.26088335950E+03  0.26088335950E+03  0.00000000000E+00 0. -1.
         24    2    1    2    0    0  0.12769419232E+03  0.49587150658E+02 -0.17437673046E+03  0.23549499923E+03  0.79284035425E+02 0.  0.
         23    2    1    2    0    0 -0.64302641152E+02 -0.20912238790E+02  0.46115802751E+02  0.12390688232E+03  0.93027398287E+02 0.  0.
        -11    1    3    3    0    0  0.22718650820E+02  0.23537700287E+02 -0.30119748481E+01  0.32851673053E+02  0.00000000000E+00 0.  1.
         12    1    3    3    0    0  0.10497554150E+03  0.26049450370E+02 -0.17136475561E+03  0.20264332618E+03  0.00000000000E+00 0. -1.
        -11    1    4    4    0    0 -0.50289785957E+02  0.66724574343E+01 -0.17092362278E+02  0.53532542514E+02  0.00000000000E+00 0.  1.
         11    1    4    4    0    0 -0.14012855195E+02 -0.27584696224E+02  0.63208165029E+02  0.70374339804E+02  0.00000000000E+00 0. -1.
          1    1    1    2  501    0 -0.63391551170E+02 -0.28674911868E+02  0.53918490544E+02  0.88022400290E+02  0.00000000000E+00 0. -1.
<scales pt_clust_5="13000.00000" pt_clust_6="13000.00000" pt_clust_7="13000.00000" pt_clust_8="13000.00000" pt_clust_9="13000.00000"></scales>
<clustering>
<clus scale="   79.284">  5  6 -1 -1</clus>
<clus scale="   93.027">  7  8 -1 -1</clus>
<clus scale="   69.575">  7  9 -1 -1</clus>
<clus scale="  158.274">  2  5  1 -1</clus>
<clus scale="  186.835">  1  5  2 -1</clus>
</clustering>
</event>
<event>
 9    2  0.2147756E-005  0.2700968E+03  0.7546771E-02  0.1122617E+00
         21   -1    0    0  501  502  0.00000000000E+00  0.00000000000E+00  0.43346890659E+02  0.43346890659E+02  0.00000000000E+00 0. -1.
          2   -1    0    0  502    0 -0.00000000000E+00 -0.00000000000E+00 -0.18491764038E+04  0.18491764038E+04  0.00000000000E+00 0. -1.
         24    2    1    2    0    0  0.89371867476E+02  0.87232111895E+02 -0.13757079060E+04  0.13846287436E+04  0.95014434983E+02 0.  0.
         23    2    1    2    0    0 -0.19654356127E+02  0.44473575085E+02 -0.27137350058E+03  0.29016104241E+03  0.90474643531E+02 0.  0.
        -13    1    3    3    0    0  0.47247339125E+02  0.56558884668E+02 -0.35384586938E+03  0.36143895441E+03  0.00000000000E+00 0.  1.
         14    1    3    3    0    0  0.42124528351E+02  0.30673227227E+02 -0.10218620366E+04  0.10231897892E+04  0.00000000000E+00 0. -1.
        -13    1    4    4    0    0  0.30913045582E+02  0.19766280088E+01 -0.13664009865E+03  0.14010724466E+03  0.00000000000E+00 0.  1.
         13    1    4    4    0    0 -0.50567401709E+02  0.42496947076E+02 -0.13473340192E+03  0.15005379775E+03  0.00000000000E+00 0. -1.
          1    1    1    2  501    0 -0.69717511349E+02 -0.13170568698E+03 -0.15874810653E+03  0.21773350844E+03  0.00000000000E+00 0. -1.
<scales pt_clust_5="13000.00000" pt_clust_6="13000.00000" pt_clust_7="13000.00000" pt_clust_8="13000.00000" pt_clust_9="13000.00000"></scales>
<clustering>
<clus scale="   90.475">  7  8 -1 -1</clus>
<clus scale="   95.014">  5  6 -1 -1</clus>
<clus scale="  149.020">  7  9 -1 -1</clus>
<clus scale="  156.922">  2  5  1 -1</clus>
<clus scale="  270.097">  1  5  2 -1</clus>
</clustering>
</event>
<event>
 9    2  0.2147756E-005  0.1173679E+03  0.7546771E-02  0.1267304E+00
          2   -1    0    0  502    0 -0.00000000000E+00  0.00000000000E+00  0.86268586952E+03  0.86268586952E+03  0.00000000000E+00 0. -1.
         21   -1    0    0  501  502  0.00000000000E+00 -0.00000000000E+00 -0.35726405304E+02  0.35726405304E+02  0.00000000000E+00 0. -1.
         24    2    1    2    0    0 -0.78218286536E+01  0.25303916326E+02  0.75828257589E+03  0.76242794385E+03  0.74849418644E+02 0.  0.
         23    2    1    2    0    0 -0.10954601742E+02 -0.83549088899E+01  0.57466255556E+02  0.10831663360E+03  0.90776179606E+02 0.  0.
        -11    1    3    3    0    0 -0.28746813060E+02 -0.66258836883E+01  0.14567562117E+03  0.14863266195E+03  0.00000000000E+00 0.  1.
         12    1    3    3    0    0  0.20924984407E+02  0.31929800015E+02  0.61260695473E+03  0.61379528190E+03  0.00000000000E+00 0. -1.
        -11    1    4    4    0    0  0.13387291819E+02  0.33783524076E+02  0.48754449569E+01  0.36664915720E+02  0.00000000000E+00 0.  1.
         11    1    4    4    0    0 -0.24341893561E+02 -0.42138432966E+02  0.52590810599E+02  0.71651717875E+02  0.00000000000E+00 0. -1.
          1    1    1    2  501    0  0.18776430395E+02 -0.16949007436E+02  0.11210632771E+02  0.27667697385E+02  0.00000000000E+00 0. -1.
<scales pt_clust_5="13000.00000" pt_clust_6="13000.00000" pt_clust_7="13000.00000" pt_clust_8="13000.00000" pt_clust_9="13000.00000"></scales>
<clustering>
<clus scale="   74.849">  5  6 -1 -1</clus>
<clus scale="   79.397">  1  5  2 -1</clus>
<clus scale="   90.776">  7  8 -1 -1</clus>
<clus scale="   21.128">  7  9 -1 -1</clus>
<clus scale="  117.368">  2  5  1 -1</clus>
</clustering>
</event>
<event>
 9    2  0.2147756E-005  0.1719056E+03  0.7546771E-02  0.1208195E+00
         -3   -1    0    0    0  501 -0.00000000000E+00  0.00000000000E+00  0.47906151950E+02  0.47906151950E+02  0.00000000000E+00 0.  1.
         21   -1    0    0  501  502  0.00000000000E+00 -0.00000000000E+00 -0.35746248194E+03  0.35746248194E+03  0.00000000000E+00 0.  1.
         24    2    1    2    0    0 -0.29668029472E+02 -0.23071335686E+02 -0.14285016975E+03  0.16590576654E+03  0.75538558825E+02 0.  0.
         23    2    1    2    0    0  0.14815853431E+02  0.68434346011E+02 -0.14942851907E+03  0.18869962550E+03  0.91519927483E+02 0.  0.
        -13    1    3    3    0    0 -0.47620110414E+02 -0.23772834509E+02 -0.13705754418E+03  0.14702922496E+03  0.00000000000E+00 0.  1.
         14    1    3    3    0    0  0.17952080942E+02  0.70149882235E+00 -0.57926255675E+01  0.18876541572E+02  0.00000000000E+00 0. -1.
        -11    1    4    4    0    0 -0.21905511453E+02 -0.13207675875E+02 -0.37083891920E+02  0.45050074073E+02  0.00000000000E+00 0. -1.
         11    1    4    4    0    0  0.36721364884E+02  0.81642021885E+02 -0.11234462714E+03  0.14364955143E+03  0.00000000000E+00 0.  1.
         -4    1    1    2    0  502  0.14852176041E+02 -0.45363010324E+02 -0.17277641171E+02  0.50763241851E+02  0.00000000000E+00 0.  1.
<scales pt_clust_5="13000.00000" pt_clust_6="13000.00000" pt_clust_7="13000.00000" pt_clust_8="13000.00000" pt_clust_9="13000.00000"></scales>
<clustering>
<clus scale="   75.539">  5  6 -1 -1</clus>
<clus scale="   84.372">  1  5  2 -1</clus>
<clus scale="   91.520">  7  8 -1 -1</clus>
<clus scale="   55.994">  7  9 -1 -1</clus>
<clus scale="  171.906">  2  5  1 -1</clus>
</clustering>
</event>
<event>
 9    2  0.2147756E-005  0.9482796E+03  0.7546771E-02  0.1009319E+00
          2   -1    0    0  502    0 -0.00000000000E+00  0.00000000000E+00  0.49426157013E+03  0.49426157013E+03  0.00000000000E+00 0. -1.
         21   -1    0    0  501  502  0.00000000000E+00 -0.00000000000E+00 -0.59225355866E+03  0.59225355866E+03  0.00000000000E+00 0. -1.
         24    2    1    2    0    0 -0.20185186880E+02 -0.12147117198E+02  0.86305530838E+02  0.12049246094E+03  0.80714275468E+02 0.  0.
         23    2    1    2    0    0 -0.40665337476E+03 -0.20969200607E+03 -0.78999937636E+02  0.47358857578E+03  0.93313687920E+02 0.  0.
        -13    1    3    3    0    0  0.25362208361E+02 -0.89120334667E+01  0.64526592425E+02  0.69902411142E+02  0.00000000000E+00 0.  1.
         14    1    3    3    0    0 -0.45547395242E+02 -0.32350837312E+01  0.21778938412E+02  0.50590049796E+02  0.00000000000E+00 0. -1.
        -11    1    4    4    0    0 -0.66275367856E+02 -0.32049414916E+00 -0.19919754497E+00  0.66276442124E+02  0.00000000000E+00 0.  1.
         11    1    4    4    0    0 -0.34037800690E+03 -0.20937151192E+03 -0.78800740091E+02  0.40731213366E+03  0.00000000000E+00 0. -1.
          1    1    1    2  501    0  0.42683856164E+03  0.22183912326E+03 -0.10529758173E+03  0.49243409207E+03  0.00000000000E+00 0. -1.
<scales pt_clust_5="13000.00000" pt_clust_6="13000.00000" pt_clust_7="13000.00000" pt_clust_8="13000.00000" pt_clust_9="13000.00000"></scales>
<clustering>
<clus scale="   80.714">  5  6 -1 -1</clus>
<clus scale="   84.082">  1  5  2 -1</clus>
<clus scale="   93.314">  7  8 -1 -1</clus>
<clus scale="  469.401">  7  9 -1 -1</clus>
<clus scale="  948.280">  2  5  1 -1</clus>
</clustering>
</event>
<event>
 9    2  0.2147756E-005  0.4396686E+03  0.7546771E-02  0.1060190E+00
         -1   -1    0    0    0  501 -0.00000000000E+00  0.00000000000E+00  0.20544470010E+03  0.20544470010E+03  0.00000000000E+00 0.  1.
         21   -1    0    0  501  502  0.00000000000E+00 -0.00000000000E+00 -0.49460331784E+03  0.49460331784E+03  0.00000000000E+00 0.  1.
         24    2    1    2    0    0 -0.87611795932E+02  0.14729344309E+03 -0.34797186282E+02  0.19210291321E+03  0.79507860786E+02 0.  0.
         23    2    1    2    0    0 -0.74486630376E+02  0.84389960488E+02 -0.32548463166E+02  0.14856495474E+03  0.91335753051E+02 0.  0.
        -11    1    3    3    0    0 -0.38359364001E+02  0.25470227993E+02  0.19395713390E+02  0.49963656976E+02  0.00000000000E+00 0.  1.
         12    1    3    3    0    0 -0.49252431931E+02  0.12182321510E+03 -0.54192899672E+02  0.14213925623E+03  0.00000000000E+00 0. -1.
        -13    1    4    4    0    0 -0.50454870753E+02  0.63388269609E+02 -0.64385159459E+02  0.10348533937E+03  0.00000000000E+00 0.  1.
         13    1    4    4    0    0 -0.24031759623E+02  0.21001690879E+02  0.31836696293E+02  0.45079615362E+02  0.00000000000E+00 0. -1.
         -2    1    1    2    0  502  0.16209842631E+03 -0.23168340358E+03 -0.22181296830E+03  0.35938014999E+03  0.00000000000E+00 0.  1.
<scales pt_clust_5="13000.00000" pt_clust_6="13000.00000" pt_clust_7="13000.00000" pt_clust_8="13000.00000" pt_clust_9="13000.00000"></scales>
<clustering>
<clus scale="   79.508">  5  6 -1 -1</clus>
<clus scale="   91.336">  7  8 -1 -1</clus>
<clus scale="  188.925">  1  5  2 -1</clus>
<clus scale="  190.165">  7  9 -1 -1</clus>
<clus scale="  439.669">  2  5  1 -1</clus>
</clustering>
</event>
<event>
 9    2  0.2147756E-005  0.2951647E+03  0.7546771E-02  0.1134789E+00
          2   -1    0    0  502    0 -0.00000000000E+00  0.00000000000E+00  0.15474562230E+04  0.15474562230E+04  0.00000000000E+00 0. -1.
         21   -1    0    0  501  502  0.00000000000E+00 -0.00000000000E+00 -0.23874948467E+02  0.23874948467E+02  0.00000000000E+00 0. -1.
         24    2    1    2    0    0  0.15874457399E+02  0.33019596505E+02  0.37230777549E+03  0.38282248738E+03  0.81226134964E+02 0.  0.
         23    2    1    2    0    0  0.36758956571E+02  0.10746182322E+03  0.53317889034E+03  0.55246917992E+03  0.89683896670E+02 0.  0.
        -13    1    3    3    0    0 -0.16860964210E+02 -0.20158800807E+02  0.12705115616E+03  0.12974076324E+03  0.00000000000E+00 0.  1.
         14    1    3    3    0    0  0.32735421609E+02  0.53178397312E+02  0.24525661933E+03  0.25308172414E+03  0.00000000000E+00 0. -1.
        -13    1    4    4    0    0  0.60004891326E+02  0.45719776680E+02  0.34219165499E+03  0.35040835279E+03  0.00000000000E+00 0.  1.
         13    1    4    4    0    0 -0.23245934755E+02  0.61742046537E+02  0.19098723535E+03  0.20206082713E+03  0.00000000000E+00 0. -1.
          1    1    1    2  501    0 -0.52633413970E+02 -0.14048141972E+03  0.61809460874E+03  0.63603950420E+03  0.00000000000E+00 0. -1.
<scales pt_clust_5="13000.00000" pt_clust_6="13000.00000" pt_clust_7="13000.00000" pt_clust_8="13000.00000" pt_clust_9="13000.00000"></scales>
<clustering>
<clus scale="   81.226">  5  6 -1 -1</clus>
<clus scale="   89.107">  1  5  2 -1</clus>
<clus scale="   89.684">  7  8 -1 -1</clus>
<clus scale="  130.471">  7  9 -1 -1</clus>
<clus scale="  295.165">  2  5  1 -1</clus>
</clustering>
</event>
<event>
 9    2  0.2147756E-005  0.8335839E+03  0.7546771E-02  0.9782905E-01
         21   -1    0    0  501  502  0.00000000000E+00  0.00000000000E+00  0.63113363556E+03  0.63113363556E+03  0.00000000000E+00 0. -1.
          4   -1    0    0  502    0 -0.00000000000E+00 -0.00000000000E+00 -0.53940186718E+03  0.53940186718E+03  0.00000000000E+00 0. -1.
         24    2    1    2    0    0  0.19568057549E+03  0.25748117390E+03  0.28078363308E+02  0.33452477424E+03  0.80814525675E+02 0.  0.
         23    2    1    2    0    0 -0.23246104640E+03 -0.18636937086E+03 -0.31829307086E+03  0.44576362466E+03  0.92860377036E+02 0.  0.
        -13    1    3    3    0    0  0.72997905801E+02  0.13905656348E+03  0.44461030758E+02  0.16322440183E+03  0.00000000000E+00 0.  1.
         14    1    3    3    0    0  0.12268266969E+03  0.11842461042E+03 -0.16382667450E+02  0.17130037241E+03  0.00000000000E+00 0. -1.
        -13    1    4    4    0    0 -0.21918463757E+03 -0.14530673100E+03 -0.23835902239E+03  0.35492390026E+03  0.00000000000E+00 0. -1.
         13    1    4    4    0    0 -0.13276408823E+02 -0.41062639859E+02 -0.79934048470E+02  0.90839724395E+02  0.00000000000E+00 0.  1.
          3    1    1    2  501    0  0.36780470911E+02 -0.71111803046E+02  0.38194647594E+03  0.39024710384E+03  0.00000000000E+00 0. -1.
<scales pt_clust_5="13000.00000" pt_clust_6="13000.00000" pt_clust_7="13000.00000" pt_clust_8="13000.00000" pt_clust_9="13000.00000"></scales>
<clustering>
<clus scale="   80.815">  5  6 -1 -1</clus>
<clus scale="   92.860">  7  8 -1 -1</clus>
<clus scale="   80.061">  7  9 -1 -1</clus>
<clus scale="  333.344">  2  5  1 -1</clus>
<clus scale="  833.584">  1  5  2 -1</clus>
</clustering>
</event>
<event>
 9    2  0.2147756E-005  0.4048393E+03  0.7546771E-02  0.1047430E+00
         -1   -1    0    0    0  501 -0.00000000000E+00  0.00000000000E+00  0.23065142963E+03  0.23065142963E+03  0.00000000000E+00 0.  1.
         21   -1    0    0  501  502  0.00000000000E+00 -0.00000000000E+00 -0.64993204696E+03  0.64993204696E+03  0.00000000000E+00 0.  1.
         24    2    1    2    0    0  0.32016675707E+03  0.12378761598E+03 -0.29883109062E+03  0.45820574766E+03  0.53125890673E+02 0.  0.
         23    2    1    2    0    0 -0.54227759712E+02 -0.51938991801E+02 -0.49317171743E+02  0.13786834941E+03  0.10458101906E+03 0.  0.
        -13    1    3    3    0    0  0.17333822154E+03  0.91805209621E+02 -0.18570870652E+03  0.27011490007E+03  0.00000000000E+00 0.  1.
         14    1    3    3    0    0  0.14682853553E+03  0.31982406359E+02 -0.11312238410E+03  0.18809084759E+03  0.00000000000E+00 0. -1.
        -13    1    4    4    0    0 -0.38474676409E+02 -0.65482890547E+02 -0.73703570248E+02  0.10583253728E+03  0.00000000000E+00 0.  1.
         13    1    4    4    0    0 -0.15753083304E+02  0.13543898746E+02  0.24386398505E+02  0.32035812131E+02  0.00000000000E+00 0. -1.
         -2    1    1    2    0  502 -0.26593899736E+03 -0.71848624178E+02 -0.71132354967E+02  0.28450937952E+03  0.00000000000E+00 0.  1.
<scales pt_clust_5="13000.00000" pt_clust_6="13000.00000" pt_clust_7="13000.00000" pt_clust_8="13000.00000" pt_clust_9="13000.00000"></scales>
<clustering>
<clus scale="   53.126">  5  6 -1 -1</clus>
<clus scale="  104.581">  7  8 -1 -1</clus>
<clus scale="  275.474">  7  9 -1 -1</clus>
<clus scale="  347.351">  1  5  2 -1</clus>
<clus scale="  404.839">  2  5  1 -1</clus>
</clustering>
</event>
<event>
 9    2  0.2147756E-005  0.8546919E+03  0.7546771E-02  0.1006468E+00
         21   -1    0    0  501  502  0.00000000000E+00  0.00000000000E+00  0.16217859989E+03  0.16217859989E+03  0.00000000000E+00 0. -1.
          2   -1    0    0  502    0 -0.00000000000E+00 -0.00000000000E+00 -0.15134512367E+04  0.15134512367E+04  0.00000000000E+00 0. -1.
         24    2    1    2    0    0  0.41486930989E+02 -0.87486020169E+02 -0.10059350957E+03  0.16080427740E+03  0.79774634405E+02 0.  0.
         23    2    1    2    0    0 -0.32938886560E+03  0.16305045218E+03 -0.11334937335E+04  0.11949350720E+04  0.89326969786E+02 0.  0.
        -13    1    3    3    0    0 -0.16169106707E+02 -0.58924699910E+02 -0.49990790725E+02  0.78947067257E+02  0.00000000000E+00 0.  1.
         14    1    3    3    0    0  0.57656037696E+02 -0.28561320259E+02 -0.50602718850E+02  0.81857210145E+02  0.00000000000E+00 0. -1.
        -11    1    4    4    0    0 -0.96039428659E+02  0.42521773712E+02 -0.20971527238E+03  0.23454673003E+03  0.00000000000E+00 0.  1.
         11    1    4    4    0    0 -0.23334943694E+03  0.12052867847E+03 -0.92377846113E+03  0.96038834192E+03  0.00000000000E+00 0. -1.
          1    1    1    2  501    0  0.28790193461E+03 -0.75564432010E+02 -0.11718539377E+03  0.31989048728E+03  0.00000000000E+00 0. -1.
<scales pt_clust_5="13000.00000" pt_clust_6="13000.00000" pt_clust_7="13000.00000" pt_clust_8="13000.00000" pt_clust_9="13000.00000"></scales>
<clustering>
<clus scale="   79.775">  5  6 -1 -1</clus>
<clus scale="   89.327">  7  8 -1 -1</clus>
<clus scale="  125.455">  2  5  1 -1</clus>
<clus scale="  307.729">  7  9 -1 -1</clus>
<clus scale="  854.692">  1  5  2 -1</clus>
</clustering>
</event>
<event>
 9    2  0.2147756E-005  0.2819882E+03  0.7546771E-02  0.1141829E+00
         21   -1    0    0  501  502  0.00000000000E+00  0.00000000000E+00  0.11797885966E+03  0.11797885966E+03  0.00000000000E+00 0.  1.
         -1   -1    0    0    0  501 -0.00000000000E+00 -0.00000000000E+00 -0.32244014333E+03  0.32244014333E+03  0.00000000000E+00 0.  1.
         24    2    1    2    0    0 -0.83468854110E+01  0.79878597554E+01  0.91316131231E+01  0.86668736126E+02  0.85408471851E+02 0.  0.
         23    2    1    2    0    0 -0.10803235510E+03 -0.11047586289E+02 -0.18195247460E+03  0.23310779563E+03  0.97157101939E+02 0.  0.
        -11    1    3    3    0    0 -0.18464126057E+02  0.35455077033E+02  0.30621949383E+02  0.50355637445E+02  0.00000000000E+00 0.  1.
         12    1    3    3    0    0  0.10117240646E+02 -0.27467217277E+02 -0.21490336260E+02  0.36313098681E+02  0.00000000000E+00 0. -1.
        -11    1    4    4    0    0 -0.88462830723E+02 -0.18639506608E+02 -0.58045611927E+02  0.10743554668E+03  0.00000000000E+00 0.  1.
         11    1    4    4    0    0 -0.19569524382E+02  0.75919203185E+01 -0.12390686267E+03  0.12567224895E+03  0.00000000000E+00 0. -1.
         -2    1    1    2    0  502  0.11637924052E+03  0.30597265340E+01 -0.31640422195E+02  0.12064247124E+03  0.00000000000E+00 0.  1.
<scales pt_clust_5="13000.00000" pt_clust_6="13000.00000" pt_clust_7="13000.00000" pt_clust_8="13000.00000" pt_clust_9="13000.00000"></scales>
<clustering>
<clus scale="   85.408">  5  6 -1 -1</clus>
<clus scale="   86.186">  2  5  1 -1</clus>
<clus scale="   97.157">  7  8 -1 -1</clus>
<clus scale="  114.257">  7  9 -1 -1</clus>
<clus scale="  281.988">  1  5  2 -1</clus>
</clustering>
</event>
<event>
 9    2  0.2147756E-005  0.3608209E+03  0.7546771E-02  0.1075231E+00
          2   -1    0    0  502    0 -0.00000000000E+00  0.00000000000E+00  0.44918048453E+03  0.44918048453E+03  0.00000000000E+00 0. -1.
         21   -1    0    0  501  502  0.00000000000E+00 -0.00000000000E+00 -0.30262370744E+03  0.30262370744E+03  0.00000000000E+00 0. -1.
         24    2    1    2    0    0 -0.19787584542E+03  0.71887848455E+02 -0.16132380487E+03  0.27748136799E+03  0.81534205154E+02 0.  0.
         23    2    1    2    0    0 -0.27757815993E+02  0.22682541323E+02  0.16246376873E+03  0.18971755812E+03  0.91177199329E+02 0.  0.
        -11    1    3    3    0    0 -0.41672891475E+02  0.50734682054E+01 -0.77259518431E+02  0.87928397868E+02  0.00000000000E+00 0.  1.
         12    1    3    3    0    0 -0.15620295394E+03  0.66814380250E+02 -0.84064286440E+02  0.18955297012E+03  0.00000000000E+00 0. -1.
        -11    1    4    4    0    0 -0.61183944029E+02  0.90392102188E+01  0.10074983315E+03  0.11821891222E+03  0.00000000000E+00 0.  1.
         11    1    4    4    0    0  0.33426128035E+02  0.13643331104E+02  0.61713935585E+02  0.71498645892E+02  0.00000000000E+00 0. -1.
          1    1    1    2  501    0  0.22563366141E+03 -0.94570389778E+02  0.14541681324E+03  0.28460526586E+03  0.00000000000E+00 0. -1.
<scales pt_clust_5="13000.00000" pt_clust_6="13000.00000" pt_clust_7="13000.00000" pt_clust_8="13000.00000" pt_clust_9="13000.00000"></scales>
<clustering>
<clus scale="   81.534">  5  6 -1 -1</clus>
<clus scale="   91.177">  7  8 -1 -1</clus>
<clus scale="  225.767">  1  5  2 -1</clus>
<clus scale="  129.168">  7  9 -1 -1</clus>
<clus scale="  360.821">  2  5  1 -1</clus>
</clustering>
</event>
<event>
 9    2  0.2147756E-005  0.1172172E+04  0.7546771E-02  0.9360419E-01
         21   -1    0    0  501  502  0.00000000000E+00  0.00000000000E+00  0.30894720221E+03  0.30894720221E+03  0.00000000000E+00 0. -1.
          2   -1    0    0  502    0 -0.00000000000E+00 -0.00000000000E+00 -0.23049668783E+04  0.23049668783E+04  0.00000000000E+00 0. -1.
         24    2    1    2    0    0 -0.48838230218E+03 -0.14070679807E+03 -0.56521916972E+03  0.76427177733E+03  0.79517065464E+02 0.  0.
         23    2    1    2    0    0  0.44749442850E+03 -0.91084136355E+02 -0.74530090977E+02  0.47310015156E+03  0.98597340275E+02 0.  0.
        -13    1    3    3    0    0 -0.31324950295E+02  0.10456820736E+02 -0.36183318134E+02  0.48988061016E+02  0.00000000000E+00 0.  1.
         14    1    3    3    0    0 -0.45705735189E+03 -0.15116361881E+03 -0.52903585158E+03  0.71528371632E+03  0.00000000000E+00 0. -1.
        -13    1    4    4    0    0  0.38098454465E+03 -0.46657552176E+02 -0.82897219846E+02  0.39268065841E+03  0.00000000000E+00 0. -1.
         13    1    4    4    0    0  0.66509883854E+02 -0.44426584179E+02  0.83671288692E+01  0.80419493144E+02  0.00000000000E+00 0.  1.
          1    1    1    2  501    0  0.40887873685E+02  0.23179093443E+03 -0.13562704154E+04  0.13765421517E+04  0.00000000000E+00 0. -1.
<scales pt_clust_5="13000.00000" pt_clust_6="13000.00000" pt_clust_7="13000.00000" pt_clust_8="13000.00000" pt_clust_9="13000.00000"></scales>
<clustering>
<clus scale="   79.517">  5  6 -1 -1</clus>
<clus scale="   98.597">  7  8 -1 -1</clus>
<clus scale="  235.370">  7  9 -1 -1</clus>
<clus scale="  514.431">  2  5  1 -1</clus>
<clus scale=" 1172.172">  1  5  2 -1</clus>
</clustering>
</event>
<event>
 9    2  0.2147756E-005  0.2893867E+03  0.7546771E-02  0.1139603E+00
         21   -1    0    0  501  502  0.00000000000E+00  0.00000000000E+00  0.29272255803E+02  0.29272255803E+02  0.00000000000E+00 0.  1.
          2   -1    0    0  502    0 -0.00000000000E+00 -0.00000000000E+00 -0.14766587036E+04  0.14766587036E+04  0.00000000000E+00 0. -1.
         24    2    1    2    0    0  0.17777526929E+02  0.23410166174E+00 -0.69053285657E+03  0.69563965578E+03  0.82236302308E+02 0.  0.
         23    2    1    2    0    0 -0.54078673059E+02  0.10280633383E+03 -0.23851359624E+03  0.28056358587E+03  0.91288252084E+02 0.  0.
        -13    1    3    3    0    0  0.20287623946E+02 -0.34293914115E+02 -0.20265062088E+03  0.20653071049E+03  0.00000000000E+00 0.  1.
         14    1    3    3    0    0 -0.25100970175E+01  0.34528015777E+02 -0.48788223569E+03  0.48910894529E+03  0.00000000000E+00 0. -1.
        -13    1    4    4    0    0 -0.68216806771E+02  0.38383981319E+02 -0.98671349354E+02  0.12594799693E+03  0.00000000000E+00 0.  1.
         13    1    4    4    0    0  0.14138133711E+02  0.64422352513E+02 -0.13984224689E+03  0.15461558894E+03  0.00000000000E+00 0. -1.
          1    1    1    2  501    0  0.36301146131E+02 -0.10304043549E+03 -0.51833999496E+03  0.52972771773E+03  0.00000000000E+00 0. -1.
<scales pt_clust_5="13000.00000" pt_clust_6="13000.00000" pt_clust_7="13000.00000" pt_clust_8="13000.00000" pt_clust_9="13000.00000"></scales>
<clustering>
<clus scale="   82.236">  5  6 -1 -1</clus>
<clus scale="   84.136">  2  5  1 -1</clus>
<clus scale="   91.288">  7  8 -1 -1</clus>
<clus scale="  113.611">  7  9 -1 -1</clus>
<clus scale="  289.387">  1  5  2 -1</clus>
</clustering>
</event>
<event>
 9    2  0.2147756E-005  0.2213430E+03  0.7546771E-02  0.1144225E+00
          2   -1    0    0  502    0 -0.00000000000E+00  0.00000000000E+00  0.10969156010E+04  0.10969156010E+04  0.00000000000E+00 0. -1.
         21   -1    0    0  501  502  0.00000000000E+00 -0.00000000000E+00 -0.55232191804E+02  0.55232191804E+02  0.00000000000E+00 0. -1.
         24    2    1    2    0    0 -0.10315659785E+02  0.14775773532E+03  0.82647744575E+03  0.84343053381E+03  0.79820648057E+02 0.  0.
         23    2    1    2    0    0  0.26389463219E+00 -0.30537614998E+02  0.13951232106E+03  0.16882043242E+03  0.90022414445E+02 0.  0.
        -13    1    3    3    0    0 -0.21153401051E+01  0.29208602753E+02  0.50258429636E+02  0.58168091665E+02  0.00000000000E+00 0.  1.
         14    1    3    3    0    0 -0.82003196796E+01  0.11854913256E+03  0.77621901611E+03  0.78526244215E+03  0.00000000000E+00 0. -1.
        -13    1    4    4    0    0  0.36539237806E+02  0.21945272385E+01  0.98321304479E+02  0.10491430200E+03  0.00000000000E+00 0.  1.
         13    1    4    4    0    0 -0.36275343174E+02 -0.32732142236E+02  0.41191016585E+02  0.63906130418E+02  0.00000000000E+00 0. -1.
          1    1    1    2  501    0  0.10051765152E+02 -0.11722012032E+03  0.75693642404E+02  0.13989682659E+03  0.00000000000E+00 0. -1.
<scales pt_clust_5="13000.00000" pt_clust_6="13000.00000" pt_clust_7="13000.00000" pt_clust_8="13000.00000" pt_clust_9="13000.00000"></scales>
<clustering>
<clus scale="   79.821">  5  6 -1 -1</clus>
<clus scale="   90.022">  7  8 -1 -1</clus>
<clus scale="  117.650">  7  9 -1 -1</clus>
<clus scale="  168.256">  1  5  2 -1</clus>
<clus scale="  221.343">  2  5  1 -1</clus>
</clustering>
</event>
<event>
 9    2  0.2147756E-005  0.1921871E+03  0.7546771E-02  0.1193046E+00
         21   -1    0    0  501  502  0.00000000000E+00  0.00000000000E+00  0.66917286694E+02  0.66917286694E+02  0.00000000000E+00 0.  1.
          2   -1    0    0  502    0 -0.00000000000E+00 -0.00000000000E+00 -0.36273024010E+03  0.36273024010E+03  0.00000000000E+00 0. -1.
         24    2    1    2    0    0  0.36634548260E+01 -0.20104460840E+02 -0.19576882333E+03  0.21298020694E+03  0.81348178295E+02 0.  0.
         23    2    1    2    0    0  0.41737122633E+02 -0.44225576866E+02 -0.79582088773E+02  0.13531462279E+03  0.90988181829E+02 0.  0.
        -13    1    3    3    0    0 -0.24691795573E+02 -0.30762441134E+02 -0.16557933912E+03  0.17021319014E+03  0.00000000000E+00 0.  1.
         14    1    3    3    0    0  0.28355250399E+02  0.10657980294E+02 -0.30189484214E+02  0.42767016803E+02  0.00000000000E+00 0. -1.
        -11    1    4    4    0    0 -0.27241121622E+02 -0.85671037324E+01 -0.37054334465E+02  0.46781381726E+02  0.00000000000E+00 0. -1.
         11    1    4    4    0    0  0.68978244255E+02 -0.35658473134E+02 -0.42527754308E+02  0.88533241064E+02  0.00000000000E+00 0.  1.
          1    1    1    2  501    0 -0.45400577459E+02  0.64330037706E+02 -0.20462041294E+02  0.81352697059E+02  0.00000000000E+00 0. -1.
<scales pt_clust_5="13000.00000" pt_clust_6="13000.00000" pt_clust_7="13000.00000" pt_clust_8="13000.00000" pt_clust_9="13000.00000"></scales>
<clustering>
<clus scale="   81.348">  5  6 -1 -1</clus>
<clus scale="   83.876">  2  5  1 -1</clus>
<clus scale="   90.988">  7  8 -1 -1</clus>
<clus scale="   72.830">  7  9 -1 -1</clus>
<clus scale="  192.187">  1  5  2 -1</clus>
</clustering>
</event>
<event>
 9    2  0.2147756E-005  0.2198308E+03  0.7546771E-02  0.1163189E+00
         21   -1    0    0  501  502  0.00000000000E+00  0.00000000000E+00  0.64269212680E+03  0.64269212680E+03  0.00000000000E+00 0. -1.
          2   -1    0    0  502    0 -0.00000000000E+00 -0.00000000000E+00 -0.42495328078E+02  0.42495328078E+02  0.00000000000E+00 0. -1.
         24    2    1    2    0    0  0.75880397967E+02  0.91970219534E+00  0.17827643473E+03  0.20943290956E+03  0.79504564519E+02 0.  0.
         23    2    1    2    0    0  0.24528010405E+02  0.37521312658E+02  0.13066967311E+03  0.16529275212E+03  0.90761546015E+02 0.  0.
        -11    1    3    3    0    0  0.18643185310E+01  0.21666181460E+02  0.89024267051E+02  0.91641798469E+02  0.00000000000E+00 0.  1.
         12    1    3    3    0    0  0.74016079436E+02 -0.20746479265E+02  0.89252167680E+02  0.11779111109E+03  0.00000000000E+00 0. -1.
        -13    1    4    4    0    0  0.44965077838E+02  0.19486242115E+02  0.12898850002E+03  0.13798407515E+03  0.00000000000E+00 0.  1.
         13    1    4    4    0    0 -0.20437067433E+02  0.18035070543E+02  0.16811730814E+01  0.27308676967E+02  0.00000000000E+00 0. -1.
          1    1    1    2  501    0 -0.10040840837E+03 -0.38441014854E+02  0.29125069089E+03  0.31046179320E+03  0.00000000000E+00 0. -1.
<scales pt_clust_5="13000.00000" pt_clust_6="13000.00000" pt_clust_7="13000.00000" pt_clust_8="13000.00000" pt_clust_9="13000.00000"></scales>
<clustering>
<clus scale="   79.505">  5  6 -1 -1</clus>
<clus scale="   90.762">  7  8 -1 -1</clus>
<clus scale="  107.515">  7  9 -1 -1</clus>
<clus scale="  109.907">  2  5  1 -1</clus>
<clus scale="  219.831">  1  5  2 -1</clus>
</clustering>
</event>
<event>
 9    2  0.2147756E-005  0.1592302E+03  0.7546771E-02  0.1197105E+00
         -3   -1    0    0    0  501 -0.00000000000E+00  0.00000000000E+00  0.52890101602E+02  0.52890101602E+02  0.00000000000E+00 0.  1.
         21   -1    0    0  501  502  0.00000000000E+00 -0.00000000000E+00 -0.53494105408E+03  0.53494105408E+03  0.00000000000E+00 0.  1.
         24    2    1    2    0    0 -0.86993084038E+02  0.60783488659E+02 -0.83578834953E+02  0.15872242864E+03  0.83336417839E+02 0.  0.
         23    2    1    2    0    0  0.61294646744E+02 -0.18112968812E+02 -0.31037111570E+03  0.32790117067E+03  0.84284250655E+02 0.  0.
        -13    1    3    3    0    0 -0.90266481593E+02  0.51451744664E+02 -0.35745428814E+02  0.10987745633E+03  0.00000000000E+00 0.  1.
         14    1    3    3    0    0  0.32733975550E+01  0.93317439952E+01 -0.47833406139E+02  0.48844972315E+02  0.00000000000E+00 0. -1.
        -11    1    4    4    0    0  0.56809973835E+02  0.11437507675E+02 -0.27744503377E+03  0.28343241959E+03  0.00000000000E+00 0.  1.
         11    1    4    4    0    0  0.44846729087E+01 -0.29550476487E+02 -0.32926081923E+02  0.44468751079E+02  0.00000000000E+00 0. -1.
         -4    1    1    2    0  502  0.25698437294E+02 -0.42670519847E+02 -0.88101001830E+02  0.10120755637E+03  0.00000000000E+00 0.  1.
<scales pt_clust_5="13000.00000" pt_clust_6="13000.00000" pt_clust_7="13000.00000" pt_clust_8="13000.00000" pt_clust_9="13000.00000"></scales>
<clustering>
<clus scale="   83.336">  5  6 -1 -1</clus>
<clus scale="   84.284">  7  8 -1 -1</clus>
<clus scale="   49.811">  7  9 -1 -1</clus>
<clus scale="  134.935">  1  5  2 -1</clus>
<clus scale="  159.230">  2  5  1 -1</clus>
</clustering>
</event>
<event>
 9    2  0.2147756E-005  0.1662724E+03  0.7546771E-02  0.1198410E+00
         21   -1    0    0  501  502  0.00000000000E+00  0.00000000000E+00  0.18239431352E+02  0.18239431352E+02  0.00000000000E+00 0. -1.
          2   -1    0    0  502    0 -0.00000000000E+00 -0.00000000000E+00 -0.11392074314E+04  0.11392074314E+04  0.00000000000E+00 0. -1.
         24    2    1    2    0    0 -0.19070235719E+02 -0.89719390107E+02 -0.58685133039E+03  0.59804796714E+03  0.69668100031E+02 0.  0.
         23    2    1    2    0    0  0.20693074807E+02  0.45584936944E+02 -0.23329768894E+03  0.25535524296E+03  0.90952177652E+02 0.  0.
        -11    1    3    3    0    0 -0.18511500296E+02 -0.34088506894E+02 -0.88847711489E+02  0.96946468643E+02  0.00000000000E+00 0.  1.
         12    1    3    3    0    0 -0.55873542307E+00 -0.55630883213E+02 -0.49800361891E+03  0.50110149850E+03  0.00000000000E+00 0. -1.
        -11    1    4    4    0    0  0.10560496853E+02  0.66158245756E+02 -0.10176460152E+03  0.12183789106E+03  0.00000000000E+00 0. -1.
         11    1    4    4    0    0  0.10132577954E+02 -0.20573308813E+02 -0.13153308742E+03  0.13351735190E+03  0.00000000000E+00 0.  1.
          1    1    1    2  501    0 -0.16228390876E+01  0.44134453163E+02 -0.30081898076E+03  0.30404365270E+03  0.00000000000E+00 0. -1.
<scales pt_clust_5="13000.00000" pt_clust_6="13000.00000" pt_clust_7="13000.00000" pt_clust_8="13000.00000" pt_clust_9="13000.00000"></scales>
<clustering>
<clus scale="   69.668">  5  6 -1 -1</clus>
<clus scale="   90.952">  7  8 -1 -1</clus>
<clus scale="   44.164">  7  9 -1 -1</clus>
<clus scale="  115.182">  2  5  1 -1</clus>
<clus scale="  166.272">  1  5  2 -1</clus>
</clustering>
</event>
<event>
 9    2  0.2147756E-005  0.5304684E+03  0.7546771E-02  0.1007535E+00
         -1   -1    0    0    0  501 -0.00000000000E+00  0.00000000000E+00  0.13269029392E+04  0.13269029392E+04  0.00000000000E+00 0.  1.
         21   -1    0    0  501  502  0.00000000000E+00 -0.00000000000E+00 -0.40507494481E+03  0.40507494481E+03  0.00000000000E+00 0.  1.
         24    2    1    2    0    0 -0.12997978504E+03  0.48392995748E+03  0.10673469481E+04  0.11819120011E+04  0.81262060788E+02 0.  0.
         23    2    1    2    0    0  0.34700735217E+02 -0.16451851584E+03 -0.92694842597E+02  0.21258676781E+03  0.91270569869E+02 0.  0.
        -11    1    3    3    0    0 -0.12834111185E+03  0.45511429293E+03  0.10385837844E+04  0.11411646409E+04  0.00000000000E+00 0.  1.
         12    1    3    3    0    0 -0.16386731854E+01  0.28815664544E+02  0.28763163749E+02  0.40747360182E+02  0.00000000000E+00 0. -1.
        -11    1    4    4    0    0  0.35640746413E+02 -0.51379242161E+02  0.55036920136E+01  0.62772445831E+02  0.00000000000E+00 0.  1.
         11    1    4    4    0    0 -0.94001119527E+00 -0.11313927368E+03 -0.98198534611E+02  0.14981432198E+03  0.00000000000E+00 0. -1.
         -2    1    1    2    0  502  0.95279049821E+02 -0.31941144164E+03 -0.52824111128E+02  0.33747911506E+03  0.00000000000E+00 0.  1.
<scales pt_clust_5="13000.00000" pt_clust_6="13000.00000" pt_clust_7="13000.00000" pt_clust_8="13000.00000" pt_clust_9="13000.00000"></scales>
<clustering>
<clus scale="   81.262">  5  6 -1 -1</clus>
<clus scale="   91.271">  7  8 -1 -1</clus>
<clus scale="  333.319">  7  9 -1 -1</clus>
<clus scale="  507.628">  1  5  2 -1</clus>
<clus scale="  530.468">  2  5  1 -1</clus>
</clustering>
</event>
<event>
 9    2  0.2147756E-005  0.1716297E+03  0.7546771E-02  0.1200794E+00
         21   -1    0    0  501  502  0.00000000000E+00  0.00000000000E+00  0.26573238421E+02  0.26573238421E+02  0.00000000000E+00 0. -1.
         -3   -1    0    0    0  501 -0.00000000000E+00 -0.00000000000E+00 -0.69352919064E+03  0.69352919064E+03  0.00000000000E+00 0.  1.
         24    2    1    2    0    0 -0.29028513814E+02 -0.65569875085E+02 -0.26466625658E+03  0.28273101652E+03  0.68895117380E+02 0.  0.
         23    2    1    2    0    0 -0.17987057790E+01  0.22914135925E+02 -0.13035854850E+03  0.16039419626E+03  0.90579545486E+02 0.  0.
        -13    1    3    3    0    0 -0.46879594205E+02 -0.66455079490E+02 -0.22415930013E+03  0.23845621354E+03  0.00000000000E+00 0.  1.
         14    1    3    3    0    0  0.17851080391E+02  0.88520440502E+00 -0.40506956451E+02  0.44274802979E+02  0.00000000000E+00 0. -1.
        -11    1    4    4    0    0  0.37232521421E+02  0.19293766585E+02 -0.10661404067E+03  0.11456467060E+03  0.00000000000E+00 0.  1.
         11    1    4    4    0    0 -0.39031227200E+02  0.36203693400E+01 -0.23744507828E+02  0.45829525667E+02  0.00000000000E+00 0. -1.
         -4    1    1    2    0  502  0.30827219593E+02  0.42655739159E+02 -0.27193114714E+03  0.27697721627E+03  0.00000000000E+00 0.  1.
<scales pt_clust_5="13000.00000" pt_clust_6="13000.00000" pt_clust_7="13000.00000" pt_clust_8="13000.00000" pt_clust_9="13000.00000"></scales>
<clustering>
<clus scale="   68.895">  5  6 -1 -1</clus>
<clus scale="   90.580">  7  8 -1 -1</clus>
<clus scale="   52.629">  7  9 -1 -1</clus>
<clus scale="   99.441">  2  5  1 -1</clus>
<clus scale="  171.630">  1  5  2 -1</clus>
</clustering>
</event>
<event>
 9    2  0.2147756E-005  0.2004597E+03  0.7546771E-02  0.1184450E+00
         21   -1    0    0  501  502  0.00000000000E+00  0.00000000000E+00  0.19532087558E+03  0.19532087558E+03  0.00000000000E+00 0. -1.
          4   -1    0    0  502    0 -0.00000000000E+00 -0.00000000000E+00 -0.10786537554E+03  0.10786537554E+03  0.00000000000E+00 0. -1.
         24    2    1    2    0    0  0.53992684976E+02 -0.78440172458E+01  0.19422414630E+02  0.91496401371E+02  0.70835179370E+02 0.  0.
         23    2    1    2    0    0 -0.89519221650E+02 -0.44719796445E+02  0.55751831638E+02  0.14706850256E+03  0.92235169408E+02 0.  0.
        -11    1    3    3    0    0  0.39792676067E+02  0.23886521150E+02 -0.81559196483E+01  0.47122627118E+02  0.00000000000E+00 0.  1.
         12    1    3    3    0    0  0.14200008909E+02 -0.31730538395E+02  0.27578334278E+02  0.44373774253E+02  0.00000000000E+00 0. -1.
        -13    1    4    4    0    0 -0.56181215644E+02 -0.25031775903E+02  0.80357342446E+02  0.10119397848E+03  0.00000000000E+00 0. -1.
         13    1    4    4    0    0 -0.33338006006E+02 -0.19688020543E+02 -0.24605510808E+02  0.45874524079E+02  0.00000000000E+00 0.  1.
          3    1    1    2  501    0  0.35526536675E+02  0.52563813691E+02  0.12281253776E+02  0.64621347186E+02  0.00000000000E+00 0. -1.
<scales pt_clust_5="13000.00000" pt_clust_6="13000.00000" pt_clust_7="13000.00000" pt_clust_8="13000.00000" pt_clust_9="13000.00000"></scales>
<clustering>
<clus scale="   70.835">  5  6 -1 -1</clus>
<clus scale="   89.411">  2  5  1 -1</clus>
<clus scale="   92.235">  7  8 -1 -1</clus>
<clus scale="   74.280">  7  9 -1 -1</clus>
<clus scale="  200.460">  1  5  2 -1</clus>
</clustering>
</event>
<event>
 9    2  0.2147756E-005  0.2524320E+03  0.7546771E-02  0.1132720E+00
         21   -1    0    0  501  502  0.00000000000E+00  0.00000000000E+00  0.14120719846E+03  0.14120719846E+03  0.00000000000E+00 0. -1.
          2   -1    0    0  502    0 -0.00000000000E+00 -0.00000000000E+00 -0.28904779323E+03  0.28904779323E+03  0.00000000000E+00 0. -1.
         24    2    1    2    0    0 -0.12416232574E+03  0.19881808759E+02 -0.74852240713E+02  0.16748282364E+03  0.81462069830E+02 0.  0.
         23    2    1    2    0    0 -0.11598556450E+02 -0.35056492538E+02  0.14887249807E+02  0.10034246043E+03  0.92105890029E+02 0.  0.
        -13    1    3    3    0    0 -0.38322883291E+02  0.39473710615E+02 -0.52857310696E+01  0.55269848619E+02  0.00000000000E+00 0.  1.
         14    1    3    3    0    0 -0.85839442451E+02 -0.19591901856E+02 -0.69566509644E+02  0.11221297502E+03  0.00000000000E+00 0. -1.
        -11    1    4    4    0    0  0.22086872111E+02 -0.37775249431E+02 -0.23113897499E+02  0.49487893942E+02  0.00000000000E+00 0.  1.
         11    1    4    4    0    0 -0.33685428560E+02  0.27187568931E+01  0.38001147306E+02  0.50854566490E+02  0.00000000000E+00 0. -1.
          1    1    1    2  501    0  0.13576088219E+03  0.15174683779E+02 -0.87875603870E+02  0.16242970762E+03  0.00000000000E+00 0. -1.
<scales pt_clust_5="13000.00000" pt_clust_6="13000.00000" pt_clust_7="13000.00000" pt_clust_8="13000.00000" pt_clust_9="13000.00000"></scales>
<clustering>
<clus scale="   81.462">  5  6 -1 -1</clus>
<clus scale="   92.106">  7  8 -1 -1</clus>
<clus scale="  136.606">  7  9 -1 -1</clus>
<clus scale="  149.825">  2  5  1 -1</clus>
<clus scale="  252.432">  1  5  2 -1</clus>
</clustering>
</event>
<event>
 9    2  0.2147756E-005  0.2963518E+03  0.7546771E-02  0.1116890E+00
         21   -1    0    0  501  502  0.00000000000E+00  0.00000000000E+00  0.10464038862E+03  0.10464038862E+03  0.00000000000E+00 0. -1.
          2   -1    0    0  502    0 -0.00000000000E+00 -0.00000000000E+00 -0.74378317198E+03  0.74378317198E+03  0.00000000000E+00 0. -1.
         24    2    1    2    0    0  0.83797047079E+02  0.71797410950E+02 -0.50472001285E+03  0.52301017696E+03  0.81366703959E+02 0.  0.
         23    2    1    2    0    0 -0.14258152405E+02 -0.15374123573E+03 -0.11491765651E+03  0.21618473463E+03  0.98438352450E+02 0.  0.
        -13    1    3    3    0    0  0.44788065015E+02  0.25906393288E+02 -0.88979588123E+02  0.10292948598E+03  0.00000000000E+00 0.  1.
         14    1    3    3    0    0  0.39008982065E+02  0.45891017662E+02 -0.41574042473E+03  0.42008069098E+03  0.00000000000E+00 0. -1.
        -13    1    4    4    0    0 -0.33687558837E+02 -0.66853982865E+01 -0.27588817209E+02  0.44053251931E+02  0.00000000000E+00 0.  1.
         13    1    4    4    0    0  0.19429406433E+02 -0.14705583745E+03 -0.87328839300E+02  0.17213148269E+03  0.00000000000E+00 0. -1.
          1    1    1    2  501    0 -0.69538894674E+02  0.81943824783E+02 -0.19505113995E+02  0.10922864901E+03  0.00000000000E+00 0. -1.
<scales pt_clust_5="13000.00000" pt_clust_6="13000.00000" pt_clust_7="13000.00000" pt_clust_8="13000.00000" pt_clust_9="13000.00000"></scales>
<clustering>
<clus scale="   81.367">  5  6 -1 -1</clus>
<clus scale="   98.438">  7  8 -1 -1</clus>
<clus scale="  107.473">  7  9 -1 -1</clus>
<clus scale="  137.103">  2  5  1 -1</clus>
<clus scale="  296.352">  1  5  2 -1</clus>
</clustering>
</event>
<event>
 9    2  0.2147756E-005  0.2078973E+03  0.7546771E-02  0.1179733E+00
          2   -1    0    0  502    0 -0.00000000000E+00  0.00000000000E+00  0.28151814553E+03  0.28151814553E+03  0.00000000000E+00 0. -1.
         21   -1    0    0  501  502  0.00000000000E+00 -0.00000000000E+00 -0.85438852425E+02  0.85438852425E+02  0.00000000000E+00 0.  1.
         24    2    1    2    0    0 -0.28913871862E+02  0.25789414165E+02  0.11099106137E+03  0.14232106161E+03  0.80219467739E+02 0.  0.
         23    2    1    2    0    0 -0.43070364713E+02  0.39771986817E+02  0.61421945269E+02  0.12443553351E+03  0.90965264730E+02 0.  0.
        -11    1    3    3    0    0  0.10489650366E+02  0.44205598868E+02  0.60934491845E+02  0.76007762975E+02  0.00000000000E+00 0.  1.
         12    1    3    3    0    0 -0.39403522229E+02 -0.18416184703E+02  0.50056569523E+02  0.66313298632E+02  0.00000000000E+00 0. -1.
        -13    1    4    4    0    0 -0.53884460421E+02  0.62183776952E+02  0.39499692523E+02  0.91272026932E+02  0.00000000000E+00 0.  1.
         13    1    4    4    0    0  0.10814095708E+02 -0.22411790135E+02  0.21922252746E+02  0.33163506577E+02  0.00000000000E+00 0. -1.
          1    1    1    2  501    0  0.71984236576E+02 -0.65561400982E+02  0.23666286471E+02  0.10020040284E+03  0.00000000000E+00 0. -1.
<scales pt_clust_5="13000.00000" pt_clust_6="13000.00000" pt_clust_7="13000.00000" pt_clust_8="13000.00000" pt_clust_9="13000.00000"></scales>
<clustering>
<clus scale="   80.219">  5  6 -1 -1</clus>
<clus scale="   89.086">  1  5  2 -1</clus>
<clus scale="   90.965">  7  8 -1 -1</clus>
<clus scale="   81.872">  7  9 -1 -1</clus>
<clus scale="  207.897">  2  5  1 -1</clus>
</clustering>
</event>
<event>
 9    2  0.2147756E-005  0.2290681E+03  0.7546771E-02  0.1159254E+00
         21   -1    0    0  501  502  0.00000000000E+00  0.00000000000E+00  0.43023767125E+03  0.43023767125E+03  0.00000000000E+00 0.  1.
          2   -1    0    0  502    0 -0.00000000000E+00 -0.00000000000E+00 -0.15860765168E+03  0.15860765168E+03  0.00000000000E+00 0. -1.
         24    2    1    2    0    0 -0.68982517626E+02  0.17489674553E+02 -0.10404349782E+03  0.14884214201E+03  0.79148324981E+02 0.  0.
         23    2    1    2    0    0  0.10722682648E+03  0.33736947754E+02  0.16419301202E+03  0.21907152149E+03  0.91636304861E+02 0.  0.
        -13    1    3    3    0    0 -0.10630453794E+02 -0.28739999862E+02 -0.20120371781E+02  0.36658198272E+02  0.00000000000E+00 0.  1.
         14    1    3    3    0    0 -0.58352063831E+02  0.46229674415E+02 -0.83923126035E+02  0.11218394374E+03  0.00000000000E+00 0. -1.
        -13    1    4    4    0    0  0.55198780839E+01  0.32635341914E+02  0.10414461441E+02  0.34698639786E+02  0.00000000000E+00 0. -1.
         13    1    4    4    0    0  0.10170694840E+03  0.11016058400E+01  0.15377855058E+03  0.18437288170E+03  0.00000000000E+00 0.  1.
          1    1    1    2  501    0 -0.38244308856E+02 -0.51226622307E+02  0.21148050536E+03  0.22093165943E+03  0.00000000000E+00 0. -1.
<scales pt_clust_5="13000.00000" pt_clust_6="13000.00000" pt_clust_7="13000.00000" pt_clust_8="13000.00000" pt_clust_9="13000.00000"></scales>
<clustering>
<clus scale="   79.148">  5  6 -1 -1</clus>
<clus scale="   91.636">  7  8 -1 -1</clus>
<clus scale="   63.928">  7  9 -1 -1</clus>
<clus scale="  106.437">  2  5  1 -1</clus>
<clus scale="  229.068">  1  5  2 -1</clus>
</clustering>
</event>
<event>
 9    2  0.2147756E-005  0.2629347E+03  0.7546771E-02  0.1140333E+00
         21   -1    0    0  501  502  0.00000000000E+00  0.00000000000E+00  0.24969707168E+02  0.24969707168E+02  0.00000000000E+00 0. -1.
          2   -1    0    0  502    0 -0.00000000000E+00 -0.00000000000E+00 -0.14649961912E+04  0.14649961912E+04  0.00000000000E+00 0. -1.
         24    2    1    2    0    0 -0.59498288340E+02  0.45146120226E+02 -0.28929897927E+03  0.30958102896E+03  0.81045022044E+02 0.  0.
         23    2    1    2    0    0 -0.60511266799E+02  0.30342853489E+02 -0.65633039767E+03  0.66606067400E+03  0.91021581952E+02 0.  0.
        -13    1    3    3    0    0  0.18174815956E+02  0.12071842228E+02 -0.99333166643E+02  0.10170118635E+03  0.00000000000E+00 0.  1.
         14    1    3    3    0    0 -0.77673104296E+02  0.33074277998E+02 -0.18996581263E+03  0.20787984261E+03  0.00000000000E+00 0. -1.
        -13    1    4    4    0    0 -0.12379247943E+02 -0.32198933774E+02 -0.19414467842E+03  0.19718563151E+03  0.00000000000E+00 0.  1.
         13    1    4    4    0    0 -0.48132018857E+02  0.62541787263E+02 -0.46218571925E+03  0.46887504249E+03  0.00000000000E+00 0. -1.
          1    1    1    2  501    0  0.12000955514E+03 -0.75488973715E+02 -0.49439710706E+03  0.51432419537E+03  0.00000000000E+00 0. -1.
<scales pt_clust_5="13000.00000" pt_clust_6="13000.00000" pt_clust_7="13000.00000" pt_clust_8="13000.00000" pt_clust_9="13000.00000"></scales>
<clustering>
<clus scale="   81.045">  5  6 -1 -1</clus>
<clus scale="   91.022">  7  8 -1 -1</clus>
<clus scale="  110.211">  2  5  1 -1</clus>
<clus scale="  109.619">  7  9 -1 -1</clus>
<clus scale="  262.935">  1  5  2 -1</clus>
</clustering>
</event>
<event>
 9    2  0.2147756E-005  0.2013067E+03  0.7546771E-02  0.1174574E+00
         -1   -1    0    0    0  501 -0.00000000000E+00  0.00000000000E+00  0.97263022215E+02  0.97263022215E+02  0.00000000000E+00 0.  1.
         21   -1    0    0  501  502  0.00000000000E+00 -0.00000000000E+00 -0.25027132931E+03  0.25027132931E+03  0.00000000000E+00 0.  1.
         24    2    1    2    0    0  0.56259476893E+02  0.20833314563E+02 -0.63432676293E+02  0.12719782516E+03  0.92500954412E+02 0.  0.
         23    2    1    2    0    0 -0.10955650839E+03 -0.31520723846E+02 -0.76674004279E+02  0.16446841157E+03  0.90414439725E+02 0.  0.
        -13    1    3    3    0    0  0.27022776809E+02 -0.81353792863E+01 -0.78461122705E+02  0.83382028272E+02  0.00000000000E+00 0.  1.
         14    1    3    3    0    0  0.29236700084E+02  0.28968693850E+02  0.15028446412E+02  0.43815796886E+02  0.00000000000E+00 0. -1.
        -13    1    4    4    0    0 -0.91939816842E+02 -0.59683287253E+02 -0.71443889981E+02  0.13084056754E+03  0.00000000000E+00 0.  1.
         13    1    4    4    0    0 -0.17616691548E+02  0.28162563408E+02 -0.52301142977E+01  0.33627844033E+02  0.00000000000E+00 0. -1.
         -2    1    1    2    0  502  0.53297031497E+02  0.10687409283E+02 -0.12901626521E+02  0.55868114792E+02  0.00000000000E+00 0.  1.
<scales pt_clust_5="13000.00000" pt_clust_6="13000.00000" pt_clust_7="13000.00000" pt_clust_8="13000.00000" pt_clust_9="13000.00000"></scales>
<clustering>
<clus scale="   90.414">  7  8 -1 -1</clus>
<clus scale="   54.358">  7  9 -1 -1</clus>
<clus scale="   92.501">  5  6 -1 -1</clus>
<clus scale="  110.252">  1  5  2 -1</clus>
<clus scale="  201.307">  2  5  1 -1</clus>
</clustering>
</event>
<event>
 9    2  0.2147756E-005  0.1970954E+03  0.7546771E-02  0.1176256E+00
          2   -1    0    0  502    0 -0.00000000000E+00  0.00000000000E+00  0.38921449419E+03  0.38921449419E+03  0.00000000000E+00 0. -1.
         21   -1    0    0  501  502  0.00000000000E+00 -0.00000000000E+00 -0.79514616539E+02  0.79514616539E+02  0.00000000000E+00 0. -1.
         24    2    1    2    0    0 -0.69152998939E+02  0.41471494487E+02  0.14824235438E+02  0.11404862285E+03  0.79279936306E+02 0.  0.
         23    2    1    2    0    0  0.24869694143E+02  0.40049380526E+02  0.17870811506E+03  0.20601455866E+03  0.91010732461E+02 0.  0.
        -13    1    3    3    0    0 -0.34479398797E+02  0.41539772063E+02  0.43281046098E+02  0.69192705944E+02  0.00000000000E+00 0.  1.
         14    1    3    3    0    0 -0.34673600142E+02 -0.68277576103E-01 -0.28456810660E+02  0.44855916907E+02  0.00000000000E+00 0. -1.
        -11    1    4    4    0    0 -0.20289417204E+02  0.35856356919E+02  0.14142530670E+03  0.14730395839E+03  0.00000000000E+00 0.  1.
         11    1    4    4    0    0  0.45159111347E+02  0.41930236072E+01  0.37282808361E+02  0.58710600269E+02  0.00000000000E+00 0. -1.
          1    1    1    2  501    0  0.44283304796E+02 -0.81520875013E+02  0.11616752716E+03  0.14866592922E+03  0.00000000000E+00 0. -1.
<scales pt_clust_5="13000.00000" pt_clust_6="13000.00000" pt_clust_7="13000.00000" pt_clust_8="13000.00000" pt_clust_9="13000.00000"></scales>
<clustering>
<clus scale="   79.280">  5  6 -1 -1</clus>
<clus scale="   91.011">  7  8 -1 -1</clus>
<clus scale="   92.772">  7  9 -1 -1</clus>
<clus scale="  113.081">  1  5  2 -1</clus>
<clus scale="  197.095">  2  5  1 -1</clus>
</clustering>
</event>
<event>
 9    2  0.2147756E-005  0.3207416E+03  0.7546771E-02  0.1103256E+00
          4   -1    0    0  502    0 -0.00000000000E+00  0.00000000000E+00  0.54925515273E+03  0.54925515273E+03  0.00000000000E+00 0. -1.
         21   -1    0    0  501  502  0.00000000000E+00 -0.00000000000E+00 -0.10225569792E+03  0.10225569792E+03  0.00000000000E+00 0. -1.
         24    2    1    2    0    0 -0.11523742232E+03  0.58435279511E+02  0.15327347848E+03  0.21659694155E+03  0.82019086132E+02 0.  0.
         23    2    1    2    0    0  0.31182645696E+02 -0.36573591108E+02 -0.25920336915E+02  0.10367848758E+03  0.88132740584E+02 0.  0.
        -11    1    3    3    0    0 -0.47998781696E+02 -0.12149778914E+02  0.82177117390E+02  0.95940496113E+02  0.00000000000E+00 0.  1.
         12    1    3    3    0    0 -0.67238640620E+02  0.70585058425E+02  0.71096361094E+02  0.12065644544E+03  0.00000000000E+00 0. -1.
        -11    1    4    4    0    0 -0.97383520041E+01  0.23424811349E+02  0.29220914216E+01  0.25536168560E+02  0.00000000000E+00 0.  1.
         11    1    4    4    0    0  0.40920997700E+02 -0.59998402457E+02 -0.28842428336E+02  0.78142319024E+02  0.00000000000E+00 0. -1.
          3    1    1    2  501    0  0.84054776620E+02 -0.21861688403E+02  0.31964631324E+03  0.33123542151E+03  0.00000000000E+00 0. -1.
<scales pt_clust_5="13000.00000" pt_clust_6="13000.00000" pt_clust_7="13000.00000" pt_clust_8="13000.00000" pt_clust_9="13000.00000"></scales>
<clustering>
<clus scale="   82.019">  5  6 -1 -1</clus>
<clus scale="   88.133">  7  8 -1 -1</clus>
<clus scale="   86.851">  7  9 -1 -1</clus>
<clus scale="  153.041">  1  5  2 -1</clus>
<clus scale="  320.742">  2  5  1 -1</clus>
</clustering>
</event>
<event>
 9    2  0.2147756E-005  0.3294779E+03  0.7546771E-02  0.1116120E+00
         21   -1    0    0  501  502  0.00000000000E+00  0.00000000000E+00  0.40629904091E+02  0.40629904091E+02  0.00000000000E+00 0. -1.
          2   -1    0    0  502    0 -0.00000000000E+00 -0.00000000000E+00 -0.11685534495E+04  0.11685534495E+04  0.00000000000E+00 0. -1.
         24    2    1    2    0    0 -0.44519543174E+02 -0.44562389853E+02 -0.34696062023E+03  0.36156388344E+03  0.79868476248E+02 0.  0.
         23    2    1    2    0    0  0.14567107367E+03  0.10957038977E+02 -0.23292446102E+03  0.28931210864E+03  0.90042063818E+02 0.  0.
        -11    1    3    3    0    0 -0.48740433334E+02  0.64630016998E+01 -0.19943469479E+03  0.20540593399E+03  0.00000000000E+00 0.  1.
         12    1    3    3    0    0  0.42208901598E+01 -0.51025391553E+02 -0.14752592544E+03  0.15615794944E+03  0.00000000000E+00 0. -1.
        -11    1    4    4    0    0  0.12814658168E+03  0.29574144218E+02 -0.13646938684E+03  0.18952590838E+03  0.00000000000E+00 0. -1.
         11    1    4    4    0    0  0.17524491989E+02 -0.18617105241E+02 -0.96455074182E+02  0.99786200261E+02  0.00000000000E+00 0.  1.
          1    1    1    2  501    0 -0.10115153050E+03  0.33605350877E+02 -0.54803846415E+03  0.55830736151E+03  0.00000000000E+00 0. -1.
<scales pt_clust_5="13000.00000" pt_clust_6="13000.00000" pt_clust_7="13000.00000" pt_clust_8="13000.00000" pt_clust_9="13000.00000"></scales>
<clustering>
<clus scale="   79.868">  5  6 -1 -1</clus>
<clus scale="   90.042">  7  8 -1 -1</clus>
<clus scale="  101.719">  2  5  1 -1</clus>
<clus scale="  131.437">  7  9 -1 -1</clus>
<clus scale="  329.478">  1  5  2 -1</clus>
</clustering>
</event>
<event>
 9    2  0.2147756E-005  0.2632001E+03  0.7546771E-02  0.1117503E+00
          2   -1    0    0  502    0 -0.00000000000E+00  0.00000000000E+00  0.66212307102E+03  0.66212307102E+03  0.00000000000E+00 0. -1.
         21   -1    0    0  501  502  0.00000000000E+00 -0.00000000000E+00 -0.78507423395E+02  0.78507423395E+02  0.00000000000E+00 0. -1.
         24    2    1    2    0    0  0.17131647388E+03  0.31508048957E+02  0.25323140479E+03  0.31822307568E+03  0.82448105824E+02 0.  0.
         23    2    1    2    0    0 -0.23053173391E+02  0.29178150078E+02  0.16499472082E+03  0.19214992153E+03  0.91189479659E+02 0.  0.
        -11    1    3    3    0    0  0.21120045067E+02  0.31550407716E+02  0.26671149817E+02  0.46398650446E+02  0.00000000000E+00 0.  1.
         12    1    3    3    0    0  0.15019642881E+03 -0.42358759227E-01  0.22656025497E+03  0.27182442523E+03  0.00000000000E+00 0. -1.
        -13    1    4    4    0    0 -0.27995873731E+02 -0.18102524829E+02  0.12697267090E+03  0.13127653830E+03  0.00000000000E+00 0.  1.
         13    1    4    4    0    0  0.49427003406E+01  0.47280674908E+02  0.38022049916E+02  0.60873383232E+02  0.00000000000E+00 0. -1.
          1    1    1    2  501    0 -0.14826330049E+03 -0.60686199035E+02  0.16538952202E+03  0.23025749720E+03  0.00000000000E+00 0. -1.
<scales pt_clust_5="13000.00000" pt_clust_6="13000.00000" pt_clust_7="13000.00000" pt_clust_8="13000.00000" pt_clust_9="13000.00000"></scales>
<clustering>
<clus scale="   82.448">  5  6 -1 -1</clus>
<clus scale="   91.189">  7  8 -1 -1</clus>
<clus scale="  160.203">  7  9 -1 -1</clus>
<clus scale="  192.717">  1  5  2 -1</clus>
<clus scale="  263.200">  2  5  1 -1</clus>
</clustering>
</event>
<event>
 9    2  0.2147756E-005  0.1676108E+03  0.7546771E-02  0.1209680E+00
         21   -1    0    0  501  502  0.00000000000E+00  0.00000000000E+00  0.11295613637E+03  0.11295613637E+03  0.00000000000E+00 0. -1.
          2   -1    0    0  502    0 -0.00000000000E+00 -0.00000000000E+00 -0.46079889231E+03  0.46079889231E+03  0.00000000000E+00 0. -1.
         24    2    1    2    0    0 -0.27892947838E+02  0.28052988646E+02 -0.39088368834E+03  0.40070617742E+03  0.78806066404E+02 0.  0.
         23    2    1    2    0    0 -0.12225739845E+02  0.31622603939E+00 -0.18936138504E+02  0.93957266622E+02  0.91213057705E+02 0.  0.
        -13    1    3    3    0    0 -0.45514904499E+02 -0.12371200285E+00 -0.13048526169E+03  0.13819560541E+03  0.00000000000E+00 0.  1.
         14    1    3    3    0    0  0.17621956661E+02  0.28176700649E+02 -0.26039842665E+03  0.26251057201E+03  0.00000000000E+00 0. -1.
        -13    1    4    4    0    0 -0.15732695263E+02  0.43663748912E+02 -0.19802016771E+02  0.50459494027E+02  0.00000000000E+00 0. -1.
         13    1    4    4    0    0  0.35069554179E+01 -0.43347522872E+02  0.86587826716E+00  0.43497772594E+02  0.00000000000E+00 0.  1.
          1    1    1    2  501    0  0.40118687683E+02 -0.28369214686E+02  0.61977070899E+02  0.79091584638E+02  0.00000000000E+00 0. -1.
<scales pt_clust_5="13000.00000" pt_clust_6="13000.00000" pt_clust_7="13000.00000" pt_clust_8="13000.00000" pt_clust_9="13000.00000"></scales>
<clustering>
<clus scale="   78.806">  5  6 -1 -1</clus>
<clus scale="   88.178">  2  5  1 -1</clus>
<clus scale="   91.213">  7  8 -1 -1</clus>
<clus scale="   44.015">  7  9 -1 -1</clus>
<clus scale="  167.611">  1  5  2 -1</clus>
</clustering>
</event>
<event>
 9    2  0.2147756E-005  0.9796067E+03  0.7546771E-02  0.1007679E+00
         21   -1    0    0  501  502  0.00000000000E+00  0.00000000000E+00  0.45280978264E+03  0.45280978264E+03  0.00000000000E+00 0. -1.
          2   -1    0    0  502    0 -0.00000000000E+00 -0.00000000000E+00 -0.64118690058E+03  0.64118690058E+03  0.00000000000E+00 0. -1.
         24    2    1    2    0    0  0.18650132047E+01  0.43531356838E+01 -0.71432859004E+02  0.10743433830E+03  0.80106526802E+02 0.  0.
         23    2    1    2    0    0  0.12904803479E+03  0.44428833414E+03 -0.19973002108E+03  0.51193525236E+03  0.90222514689E+02 0.  0.
        -13    1    3    3    0    0 -0.20326293004E+02  0.27423952998E+02 -0.66897692639E+02  0.75103479718E+02  0.00000000000E+00 0.  1.
         14    1    3    3    0    0  0.22191306208E+02 -0.23070817315E+02 -0.45351663644E+01  0.32330858583E+02  0.00000000000E+00 0. -1.
        -11    1    4    4    0    0  0.10436769387E+03  0.27866208710E+03 -0.86827550371E+02  0.30997451155E+03  0.00000000000E+00 0.  1.
         11    1    4    4    0    0  0.24680340924E+02  0.16562624704E+03 -0.11290247070E+03  0.20196074081E+03  0.00000000000E+00 0. -1.
          1    1    1    2  501    0 -0.13091304800E+03 -0.44864146982E+03  0.82785762138E+02  0.47462709256E+03  0.00000000000E+00 0. -1.
<scales pt_clust_5="13000.00000" pt_clust_6="13000.00000" pt_clust_7="13000.00000" pt_clust_8="13000.00000" pt_clust_9="13000.00000"></scales>
<clustering>
<clus scale="   80.107">  5  6 -1 -1</clus>
<clus scale="   80.246">  2  5  1 -1</clus>
<clus scale="   90.223">  7  8 -1 -1</clus>
<clus scale="  465.682">  7  9 -1 -1</clus>
<clus scale="  979.607">  1  5  2 -1</clus>
</clustering>
</event>
<event>
 9    2  0.2147756E-005  0.1941172E+03  0.7546771E-02  0.1189295E+00
         21   -1    0    0  501  502  0.00000000000E+00  0.00000000000E+00  0.84252573059E+02  0.84252573059E+02  0.00000000000E+00 0. -1.
          2   -1    0    0  502    0 -0.00000000000E+00 -0.00000000000E+00 -0.23697266090E+03  0.23697266090E+03  0.00000000000E+00 0. -1.
         24    2    1    2    0    0  0.31766315102E+02 -0.29001308568E+01 -0.44612533848E+02  0.99034465840E+02  0.82462341185E+02 0.  0.
         23    2    1    2    0    0  0.96097384328E+01 -0.68056255378E+02 -0.62417911445E+02  0.12819965157E+03  0.88403359810E+02 0.  0.
        -11    1    3    3    0    0  0.98459801624E+01 -0.42243607778E+02 -0.21468872407E+02  0.48398121925E+02  0.00000000000E+00 0.  1.
         12    1    3    3    0    0  0.21920334940E+02  0.39343476922E+02 -0.23143661441E+02  0.50636343915E+02  0.00000000000E+00 0. -1.
        -11    1    4    4    0    0 -0.21893285448E+02 -0.22588740861E+02 -0.65642538726E+02  0.72790865167E+02  0.00000000000E+00 0.  1.
         11    1    4    4    0    0  0.31503023880E+02 -0.45467514518E+02  0.32246272806E+01  0.55408786407E+02  0.00000000000E+00 0. -1.
          1    1    1    2  501    0 -0.41376053535E+02  0.70956386235E+02 -0.45689642552E+02  0.93991116549E+02  0.00000000000E+00 0. -1.
<scales pt_clust_5="13000.00000" pt_clust_6="13000.00000" pt_clust_7="13000.00000" pt_clust_8="13000.00000" pt_clust_9="13000.00000"></scales>
<clustering>
<clus scale="   82.462">  5  6 -1 -1</clus>
<clus scale="   88.403">  7  8 -1 -1</clus>
<clus scale="   82.139">  7  9 -1 -1</clus>
<clus scale="   88.417">  2  5  1 -1</clus>
<clus scale="  194.117">  1  5  2 -1</clus>
</clustering>
</event>
<event>
 9    2  0.2147756E-005  0.1945563E+03  0.7546771E-02  0.1186463E+00
         21   -1    0    0  501  502  0.00000000000E+00  0.00000000000E+00  0.39788047730E+02  0.39788047730E+02  0.00000000000E+00 0.  1.
          2   -1    0    0  502    0 -0.00000000000E+00 -0.00000000000E+00 -0.57389960834E+03  0.57389960834E+03  0.00000000000E+00 0. -1.
         24    2    1    2    0    0 -0.24569392805E+01 -0.47261318691E+02 -0.26940953796E+03  0.28517691951E+03  0.80651766762E+02 0.  0.
         23    2    1    2    0    0  0.47649537382E+02 -0.68628052006E+00 -0.82757026188E+02  0.13500279117E+03  0.95425776630E+02 0.  0.
        -13    1    3    3    0    0 -0.11057106797E+02 -0.18984691998E+02 -0.10085850391E+02  0.24174418692E+02  0.00000000000E+00 0.  1.
         14    1    3    3    0    0  0.86001675163E+01 -0.28276626692E+02 -0.25932368757E+03  0.26100250082E+03  0.00000000000E+00 0. -1.
        -13    1    4    4    0    0  0.22986981201E+02 -0.19010860117E+02 -0.96747957717E+02  0.10124219194E+03  0.00000000000E+00 0. -1.
         13    1    4    4    0    0  0.24662556180E+02  0.18324579597E+02  0.13990931530E+02  0.33760599222E+02  0.00000000000E+00 0.  1.
          1    1    1    2  501    0 -0.45192598101E+02  0.47947599211E+02 -0.18194499647E+03  0.19350794540E+03  0.00000000000E+00 0. -1.
<scales pt_clust_5="13000.00000" pt_clust_6="13000.00000" pt_clust_7="13000.00000" pt_clust_8="13000.00000" pt_clust_9="13000.00000"></scales>
<clustering>
<clus scale="   80.652">  5  6 -1 -1</clus>
<clus scale="   93.511">  2  5  1 -1</clus>
<clus scale="   95.426">  7  8 -1 -1</clus>
<clus scale="   50.106">  7  9 -1 -1</clus>
<clus scale="  194.556">  1  5  2 -1</clus>
</clustering>
</event>
<event>
 9    2  0.2147756E-005  0.2297742E+03  0.7546771E-02  0.1159705E+00
         21   -1    0    0  501  502  0.00000000000E+00  0.00000000000E+00  0.39447239693E+02  0.39447239693E+02  0.00000000000E+00 0.  1.
          2   -1    0    0  502    0 -0.00000000000E+00 -0.00000000000E+00 -0.99381607306E+03  0.99381607306E+03  0.00000000000E+00 0. -1.
         24    2    1    2    0    0 -0.30050178063E+02  0.59362848588E+02 -0.61266864140E+03  0.62149250419E+03  0.80393455040E+02 0.  0.
         23    2    1    2    0    0 -0.38813782598E+02 -0.64440199018E+02 -0.89797630102E+02  0.15057562247E+03  0.94606314489E+02 0.  0.
        -11    1    3    3    0    0 -0.15204820861E+02 -0.18876143554E+02 -0.11918144432E+03  0.12162118254E+03  0.00000000000E+00 0.  1.
         12    1    3    3    0    0 -0.14845357202E+02  0.78238992142E+02 -0.49348719709E+03  0.49987132165E+03  0.00000000000E+00 0. -1.
        -13    1    4    4    0    0 -0.28235698813E+02 -0.36521538529E+01 -0.83892643936E+02  0.88592147630E+02  0.00000000000E+00 0. -1.
         13    1    4    4    0    0 -0.10578083784E+02 -0.60788045165E+02 -0.59049861663E+01  0.61983474840E+02  0.00000000000E+00 0.  1.
          1    1    1    2  501    0  0.68863960661E+02  0.50773504308E+01 -0.25190256186E+03  0.26119518609E+03  0.00000000000E+00 0. -1.
<scales pt_clust_5="13000.00000" pt_clust_6="13000.00000" pt_clust_7="13000.00000" pt_clust_8="13000.00000" pt_clust_9="13000.00000"></scales>
<clustering>
<clus scale="   80.393">  5  6 -1 -1</clus>
<clus scale="   94.606">  7  8 -1 -1</clus>
<clus scale="   69.051">  7  9 -1 -1</clus>
<clus scale="  104.355">  2  5  1 -1</clus>
<clus scale="  229.774">  1  5  2 -1</clus>
</clustering>
</event>
<event>
 9    2  0.2147756E-005  0.2884623E+03  0.7546771E-02  0.1129131E+00
         21   -1    0    0  501  502  0.00000000000E+00  0.00000000000E+00  0.99225205611E+02  0.99225205611E+02  0.00000000000E+00 0. -1.
          2   -1    0    0  502    0 -0.00000000000E+00 -0.00000000000E+00 -0.51516717047E+03  0.51516717047E+03  0.00000000000E+00 0. -1.
         24    2    1    2    0    0  0.46741400264E+02  0.58840675094E+02 -0.17575528620E+01  0.10965561125E+03  0.79839091566E+02 0.  0.
         23    2    1    2    0    0  0.60757939057E+02  0.63359855438E+02 -0.17528333935E+03  0.21566445532E+03  0.89893880736E+02 0.  0.
        -13    1    3    3    0    0 -0.22039897363E+02  0.12165940443E+02  0.68453925926E+01  0.26088821024E+02  0.00000000000E+00 0.  1.
         14    1    3    3    0    0  0.68781297627E+02  0.46674734650E+02 -0.86029454546E+01  0.83566790225E+02  0.00000000000E+00 0. -1.
        -11    1    4    4    0    0  0.43435391396E+02  0.28670760085E+02 -0.16843269938E+03  0.17629015835E+03  0.00000000000E+00 0. -1.
         11    1    4    4    0    0  0.17322547662E+02  0.34689095353E+02 -0.68506399705E+01  0.39374296970E+02  0.00000000000E+00 0.  1.
          1    1    1    2  501    0 -0.10749933932E+03 -0.12220053053E+03 -0.23890107264E+03  0.28907230951E+03  0.00000000000E+00 0. -1.
<scales pt_clust_5="13000.00000" pt_clust_6="13000.00000" pt_clust_7="13000.00000" pt_clust_8="13000.00000" pt_clust_9="13000.00000"></scales>
<clustering>
<clus scale="   79.839">  5  6 -1 -1</clus>
<clus scale="   89.894">  7  8 -1 -1</clus>
<clus scale="  109.642">  2  5  1 -1</clus>
<clus scale="  119.653">  7  9 -1 -1</clus>
<clus scale="  288.462">  1  5  2 -1</clus>
</clustering>
</event>
<event>
 9    2  0.2147756E-005  0.7387797E+03  0.7546771E-02  0.1031928E+00
         21   -1    0    0  501  502  0.00000000000E+00  0.00000000000E+00  0.10332017184E+04  0.10332017184E+04  0.00000000000E+00 0. -1.
          2   -1    0    0  502    0 -0.00000000000E+00 -0.00000000000E+00 -0.16638272182E+03  0.16638272182E+03  0.00000000000E+00 0. -1.
         24    2    1    2    0    0  0.77438769104E+01  0.38515813429E+02  0.79200098964E+02  0.11970531639E+03  0.80704842366E+02 0.  0.
         23    2    1    2    0    0 -0.17880822395E+03 -0.70618734383E+02  0.86338499137E+03  0.89005259957E+03  0.98997980189E+02 0.  0.
        -13    1    3    3    0    0 -0.31835400471E+02 -0.20646337275E+01  0.38070354083E+02  0.49669983849E+02  0.00000000000E+00 0.  1.
         14    1    3    3    0    0  0.39579277381E+02  0.40580447157E+02  0.41129744881E+02  0.70035332536E+02  0.00000000000E+00 0. -1.
        -11    1    4    4    0    0 -0.61846801578E+02  0.22050030926E+02  0.21999550617E+03  0.22958495914E+03  0.00000000000E+00 0.  1.
         11    1    4    4    0    0 -0.11696142237E+03 -0.92668765309E+02  0.64338948521E+03  0.66046764043E+03  0.00000000000E+00 0. -1.
          1    1    1    2  501    0  0.17106434704E+03  0.32102920954E+02 -0.75766093734E+02  0.18982652428E+03  0.00000000000E+00 0. -1.
<scales pt_clust_5="13000.00000" pt_clust_6="13000.00000" pt_clust_7="13000.00000" pt_clust_8="13000.00000" pt_clust_9="13000.00000"></scales>
<clustering>
<clus scale="   80.705">  5  6 -1 -1</clus>
<clus scale="   89.759">  2  5  1 -1</clus>
<clus scale="   98.998">  7  8 -1 -1</clus>
<clus scale="  190.324">  7  9 -1 -1</clus>
<clus scale="  738.780">  1  5  2 -1</clus>
</clustering>
</event>
<event>
 9    2  0.2147756E-005  0.2487264E+03  0.7546771E-02  0.1122121E+00
         21   -1    0    0  501  502  0.00000000000E+00  0.00000000000E+00  0.93573014113E+02  0.93573014113E+02  0.00000000000E+00 0. -1.
          2   -1    0    0  502    0 -0.00000000000E+00 -0.00000000000E+00 -0.54906609385E+03  0.54906609385E+03  0.00000000000E+00 0. -1.
         24    2    1    2    0    0  0.48764304904E+02  0.17944250349E+03 -0.22796574812E+03  0.30554344624E+03  0.82527848221E+02 0.  0.
         23    2    1    2    0    0 -0.50371488982E+02 -0.44204154834E+02 -0.11107364446E+03  0.15862029861E+03  0.91278422590E+02 0.  0.
        -11    1    3    3    0    0 -0.22201942209E+02  0.25933660045E+02 -0.33572175754E+02  0.47880809789E+02  0.00000000000E+00 0.  1.
         12    1    3    3    0    0  0.70966247113E+02  0.15350884344E+03 -0.19439357237E+03  0.25766263645E+03  0.00000000000E+00 0. -1.
        -13    1    4    4    0    0  0.22999055211E+02  0.64162027264E+01 -0.27660648085E+02  0.36540876433E+02  0.00000000000E+00 0.  1.
         13    1    4    4    0    0 -0.73370544193E+02 -0.50620357560E+02 -0.83412996378E+02  0.12207942218E+03  0.00000000000E+00 0. -1.
          1    1    1    2  501    0  0.16071840787E+01 -0.13523834865E+03 -0.11645368715E+03  0.17847536311E+03  0.00000000000E+00 0. -1.
<scales pt_clust_5="13000.00000" pt_clust_6="13000.00000" pt_clust_7="13000.00000" pt_clust_8="13000.00000" pt_clust_9="13000.00000"></scales>
<clustering>
<clus scale="   82.528">  5  6 -1 -1</clus>
<clus scale="   91.278">  7  8 -1 -1</clus>
<clus scale="  135.248">  7  9 -1 -1</clus>
<clus scale="  203.441">  2  5  1 -1</clus>
<clus scale="  248.726">  1  5  2 -1</clus>
</clustering>
</event>
<event>
 9    2  0.2147756E-005  0.2342616E+03  0.7546771E-02  0.1132811E+00
         21   -1    0    0  501  502  0.00000000000E+00  0.00000000000E+00  0.22287660673E+03  0.22287660673E+03  0.00000000000E+00 0. -1.
          2   -1    0    0  502    0 -0.00000000000E+00 -0.00000000000E+00 -0.26574393274E+03  0.26574393274E+03  0.00000000000E+00 0. -1.
         24    2    1    2    0    0  0.13487086945E+03  0.10033660931E+03  0.10213431463E+03  0.21311374836E+03  0.82027220598E+02 0.  0.
         23    2    1    2    0    0 -0.60588340554E+02 -0.26491114533E+02 -0.45689401080E+02  0.13116701099E+03  0.10365585965E+03 0.  0.
        -13    1    3    3    0    0  0.78958690805E+02  0.35073365951E+02  0.97635974747E+01  0.86947936654E+02  0.00000000000E+00 0.  1.
         14    1    3    3    0    0  0.55912178649E+02  0.65263243363E+02  0.92370717155E+02  0.12616581171E+03  0.00000000000E+00 0. -1.
        -11    1    4    4    0    0 -0.46244057310E+02 -0.24233915593E+00 -0.75755827655E+02  0.88755377237E+02  0.00000000000E+00 0.  1.
         11    1    4    4    0    0 -0.14344283245E+02 -0.26248775377E+02  0.30066426575E+02  0.42411633753E+02  0.00000000000E+00 0. -1.
          1    1    1    2  501    0 -0.74282528900E+02 -0.73845494781E+02 -0.99312239566E+02  0.14433978013E+03  0.00000000000E+00 0. -1.
<scales pt_clust_5="13000.00000" pt_clust_6="13000.00000" pt_clust_7="13000.00000" pt_clust_8="13000.00000" pt_clust_9="13000.00000"></scales>
<clustering>
<clus scale="   82.027">  5  6 -1 -1</clus>
<clus scale="  103.656">  7  8 -1 -1</clus>
<clus scale="  104.743">  7  9 -1 -1</clus>
<clus scale="  187.046">  2  5  1 -1</clus>
<clus scale="  234.262">  1  5  2 -1</clus>
</clustering>
</event>
<event>
 9    2  0.2147756E-005  0.2082485E+03  0.7546771E-02  0.1177181E+00
         21   -1    0    0  501  502  0.00000000000E+00  0.00000000000E+00  0.98512068046E+02  0.98512068046E+02  0.00000000000E+00 0. -1.
          2   -1    0    0  502    0 -0.00000000000E+00 -0.00000000000E+00 -0.23406712544E+03  0.23406712544E+03  0.00000000000E+00 0. -1.
         24    2    1    2    0    0  0.58060783332E+02 -0.18194952311E+02 -0.58021578035E+02  0.11036559030E+03  0.71497896148E+02 0.  0.
         23    2    1    2    0    0 -0.22003195722E+02 -0.70498495187E+02 -0.21925326457E+02  0.11149348793E+03  0.80597143034E+02 0.  0.
        -13    1    3    3    0    0  0.48692694264E+02  0.16120907881E+02 -0.12864124023E+02  0.52880505222E+02  0.00000000000E+00 0.  1.
         14    1    3    3    0    0  0.93680890684E+01 -0.34315860193E+02 -0.45157454012E+02  0.57485085078E+02  0.00000000000E+00 0. -1.
        -11    1    4    4    0    0 -0.52246126869E+02 -0.41979851229E+02 -0.19734804538E+02  0.69867218294E+02  0.00000000000E+00 0.  1.
         11    1    4    4    0    0  0.30242931147E+02 -0.28518643958E+02 -0.21905219191E+01  0.41626269637E+02  0.00000000000E+00 0. -1.
          1    1    1    2  501    0 -0.36057587611E+02  0.88693447498E+02 -0.55608152906E+02  0.11072011526E+03  0.00000000000E+00 0. -1.
<scales pt_clust_5="13000.00000" pt_clust_6="13000.00000" pt_clust_7="13000.00000" pt_clust_8="13000.00000" pt_clust_9="13000.00000"></scales>
<clustering>
<clus scale="   71.498">  5  6 -1 -1</clus>
<clus scale="   80.597">  7  8 -1 -1</clus>
<clus scale="   93.883">  2  5  1 -1</clus>
<clus scale="   78.691">  7  9 -1 -1</clus>
<clus scale="  208.249">  1  5  2 -1</clus>
</clustering>
</event>
<event>
 9    2  0.2147756E-005  0.2715363E+03  0.7546771E-02  0.1147287E+00
         -1   -1    0    0    0  501 -0.00000000000E+00  0.00000000000E+00  0.46302538806E+02  0.46302538806E+02  0.00000000000E+00 0.  1.
         21   -1    0    0  501  502  0.00000000000E+00 -0.00000000000E+00 -0.71411064349E+03  0.71411064349E+03  0.00000000000E+00 0.  1.
         24    2    1    2    0    0  0.29395631225E+02 -0.11393880275E+02 -0.10027838835E+03  0.13126935550E+03  0.78625472215E+02 0.  0.
         23    2    1    2    0    0 -0.11765073584E+03  0.58453937192E+02 -0.42653721080E+03  0.45627827480E+03  0.94854169369E+02 0.  0.
        -13    1    3    3    0    0  0.36154950946E+02  0.21510765310E+02 -0.25253730078E+02  0.49067753005E+02  0.00000000000E+00 0.  1.
         14    1    3    3    0    0 -0.67593197209E+01 -0.32904645585E+02 -0.75024658274E+02  0.82201602499E+02  0.00000000000E+00 0. -1.
        -11    1    4    4    0    0 -0.86492586283E+02 -0.89349367555E+01 -0.20677696848E+03  0.22431565989E+03  0.00000000000E+00 0.  1.
         11    1    4    4    0    0 -0.31158149555E+02  0.67388873948E+02 -0.21976024232E+03  0.23196261492E+03  0.00000000000E+00 0. -1.
         -2    1    1    2    0  502  0.88255104613E+02 -0.47060056917E+02 -0.14099250553E+03  0.17286555199E+03  0.00000000000E+00 0.  1.
<scales pt_clust_5="13000.00000" pt_clust_6="13000.00000" pt_clust_7="13000.00000" pt_clust_8="13000.00000" pt_clust_9="13000.00000"></scales>
<clustering>
<clus scale="   78.625">  5  6 -1 -1</clus>
<clus scale="   84.711">  1  5  2 -1</clus>
<clus scale="   94.854">  7  8 -1 -1</clus>
<clus scale="  116.226">  7  9 -1 -1</clus>
<clus scale="  271.536">  2  5  1 -1</clus>
</clustering>
</event>
<event>
 9    2  0.2147756E-005  0.2343250E+03  0.7546771E-02  0.1135610E+00
          2   -1    0    0  502    0 -0.00000000000E+00  0.00000000000E+00  0.35195898395E+03  0.35195898395E+03  0.00000000000E+00 0. -1.
         21   -1    0    0  501  502  0.00000000000E+00 -0.00000000000E+00 -0.19667257482E+03  0.19667257482E+03  0.00000000000E+00 0. -1.
         24    2    1    2    0    0 -0.11144057948E+03  0.10818603119E+03 -0.10074737813E+03  0.20155591910E+03  0.79696513266E+02 0.  0.
         23    2    1    2    0    0  0.55217103387E+01 -0.30464283177E+02  0.66892370761E+02  0.11678462295E+03  0.90584198710E+02 0.  0.
        -11    1    3    3    0    0 -0.46125191574E+02  0.56734485163E+01 -0.54200638699E+02  0.71396292279E+02  0.00000000000E+00 0.  1.
         12    1    3    3    0    0 -0.65315387905E+02  0.10251258267E+03 -0.46546739427E+02  0.13015962682E+03  0.00000000000E+00 0. -1.
        -11    1    4    4    0    0  0.45514851376E+02 -0.14431952173E+00  0.33195440836E+02  0.56334357334E+02  0.00000000000E+00 0.  1.
         11    1    4    4    0    0 -0.39993141038E+02 -0.30319963656E+02  0.33696929925E+02  0.60450265611E+02  0.00000000000E+00 0. -1.
          1    1    1    2  501    0  0.10591886914E+03 -0.77721748011E+02  0.18914141649E+03  0.23029101673E+03  0.00000000000E+00 0. -1.
<scales pt_clust_5="13000.00000" pt_clust_6="13000.00000" pt_clust_7="13000.00000" pt_clust_8="13000.00000" pt_clust_9="13000.00000"></scales>
<clustering>
<clus scale="   79.697">  5  6 -1 -1</clus>
<clus scale="   90.584">  7  8 -1 -1</clus>
<clus scale="  131.375">  7  9 -1 -1</clus>
<clus scale="  174.570">  1  5  2 -1</clus>
<clus scale="  234.325">  2  5  1 -1</clus>
</clustering>
</event>
<event>
 9    2  0.2147756E-005  0.4328792E+03  0.7546771E-02  0.1064052E+00
         21   -1    0    0  501  502  0.00000000000E+00  0.00000000000E+00  0.93928758701E+02  0.93928758701E+02  0.00000000000E+00 0. -1.
          2   -1    0    0  502    0 -0.00000000000E+00 -0.00000000000E+00 -0.14249228628E+04  0.14249228628E+04  0.00000000000E+00 0. -1.
         24    2    1    2    0    0 -0.13239319291E+03  0.87666612680E+02 -0.79712088297E+02  0.19480817453E+03  0.79892523644E+02 0.  0.
         23    2    1    2    0    0  0.23781016443E+03 -0.13826156746E+03 -0.10684132357E+04  0.11069868229E+04  0.90791235414E+02 0.  0.
        -11    1    3    3    0    0 -0.45347150053E+02  0.77025422524E+02 -0.31744404156E+02  0.94852448193E+02  0.00000000000E+00 0.  1.
         12    1    3    3    0    0 -0.87046042860E+02  0.10641190156E+02 -0.47967684142E+02  0.99955726337E+02  0.00000000000E+00 0. -1.
        -13    1    4    4    0    0  0.13977910483E+03 -0.12944189919E+03 -0.74112242158E+03  0.76521620944E+03  0.00000000000E+00 0.  1.
         13    1    4    4    0    0  0.98031059595E+02 -0.88196682638E+01 -0.32729081412E+03  0.34177061342E+03  0.00000000000E+00 0. -1.
          1    1    1    2  501    0 -0.10541697151E+03  0.50594954778E+02 -0.18286878006E+03  0.21705662407E+03  0.00000000000E+00 0. -1.
<scales pt_clust_5="13000.00000" pt_clust_6="13000.00000" pt_clust_7="13000.00000" pt_clust_8="13000.00000" pt_clust_9="13000.00000"></scales>
<clustering>
<clus scale="   79.893">  5  6 -1 -1</clus>
<clus scale="   90.791">  7  8 -1 -1</clus>
<clus scale="  116.930">  7  9 -1 -1</clus>
<clus scale="  177.753">  2  5  1 -1</clus>
<clus scale="  432.879">  1  5  2 -1</clus>
</clustering>
</event>
<event>
 9    2  0.2147756E-005  0.2200898E+03  0.7546771E-02  0.1140169E+00
         21   -1    0    0  501  502  0.00000000000E+00  0.00000000000E+00  0.20179525399E+03  0.20179525399E+03  0.00000000000E+00 0. -1.
          2   -1    0    0  502    0 -0.00000000000E+00 -0.00000000000E+00 -0.30949197220E+03  0.30949197220E+03  0.00000000000E+00 0. -1.
         24    2    1    2    0    0  0.14300861096E+03  0.93254721916E+02  0.95748234471E+02  0.21157172664E+03  0.80292995582E+02 0.  0.
         23    2    1    2    0    0 -0.72833115732E+02 -0.17548360858E+02 -0.97536795159E+02  0.15182164888E+03  0.89015610673E+02 0.  0.
        -13    1    3    3    0    0  0.51871026741E+02  0.36646760620E+02 -0.58927516920E+01  0.63783328556E+02  0.00000000000E+00 0.  1.
         14    1    3    3    0    0  0.91137584223E+02  0.56607961296E+02  0.10164098616E+03  0.14778839808E+03  0.00000000000E+00 0. -1.
        -11    1    4    4    0    0  0.20202754306E+02  0.22816565652E+01 -0.24831168471E+02  0.32092743196E+02  0.00000000000E+00 0.  1.
         11    1    4    4    0    0 -0.93035870038E+02 -0.19830017423E+02 -0.72705626688E+02  0.11972890569E+03  0.00000000000E+00 0. -1.
          1    1    1    2  501    0 -0.70175495232E+02 -0.75706361058E+02 -0.10590815752E+03  0.14789385067E+03  0.00000000000E+00 0. -1.
<scales pt_clust_5="13000.00000" pt_clust_6="13000.00000" pt_clust_7="13000.00000" pt_clust_8="13000.00000" pt_clust_9="13000.00000"></scales>
<clustering>
<clus scale="   80.293">  5  6 -1 -1</clus>
<clus scale="   89.016">  7  8 -1 -1</clus>
<clus scale="  103.228">  7  9 -1 -1</clus>
<clus scale="  188.666">  2  5  1 -1</clus>
<clus scale="  220.090">  1  5  2 -1</clus>
</clustering>
</event>
<event>
 9    2  0.2147756E-005  0.1998798E+03  0.7546771E-02  0.1185720E+00
         21   -1    0    0  501  502  0.00000000000E+00  0.00000000000E+00  0.55017305949E+02  0.55017305949E+02  0.00000000000E+00 0.  1.
         -1   -1    0    0    0  501 -0.00000000000E+00 -0.00000000000E+00 -0.37832780727E+03  0.37832780727E+03  0.00000000000E+00 0.  1.
         24    2    1    2    0    0  0.39522227092E+02  0.78735928691E+01 -0.82483801690E+02  0.12037634509E+03  0.77864542751E+02 0.  0.
         23    2    1    2    0    0  0.12077222222E+02  0.36885185712E+02 -0.50792634542E+02  0.11103116062E+03  0.90783537516E+02 0.  0.
        -13    1    3    3    0    0  0.36719821497E+02 -0.29082770700E+02 -0.62996524787E+02  0.78502961585E+02  0.00000000000E+00 0.  1.
         14    1    3    3    0    0  0.28024055950E+01  0.36956363569E+02 -0.19487276904E+02  0.41873383509E+02  0.00000000000E+00 0. -1.
        -13    1    4    4    0    0 -0.37857523837E+02  0.21758449758E+02 -0.99837035021E+01  0.44791702162E+02  0.00000000000E+00 0.  1.
         13    1    4    4    0    0  0.49934746059E+02  0.15126735954E+02 -0.40808931040E+02  0.66239458461E+02  0.00000000000E+00 0. -1.
         -2    1    1    2    0  502 -0.51599449314E+02 -0.44758778581E+02 -0.19003406509E+03  0.20193760750E+03  0.00000000000E+00 0.  1.
<scales pt_clust_5="13000.00000" pt_clust_6="13000.00000" pt_clust_7="13000.00000" pt_clust_8="13000.00000" pt_clust_9="13000.00000"></scales>
<clustering>
<clus scale="   77.865">  5  6 -1 -1</clus>
<clus scale="   87.675">  2  5  1 -1</clus>
<clus scale="   90.784">  7  8 -1 -1</clus>
<clus scale="   45.757">  7  9 -1 -1</clus>
<clus scale="  199.880">  1  5  2 -1</clus>
</clustering>
</event>
<event>
 9    2  0.2147756E-005  0.2351220E+03  0.7546771E-02  0.1134368E+00
          2   -1    0    0  502    0 -0.00000000000E+00  0.00000000000E+00  0.55029184662E+03  0.55029184662E+03  0.00000000000E+00 0. -1.
         21   -1    0    0  501  502  0.00000000000E+00 -0.00000000000E+00 -0.80391200490E+02  0.80391200490E+02  0.00000000000E+00 0. -1.
         24    2    1    2    0    0 -0.95120912062E+02 -0.12706014611E+03  0.14519901188E+03  0.22979213024E+03  0.80804711670E+02 0.  0.
         23    2    1    2    0    0  0.29376290400E+02  0.14509738842E+02  0.17887292787E+03  0.20529960556E+03  0.95283286885E+02 0.  0.
        -13    1    3    3    0    0 -0.23294230029E+02 -0.34029669889E+02 -0.21683293029E+01  0.41295777476E+02  0.00000000000E+00 0.  1.
         14    1    3    3    0    0 -0.71826682033E+02 -0.93030476224E+02  0.14736734118E+03  0.18849635277E+03  0.00000000000E+00 0. -1.
        -13    1    4    4    0    0 -0.27343463940E+02  0.30540883468E+02  0.86530979849E+02  0.95749783586E+02  0.00000000000E+00 0.  1.
         13    1    4    4    0    0  0.56719754339E+02 -0.16031144625E+02  0.92341948019E+02  0.10954982197E+03  0.00000000000E+00 0. -1.
          1    1    1    2  501    0  0.65744621663E+02  0.11255040727E+03  0.14582870638E+03  0.19559131131E+03  0.00000000000E+00 0. -1.
<scales pt_clust_5="13000.00000" pt_clust_6="13000.00000" pt_clust_7="13000.00000" pt_clust_8="13000.00000" pt_clust_9="13000.00000"></scales>
<clustering>
<clus scale="   80.805">  5  6 -1 -1</clus>
<clus scale="   95.283">  7  8 -1 -1</clus>
<clus scale="  130.346">  7  9 -1 -1</clus>
<clus scale="  178.106">  1  5  2 -1</clus>
<clus scale="  235.122">  2  5  1 -1</clus>
</clustering>
</event>
<event>
 9    2  0.2147756E-005  0.1847522E+03  0.7546771E-02  0.1198572E+00
         21   -1    0    0  501  502  0.00000000000E+00  0.00000000000E+00  0.26595334663E+03  0.26595334663E+03  0.00000000000E+00 0.  1.
         -1   -1    0    0    0  501 -0.00000000000E+00 -0.00000000000E+00 -0.73551006151E+02  0.73551006151E+02  0.00000000000E+00 0.  1.
         24    2    1    2    0    0  0.15192531200E+02 -0.15005820587E+02  0.10738589181E+03  0.13612989671E+03  0.80892715132E+02 0.  0.
         23    2    1    2    0    0  0.20310512435E+02  0.26986099833E+01  0.12130744326E+03  0.15113491330E+03  0.87786484253E+02 0.  0.
        -11    1    3    3    0    0  0.45418282334E+02  0.24695262858E+01  0.78889309303E+02  0.91062846719E+02  0.00000000000E+00 0.  1.
         12    1    3    3    0    0 -0.30225751134E+02 -0.17475346873E+02  0.28496582509E+02  0.45067049988E+02  0.00000000000E+00 0. -1.
        -13    1    4    4    0    0 -0.56328202717E+01  0.41845866471E+02  0.68476908728E+02  0.80448071660E+02  0.00000000000E+00 0. -1.
         13    1    4    4    0    0  0.25943332707E+02 -0.39147256487E+02  0.52830534529E+02  0.70686841640E+02  0.00000000000E+00 0.  1.
         -2    1    1    2    0  502 -0.35503043635E+02  0.12307210604E+02 -0.36290994594E+02  0.52239542770E+02  0.00000000000E+00 0.  1.
<scales pt_clust_5="13000.00000" pt_clust_6="13000.00000" pt_clust_7="13000.00000" pt_clust_8="13000.00000" pt_clust_9="13000.00000"></scales>
<clustering>
<clus scale="   80.893">  5  6 -1 -1</clus>
<clus scale="   83.664">  2  5  1 -1</clus>
<clus scale="   87.786">  7  8 -1 -1</clus>
<clus scale="   24.163">  7  9 -1 -1</clus>
<clus scale="  184.752">  1  5  2 -1</clus>
</clustering>
</event>
<event>
 9    2  0.2147756E-005  0.2236541E+03  0.7546771E-02  0.1162317E+00
         21   -1    0    0  501  502  0.00000000000E+00  0.00000000000E+00  0.23776538797E+02  0.23776538797E+02  0.00000000000E+00 0. -1.
          2   -1    0    0  502    0 -0.00000000000E+00 -0.00000000000E+00 -0.13248655090E+04  0.13248655090E+04  0.00000000000E+00 0. -1.
         24    2    1    2    0    0 -0.55285641584E+02 -0.42814179163E+02 -0.21701049854E+03  0.24173316480E+03  0.80323162178E+02 0.  0.
         23    2    1    2    0    0  0.90846775294E+02 -0.38312365738E+02 -0.66058995493E+03  0.67425586461E+03  0.92308766953E+02 0.  0.
        -13    1    3    3    0    0  0.20571356174E+02 -0.15344128403E+02 -0.46961551676E+02  0.53516448940E+02  0.00000000000E+00 0.  1.
         14    1    3    3    0    0 -0.75856997758E+02 -0.27470050760E+02 -0.17004894687E+03  0.18821671586E+03  0.00000000000E+00 0. -1.
        -13    1    4    4    0    0  0.82496294939E+02  0.11759334874E+02 -0.37024250232E+03  0.37950419123E+03  0.00000000000E+00 0. -1.
         13    1    4    4    0    0  0.83504803557E+01 -0.50071700612E+02 -0.29034745260E+03  0.29475167338E+03  0.00000000000E+00 0.  1.
          1    1    1    2  501    0 -0.35561133710E+02  0.81126544901E+02 -0.42348851669E+03  0.43265301835E+03  0.00000000000E+00 0. -1.
<scales pt_clust_5="13000.00000" pt_clust_6="13000.00000" pt_clust_7="13000.00000" pt_clust_8="13000.00000" pt_clust_9="13000.00000"></scales>
<clustering>
<clus scale="   80.323">  5  6 -1 -1</clus>
<clus scale="   92.309">  7  8 -1 -1</clus>
<clus scale="   88.578">  7  9 -1 -1</clus>
<clus scale="  106.496">  2  5  1 -1</clus>
<clus scale="  223.654">  1  5  2 -1</clus>
</clustering>
</event>
<event>
 9    2  0.2147756E-005  0.2126622E+03  0.7546771E-02  0.1179461E+00
          2   -1    0    0  502    0 -0.00000000000E+00  0.00000000000E+00  0.11817739985E+04  0.11817739985E+04  0.00000000000E+00 0. -1.
         21   -1    0    0  501  502  0.00000000000E+00 -0.00000000000E+00 -0.21282213220E+02  0.21282213220E+02  0.00000000000E+00 0. -1.
         24    2    1    2    0    0  0.25447055681E+01  0.33782302061E+02  0.55548941261E+03  0.56176605797E+03  0.76582614908E+02 0.  0.
         23    2    1    2    0    0  0.69791489535E+02 -0.40146473571E+02  0.23929368636E+03  0.26844183198E+03  0.91197354542E+02 0.  0.
        -11    1    3    3    0    0 -0.19209176022E+02  0.17980865918E+02  0.59615291708E+02  0.65163540328E+02  0.00000000000E+00 0.  1.
         12    1    3    3    0    0  0.21753881590E+02  0.15801436143E+02  0.49587412090E+03  0.49660251764E+03  0.00000000000E+00 0. -1.
        -11    1    4    4    0    0  0.35528219015E+02 -0.17321619659E+02  0.21900714054E+03  0.22254532227E+03  0.00000000000E+00 0.  1.
         11    1    4    4    0    0  0.34263270520E+02 -0.22824853912E+02  0.20286545813E+02  0.45896509713E+02  0.00000000000E+00 0. -1.
          1    1    1    2  501    0 -0.72336195103E+02  0.63641715100E+01  0.36570868634E+03  0.37284832180E+03  0.00000000000E+00 0. -1.
<scales pt_clust_5="13000.00000" pt_clust_6="13000.00000" pt_clust_7="13000.00000" pt_clust_8="13000.00000" pt_clust_9="13000.00000"></scales>
<clustering>
<clus scale="   76.583">  5  6 -1 -1</clus>
<clus scale="   83.741">  1  5  2 -1</clus>
<clus scale="   91.197">  7  8 -1 -1</clus>
<clus scale="   75.583">  7  9 -1 -1</clus>
<clus scale="  212.662">  2  5  1 -1</clus>
</clustering>
</event>
<event>
 9    2  0.2147756E-005  0.1699648E+03  0.7546771E-02  0.1199438E+00
         -1   -1    0    0    0  501 -0.00000000000E+00  0.00000000000E+00  0.18896483219E+03  0.18896483219E+03  0.00000000000E+00 0.  1.
         21   -1    0    0  501  502  0.00000000000E+00 -0.00000000000E+00 -0.10468610557E+03  0.10468610557E+03  0.00000000000E+00 0.  1.
         24    2    1    2    0    0 -0.53090459615E+02 -0.45826738478E+02  0.61747196368E+02  0.12219915841E+03  0.78747896443E+02 0.  0.
         23    2    1    2    0    0 -0.10701730230E+02  0.87012264534E+01 -0.12602352253E+02  0.89707441150E+02  0.87740340458E+02 0.  0.
        -13    1    3    3    0    0 -0.55546486829E+01 -0.55945715867E+02  0.39739097374E+02  0.68847462597E+02  0.00000000000E+00 0.  1.
         14    1    3    3    0    0 -0.47535810933E+02  0.10118977389E+02  0.22008098994E+02  0.53351695809E+02  0.00000000000E+00 0. -1.
        -11    1    4    4    0    0 -0.34787763986E+02  0.18883366326E+02  0.22811557527E+02  0.45685196768E+02  0.00000000000E+00 0.  1.
         11    1    4    4    0    0  0.24086033756E+02 -0.10182139872E+02 -0.35413909781E+02  0.44022244382E+02  0.00000000000E+00 0. -1.
         -2    1    1    2    0  502  0.63792189845E+02  0.37125512024E+02  0.35133882512E+02  0.81744338206E+02  0.00000000000E+00 0.  1.
<scales pt_clust_5="13000.00000" pt_clust_6="13000.00000" pt_clust_7="13000.00000" pt_clust_8="13000.00000" pt_clust_9="13000.00000"></scales>
<clustering>
<clus scale="   78.748">  5  6 -1 -1</clus>
<clus scale="   87.740">  7  8 -1 -1</clus>
<clus scale="   73.809">  7  9 -1 -1</clus>
<clus scale="  105.451">  1  5  2 -1</clus>
<clus scale="  169.965">  2  5  1 -1</clus>
</clustering>
</event>
<event>
 9    2  0.2147756E-005  0.2265852E+03  0.7546771E-02  0.1148378E+00
          2   -1    0    0  502    0 -0.00000000000E+00  0.00000000000E+00  0.60861342449E+03  0.60861342449E+03  0.00000000000E+00 0. -1.
         21   -1    0    0  501  502  0.00000000000E+00 -0.00000000000E+00 -0.60309802579E+02  0.60309802579E+02  0.00000000000E+00 0. -1.
         24    2    1    2    0    0  0.72394046983E+02 -0.91300440075E+02  0.30495608665E+03  0.33641930453E+03  0.81259247322E+02 0.  0.
         23    2    1    2    0    0 -0.13771269229E+02 -0.12102589575E+02  0.50629464365E+02  0.10607717620E+03  0.91394223653E+02 0.  0.
        -11    1    3    3    0    0  0.54981577214E+02 -0.63619364551E+01  0.11970130980E+03  0.13187816967E+03  0.00000000000E+00 0.  1.
         12    1    3    3    0    0  0.17412469768E+02 -0.84938503619E+02  0.18525477685E+03  0.20454113485E+03  0.00000000000E+00 0. -1.
        -11    1    4    4    0    0 -0.19388324119E+02  0.16710475884E+02  0.67520400481E+02  0.72209082514E+02  0.00000000000E+00 0.  1.
         11    1    4    4    0    0  0.56170548900E+01 -0.28813065458E+02 -0.16890936116E+02  0.33868093682E+02  0.00000000000E+00 0. -1.
          1    1    1    2  501    0 -0.58622777754E+02  0.10340302965E+03  0.19271807089E+03  0.22642674634E+03  0.00000000000E+00 0. -1.
<scales pt_clust_5="13000.00000" pt_clust_6="13000.00000" pt_clust_7="13000.00000" pt_clust_8="13000.00000" pt_clust_9="13000.00000"></scales>
<clustering>
<clus scale="   81.259">  5  6 -1 -1</clus>
<clus scale="   91.394">  7  8 -1 -1</clus>
<clus scale="  118.865">  7  9 -1 -1</clus>
<clus scale="  142.055">  1  5  2 -1</clus>
<clus scale="  226.585">  2  5  1 -1</clus>
</clustering>
</event>
<event>
 9    2  0.2147756E-005  0.2281726E+03  0.7546771E-02  0.1142764E+00
         21   -1    0    0  501  502  0.00000000000E+00  0.00000000000E+00  0.54225564840E+02  0.54225564840E+02  0.00000000000E+00 0. -1.
          2   -1    0    0  502    0 -0.00000000000E+00 -0.00000000000E+00 -0.10511909757E+04  0.10511909757E+04  0.00000000000E+00 0. -1.
         24    2    1    2    0    0  0.65924366732E+02  0.12130336648E+03 -0.75995201253E+03  0.77642099823E+03  0.79006178851E+02 0.  0.
         23    2    1    2    0    0  0.28444352011E+02 -0.51048090855E+02 -0.13124637332E+03  0.17079338554E+03  0.92356815081E+02 0.  0.
        -11    1    3    3    0    0  0.27415383596E+02  0.11296125957E+02 -0.61080409957E+02  0.67897144269E+02  0.00000000000E+00 0.  1.
         12    1    3    3    0    0  0.38508983135E+02  0.11000724052E+03 -0.69887160258E+03  0.70852385396E+03  0.00000000000E+00 0. -1.
        -11    1    4    4    0    0 -0.57089041027E-01 -0.71234224896E+02 -0.10594412568E+03  0.12766548407E+03  0.00000000000E+00 0.  1.
         11    1    4    4    0    0  0.28501441052E+02  0.20186134041E+02 -0.25302247640E+02  0.43127901470E+02  0.00000000000E+00 0. -1.
          1    1    1    2  501    0 -0.94368718743E+02 -0.70255275623E+02 -0.10576702502E+03  0.15820215679E+03  0.00000000000E+00 0. -1.
<scales pt_clust_5="13000.00000" pt_clust_6="13000.00000" pt_clust_7="13000.00000" pt_clust_8="13000.00000" pt_clust_9="13000.00000"></scales>
<clustering>
<clus scale="   79.006">  5  6 -1 -1</clus>
<clus scale="   92.357">  7  8 -1 -1</clus>
<clus scale="  117.649">  7  9 -1 -1</clus>
<clus scale="  159.068">  2  5  1 -1</clus>
<clus scale="  228.173">  1  5  2 -1</clus>
</clustering>
</event>
<event>
 9    2  0.2147756E-005  0.2202657E+03  0.7546771E-02  0.1148314E+00
         21   -1    0    0  501  502  0.00000000000E+00  0.00000000000E+00  0.99585719591E+02  0.99585719591E+02  0.00000000000E+00 0. -1.
          4   -1    0    0  502    0 -0.00000000000E+00 -0.00000000000E+00 -0.57965676029E+03  0.57965676029E+03  0.00000000000E+00 0. -1.
         24    2    1    2    0    0 -0.21710934861E+02  0.13055111138E+03 -0.42479673958E+03  0.45214725958E+03  0.80435794383E+02 0.  0.
         23    2    1    2    0    0  0.27835670697E+02 -0.44740843245E+02 -0.89368836658E+02  0.13455683983E+03  0.85686559988E+02 0.  0.
        -13    1    3    3    0    0 -0.37399109082E+02  0.28247371350E+02 -0.18735923458E+03  0.19313231250E+03  0.00000000000E+00 0.  1.
         14    1    3    3    0    0  0.15688174221E+02  0.10230374003E+03 -0.23743750500E+03  0.25901494708E+03  0.00000000000E+00 0. -1.
        -11    1    4    4    0    0  0.51371479418E+02 -0.30911806731E+02 -0.25601198122E+02  0.65191947649E+02  0.00000000000E+00 0.  1.
         11    1    4    4    0    0 -0.23535808722E+02 -0.13829036513E+02 -0.63767638536E+02  0.69364892183E+02  0.00000000000E+00 0. -1.
          3    1    1    2  501    0 -0.61247358358E+01 -0.85810268131E+02  0.34094535536E+02  0.92538380466E+02  0.00000000000E+00 0. -1.
<scales pt_clust_5="13000.00000" pt_clust_6="13000.00000" pt_clust_7="13000.00000" pt_clust_8="13000.00000" pt_clust_9="13000.00000"></scales>
<clustering>
<clus scale="   80.436">  5  6 -1 -1</clus>
<clus scale="   85.687">  7  8 -1 -1</clus>
<clus scale="   86.029">  7  9 -1 -1</clus>
<clus scale="  154.871">  2  5  1 -1</clus>
<clus scale="  220.266">  1  5  2 -1</clus>
</clustering>
</event>
<event>
 9    2  0.2147756E-005  0.3420248E+03  0.7546771E-02  0.1102917E+00
          2   -1    0    0  502    0 -0.00000000000E+00  0.00000000000E+00  0.13508139685E+04  0.13508139685E+04  0.00000000000E+00 0. -1.
         21   -1    0    0  501  502  0.00000000000E+00 -0.00000000000E+00 -0.44931000339E+02  0.44931000339E+02  0.00000000000E+00 0.  1.
         24    2    1    2    0    0  0.83565618304E+01 -0.98702708885E+02  0.19074267824E+03  0.22933215516E+03  0.79990069510E+02 0.  0.
         23    2    1    2    0    0  0.51005968255E+02 -0.87146364391E+02  0.32517628634E+03  0.35271328992E+03  0.92037764338E+02 0.  0.
        -13    1    3    3    0    0 -0.27623269509E+02 -0.66396975444E+02  0.14902197815E+03  0.16546647194E+03  0.00000000000E+00 0.  1.
         14    1    3    3    0    0  0.35979831339E+02 -0.32305733441E+02  0.41720700099E+02  0.63865683220E+02  0.00000000000E+00 0. -1.
        -11    1    4    4    0    0  0.37998635497E+02 -0.34451236513E+02  0.47917127672E+02  0.70191417718E+02  0.00000000000E+00 0. -1.
         11    1    4    4    0    0  0.13007332758E+02 -0.52695127878E+02  0.27725915867E+03  0.28252187220E+03  0.00000000000E+00 0.  1.
          1    1    1    2  501    0 -0.59362530085E+02  0.18584907328E+03  0.78996400356E+03  0.81369952374E+03  0.00000000000E+00 0. -1.
<scales pt_clust_5="13000.00000" pt_clust_6="13000.00000" pt_clust_7="13000.00000" pt_clust_8="13000.00000" pt_clust_9="13000.00000"></scales>
<clustering>
<clus scale="   79.990">  5  6 -1 -1</clus>
<clus scale="   92.038">  7  8 -1 -1</clus>
<clus scale="  127.320">  1  5  2 -1</clus>
<clus scale="  128.168">  7  9 -1 -1</clus>
<clus scale="  342.025">  2  5  1 -1</clus>
</clustering>
</event>
<event>
 9    2  0.2147756E-005  0.2114706E+03  0.7546771E-02  0.1156146E+00
         21   -1    0    0  501  502  0.00000000000E+00  0.00000000000E+00  0.38878943595E+02  0.38878943595E+02  0.00000000000E+00 0. -1.
          2   -1    0    0  502    0 -0.00000000000E+00 -0.00000000000E+00 -0.16048143600E+04  0.16048143600E+04  0.00000000000E+00 0. -1.
         24    2    1    2    0    0 -0.73608181471E+02  0.97448638487E+02 -0.12790193763E+04  0.12872657282E+04  0.79044851196E+02 0.  0.
         23    2    1    2    0    0  0.15816416387E+02  0.12350130351E+01 -0.16318306801E+03  0.18793959491E+03  0.91874334635E+02 0.  0.
        -11    1    3    3    0    0 -0.26688336293E+02  0.28383824952E+02 -0.14393764903E+03  0.14911725460E+03  0.00000000000E+00 0.  1.
         12    1    3    3    0    0 -0.46919845178E+02  0.69064813536E+02 -0.11350817273E+04  0.11381484736E+04  0.00000000000E+00 0. -1.
        -13    1    4    4    0    0 -0.31176485579E+02  0.23280481084E+00 -0.19523000663E+02  0.36785527127E+02  0.00000000000E+00 0. -1.
         13    1    4    4    0    0  0.46992901966E+02  0.10022082243E+01 -0.14366006735E+03  0.15115406778E+03  0.00000000000E+00 0.  1.
          1    1    1    2  501    0  0.57791765084E+02 -0.98683651522E+02 -0.12373297211E+03  0.16848798051E+03  0.00000000000E+00 0. -1.
<scales pt_clust_5="13000.00000" pt_clust_6="13000.00000" pt_clust_7="13000.00000" pt_clust_8="13000.00000" pt_clust_9="13000.00000"></scales>
<clustering>
<clus scale="   79.045">  5  6 -1 -1</clus>
<clus scale="   91.874">  7  8 -1 -1</clus>
<clus scale="  114.361">  7  9 -1 -1</clus>
<clus scale="  145.473">  2  5  1 -1</clus>
<clus scale="  211.471">  1  5  2 -1</clus>
</clustering>
</event>
<event>
 9    2  0.2147756E-005  0.2891706E+03  0.7546771E-02  0.1129517E+00
          2   -1    0    0  502    0 -0.00000000000E+00  0.00000000000E+00  0.90196424054E+03  0.90196424054E+03  0.00000000000E+00 0. -1.
         21   -1    0    0  501  502  0.00000000000E+00 -0.00000000000E+00 -0.43912637633E+02  0.43912637633E+02  0.00000000000E+00 0. -1.
         24    2    1    2    0    0  0.58206189739E+02  0.43029323819E+02  0.26467842335E+03  0.28579253138E+03  0.79895056012E+02 0.  0.
         23    2    1    2    0    0  0.45140566853E+02  0.51019981031E+02  0.11538640856E+03  0.16209119715E+03  0.91207585607E+02 0.  0.
        -11    1    3    3    0    0  0.32334447814E+02 -0.14037528139E+02  0.15963912111E+03  0.16348460998E+03  0.00000000000E+00 0.  1.
         12    1    3    3    0    0  0.25871741925E+02  0.57066851959E+02  0.10503930224E+03  0.12230792140E+03  0.00000000000E+00 0. -1.
        -13    1    4    4    0    0  0.14533452614E+02  0.35143009192E+02  0.12128748961E+03  0.12710982447E+03  0.00000000000E+00 0.  1.
         13    1    4    4    0    0  0.30607114239E+02  0.15876971838E+02 -0.59010810546E+01  0.34981372677E+02  0.00000000000E+00 0. -1.
          1    1    1    2  501    0 -0.10334675659E+03 -0.94049304850E+02  0.47798677100E+03  0.49799314965E+03  0.00000000000E+00 0. -1.
<scales pt_clust_5="13000.00000" pt_clust_6="13000.00000" pt_clust_7="13000.00000" pt_clust_8="13000.00000" pt_clust_9="13000.00000"></scales>
<clustering>
<clus scale="   79.895">  5  6 -1 -1</clus>
<clus scale="   91.208">  7  8 -1 -1</clus>
<clus scale="  107.809">  1  5  2 -1</clus>
<clus scale="   83.861">  7  9 -1 -1</clus>
<clus scale="  289.171">  2  5  1 -1</clus>
</clustering>
</event>
<event>
 9    2  0.2147756E-005  0.2362446E+03  0.7546771E-02  0.1163100E+00
          2   -1    0    0  502    0 -0.00000000000E+00  0.00000000000E+00  0.54115891860E+03  0.54115891860E+03  0.00000000000E+00 0. -1.
         21   -1    0    0  501  502  0.00000000000E+00 -0.00000000000E+00 -0.67099123022E+02  0.67099123022E+02  0.00000000000E+00 0. -1.
         24    2    1    2    0    0  0.28550539238E+02  0.23490925383E+02  0.30528389207E+03  0.31791888610E+03  0.80667258001E+02 0.  0.
         23    2    1    2    0    0 -0.52138059160E+02 -0.61281301392E+02  0.52106906482E+01  0.12081611145E+03  0.89975587665E+02 0.  0.
        -11    1    3    3    0    0  0.34418976160E+02  0.14551272238E+02  0.50050915761E+02  0.62461985337E+02  0.00000000000E+00 0.  1.
         12    1    3    3    0    0 -0.58684369222E+01  0.89396531450E+01  0.25523297631E+03  0.25545690076E+03  0.00000000000E+00 0. -1.
        -13    1    4    4    0    0 -0.53745492472E+02 -0.37169512626E+02  0.41358461213E+02  0.77334810686E+02  0.00000000000E+00 0. -1.
         13    1    4    4    0    0  0.16074333114E+01 -0.24111788765E+02 -0.36147770565E+02  0.43481300764E+02  0.00000000000E+00 0.  1.
          1    1    1    2  501    0  0.23587519922E+02  0.37790376009E+02  0.16356521286E+03  0.16952304408E+03  0.00000000000E+00 0. -1.
<scales pt_clust_5="13000.00000" pt_clust_6="13000.00000" pt_clust_7="13000.00000" pt_clust_8="13000.00000" pt_clust_9="13000.00000"></scales>
<clustering>
<clus scale="   80.667">  5  6 -1 -1</clus>
<clus scale="   88.736">  1  5  2 -1</clus>
<clus scale="   89.976">  7  8 -1 -1</clus>
<clus scale="   70.493">  7  9 -1 -1</clus>
<clus scale="  236.245">  2  5  1 -1</clus>
</clustering>
</event>
<event>
 9    2  0.2147756E-005  0.4917304E+03  0.7546771E-02  0.1055559E+00
         21   -1    0    0  501  502  0.00000000000E+00  0.00000000000E+00  0.41937834352E+02  0.41937834352E+02  0.00000000000E+00 0. -1.
          2   -1    0    0  502    0 -0.00000000000E+00 -0.00000000000E+00 -0.25930517555E+04  0.25930517555E+04  0.00000000000E+00 0. -1.
         24    2    1    2    0    0  0.12032901540E+03 -0.49730151973E+02 -0.86768499312E+03  0.88121316679E+03  0.81897729392E+02 0.  0.
         23    2    1    2    0    0 -0.79644689202E+01  0.24197307083E+03 -0.10877274386E+04  0.11178177800E+04  0.88040950008E+02 0.  0.
        -11    1    3    3    0    0  0.11805525967E+02 -0.33309487447E+02 -0.10786584770E+03  0.11350741605E+03  0.00000000000E+00 0.  1.
         12    1    3    3    0    0  0.10852348943E+03 -0.16420664527E+02 -0.75981914542E+03  0.76770575074E+03  0.00000000000E+00 0. -1.
        -11    1    4    4    0    0 -0.41128879754E+02  0.65867094723E+02 -0.29068090108E+03  0.30087446746E+03  0.00000000000E+00 0.  1.
         11    1    4    4    0    0  0.33164410833E+02  0.17610597610E+03 -0.79704653751E+03  0.81694331255E+03  0.00000000000E+00 0. -1.
          1    1    1    2  501    0 -0.11236454648E+03 -0.19224291885E+03 -0.59570148949E+03  0.63595864310E+03  0.00000000000E+00 0. -1.
<scales pt_clust_5="13000.00000" pt_clust_6="13000.00000" pt_clust_7="13000.00000" pt_clust_8="13000.00000" pt_clust_9="13000.00000"></scales>
<clustering>
<clus scale="   81.898">  5  6 -1 -1</clus>
<clus scale="   88.041">  7  8 -1 -1</clus>
<clus scale="  153.816">  2  5  1 -1</clus>
<clus scale="  221.182">  7  9 -1 -1</clus>
<clus scale="  491.730">  1  5  2 -1</clus>
</clustering>
</event>
<event>
 9    2  0.2147756E-005  0.2029177E+03  0.7546771E-02  0.1185735E+00
         21   -1    0    0  501  502  0.00000000000E+00  0.00000000000E+00  0.51961371659E+02  0.51961371659E+02  0.00000000000E+00 0.  1.
          2   -1    0    0  502    0 -0.00000000000E+00 -0.00000000000E+00 -0.39858698443E+03  0.39858698443E+03  0.00000000000E+00 0. -1.
         24    2    1    2    0    0  0.10999422466E+02 -0.17339801532E+02 -0.12010191836E+03  0.14642904009E+03  0.81211680045E+02 0.  0.
         23    2    1    2    0    0  0.54958747570E+02 -0.36115475052E+01 -0.59819715928E+02  0.12362096237E+03  0.93114105882E+02 0.  0.
        -13    1    3    3    0    0 -0.35109801194E+02 -0.10755695921E+02 -0.45331800921E+02  0.58338283394E+02  0.00000000000E+00 0.  1.
         14    1    3    3    0    0  0.46109223659E+02 -0.65841056109E+01 -0.74770117444E+02  0.88090756698E+02  0.00000000000E+00 0. -1.
        -13    1    4    4    0    0  0.12526753126E+02  0.25257818197E+02  0.15732566625E+02  0.32286074035E+02  0.00000000000E+00 0.  1.
         13    1    4    4    0    0  0.42431994444E+02 -0.28869365702E+02 -0.75552282554E+02  0.91334888337E+02  0.00000000000E+00 0. -1.
          1    1    1    2  501    0 -0.65958170035E+02  0.20951349037E+02 -0.16670397848E+03  0.18049835362E+03  0.00000000000E+00 0. -1.
<scales pt_clust_5="13000.00000" pt_clust_6="13000.00000" pt_clust_7="13000.00000" pt_clust_8="13000.00000" pt_clust_9="13000.00000"></scales>
<clustering>
<clus scale="   81.212">  5  6 -1 -1</clus>
<clus scale="   83.767">  2  5  1 -1</clus>
<clus scale="   93.114">  7  8 -1 -1</clus>
<clus scale="   59.541">  7  9 -1 -1</clus>
<clus scale="  202.918">  1  5  2 -1</clus>
</clustering>
</event>
<event>
 9    2  0.2147756E-005  0.2359883E+03  0.7546771E-02  0.1165339E+00
          4   -1    0    0  502    0 -0.00000000000E+00  0.00000000000E+00  0.44143386447E+03  0.44143386447E+03  0.00000000000E+00 0. -1.
         21   -1    0    0  501  502  0.00000000000E+00 -0.00000000000E+00 -0.13861516335E+03  0.13861516335E+03  0.00000000000E+00 0. -1.
         24    2    1    2    0    0 -0.51327973621E+01 -0.29734398955E+02  0.33169718261E+03  0.34230036131E+03  0.78968578012E+02 0.  0.
         23    2    1    2    0    0 -0.38278929838E+02 -0.38774989259E+02  0.56373645761E+02  0.12007947117E+03  0.90952268789E+02 0.  0.
        -13    1    3    3    0    0 -0.34399462993E+02  0.22431904636E+01  0.83335120345E+02  0.90183686111E+02  0.00000000000E+00 0.  1.
         14    1    3    3    0    0  0.29266665630E+02 -0.31977589418E+02  0.24836206226E+03  0.25211667520E+03  0.00000000000E+00 0. -1.
        -13    1    4    4    0    0 -0.29303811426E+02 -0.62053397367E+02  0.12711321724E+02  0.69791942148E+02  0.00000000000E+00 0. -1.
         13    1    4    4    0    0 -0.89751184125E+01  0.23278408108E+02  0.43662324037E+02  0.50287529019E+02  0.00000000000E+00 0.  1.
          3    1    1    2  501    0  0.43411727200E+02  0.68509388214E+02 -0.85252127244E+02  0.11766919534E+03  0.00000000000E+00 0. -1.
<scales pt_clust_5="13000.00000" pt_clust_6="13000.00000" pt_clust_7="13000.00000" pt_clust_8="13000.00000" pt_clust_9="13000.00000"></scales>
<clustering>
<clus scale="   78.969">  5  6 -1 -1</clus>
<clus scale="   84.537">  1  5  2 -1</clus>
<clus scale="   90.952">  7  8 -1 -1</clus>
<clus scale="   76.802">  7  9 -1 -1</clus>
<clus scale="  235.988">  2  5  1 -1</clus>
</clustering>
</event>
<event>
 9    2  0.2147756E-005  0.2320195E+03  0.7546771E-02  0.1161400E+00
         21   -1    0    0  501  502  0.00000000000E+00  0.00000000000E+00  0.50624060816E+02  0.50624060816E+02  0.00000000000E+00 0.  1.
          4   -1    0    0  502    0 -0.00000000000E+00 -0.00000000000E+00 -0.55691064612E+03  0.55691064612E+03  0.00000000000E+00 0. -1.
         24    2    1    2    0    0 -0.49083862316E+01 -0.56334104559E+02 -0.99714752715E+02  0.13941753445E+03  0.79351076932E+02 0.  0.
         23    2    1    2    0    0 -0.75751440064E+02  0.59964002815E+02 -0.15365677648E+03  0.20262666541E+03  0.90073293899E+02 0.  0.
        -13    1    3    3    0    0 -0.15650852047E+02 -0.70964483648E+02 -0.54930292266E+02  0.91094698626E+02  0.00000000000E+00 0.  1.
         14    1    3    3    0    0  0.10742465816E+02  0.14630379089E+02 -0.44784460449E+02  0.48322835821E+02  0.00000000000E+00 0. -1.
        -11    1    4    4    0    0 -0.63300556898E+02  0.18100579665E+02 -0.14335770967E+03  0.15775304882E+03  0.00000000000E+00 0. -1.
         11    1    4    4    0    0 -0.12450883166E+02  0.41863423149E+02 -0.10299066802E+02  0.44873616596E+02  0.00000000000E+00 0.  1.
          3    1    1    2  501    0  0.80659826296E+02 -0.36298982555E+01 -0.25291505611E+03  0.26549050708E+03  0.00000000000E+00 0. -1.
<scales pt_clust_5="13000.00000" pt_clust_6="13000.00000" pt_clust_7="13000.00000" pt_clust_8="13000.00000" pt_clust_9="13000.00000"></scales>
<clustering>
<clus scale="   79.351">  5  6 -1 -1</clus>
<clus scale="   90.073">  7  8 -1 -1</clus>
<clus scale="   80.742">  7  9 -1 -1</clus>
<clus scale="   97.438">  2  5  1 -1</clus>
<clus scale="  232.019">  1  5  2 -1</clus>
</clustering>
</event>
<event>
 9    2  0.2147756E-005  0.3350215E+03  0.7546771E-02  0.1113088E+00
         21   -1    0    0  501  502  0.00000000000E+00  0.00000000000E+00  0.85623562010E+02  0.85623562010E+02  0.00000000000E+00 0. -1.
          2   -1    0    0  502    0 -0.00000000000E+00 -0.00000000000E+00 -0.99871620748E+03  0.99871620748E+03  0.00000000000E+00 0. -1.
         24    2    1    2    0    0 -0.26530376444E+01  0.65531734333E+02 -0.65006069936E+03  0.65839936188E+03  0.81297970769E+02 0.  0.
         23    2    1    2    0    0 -0.31020514763E+02  0.90786143964E+02 -0.22361360732E+03  0.26124981092E+03  0.95100063376E+02 0.  0.
        -11    1    3    3    0    0 -0.37622740945E+02  0.10862759258E+02 -0.21740424762E+03  0.22090286793E+03  0.00000000000E+00 0.  1.
         12    1    3    3    0    0  0.34969703301E+02  0.54668975075E+02 -0.43265645174E+03  0.43749649395E+03  0.00000000000E+00 0. -1.
        -11    1    4    4    0    0  0.27762217755E+02  0.52345846484E+02 -0.66000032169E+02  0.88695166864E+02  0.00000000000E+00 0.  1.
         11    1    4    4    0    0 -0.58782732518E+02  0.38440297480E+02 -0.15761357515E+03  0.17255464405E+03  0.00000000000E+00 0. -1.
          1    1    1    2  501    0  0.33673552407E+02 -0.15631787830E+03 -0.39418338786E+02  0.16469059669E+03  0.00000000000E+00 0. -1.
<scales pt_clust_5="13000.00000" pt_clust_6="13000.00000" pt_clust_7="13000.00000" pt_clust_8="13000.00000" pt_clust_9="13000.00000"></scales>
<clustering>
<clus scale="   81.298">  5  6 -1 -1</clus>
<clus scale="   95.100">  7  8 -1 -1</clus>
<clus scale="  104.455">  2  5  1 -1</clus>
<clus scale="  140.799">  7  9 -1 -1</clus>
<clus scale="  335.022">  1  5  2 -1</clus>
</clustering>
</event>
<event>
 9    2  0.2147756E-005  0.2683842E+03  0.7546771E-02  0.1107085E+00
         21   -1    0    0  501  502  0.00000000000E+00  0.00000000000E+00  0.41066540912E+03  0.41066540912E+03  0.00000000000E+00 0. -1.
          2   -1    0    0  502    0 -0.00000000000E+00 -0.00000000000E+00 -0.18107875991E+03  0.18107875991E+03  0.00000000000E+00 0. -1.
         24    2    1    2    0    0 -0.21035491743E+03 -0.73195923695E+02 -0.27656659488E+01  0.23675449296E+03  0.80238435278E+02 0.  0.
         23    2    1    2    0    0  0.83500215607E+02  0.17747103672E+02  0.14603658298E+03  0.19184221933E+03  0.90495899659E+02 0.  0.
        -13    1    3    3    0    0 -0.13369824632E+03 -0.36413593142E+02 -0.39567842343E+02  0.14410685266E+03  0.00000000000E+00 0.  1.
         14    1    3    3    0    0 -0.76656671110E+02 -0.36782330554E+02  0.36802176394E+02  0.92647640304E+02  0.00000000000E+00 0. -1.
        -13    1    4    4    0    0  0.22320532401E+02 -0.27151357341E+01 -0.87677435956E+01  0.24134031086E+02  0.00000000000E+00 0. -1.
         13    1    4    4    0    0  0.61179683206E+02  0.20462239407E+02  0.15480432657E+03  0.16770818824E+03  0.00000000000E+00 0.  1.
          1    1    1    2  501    0  0.12685470183E+03  0.55448820023E+02  0.86315732180E+02  0.16314745674E+03  0.00000000000E+00 0. -1.
<scales pt_clust_5="13000.00000" pt_clust_6="13000.00000" pt_clust_7="13000.00000" pt_clust_8="13000.00000" pt_clust_9="13000.00000"></scales>
<clustering>
<clus scale="   80.238">  5  6 -1 -1</clus>
<clus scale="   90.496">  7  8 -1 -1</clus>
<clus scale="  138.444">  7  9 -1 -1</clus>
<clus scale="  236.738">  2  5  1 -1</clus>
<clus scale="  268.384">  1  5  2 -1</clus>
</clustering>
</event>
<event>
 9    2  0.2147756E-005  0.1465339E+03  0.7546771E-02  0.1231278E+00
          2   -1    0    0  502    0 -0.00000000000E+00  0.00000000000E+00  0.54791964232E+03  0.54791964232E+03  0.00000000000E+00 0. -1.
         21   -1    0    0  501  502  0.00000000000E+00 -0.00000000000E+00 -0.65388652760E+02  0.65388652760E+02  0.00000000000E+00 0. -1.
         24    2    1    2    0    0 -0.18866201001E+02 -0.12989046243E+02  0.45691776059E+03  0.46455270503E+03  0.80689075753E+02 0.  0.
         23    2    1    2    0    0  0.12799120109E+01 -0.75235955674E+00  0.46381021102E+02  0.11826944593E+03  0.10878537816E+03 0.  0.
        -11    1    3    3    0    0  0.31979414370E+02 -0.48956136536E+01  0.16943299416E+03  0.17249402739E+03  0.00000000000E+00 0.  1.
         12    1    3    3    0    0 -0.50845615371E+02 -0.80934325890E+01  0.28748476643E+03  0.29205867764E+03  0.00000000000E+00 0. -1.
        -11    1    4    4    0    0  0.48540343912E+02 -0.21430429519E+01 -0.45197058316E+01  0.48797390924E+02  0.00000000000E+00 0.  1.
         11    1    4    4    0    0 -0.47260431901E+02  0.13906833952E+01  0.50900726933E+02  0.69472055001E+02  0.00000000000E+00 0. -1.
          1    1    1    2  501    0  0.17586288990E+02  0.13741405799E+02 -0.20767792130E+02  0.30486144127E+02  0.00000000000E+00 0. -1.
<scales pt_clust_5="13000.00000" pt_clust_6="13000.00000" pt_clust_7="13000.00000" pt_clust_8="13000.00000" pt_clust_9="13000.00000"></scales>
<clustering>
<clus scale="   80.689">  5  6 -1 -1</clus>
<clus scale="   83.877">  1  5  2 -1</clus>
<clus scale="  108.785">  7  8 -1 -1</clus>
<clus scale="   21.044">  7  9 -1 -1</clus>
<clus scale="  146.534">  2  5  1 -1</clus>
</clustering>
</event>
<event>
 9    2  0.2147756E-005  0.5679080E+03  0.7546771E-02  0.1028315E+00
         21   -1    0    0  501  502  0.00000000000E+00  0.00000000000E+00  0.16492345055E+03  0.16492345055E+03  0.00000000000E+00 0.  1.
          2   -1    0    0  502    0 -0.00000000000E+00 -0.00000000000E+00 -0.94137655514E+03  0.94137655514E+03  0.00000000000E+00 0. -1.
         24    2    1    2    0    0 -0.15034286343E+03 -0.13879951909E+03 -0.20616509555E+03  0.30147210979E+03  0.80703799646E+02 0.  0.
         23    2    1    2    0    0 -0.14476457993E+03  0.18850541840E+03 -0.35113058015E+03  0.43389790495E+03  0.92106629687E+02 0.  0.
        -11    1    3    3    0    0 -0.94055695243E+02 -0.38463139768E+02 -0.12282791959E+03  0.15941325152E+03  0.00000000000E+00 0.  1.
         12    1    3    3    0    0 -0.56287168183E+02 -0.10033637932E+03 -0.83337175954E+02  0.14205885827E+03  0.00000000000E+00 0. -1.
        -11    1    4    4    0    0 -0.90223466793E+02  0.80419738485E+02 -0.24375905345E+03  0.27207735010E+03  0.00000000000E+00 0. -1.
         11    1    4    4    0    0 -0.54541113133E+02  0.10808567992E+03 -0.10737152670E+03  0.16182055485E+03  0.00000000000E+00 0.  1.
          1    1    1    2  501    0  0.29510744335E+03 -0.49705899315E+02 -0.21915742889E+03  0.37092999095E+03  0.00000000000E+00 0. -1.
<scales pt_clust_5="13000.00000" pt_clust_6="13000.00000" pt_clust_7="13000.00000" pt_clust_8="13000.00000" pt_clust_9="13000.00000"></scales>
<clustering>
<clus scale="   80.704">  5  6 -1 -1</clus>
<clus scale="   92.107">  7  8 -1 -1</clus>
<clus scale="  219.958">  2  5  1 -1</clus>
<clus scale="  255.171">  7  9 -1 -1</clus>
<clus scale="  567.908">  1  5  2 -1</clus>
</clustering>
</event>
<event>
 9    2  0.2147756E-005  0.5759398E+03  0.7546771E-02  0.1054653E+00
          2   -1    0    0  502    0 -0.00000000000E+00  0.00000000000E+00  0.17893668123E+04  0.17893668123E+04  0.00000000000E+00 0. -1.
         21   -1    0    0  501  502  0.00000000000E+00 -0.00000000000E+00 -0.63501947999E+02  0.63501947999E+02  0.00000000000E+00 0.  1.
         24    2    1    2    0    0 -0.52429480887E+02 -0.17827809618E+02  0.24598743201E+03  0.26486879329E+03  0.81110909806E+02 0.  0.
         23    2    1    2    0    0 -0.16224388452E+03  0.11696141228E+03  0.23902420242E+03  0.32481792824E+03  0.91493536044E+02 0.  0.
        -11    1    3    3    0    0 -0.18547181083E+02  0.32554484301E+02  0.97041103042E+02  0.10402292081E+03  0.00000000000E+00 0.  1.
         12    1    3    3    0    0 -0.33882299804E+02 -0.50382293918E+02  0.14894632897E+03  0.16084587248E+03  0.00000000000E+00 0. -1.
        -11    1    4    4    0    0 -0.75196144166E+02  0.92654400509E+02  0.85970736443E+02  0.14707231403E+03  0.00000000000E+00 0.  1.
         11    1    4    4    0    0 -0.87047740350E+02  0.24307011771E+02  0.15305346598E+03  0.17774561420E+03  0.00000000000E+00 0. -1.
          1    1    1    2  501    0  0.21467336540E+03 -0.99133602663E+02  0.12408532299E+04  0.12631820388E+04  0.00000000000E+00 0. -1.
<scales pt_clust_5="13000.00000" pt_clust_6="13000.00000" pt_clust_7="13000.00000" pt_clust_8="13000.00000" pt_clust_9="13000.00000"></scales>
<clustering>
<clus scale="   81.111">  5  6 -1 -1</clus>
<clus scale="   91.494">  7  8 -1 -1</clus>
<clus scale="   98.212">  1  5  2 -1</clus>
<clus scale="  206.075">  7  9 -1 -1</clus>
<clus scale="  575.940">  2  5  1 -1</clus>
</clustering>
</event>
<event>
 9    2  0.2147756E-005  0.1667406E+03  0.7546771E-02  0.1210112E+00
          2   -1    0    0  502    0 -0.00000000000E+00  0.00000000000E+00  0.30613849427E+03  0.30613849427E+03  0.00000000000E+00 0. -1.
         21   -1    0    0  501  502  0.00000000000E+00 -0.00000000000E+00 -0.18993917346E+03  0.18993917346E+03  0.00000000000E+00 0.  1.
         24    2    1    2    0    0  0.25356121851E+02  0.27072842912E+02  0.26072852503E+03  0.27541703664E+03  0.80618289294E+02 0.  0.
         23    2    1    2    0    0 -0.80846871306E+00  0.25308540422E+02 -0.12024604264E+03  0.15792253635E+03  0.99192947714E+02 0.  0.
        -13    1    3    3    0    0  0.33881404047E+02 -0.10366669226E+02  0.20310271516E+03  0.20617014885E+03  0.00000000000E+00 0.  1.
         14    1    3    3    0    0 -0.85252821960E+01  0.37439512138E+02  0.57625809874E+02  0.69246887795E+02  0.00000000000E+00 0. -1.
        -11    1    4    4    0    0  0.42061228826E+02 -0.89252777094E+00 -0.89822183593E+02  0.99186532562E+02  0.00000000000E+00 0.  1.
         11    1    4    4    0    0 -0.42869697539E+02  0.26201068193E+02 -0.30423859047E+02  0.58736003787E+02  0.00000000000E+00 0. -1.
          1    1    1    2  501    0 -0.24547653138E+02 -0.52381383334E+02 -0.24283161579E+02  0.62738094734E+02  0.00000000000E+00 0. -1.
<scales pt_clust_5="13000.00000" pt_clust_6="13000.00000" pt_clust_7="13000.00000" pt_clust_8="13000.00000" pt_clust_9="13000.00000"></scales>
<clustering>
<clus scale="   80.618">  5  6 -1 -1</clus>
<clus scale="   88.742">  1  5  2 -1</clus>
<clus scale="   99.193">  7  8 -1 -1</clus>
<clus scale="   40.448">  7  9 -1 -1</clus>
<clus scale="  166.741">  2  5  1 -1</clus>
</clustering>
</event>
<event>
 9    2  0.2147756E-005  0.6241749E+03  0.7546771E-02  0.1010916E+00
         -1   -1    0    0    0  501 -0.00000000000E+00  0.00000000000E+00  0.25579314993E+03  0.25579314993E+03  0.00000000000E+00 0.  1.
         21   -1    0    0  501  502  0.00000000000E+00 -0.00000000000E+00 -0.80410484612E+03  0.80410484612E+03  0.00000000000E+00 0.  1.
         24    2    1    2    0    0 -0.17568467530E+03  0.20136718480E+03 -0.13632716740E+03  0.31201726031E+03  0.85766111670E+02 0.  0.
         23    2    1    2    0    0 -0.10132879994E+03 -0.14105463246E+03 -0.42014331527E+03  0.46426015250E+03  0.94091172802E+02 0.  0.
        -13    1    3    3    0    0 -0.16390422591E+03  0.19684924674E+03 -0.10247471175E+03  0.27588999214E+03  0.00000000000E+00 0.  1.
         14    1    3    3    0    0 -0.11780449391E+02  0.45179380614E+01 -0.33852455651E+02  0.36127268175E+02  0.00000000000E+00 0. -1.
        -11    1    4    4    0    0 -0.74908588108E+02 -0.10680000426E+03 -0.39077324144E+03  0.41197240649E+03  0.00000000000E+00 0.  1.
         11    1    4    4    0    0 -0.26420211836E+02 -0.34254628198E+02 -0.29370073831E+02  0.52287746015E+02  0.00000000000E+00 0. -1.
         -2    1    1    2    0  502  0.27701347525E+03 -0.60312552344E+02  0.81587864761E+01  0.28362058324E+03  0.00000000000E+00 0.  1.
<scales pt_clust_5="13000.00000" pt_clust_6="13000.00000" pt_clust_7="13000.00000" pt_clust_8="13000.00000" pt_clust_9="13000.00000"></scales>
<clustering>
<clus scale="   85.766">  5  6 -1 -1</clus>
<clus scale="   94.091">  7  8 -1 -1</clus>
<clus scale="  280.659">  1  5  2 -1</clus>
<clus scale="  169.148">  7  9 -1 -1</clus>
<clus scale="  624.175">  2  5  1 -1</clus>
</clustering>
</event>
<event>
 9    2  0.2147756E-005  0.2519562E+03  0.7546771E-02  0.1141992E+00
         21   -1    0    0  501  502  0.00000000000E+00  0.00000000000E+00  0.10189935474E+03  0.10189935474E+03  0.00000000000E+00 0.  1.
         -1   -1    0    0    0  501 -0.00000000000E+00 -0.00000000000E+00 -0.38416875654E+03  0.38416875654E+03  0.00000000000E+00 0.  1.
         24    2    1    2    0    0  0.30744174942E+02 -0.85021109021E+02 -0.19320182280E+02  0.12189203931E+03  0.79439326109E+02 0.  0.
         23    2    1    2    0    0 -0.19013687766E+01 -0.43847912177E+02 -0.55600140707E+02  0.11834529160E+03  0.94804946031E+02 0.  0.
        -11    1    3    3    0    0  0.45154880973E+02 -0.51291007820E+02  0.16845813107E+02  0.70381191935E+02  0.00000000000E+00 0.  1.
         12    1    3    3    0    0 -0.14410706032E+02 -0.33730101201E+02 -0.36165995387E+02  0.51510847379E+02  0.00000000000E+00 0. -1.
        -11    1    4    4    0    0 -0.36857319894E+02 -0.55910951016E+02 -0.30058995175E+02  0.73403267395E+02  0.00000000000E+00 0.  1.
         11    1    4    4    0    0  0.34955951118E+02  0.12063038840E+02 -0.25541145532E+02  0.44942024206E+02  0.00000000000E+00 0. -1.
         -2    1    1    2    0  502 -0.28842806165E+02  0.12886902120E+03 -0.20734907881E+03  0.24583078036E+03  0.00000000000E+00 0.  1.
<scales pt_clust_5="13000.00000" pt_clust_6="13000.00000" pt_clust_7="13000.00000" pt_clust_8="13000.00000" pt_clust_9="13000.00000"></scales>
<clustering>
<clus scale="   79.439">  5  6 -1 -1</clus>
<clus scale="   94.805">  7  8 -1 -1</clus>
<clus scale="  120.351">  2  5  1 -1</clus>
<clus scale="   67.755">  7  9 -1 -1</clus>
<clus scale="  251.956">  1  5  2 -1</clus>
</clustering>
</event>
<event>
 9    2  0.2147756E-005  0.1522032E+03  0.7546771E-02  0.1211672E+00
          2   -1    0    0  502    0 -0.00000000000E+00  0.00000000000E+00  0.11745534178E+03  0.11745534178E+03  0.00000000000E+00 0. -1.
         21   -1    0    0  501  502  0.00000000000E+00 -0.00000000000E+00 -0.15027256825E+03  0.15027256825E+03  0.00000000000E+00 0.  1.
         24    2    1    2    0    0  0.60792533891E+02  0.50812640559E+02 -0.47572941645E+01  0.11295973176E+03  0.80371714766E+02 0.  0.
         23    2    1    2    0    0 -0.27199986296E+02 -0.11912824619E+02 -0.30202767193E+02  0.10332649600E+03  0.94246501175E+02 0.  0.
        -13    1    3    3    0    0  0.65444816116E+02  0.61125707108E+02  0.14409479049E+02  0.90702861655E+02  0.00000000000E+00 0.  1.
         14    1    3    3    0    0 -0.46522822252E+01 -0.10313066549E+02 -0.19166773213E+02  0.22256870107E+02  0.00000000000E+00 0. -1.
        -13    1    4    4    0    0  0.61353694129E+01 -0.48331886077E+02 -0.87686077793E+01  0.49502549954E+02  0.00000000000E+00 0.  1.
         13    1    4    4    0    0 -0.33335355709E+02  0.36419061458E+02 -0.21434159413E+02  0.53823946042E+02  0.00000000000E+00 0. -1.
          1    1    1    2  501    0 -0.33592547595E+02 -0.38899815940E+02  0.21428348839E+01  0.51441682276E+02  0.00000000000E+00 0. -1.
<scales pt_clust_5="13000.00000" pt_clust_6="13000.00000" pt_clust_7="13000.00000" pt_clust_8="13000.00000" pt_clust_9="13000.00000"></scales>
<clustering>
<clus scale="   80.372">  5  6 -1 -1</clus>
<clus scale="   94.247">  7  8 -1 -1</clus>
<clus scale="   51.397">  7  9 -1 -1</clus>
<clus scale="  112.860">  1  5  2 -1</clus>
<clus scale="  152.203">  2  5  1 -1</clus>
</clustering>
</event>
<event>
 9    2  0.2147756E-005  0.2699302E+03  0.7546771E-02  0.1133468E+00
         21   -1    0    0  501  502  0.00000000000E+00  0.00000000000E+00  0.43585857389E+02  0.43585857389E+02  0.00000000000E+00 0. -1.
          2   -1    0    0  502    0 -0.00000000000E+00 -0.00000000000E+00 -0.89372003360E+03  0.89372003360E+03  0.00000000000E+00 0. -1.
         24    2    1    2    0    0  0.33198938541E+02  0.82389033781E+02 -0.20060537205E+03  0.23392124410E+03  0.81157320901E+02 0.  0.
         23    2    1    2    0    0  0.40499110379E+02  0.19313973944E+02 -0.48893909263E+03  0.49951223669E+03  0.91857665793E+02 0.  0.
        -11    1    3    3    0    0 -0.25647424638E+02  0.11303173116E+02 -0.45566009587E+02  0.53495918936E+02  0.00000000000E+00 0.  1.
         12    1    3    3    0    0  0.58846363179E+02  0.71085860665E+02 -0.15503936246E+03  0.18042532516E+03  0.00000000000E+00 0. -1.
        -13    1    4    4    0    0  0.66463956033E+02 -0.43382793914E+01 -0.29586106990E+03  0.30326564395E+03  0.00000000000E+00 0.  1.
         13    1    4    4    0    0 -0.25964845653E+02  0.23652253335E+02 -0.19307802273E+03  0.19624659274E+03  0.00000000000E+00 0. -1.
          1    1    1    2  501    0 -0.73698048920E+02 -0.10170300772E+03 -0.16058971152E+03  0.20387241020E+03  0.00000000000E+00 0. -1.
<scales pt_clust_5="13000.00000" pt_clust_6="13000.00000" pt_clust_7="13000.00000" pt_clust_8="13000.00000" pt_clust_9="13000.00000"></scales>
<clustering>
<clus scale="   81.157">  5  6 -1 -1</clus>
<clus scale="   91.858">  7  8 -1 -1</clus>
<clus scale="  120.319">  2  5  1 -1</clus>
<clus scale="  102.541">  7  9 -1 -1</clus>
<clus scale="  269.930">  1  5  2 -1</clus>
</clustering>
</event>
<event>
 9    2  0.2147756E-005  0.1523973E+03  0.7546771E-02  0.1212462E+00
          2   -1    0    0  502    0 -0.00000000000E+00  0.00000000000E+00  0.36348386958E+03  0.36348386958E+03  0.00000000000E+00 0. -1.
         21   -1    0    0  501  502  0.00000000000E+00 -0.00000000000E+00 -0.13799842614E+03  0.13799842614E+03  0.00000000000E+00 0. -1.
         24    2    1    2    0    0  0.27238347832E+01  0.77254126292E+02  0.30866202819E+03  0.32786407980E+03  0.79037888873E+02 0.  0.
         23    2    1    2    0    0  0.31257084424E+02 -0.67748541207E+02 -0.62890852787E+02  0.13291723387E+03  0.90248886606E+02 0.  0.
        -11    1    3    3    0    0 -0.27065886223E+02 -0.72874735510E+00  0.74957808781E+02  0.79697969654E+02  0.00000000000E+00 0.  1.
         12    1    3    3    0    0  0.29789721006E+02  0.77982873647E+02  0.23370421940E+03  0.24816611015E+03  0.00000000000E+00 0. -1.
        -11    1    4    4    0    0  0.25163720232E+02  0.50358548797E+01 -0.53423035482E+02  0.59267135669E+02  0.00000000000E+00 0.  1.
         11    1    4    4    0    0  0.60933641914E+01 -0.72784396087E+02 -0.94678173052E+01  0.73650098203E+02  0.00000000000E+00 0. -1.
          1    1    1    2  501    0 -0.33980919207E+02 -0.95055850855E+01 -0.20285731964E+02  0.40700982043E+02  0.00000000000E+00 0. -1.
<scales pt_clust_5="13000.00000" pt_clust_6="13000.00000" pt_clust_7="13000.00000" pt_clust_8="13000.00000" pt_clust_9="13000.00000"></scales>
<clustering>
<clus scale="   79.038">  5  6 -1 -1</clus>
<clus scale="   90.249">  7  8 -1 -1</clus>
<clus scale="   35.285">  7  9 -1 -1</clus>
<clus scale="  110.556">  1  5  2 -1</clus>
<clus scale="  152.397">  2  5  1 -1</clus>
</clustering>
</event>
<event>
 9    2  0.2147756E-005  0.1618097E+03  0.7546771E-02  0.1209434E+00
         21   -1    0    0  501  502  0.00000000000E+00  0.00000000000E+00  0.27657245634E+03  0.27657245634E+03  0.00000000000E+00 0. -1.
          2   -1    0    0  502    0 -0.00000000000E+00 -0.00000000000E+00 -0.12016731310E+03  0.12016731310E+03  0.00000000000E+00 0. -1.
         24    2    1    2    0    0 -0.57712413122E+02  0.22535965005E+01 -0.68268233171E+02  0.11986344499E+03  0.79817870545E+02 0.  0.
         23    2    1    2    0    0  0.37483300132E+01 -0.14862193686E+02  0.19209130260E+03  0.21259031880E+03  0.89781068906E+02 0.  0.
        -11    1    3    3    0    0  0.15911179560E+02  0.15341203878E+02 -0.69795323104E+01  0.23178266602E+02  0.00000000000E+00 0.  1.
         12    1    3    3    0    0 -0.73623592682E+02 -0.13087607377E+02 -0.61288700860E+02  0.96685178385E+02  0.00000000000E+00 0. -1.
        -13    1    4    4    0    0 -0.11205430085E+02  0.34052927785E+02  0.11164840297E+03  0.11726265151E+03  0.00000000000E+00 0.  1.
         13    1    4    4    0    0  0.14953760098E+02 -0.48915121471E+02  0.80442899629E+02  0.95327667287E+02  0.00000000000E+00 0. -1.
          1    1    1    2  501    0  0.53964083109E+02  0.12608597186E+02  0.32582073822E+02  0.64286005657E+02  0.00000000000E+00 0. -1.
<scales pt_clust_5="13000.00000" pt_clust_6="13000.00000" pt_clust_7="13000.00000" pt_clust_8="13000.00000" pt_clust_9="13000.00000"></scales>
<clustering>
<clus scale="   79.818">  5  6 -1 -1</clus>
<clus scale="   89.781">  7  8 -1 -1</clus>
<clus scale="   55.418">  7  9 -1 -1</clus>
<clus scale="   98.523">  2  5  1 -1</clus>
<clus scale="  161.810">  1  5  2 -1</clus>
</clustering>
</event>
<event>
 9    2  0.2908557E-005  0.1581892E+04  0.7546771E-02  0.9369676E-01
          2   -1    0    0  502    0 -0.00000000000E+00  0.00000000000E+00  0.85904176446E+03  0.85904176446E+03  0.00000000000E+00 0. -1.
         21   -1    0    0  501  502  0.00000000000E+00 -0.00000000000E+00 -0.10624699785E+04  0.10624699785E+04  0.00000000000E+00 0. -1.
         24    2    1    2    0    0 -0.57166533432E+02  0.17700576392E+03  0.20462344084E+03  0.28783873901E+03  0.79883253102E+02 0.  0.
         23    2    1    2    0    0  0.71930004580E+02  0.12865164218E+03  0.57700595522E+03  0.60217753368E+03  0.89200555597E+02 0.  0.
        -11    1    3    3    0    0 -0.28087428259E+02  0.12908334009E+02  0.12078141920E+02  0.33187501041E+02  0.00000000000E+00 0.  1.
         12    1    3    3    0    0 -0.29079105172E+02  0.16409742991E+03  0.19254529892E+03  0.25465123796E+03  0.00000000000E+00 0. -1.
        -11    1    4    4    0    0  0.21716629151E+02  0.48759922189E+02  0.79205431970E+02  0.95512525080E+02  0.00000000000E+00 0.  1.
         11    1    4    4    0    0  0.50213375429E+02  0.79891719990E+02  0.49780052325E+03  0.50666500860E+03  0.00000000000E+00 0. -1.
          1    1    1    2  501    0 -0.14763471148E+02 -0.30565740609E+03 -0.98505761011E+03  0.10314954703E+04  0.00000000000E+00 0. -1.
<scales pt_clust_5="13000.00000" pt_clust_6="13000.00000" pt_clust_7="13000.00000" pt_clust_8="13000.00000" pt_clust_9="13000.00000"></scales>
<clustering>
<clus scale="   79.883">  5  6 -1 -1</clus>
<clus scale="   89.201">  7  8 -1 -1</clus>
<clus scale="  202.436">  1  5  2 -1</clus>
<clus scale="  299.430">  7  9 -1 -1</clus>
<clus scale=" 1581.892">  2  5  1 -1</clus>
</clustering>
</event>
<event>
 9    2  0.2147756E-005  0.2543855E+03  0.7546771E-02  0.1125751E+00
          2   -1    0    0  502    0 -0.00000000000E+00  0.00000000000E+00  0.46278412039E+03  0.46278412039E+03  0.00000000000E+00 0. -1.
         21   -1    0    0  501  502  0.00000000000E+00 -0.00000000000E+00 -0.99275559852E+02  0.99275559852E+02  0.00000000000E+00 0. -1.
         24    2    1    2    0    0 -0.15335625313E+03 -0.11341926366E+02  0.16134790845E+03  0.23712750651E+03  0.80929148733E+02 0.  0.
         23    2    1    2    0    0  0.16835514358E+02 -0.40573607891E+02  0.49017537179E+02  0.11330526510E+03  0.92226416754E+02 0.  0.
        -11    1    3    3    0    0 -0.34998643876E+02 -0.38443446297E+02  0.55514071138E+02  0.76056661317E+02  0.00000000000E+00 0.  1.
         12    1    3    3    0    0 -0.11835760926E+03  0.27101519931E+02  0.10583383731E+03  0.16107084519E+03  0.00000000000E+00 0. -1.
        -13    1    4    4    0    0 -0.16952770792E+02 -0.58100450317E+02  0.44185691248E+02  0.74936200035E+02  0.00000000000E+00 0.  1.
         13    1    4    4    0    0  0.33788285150E+02  0.17526842426E+02  0.48318459307E+01  0.38369065064E+02  0.00000000000E+00 0. -1.
          1    1    1    2  501    0  0.13652073878E+03  0.51915534257E+02  0.15314311491E+03  0.21162690863E+03  0.00000000000E+00 0. -1.
<scales pt_clust_5="13000.00000" pt_clust_6="13000.00000" pt_clust_7="13000.00000" pt_clust_8="13000.00000" pt_clust_9="13000.00000"></scales>
<clustering>
<clus scale="   80.929">  5  6 -1 -1</clus>
<clus scale="   92.226">  7  8 -1 -1</clus>
<clus scale="  146.059">  7  9 -1 -1</clus>
<clus scale="  173.771">  1  5  2 -1</clus>
<clus scale="  254.386">  2  5  1 -1</clus>
</clustering>
</event>
<event>
 9    2  0.2147756E-005  0.2531494E+03  0.7546771E-02  0.1158815E+00
          2   -1    0    0  502    0 -0.00000000000E+00  0.00000000000E+00  0.37098454948E+02  0.37098454948E+02  0.00000000000E+00 0. -1.
         21   -1    0    0  501  502  0.00000000000E+00 -0.00000000000E+00 -0.75046415472E+03  0.75046415472E+03  0.00000000000E+00 0. -1.
         24    2    1    2    0    0  0.48309661489E+01  0.58651820792E+01 -0.14718056578E+03  0.16736086270E+03  0.79308264564E+02 0.  0.
         23    2    1    2    0    0  0.76678890940E+02 -0.14045623796E+02 -0.13377638525E+03  0.18010164196E+03  0.91997545204E+02 0.  0.
        -11    1    3    3    0    0 -0.10204512475E+01 -0.32242348861E+02 -0.30192679808E+02  0.44183801272E+02  0.00000000000E+00 0.  1.
         12    1    3    3    0    0  0.58514173964E+01  0.38107530940E+02 -0.11698788597E+03  0.12317706143E+03  0.00000000000E+00 0. -1.
        -11    1    4    4    0    0  0.56643163371E+01  0.34107443927E+02 -0.43313432711E+02  0.55420715117E+02  0.00000000000E+00 0.  1.
         11    1    4    4    0    0  0.71014574603E+02 -0.48153067723E+02 -0.90462952538E+02  0.12468092685E+03  0.00000000000E+00 0. -1.
          1    1    1    2  501    0 -0.81509857089E+02  0.81804417163E+01 -0.43240874875E+03  0.44010010501E+03  0.00000000000E+00 0. -1.
<scales pt_clust_5="13000.00000" pt_clust_6="13000.00000" pt_clust_7="13000.00000" pt_clust_8="13000.00000" pt_clust_9="13000.00000"></scales>
<clustering>
<clus scale="   79.308">  5  6 -1 -1</clus>
<clus scale="   79.671">  1  5  2 -1</clus>
<clus scale="   91.998">  7  8 -1 -1</clus>
<clus scale="   81.323">  7  9 -1 -1</clus>
<clus scale="  253.149">  2  5  1 -1</clus>
</clustering>
</event>
<event>
 9    2  0.2147756E-005  0.2054989E+03  0.7546771E-02  0.1170982E+00
          2   -1    0    0  502    0 -0.00000000000E+00  0.00000000000E+00  0.94943006173E+02  0.94943006173E+02  0.00000000000E+00 0. -1.
         21   -1    0    0  501  502  0.00000000000E+00 -0.00000000000E+00 -0.26678229508E+03  0.26678229508E+03  0.00000000000E+00 0. -1.
         24    2    1    2    0    0 -0.15366195474E+02  0.70274362564E+02 -0.68704535710E+02  0.13179796100E+03  0.86462612149E+02 0.  0.
         23    2    1    2    0    0 -0.39175042809E+02 -0.99658178691E+02 -0.89575496946E+02  0.16650803126E+03  0.90745348429E+02 0.  0.
        -13    1    3    3    0    0  0.20549988122E+02  0.47269659051E+02 -0.72524980200E+02  0.88975251793E+02  0.00000000000E+00 0.  1.
         14    1    3    3    0    0 -0.35916183595E+02  0.23004703513E+02  0.38204444900E+01  0.42822709208E+02  0.00000000000E+00 0. -1.
        -13    1    4    4    0    0 -0.45551624483E+02 -0.72918377376E+02 -0.10442424738E+03  0.13526442139E+03  0.00000000000E+00 0. -1.
         13    1    4    4    0    0  0.63765816742E+01 -0.26739801315E+02  0.14848750436E+02  0.31243609871E+02  0.00000000000E+00 0.  1.
          1    1    1    2  501    0  0.54541238282E+02  0.29383816127E+02 -0.13559256255E+02  0.63419308998E+02  0.00000000000E+00 0. -1.
<scales pt_clust_5="13000.00000" pt_clust_6="13000.00000" pt_clust_7="13000.00000" pt_clust_8="13000.00000" pt_clust_9="13000.00000"></scales>
<clustering>
<clus scale="   86.463">  5  6 -1 -1</clus>
<clus scale="   90.745">  7  8 -1 -1</clus>
<clus scale="   61.953">  7  9 -1 -1</clus>
<clus scale="  112.474">  1  5  2 -1</clus>
<clus scale="  205.499">  2  5  1 -1</clus>
</clustering>
</event>
<event>
 9    2  0.2147756E-005  0.1455132E+03  0.7546771E-02  0.1225817E+00
         21   -1    0    0  501  502  0.00000000000E+00  0.00000000000E+00  0.38602776885E+02  0.38602776885E+02  0.00000000000E+00 0.  1.
          2   -1    0    0  502    0 -0.00000000000E+00 -0.00000000000E+00 -0.41769023470E+03  0.41769023470E+03  0.00000000000E+00 0. -1.
         24    2    1    2    0    0 -0.63009702662E+01  0.51329277139E+02 -0.22379479361E+03  0.24347875395E+03  0.80767549545E+02 0.  0.
         23    2    1    2    0    0 -0.48195850928E+01 -0.76286787765E+02 -0.12929830351E+03  0.17510151607E+03  0.89997706929E+02 0.  0.
        -13    1    3    3    0    0 -0.25666642281E+02  0.35954899231E+01 -0.18558727642E+02  0.31876801055E+02  0.00000000000E+00 0.  1.
         14    1    3    3    0    0  0.19365672015E+02  0.47733787216E+02 -0.20523606597E+03  0.21160195290E+03  0.00000000000E+00 0. -1.
        -11    1    4    4    0    0  0.75052287433E+01 -0.93776785259E+02 -0.11797916445E+03  0.15089564989E+03  0.00000000000E+00 0.  1.
         11    1    4    4    0    0 -0.12324813836E+02  0.17489997494E+02 -0.11319139055E+02  0.24205866177E+02  0.00000000000E+00 0. -1.
          1    1    1    2  501    0  0.11120555359E+02  0.24957510626E+02 -0.25994360691E+02  0.37712741559E+02  0.00000000000E+00 0. -1.
<scales pt_clust_5="13000.00000" pt_clust_6="13000.00000" pt_clust_7="13000.00000" pt_clust_8="13000.00000" pt_clust_9="13000.00000"></scales>
<clustering>
<clus scale="   80.768">  5  6 -1 -1</clus>
<clus scale="   89.998">  7  8 -1 -1</clus>
<clus scale="   27.323">  7  9 -1 -1</clus>
<clus scale="   95.905">  2  5  1 -1</clus>
<clus scale="  145.513">  1  5  2 -1</clus>
</clustering>
</event>
<event>
 9    2  0.2147756E-005  0.8650863E+03  0.7546771E-02  0.1002905E+00
         21   -1    0    0  501  502  0.00000000000E+00  0.00000000000E+00  0.17979101233E+03  0.17979101233E+03  0.00000000000E+00 0. -1.
          2   -1    0    0  502    0 -0.00000000000E+00 -0.00000000000E+00 -0.14159963579E+04  0.14159963579E+04  0.00000000000E+00 0. -1.
         24    2    1    2    0    0  0.97205749739E+02  0.48757790275E+02 -0.24764476025E+03  0.28215637853E+03  0.80361774310E+02 0.  0.
         23    2    1    2    0    0  0.10555723987E+03 -0.62007559897E+02  0.11532942040E+03  0.19119545632E+03  0.90926117997E+02 0.  0.
        -13    1    3    3    0    0  0.55274442532E+02 -0.15704206018E+02 -0.90437068150E+02  0.10714825887E+03  0.00000000000E+00 0.  1.
         14    1    3    3    0    0  0.41931307207E+02  0.64461996293E+02 -0.15720769210E+03  0.17500811965E+03  0.00000000000E+00 0. -1.
        -11    1    4    4    0    0  0.32578831609E+02  0.18158103277E+02  0.70190524666E+01  0.37952128809E+02  0.00000000000E+00 0.  1.
         11    1    4    4    0    0  0.72978408264E+02 -0.80165663174E+02  0.10831036793E+03  0.15324332751E+03  0.00000000000E+00 0. -1.
          1    1    1    2  501    0 -0.20276298961E+03  0.13249769622E+02 -0.11038900057E+04  0.11224355353E+04  0.00000000000E+00 0. -1.
<scales pt_clust_5="13000.00000" pt_clust_6="13000.00000" pt_clust_7="13000.00000" pt_clust_8="13000.00000" pt_clust_9="13000.00000"></scales>
<clustering>
<clus scale="   80.362">  5  6 -1 -1</clus>
<clus scale="   90.926">  7  8 -1 -1</clus>
<clus scale="  135.219">  2  5  1 -1</clus>
<clus scale="  124.407">  7  9 -1 -1</clus>
<clus scale="  865.086">  1  5  2 -1</clus>
</clustering>
</event>
<event>
 9    2  0.2147756E-005  0.5458390E+03  0.7546771E-02  0.1012019E+00
          2   -1    0    0  502    0 -0.00000000000E+00  0.00000000000E+00  0.27688045840E+04  0.27688045840E+04  0.00000000000E+00 0. -1.
         21   -1    0    0  501  502  0.00000000000E+00 -0.00000000000E+00 -0.13352411712E+03  0.13352411712E+03  0.00000000000E+00 0. -1.
         24    2    1    2    0    0  0.10050400070E+03  0.38449521927E+03  0.30112283907E+03  0.50519873921E+03  0.81321424572E+02 0.  0.
         23    2    1    2    0    0  0.82229228847E+02 -0.27717735148E+02  0.34412445771E+03  0.36712660614E+03  0.93970120882E+02 0.  0.
        -13    1    3    3    0    0  0.60766249079E+02  0.90875477627E+02  0.83981814744E+02  0.13785439663E+03  0.00000000000E+00 0.  1.
         14    1    3    3    0    0  0.39737751624E+02  0.29361974164E+03  0.21714102433E+03  0.36734434259E+03  0.00000000000E+00 0. -1.
        -13    1    4    4    0    0  0.67247307544E+02 -0.59890127150E+02  0.21230303352E+03  0.23061137384E+03  0.00000000000E+00 0. -1.
         13    1    4    4    0    0  0.14981921302E+02  0.32172392002E+02  0.13182142420E+03  0.13651523230E+03  0.00000000000E+00 0.  1.
          1    1    1    2  501    0 -0.18273322955E+03 -0.35677748412E+03  0.19900331700E+04  0.20300033557E+04  0.00000000000E+00 0. -1.
<scales pt_clust_5="13000.00000" pt_clust_6="13000.00000" pt_clust_7="13000.00000" pt_clust_8="13000.00000" pt_clust_9="13000.00000"></scales>
<clustering>
<clus scale="   81.321">  5  6 -1 -1</clus>
<clus scale="   93.970">  7  8 -1 -1</clus>
<clus scale="  400.851">  7  9 -1 -1</clus>
<clus scale="  405.649">  1  5  2 -1</clus>
<clus scale="  545.839">  2  5  1 -1</clus>
</clustering>
</event>
<event>
 9    2  0.2147756E-005  0.4608317E+03  0.7546771E-02  0.1045719E+00
         21   -1    0    0  501  502  0.00000000000E+00  0.00000000000E+00  0.62801887050E+02  0.62801887050E+02  0.00000000000E+00 0.  1.
          2   -1    0    0  502    0 -0.00000000000E+00 -0.00000000000E+00 -0.23149238959E+04  0.23149238959E+04  0.00000000000E+00 0. -1.
         24    2    1    2    0    0  0.22460181857E+03  0.64540714734E+02 -0.41004885689E+03  0.47888420147E+03  0.81108153817E+02 0.  0.
         23    2    1    2    0    0  0.55500101724E+02 -0.12501892269E+03 -0.47389414361E+03  0.50097588754E+03  0.87699419789E+02 0.  0.
        -11    1    3    3    0    0  0.20727738178E+03  0.48930441746E+02 -0.30970393216E+03  0.37586517093E+03  0.00000000000E+00 0.  1.
         12    1    3    3    0    0  0.17324436792E+02  0.15610272989E+02 -0.10034492473E+03  0.10301903054E+03  0.00000000000E+00 0. -1.
        -11    1    4    4    0    0  0.66584894430E+02 -0.64680551245E+02 -0.35807944476E+03  0.36991622110E+03  0.00000000000E+00 0.  1.
         11    1    4    4    0    0 -0.11084792705E+02 -0.60338371446E+02 -0.11581469885E+03  0.13105966644E+03  0.00000000000E+00 0. -1.
          1    1    1    2  501    0 -0.28010192030E+03  0.60478207958E+02 -0.13681790084E+04  0.13978656939E+04  0.00000000000E+00 0. -1.
<scales pt_clust_5="13000.00000" pt_clust_6="13000.00000" pt_clust_7="13000.00000" pt_clust_8="13000.00000" pt_clust_9="13000.00000"></scales>
<clustering>
<clus scale="   81.108">  5  6 -1 -1</clus>
<clus scale="   87.699">  7  8 -1 -1</clus>
<clus scale="  247.366">  2  5  1 -1</clus>
<clus scale="  157.195">  7  9 -1 -1</clus>
<clus scale="  460.832">  1  5  2 -1</clus>
</clustering>
</event>
<event>
 9    2  0.2147756E-005  0.2336820E+03  0.7546771E-02  0.1160132E+00
         -1   -1    0    0    0  501 -0.00000000000E+00  0.00000000000E+00  0.13063842357E+03  0.13063842357E+03  0.00000000000E+00 0.  1.
         21   -1    0    0  501  502  0.00000000000E+00 -0.00000000000E+00 -0.26728716948E+03  0.26728716948E+03  0.00000000000E+00 0.  1.
         24    2    1    2    0    0  0.53702135569E+02  0.10343298504E+02  0.38902365746E+02  0.10564921390E+03  0.81593254302E+02 0.  0.
         23    2    1    2    0    0  0.57699534688E+02  0.22215591437E+02 -0.44038351146E+02  0.11687392870E+03  0.88867148210E+02 0.  0.
        -11    1    3    3    0    0  0.33842863219E+02 -0.34620347730E+02  0.13201157982E+02  0.50181455139E+02  0.00000000000E+00 0.  1.
         12    1    3    3    0    0  0.19859272349E+02  0.44963646234E+02  0.25701207763E+02  0.55467758756E+02  0.00000000000E+00 0. -1.
        -11    1    4    4    0    0  0.77518169237E+02  0.33285888804E+02 -0.27301295083E+02  0.88670049445E+02  0.00000000000E+00 0.  1.
         11    1    4    4    0    0 -0.19818634548E+02 -0.11070297367E+02 -0.16737056063E+02  0.28203879251E+02  0.00000000000E+00 0. -1.
         -2    1    1    2    0  502 -0.11140167026E+03 -0.32558889941E+02 -0.13151276051E+03  0.17540245046E+03  0.00000000000E+00 0.  1.
<scales pt_clust_5="13000.00000" pt_clust_6="13000.00000" pt_clust_7="13000.00000" pt_clust_8="13000.00000" pt_clust_9="13000.00000"></scales>
<clustering>
<clus scale="   81.593">  5  6 -1 -1</clus>
<clus scale="   88.867">  7  8 -1 -1</clus>
<clus scale="   98.226">  1  5  2 -1</clus>
<clus scale="   95.609">  7  9 -1 -1</clus>
<clus scale="  233.682">  2  5  1 -1</clus>
</clustering>
</event>
<event>
 9    2  0.2147756E-005  0.6219167E+03  0.7546771E-02  0.1030495E+00
         21   -1    0    0  501  502  0.00000000000E+00  0.00000000000E+00  0.82163845867E+03  0.82163845867E+03  0.00000000000E+00 0.  1.
          2   -1    0    0  502    0 -0.00000000000E+00 -0.00000000000E+00 -0.18617403523E+03  0.18617403523E+03  0.00000000000E+00 0. -1.
         24    2    1    2    0    0  0.12258169074E+03  0.54839255263E+02  0.92381597729E+02  0.18214955011E+03  0.81304884129E+02 0.  0.
         23    2    1    2    0    0  0.80670885601E+02  0.21800777832E+03  0.10827114139E+03  0.27355940789E+03  0.95272904853E+02 0.  0.
        -13    1    3    3    0    0  0.27490340452E+02 -0.14907013317E+02 -0.16601132360E+01  0.31316031680E+02  0.00000000000E+00 0.  1.
         14    1    3    3    0    0  0.95091350292E+02  0.69746268580E+02  0.94041710965E+02  0.15083351843E+03  0.00000000000E+00 0. -1.
        -13    1    4    4    0    0  0.33941894703E+02  0.19868432665E+02  0.46324205285E+02  0.60767909524E+02  0.00000000000E+00 0. -1.
         13    1    4    4    0    0  0.46728990897E+02  0.19813934565E+03  0.61946936102E+02  0.21279149837E+03  0.00000000000E+00 0.  1.
          1    1    1    2  501    0 -0.20325257634E+03 -0.27284703358E+03  0.43481168432E+03  0.55210353589E+03  0.00000000000E+00 0. -1.
<scales pt_clust_5="13000.00000" pt_clust_6="13000.00000" pt_clust_7="13000.00000" pt_clust_8="13000.00000" pt_clust_9="13000.00000"></scales>
<clustering>
<clus scale="   81.305">  5  6 -1 -1</clus>
<clus scale="   95.273">  7  8 -1 -1</clus>
<clus scale="  156.984">  2  5  1 -1</clus>
<clus scale="  292.847">  7  9 -1 -1</clus>
<clus scale="  621.917">  1  5  2 -1</clus>
</clustering>
</event>
<event>
 9    2  0.2147756E-005  0.4354004E+03  0.7546771E-02  0.1088128E+00
          2   -1    0    0  502    0 -0.00000000000E+00  0.00000000000E+00  0.94500873761E+03  0.94500873761E+03  0.00000000000E+00 0. -1.
         21   -1    0    0  501  502  0.00000000000E+00 -0.00000000000E+00 -0.27036058377E+03  0.27036058377E+03  0.00000000000E+00 0. -1.
         24    2    1    2    0    0  0.30862110932E+02  0.29264153108E+02  0.76526243126E+03  0.77063966376E+03  0.80312154256E+02 0.  0.
         23    2    1    2    0    0 -0.61681964558E+02  0.15767067572E+03  0.61029163720E+02  0.20205657124E+03  0.91856368439E+02 0.  0.
        -13    1    3    3    0    0 -0.13013572614E+02  0.23259500669E+02  0.88409714436E+02  0.92339780431E+02  0.00000000000E+00 0.  1.
         14    1    3    3    0    0  0.43875683546E+02  0.60046524394E+01  0.67685271682E+03  0.67829988333E+03  0.00000000000E+00 0. -1.
        -11    1    4    4    0    0 -0.75135456536E+02  0.14265577339E+03  0.74701477481E+02  0.17769726292E+03  0.00000000000E+00 0. -1.
         11    1    4    4    0    0  0.13453491978E+02  0.15014902333E+02 -0.13672313761E+02  0.24359308324E+02  0.00000000000E+00 0.  1.
          1    1    1    2  501    0  0.30819853626E+02 -0.18693482883E+03 -0.15164344114E+03  0.24267308637E+03  0.00000000000E+00 0. -1.
<scales pt_clust_5="13000.00000" pt_clust_6="13000.00000" pt_clust_7="13000.00000" pt_clust_8="13000.00000" pt_clust_9="13000.00000"></scales>
<clustering>
<clus scale="   80.312">  5  6 -1 -1</clus>
<clus scale="   90.879">  1  5  2 -1</clus>
<clus scale="   91.856">  7  8 -1 -1</clus>
<clus scale="  183.550">  7  9 -1 -1</clus>
<clus scale="  435.400">  2  5  1 -1</clus>
</clustering>
</event>
<event>
 9    2  0.2147756E-005  0.3571632E+03  0.7546771E-02  0.1087976E+00
         21   -1    0    0  501  502  0.00000000000E+00  0.00000000000E+00  0.78836979942E+03  0.78836979942E+03  0.00000000000E+00 0. -1.
          2   -1    0    0  502    0 -0.00000000000E+00 -0.00000000000E+00 -0.13114303040E+03  0.13114303040E+03  0.00000000000E+00 0. -1.
         24    2    1    2    0    0 -0.12099891905E+03 -0.79194221547E+02  0.50481436693E+03  0.53118934685E+03  0.80075676817E+02 0.  0.
         23    2    1    2    0    0  0.13397983627E+03 -0.39318162554E+01  0.22397048201E+03  0.27787439437E+03  0.95317084144E+02 0.  0.
        -11    1    3    3    0    0 -0.92611495291E+02 -0.15403894910E+02  0.32522132727E+03  0.33850122710E+03  0.00000000000E+00 0.  1.
         12    1    3    3    0    0 -0.28387423755E+02 -0.63790326637E+02  0.17959303965E+03  0.19268811975E+03  0.00000000000E+00 0. -1.
        -13    1    4    4    0    0  0.85601361222E+02  0.89371548480E+01  0.20836028709E+03  0.22543618835E+03  0.00000000000E+00 0. -1.
         13    1    4    4    0    0  0.48378475048E+02 -0.12868971103E+02  0.15610194912E+02  0.52438206018E+02  0.00000000000E+00 0.  1.
          1    1    1    2  501    0 -0.12980917224E+02  0.83126037802E+02 -0.71558079913E+02  0.11044908860E+03  0.00000000000E+00 0. -1.
<scales pt_clust_5="13000.00000" pt_clust_6="13000.00000" pt_clust_7="13000.00000" pt_clust_8="13000.00000" pt_clust_9="13000.00000"></scales>
<clustering>
<clus scale="   80.076">  5  6 -1 -1</clus>
<clus scale="   95.317">  7  8 -1 -1</clus>
<clus scale="   84.134">  7  9 -1 -1</clus>
<clus scale="  165.302">  2  5  1 -1</clus>
<clus scale="  357.163">  1  5  2 -1</clus>
</clustering>
</event>
<event>
 9    2  0.2147756E-005  0.1921583E+03  0.7546771E-02  0.1189583E+00
         21   -1    0    0  501  502  0.00000000000E+00  0.00000000000E+00  0.61580853102E+02  0.61580853102E+02  0.00000000000E+00 0. -1.
          4   -1    0    0  502    0 -0.00000000000E+00 -0.00000000000E+00 -0.32786094273E+03  0.32786094273E+03  0.00000000000E+00 0. -1.
         24    2    1    2    0    0 -0.22828954548E+02 -0.30361534908E+02 -0.10416759391E+03  0.13803519965E+03  0.82218275070E+02 0.  0.
         23    2    1    2    0    0 -0.36598144098E+02 -0.27050164395E+02 -0.61703154030E+02  0.12136922013E+03  0.94085454948E+02 0.  0.
        -13    1    3    3    0    0  0.14389063390E+02  0.21998911429E+02 -0.28348907352E+02  0.38660804407E+02  0.00000000000E+00 0.  1.
         14    1    3    3    0    0 -0.37218017938E+02 -0.52360446337E+02 -0.75818686554E+02  0.99374395246E+02  0.00000000000E+00 0. -1.
        -11    1    4    4    0    0 -0.15748394813E+00 -0.31068412389E+02  0.16369371649E+02  0.35117337282E+02  0.00000000000E+00 0. -1.
         11    1    4    4    0    0 -0.36440660150E+02  0.40182479945E+01 -0.78072525679E+02  0.86251882849E+02  0.00000000000E+00 0.  1.
          3    1    1    2  501    0  0.59427098647E+02  0.57411699303E+02 -0.10040934169E+03  0.13003737605E+03  0.00000000000E+00 0. -1.
<scales pt_clust_5="13000.00000" pt_clust_6="13000.00000" pt_clust_7="13000.00000" pt_clust_8="13000.00000" pt_clust_9="13000.00000"></scales>
<clustering>
<clus scale="   82.218">  5  6 -1 -1</clus>
<clus scale="   90.569">  2  5  1 -1</clus>
<clus scale="   94.085">  7  8 -1 -1</clus>
<clus scale="   61.814">  7  9 -1 -1</clus>
<clus scale="  192.158">  1  5  2 -1</clus>
</clustering>
</event>
<event>
 9    2  0.2147756E-005  0.2503002E+03  0.7546771E-02  0.1142984E+00
         21   -1    0    0  501  502  0.00000000000E+00  0.00000000000E+00  0.13971278570E+03  0.13971278570E+03  0.00000000000E+00 0. -1.
          2   -1    0    0  502    0 -0.00000000000E+00 -0.00000000000E+00 -0.52608533178E+03  0.52608533178E+03  0.00000000000E+00 0. -1.
         24    2    1    2    0    0  0.34179058540E+02  0.80578489850E+02 -0.39757055062E+03  0.41524755808E+03  0.81896829599E+02 0.  0.
         23    2    1    2    0    0 -0.30447994875E+02 -0.96940703106E+01 -0.86697087106E+02  0.12962921829E+03  0.90919161517E+02 0.  0.
        -11    1    3    3    0    0  0.13509255019E+02  0.23631693389E+02 -0.22499880397E+02  0.35315740421E+02  0.00000000000E+00 0.  1.
         12    1    3    3    0    0  0.20669803521E+02  0.56946796461E+02 -0.37507067023E+03  0.37993181766E+03  0.00000000000E+00 0. -1.
        -11    1    4    4    0    0  0.20399609497E+02  0.15716018227E+02  0.24653613438E+00  0.25752632421E+02  0.00000000000E+00 0. -1.
         11    1    4    4    0    0 -0.50847604372E+02 -0.25410088537E+02 -0.86943623240E+02  0.10387658587E+03  0.00000000000E+00 0.  1.
          1    1    1    2  501    0 -0.37310636648E+01 -0.70884419540E+02  0.97895091647E+02  0.12092134112E+03  0.00000000000E+00 0. -1.
<scales pt_clust_5="13000.00000" pt_clust_6="13000.00000" pt_clust_7="13000.00000" pt_clust_8="13000.00000" pt_clust_9="13000.00000"></scales>
<clustering>
<clus scale="   81.897">  5  6 -1 -1</clus>
<clus scale="   90.919">  7  8 -1 -1</clus>
<clus scale="   70.983">  7  9 -1 -1</clus>
<clus scale="  119.867">  2  5  1 -1</clus>
<clus scale="  250.300">  1  5  2 -1</clus>
</clustering>
</event>
<event>
 9    2  0.2147756E-005  0.5267396E+03  0.7546771E-02  0.1053163E+00
         21   -1    0    0  501  502  0.00000000000E+00  0.00000000000E+00  0.32257779802E+03  0.32257779802E+03  0.00000000000E+00 0. -1.
         -1   -1    0    0    0  501 -0.00000000000E+00 -0.00000000000E+00 -0.47549193184E+03  0.47549193184E+03  0.00000000000E+00 0.  1.
         24    2    1    2    0    0 -0.86657216207E+02 -0.62680254937E+02 -0.22957722999E+03  0.26578048514E+03  0.80593264421E+02 0.  0.
         23    2    1    2    0    0  0.24328126454E+03  0.48468838731E+02  0.20071069932E+03  0.33198731085E+03  0.91628531270E+02 0.  0.
        -13    1    3    3    0    0 -0.67535056274E+02 -0.10788402362E+01 -0.95226700956E+02  0.11674875715E+03  0.00000000000E+00 0.  1.
         14    1    3    3    0    0 -0.19122159933E+02 -0.61601414701E+02 -0.13435052904E+03  0.14903172799E+03  0.00000000000E+00 0. -1.
        -13    1    4    4    0    0  0.17294164655E+02  0.32142589974E+02  0.40320959419E+02  0.54387627176E+02  0.00000000000E+00 0.  1.
         13    1    4    4    0    0  0.22598709988E+03  0.16326248757E+02  0.16038973990E+03  0.27759968368E+03  0.00000000000E+00 0. -1.
         -2    1    1    2    0  502 -0.15662404833E+03  0.14211416206E+02 -0.12404760314E+03  0.20030193387E+03  0.00000000000E+00 0.  1.
<scales pt_clust_5="13000.00000" pt_clust_6="13000.00000" pt_clust_7="13000.00000" pt_clust_8="13000.00000" pt_clust_9="13000.00000"></scales>
<clustering>
<clus scale="   80.593">  5  6 -1 -1</clus>
<clus scale="   91.629">  7  8 -1 -1</clus>
<clus scale="  133.916">  2  5  1 -1</clus>
<clus scale="  220.421">  7  9 -1 -1</clus>
<clus scale="  526.740">  1  5  2 -1</clus>
</clustering>
</event>
<event>
 9    2  0.2147756E-005  0.1546474E+03  0.7546771E-02  0.1220150E+00
         -1   -1    0    0    0  501 -0.00000000000E+00  0.00000000000E+00  0.83091810769E+03  0.83091810769E+03  0.00000000000E+00 0.  1.
         21   -1    0    0  501  502  0.00000000000E+00 -0.00000000000E+00 -0.18382773118E+02  0.18382773118E+02  0.00000000000E+00 0.  1.
         24    2    1    2    0    0 -0.23637917192E+02 -0.33089912809E+02  0.36026715348E+03  0.37132354028E+03  0.80218802237E+02 0.  0.
         23    2    1    2    0    0 -0.27975401918E+02  0.42494962579E+01  0.26713838180E+03  0.28363551044E+03  0.91024757177E+02 0.  0.
        -11    1    3    3    0    0 -0.17802991988E+02 -0.58920896244E+02  0.28387908398E+03  0.29047539115E+03  0.00000000000E+00 0.  1.
         12    1    3    3    0    0 -0.58349252047E+01  0.25830983436E+02  0.76388069495E+02  0.80848149135E+02  0.00000000000E+00 0. -1.
        -13    1    4    4    0    0 -0.59204816172E+02  0.72111350616E+01  0.13113220199E+03  0.14405854756E+03  0.00000000000E+00 0.  1.
         13    1    4    4    0    0  0.31229414254E+02 -0.29616388037E+01  0.13600617980E+03  0.13957696287E+03  0.00000000000E+00 0. -1.
         -2    1    1    2    0  502  0.51613319110E+02  0.28840416551E+02  0.18512979930E+03  0.19434183009E+03  0.00000000000E+00 0.  1.
<scales pt_clust_5="13000.00000" pt_clust_6="13000.00000" pt_clust_7="13000.00000" pt_clust_8="13000.00000" pt_clust_9="13000.00000"></scales>
<clustering>
<clus scale="   80.219">  5  6 -1 -1</clus>
<clus scale="   89.937">  1  5  2 -1</clus>
<clus scale="   91.025">  7  8 -1 -1</clus>
<clus scale="   44.687">  7  9 -1 -1</clus>
<clus scale="  154.647">  2  5  1 -1</clus>
</clustering>
</event>
<event>
 9    2  0.2147756E-005  0.1997575E+03  0.7546771E-02  0.1161541E+00
          2   -1    0    0  502    0 -0.00000000000E+00  0.00000000000E+00  0.72269414759E+03  0.72269414759E+03  0.00000000000E+00 0. -1.
         21   -1    0    0  501  502  0.00000000000E+00 -0.00000000000E+00 -0.45414407144E+02  0.45414407144E+02  0.00000000000E+00 0. -1.
         24    2    1    2    0    0  0.55279921938E+00  0.12954689861E+03  0.20494357781E+03  0.25526890038E+03  0.79860108251E+02 0.  0.
         23    2    1    2    0    0 -0.30456568837E+02 -0.38294435279E+02  0.23983642438E+03  0.26128970745E+03  0.91415175973E+02 0.  0.
        -11    1    3    3    0    0 -0.36509157370E+02  0.44333928917E+02  0.98048435772E+02  0.11363059263E+03  0.00000000000E+00 0.  1.
         12    1    3    3    0    0  0.37061956590E+02  0.85212969692E+02  0.10689514204E+03  0.14163830775E+03  0.00000000000E+00 0. -1.
        -11    1    4    4    0    0 -0.57049032775E+02 -0.13222793254E+01  0.11441947896E+03  0.12785991447E+03  0.00000000000E+00 0. -1.
         11    1    4    4    0    0  0.26592463939E+02 -0.36972155954E+02  0.12541694542E+03  0.13342979297E+03  0.00000000000E+00 0.  1.
          1    1    1    2  501    0  0.29903769617E+02 -0.91252463330E+02  0.23249973825E+03  0.25154994690E+03  0.00000000000E+00 0. -1.
<scales pt_clust_5="13000.00000" pt_clust_6="13000.00000" pt_clust_7="13000.00000" pt_clust_8="13000.00000" pt_clust_9="13000.00000"></scales>
<clustering>
<clus scale="   79.860">  5  6 -1 -1</clus>
<clus scale="   91.415">  7  8 -1 -1</clus>
<clus scale="   96.027">  7  9 -1 -1</clus>
<clus scale="  152.185">  1  5  2 -1</clus>
<clus scale="  199.758">  2  5  1 -1</clus>
</clustering>
</event>
<event>
 9    2  0.2147756E-005  0.3540472E+03  0.7546771E-02  0.1107407E+00
         21   -1    0    0  501  502  0.00000000000E+00  0.00000000000E+00  0.98746347409E+02  0.98746347409E+02  0.00000000000E+00 0. -1.
          2   -1    0    0  502    0 -0.00000000000E+00 -0.00000000000E+00 -0.63180654753E+03  0.63180654753E+03  0.00000000000E+00 0. -1.
         24    2    1    2    0    0  0.21920808110E+02 -0.59469108498E+02 -0.27220597338E+03  0.29078667020E+03  0.80272653706E+02 0.  0.
         23    2    1    2    0    0  0.90469465918E+01 -0.12643476604E+02 -0.32613590972E+03  0.33768329329E+03  0.86160723136E+02 0.  0.
        -11    1    3    3    0    0  0.28708404350E+02  0.11475771268E+02 -0.76785842763E+02  0.82776394313E+02  0.00000000000E+00 0.  1.
         12    1    3    3    0    0 -0.67875962404E+01 -0.70944879766E+02 -0.19542013061E+03  0.20801027589E+03  0.00000000000E+00 0. -1.
        -11    1    4    4    0    0 -0.37598361396E+02  0.23377516998E+01 -0.11839669404E+03  0.12424523742E+03  0.00000000000E+00 0.  1.
         11    1    4    4    0    0  0.46645307987E+02 -0.14981228303E+02 -0.20773921568E+03  0.21343805586E+03  0.00000000000E+00 0. -1.
          1    1    1    2  501    0 -0.30967754702E+02  0.72112585102E+02  0.65281682976E+02  0.10208293145E+03  0.00000000000E+00 0. -1.
<scales pt_clust_5="13000.00000" pt_clust_6="13000.00000" pt_clust_7="13000.00000" pt_clust_8="13000.00000" pt_clust_9="13000.00000"></scales>
<clustering>
<clus scale="   80.273">  5  6 -1 -1</clus>
<clus scale="   86.161">  7  8 -1 -1</clus>
<clus scale="   78.481">  7  9 -1 -1</clus>
<clus scale="  102.278">  2  5  1 -1</clus>
<clus scale="  354.047">  1  5  2 -1</clus>
</clustering>
</event>
<event>
 9    2  0.2147756E-005  0.3606220E+03  0.7546771E-02  0.1102810E+00
         21   -1    0    0  501  502  0.00000000000E+00  0.00000000000E+00  0.82024563551E+02  0.82024563551E+02  0.00000000000E+00 0. -1.
          2   -1    0    0  502    0 -0.00000000000E+00 -0.00000000000E+00 -0.96870908870E+03  0.96870908870E+03  0.00000000000E+00 0. -1.
         24    2    1    2    0    0 -0.70154238398E+02  0.18338400001E+02 -0.53867238225E+03  0.54957430301E+03  0.81277703338E+02 0.  0.
         23    2    1    2    0    0  0.18394894867E+02 -0.57154091852E+02  0.31921973026E+02  0.11575615773E+03  0.93677709825E+02 0.  0.
        -13    1    3    3    0    0 -0.30707196832E+02  0.49583488206E+02 -0.26951075600E+03  0.27574898339E+03  0.00000000000E+00 0.  1.
         14    1    3    3    0    0 -0.39447041566E+02 -0.31245088205E+02 -0.26916162625E+03  0.27382531963E+03  0.00000000000E+00 0. -1.
        -13    1    4    4    0    0 -0.13124400249E+02 -0.61608123254E+02 -0.93006057856E+01  0.63673479571E+02  0.00000000000E+00 0.  1.
         13    1    4    4    0    0  0.31519295116E+02  0.44540314016E+01  0.41222578812E+02  0.52082678159E+02  0.00000000000E+00 0. -1.
          1    1    1    2  501    0  0.51759343531E+02  0.38815691851E+02 -0.37993411593E+03  0.38540319151E+03  0.00000000000E+00 0. -1.
<scales pt_clust_5="13000.00000" pt_clust_6="13000.00000" pt_clust_7="13000.00000" pt_clust_8="13000.00000" pt_clust_9="13000.00000"></scales>
<clustering>
<clus scale="   81.278">  5  6 -1 -1</clus>
<clus scale="   93.678">  7  8 -1 -1</clus>
<clus scale="   64.697">  7  9 -1 -1</clus>
<clus scale="  108.922">  2  5  1 -1</clus>
<clus scale="  360.622">  1  5  2 -1</clus>
</clustering>
</event>
<event>
 9    2  0.2147756E-005  0.2329412E+03  0.7546771E-02  0.1139422E+00
         21   -1    0    0  501  502  0.00000000000E+00  0.00000000000E+00  0.17868568779E+03  0.17868568779E+03  0.00000000000E+00 0. -1.
          2   -1    0    0  502    0 -0.00000000000E+00 -0.00000000000E+00 -0.27163335389E+03  0.27163335389E+03  0.00000000000E+00 0. -1.
         24    2    1    2    0    0  0.13050088097E+03  0.51168429387E+02 -0.13827649789E+03  0.21300843054E+03  0.81262005350E+02 0.  0.
         23    2    1    2    0    0  0.98696306714E+00 -0.33457038224E+02  0.43713860047E+02  0.10462544000E+03  0.88967598781E+02 0.  0.
        -11    1    3    3    0    0  0.25867631557E+02  0.23074185623E+02 -0.85986102530E+02  0.92710097794E+02  0.00000000000E+00 0.  1.
         12    1    3    3    0    0  0.10463324941E+03  0.28094243764E+02 -0.52290395360E+02  0.12029833275E+03  0.00000000000E+00 0. -1.
        -13    1    4    4    0    0  0.31365303196E+02 -0.45096962078E+02  0.66872336886E+01  0.55337485737E+02  0.00000000000E+00 0.  1.
         13    1    4    4    0    0 -0.30378340129E+02  0.11639923854E+02  0.37026626359E+02  0.49287954267E+02  0.00000000000E+00 0. -1.
          1    1    1    2  501    0 -0.13148784403E+03 -0.17711391164E+02  0.16149717418E+01  0.13268517114E+03  0.00000000000E+00 0. -1.
<scales pt_clust_5="13000.00000" pt_clust_6="13000.00000" pt_clust_7="13000.00000" pt_clust_8="13000.00000" pt_clust_9="13000.00000"></scales>
<clustering>
<clus scale="   81.262">  5  6 -1 -1</clus>
<clus scale="   88.968">  7  8 -1 -1</clus>
<clus scale="  132.675">  7  9 -1 -1</clus>
<clus scale="  162.025">  2  5  1 -1</clus>
<clus scale="  232.941">  1  5  2 -1</clus>
</clustering>
</event>
<event>
 9    2  0.2147756E-005  0.3546391E+03  0.7546771E-02  0.1113700E+00
         21   -1    0    0  501  502  0.00000000000E+00  0.00000000000E+00  0.10002955243E+03  0.10002955243E+03  0.00000000000E+00 0. -1.
         -1   -1    0    0    0  501 -0.00000000000E+00 -0.00000000000E+00 -0.48766935827E+03  0.48766935827E+03  0.00000000000E+00 0.  1.
         24    2    1    2    0    0 -0.25475043076E+02  0.61717951307E+01 -0.66619434058E+02  0.10934448452E+03  0.82649854366E+02 0.  0.
         23    2    1    2    0    0 -0.14639477209E+02 -0.65624370039E+02  0.21684395074E+02  0.12822539191E+03  0.10700778432E+03 0.  0.
        -13    1    3    3    0    0 -0.41795507770E+02 -0.10950111151E+02 -0.73015191832E+02  0.84840954982E+02  0.00000000000E+00 0.  1.
         14    1    3    3    0    0  0.16320464694E+02  0.17121906282E+02  0.63957577735E+01  0.24503529543E+02  0.00000000000E+00 0. -1.
        -13    1    4    4    0    0  0.33002454238E+02 -0.32663548461E+02  0.46032847542E+02  0.65384191030E+02  0.00000000000E+00 0. -1.
         13    1    4    4    0    0 -0.47641931447E+02 -0.32960821577E+02 -0.24348452468E+02  0.62841200885E+02  0.00000000000E+00 0.  1.
         -2    1    1    2    0  502  0.40114520285E+02  0.59452574908E+02 -0.34270476686E+03  0.35012903426E+03  0.00000000000E+00 0.  1.
<scales pt_clust_5="13000.00000" pt_clust_6="13000.00000" pt_clust_7="13000.00000" pt_clust_8="13000.00000" pt_clust_9="13000.00000"></scales>
<clustering>
<clus scale="   82.650">  5  6 -1 -1</clus>
<clus scale="   86.707">  2  5  1 -1</clus>
<clus scale="  107.008">  7  8 -1 -1</clus>
<clus scale="   67.265">  7  9 -1 -1</clus>
<clus scale="  354.639">  1  5  2 -1</clus>
</clustering>
</event>
<event>
 9    2  0.2147756E-005  0.6271824E+03  0.7546771E-02  0.1025223E+00
          2   -1    0    0  502    0 -0.00000000000E+00  0.00000000000E+00  0.25020635933E+04  0.25020635933E+04  0.00000000000E+00 0. -1.
         21   -1    0    0  501  502  0.00000000000E+00 -0.00000000000E+00 -0.65227429042E+02  0.65227429042E+02  0.00000000000E+00 0. -1.
         24    2    1    2    0    0 -0.14397200428E+03  0.70399420657E+02  0.47514264326E+03  0.50777670214E+03  0.79953932614E+02 0.  0.
         23    2    1    2    0    0 -0.20958831999E+03 -0.13620796709E+03  0.88899304289E+03  0.92813375496E+03  0.92971837799E+02 0.  0.
        -13    1    3    3    0    0 -0.10633806968E+03  0.28359828778E+02  0.39302229511E+03  0.40814040403E+03  0.00000000000E+00 0.  1.
         14    1    3    3    0    0 -0.37633934600E+02  0.42039591879E+02  0.82120348155E+02  0.99636298104E+02  0.00000000000E+00 0. -1.
        -13    1    4    4    0    0 -0.20978982824E+02 -0.50203074860E+02  0.12125827257E+03  0.13290611391E+03  0.00000000000E+00 0.  1.
         13    1    4    4    0    0 -0.18860933716E+03 -0.86004892230E+02  0.76773477031E+03  0.79522764105E+03  0.00000000000E+00 0. -1.
          1    1    1    2  501    0  0.35356032427E+03  0.65808546434E+02  0.10727004781E+04  0.11313805652E+04  0.00000000000E+00 0. -1.
<scales pt_clust_5="13000.00000" pt_clust_6="13000.00000" pt_clust_7="13000.00000" pt_clust_8="13000.00000" pt_clust_9="13000.00000"></scales>
<clustering>
<clus scale="   79.954">  5  6 -1 -1</clus>
<clus scale="   92.972">  7  8 -1 -1</clus>
<clus scale="  179.100">  1  5  2 -1</clus>
<clus scale="  293.819">  7  9 -1 -1</clus>
<clus scale="  627.182">  2  5  1 -1</clus>
</clustering>
</event>
<event>
 9    2  0.2147756E-005  0.2953240E+03  0.7546771E-02  0.1131080E+00
          2   -1    0    0  502    0 -0.00000000000E+00  0.00000000000E+00  0.47725365435E+03  0.47725365435E+03  0.00000000000E+00 0. -1.
         21   -1    0    0  501  502  0.00000000000E+00 -0.00000000000E+00 -0.82281021522E+02  0.82281021522E+02  0.00000000000E+00 0. -1.
         24    2    1    2    0    0  0.50622658919E+02  0.21716344366E+02  0.67144357166E+02  0.11830047121E+03  0.80326730173E+02 0.  0.
         23    2    1    2    0    0  0.79079751084E+02 -0.73701214123E+02  0.23224183942E+03  0.27193592163E+03  0.91254575247E+02 0.  0.
        -11    1    3    3    0    0  0.48019522870E+01 -0.20034770926E+02  0.49856432019E+02  0.53945478082E+02  0.00000000000E+00 0.  1.
         12    1    3    3    0    0  0.45820706632E+02  0.41751115292E+02  0.17287925147E+02  0.64354993126E+02  0.00000000000E+00 0. -1.
        -13    1    4    4    0    0  0.63243490345E+01 -0.27972024574E+02  0.51603328229E+01  0.29138644174E+02  0.00000000000E+00 0.  1.
         13    1    4    4    0    0  0.72755402049E+02 -0.45729189549E+02  0.22708150659E+03  0.24279727746E+03  0.00000000000E+00 0. -1.
          1    1    1    2  501    0 -0.12970241000E+03  0.51984869757E+02  0.95586436249E+02  0.16929828304E+03  0.00000000000E+00 0. -1.
<scales pt_clust_5="13000.00000" pt_clust_6="13000.00000" pt_clust_7="13000.00000" pt_clust_8="13000.00000" pt_clust_9="13000.00000"></scales>
<clustering>
<clus scale="   80.327">  5  6 -1 -1</clus>
<clus scale="   91.255">  7  8 -1 -1</clus>
<clus scale="   97.399">  1  5  2 -1</clus>
<clus scale="  127.043">  7  9 -1 -1</clus>
<clus scale="  295.324">  2  5  1 -1</clus>
</clustering>
</event>
<event>
 9    2  0.2147756E-005  0.2752939E+03  0.7546771E-02  0.1124581E+00
         21   -1    0    0  501  502  0.00000000000E+00  0.00000000000E+00  0.41591761087E+02  0.41591761087E+02  0.00000000000E+00 0.  1.
          2   -1    0    0  502    0 -0.00000000000E+00 -0.00000000000E+00 -0.14449260276E+04  0.14449260276E+04  0.00000000000E+00 0. -1.
         24    2    1    2    0    0 -0.35457303043E+02  0.11043672548E+03 -0.16126632615E+03  0.21430731523E+03  0.80419566874E+02 0.  0.
         23    2    1    2    0    0 -0.22643889737E+01  0.35699729019E+02 -0.28925192630E+03  0.30751510909E+03  0.98077863664E+02 0.  0.
        -11    1    3    3    0    0 -0.35979479029E+02  0.53036685343E+02 -0.29444029738E+02  0.70529169785E+02  0.00000000000E+00 0.  1.
         12    1    3    3    0    0  0.52217598665E+00  0.57400040137E+02 -0.13182229641E+03  0.14377814544E+03  0.00000000000E+00 0. -1.
        -11    1    4    4    0    0  0.38209583969E+02  0.48222077940E+02 -0.18589603935E+03  0.19581286616E+03  0.00000000000E+00 0.  1.
         11    1    4    4    0    0 -0.40473972943E+02 -0.12522348921E+02 -0.10335588695E+03  0.11170224293E+03  0.00000000000E+00 0. -1.
          1    1    1    2  501    0  0.37721692016E+02 -0.14613645450E+03 -0.95281601410E+03  0.96469536441E+03  0.00000000000E+00 0. -1.
<scales pt_clust_5="13000.00000" pt_clust_6="13000.00000" pt_clust_7="13000.00000" pt_clust_8="13000.00000" pt_clust_9="13000.00000"></scales>
<clustering>
<clus scale="   80.420">  5  6 -1 -1</clus>
<clus scale="   98.078">  7  8 -1 -1</clus>
<clus scale="  141.141">  2  5  1 -1</clus>
<clus scale="   62.827">  7  9 -1 -1</clus>
<clus scale="  275.294">  1  5  2 -1</clus>
</clustering>
</event>
<event>
 9    2  0.2147756E-005  0.7622209E+03  0.7546771E-02  0.9821548E-01
         21   -1    0    0  501  502  0.00000000000E+00  0.00000000000E+00  0.65283364963E+03  0.65283364963E+03  0.00000000000E+00 0. -1.
          2   -1    0    0  502    0 -0.00000000000E+00 -0.00000000000E+00 -0.11281450206E+04  0.11281450206E+04  0.00000000000E+00 0. -1.
         24    2    1    2    0    0  0.36562267155E+03  0.84215554207E+02 -0.84918637967E+03  0.93200088817E+03  0.82072837188E+02 0.  0.
         23    2    1    2    0    0 -0.22809166952E+02  0.17244324054E+03 -0.91321892181E+02  0.21667801733E+03  0.91393358078E+02 0.  0.
        -11    1    3    3    0    0  0.27421833582E+03  0.91511617846E+02 -0.69313727290E+03  0.75100555989E+03  0.00000000000E+00 0.  1.
         12    1    3    3    0    0  0.91404335726E+02 -0.72960636393E+01 -0.15604910677E+03  0.18099532828E+03  0.00000000000E+00 0. -1.
        -13    1    4    4    0    0 -0.27468004817E+02  0.12972062828E+03 -0.10755982828E+03  0.17073678382E+03  0.00000000000E+00 0. -1.
         13    1    4    4    0    0  0.46588378648E+01  0.42722612259E+02  0.16237936095E+02  0.45941233518E+02  0.00000000000E+00 0.  1.
          1    1    1    2  501    0 -0.34281350460E+03 -0.25665879474E+03  0.46519690090E+03  0.63229976471E+03  0.00000000000E+00 0. -1.
<scales pt_clust_5="13000.00000" pt_clust_6="13000.00000" pt_clust_7="13000.00000" pt_clust_8="13000.00000" pt_clust_9="13000.00000"></scales>
<clustering>
<clus scale="   82.073">  5  6 -1 -1</clus>
<clus scale="   91.393">  7  8 -1 -1</clus>
<clus scale="  384.068">  2  5  1 -1</clus>
<clus scale="  312.147">  7  9 -1 -1</clus>
<clus scale="  762.221">  1  5  2 -1</clus>
</clustering>
</event>
<event>
 9    2  0.2147756E-005  0.6418639E+03  0.7546771E-02  0.9945327E-01
          2   -1    0    0  502    0 -0.00000000000E+00  0.00000000000E+00  0.73651208554E+03  0.73651208554E+03  0.00000000000E+00 0. -1.
         21   -1    0    0  501  502  0.00000000000E+00 -0.00000000000E+00 -0.41422846762E+03  0.41422846762E+03  0.00000000000E+00 0. -1.
         24    2    1    2    0    0  0.53966376237E+02 -0.42037231409E+03  0.26524820312E+03  0.50634755014E+03  0.80037366627E+02 0.  0.
         23    2    1    2    0    0 -0.28093921162E+02 -0.91246390567E+02  0.73172199330E+01  0.12971350877E+03  0.87503602507E+02 0.  0.
        -13    1    3    3    0    0  0.14756207069E+02 -0.24279937949E+03  0.19362077058E+03  0.31089915910E+03  0.00000000000E+00 0.  1.
         14    1    3    3    0    0  0.39210169168E+02 -0.17757293460E+03  0.71627432541E+02  0.19544839104E+03  0.00000000000E+00 0. -1.
        -13    1    4    4    0    0 -0.59930607001E+02 -0.56490476036E+02  0.36852626131E+01  0.82440479734E+02  0.00000000000E+00 0.  1.
         13    1    4    4    0    0  0.31836685839E+02 -0.34755914531E+02  0.36319573199E+01  0.47273029034E+02  0.00000000000E+00 0. -1.
          1    1    1    2  501    0 -0.25872455075E+02  0.51161870466E+03  0.49718194863E+02  0.51467949424E+03  0.00000000000E+00 0. -1.
<scales pt_clust_5="13000.00000" pt_clust_6="13000.00000" pt_clust_7="13000.00000" pt_clust_8="13000.00000" pt_clust_9="13000.00000"></scales>
<clustering>
<clus scale="   80.037">  5  6 -1 -1</clus>
<clus scale="   87.504">  7  8 -1 -1</clus>
<clus scale="  431.313">  1  5  2 -1</clus>
<clus scale="  174.256">  7  9 -1 -1</clus>
<clus scale="  641.864">  2  5  1 -1</clus>
</clustering>
</event>
<event>
 9    2  0.2147756E-005  0.3455170E+03  0.7546771E-02  0.1084608E+00
         21   -1    0    0  501  502  0.00000000000E+00  0.00000000000E+00  0.53139356477E+02  0.53139356477E+02  0.00000000000E+00 0.  1.
          2   -1    0    0  502    0 -0.00000000000E+00 -0.00000000000E+00 -0.14004517546E+04  0.14004517546E+04  0.00000000000E+00 0. -1.
         24    2    1    2    0    0 -0.77391580288E+01  0.18212027538E+03 -0.51931791549E+03  0.55639722398E+03  0.81603212141E+02 0.  0.
         23    2    1    2    0    0  0.19360864399E+02 -0.47632241913E+02 -0.64929974505E+02  0.12228128637E+03  0.89961868962E+02 0.  0.
        -13    1    3    3    0    0  0.70423252195E+01  0.13938099254E+03 -0.28009719095E+03  0.31293943792E+03  0.00000000000E+00 0.  1.
         14    1    3    3    0    0 -0.14781483248E+02  0.42739282837E+02 -0.23922072454E+03  0.24345778606E+03  0.00000000000E+00 0. -1.
        -11    1    4    4    0    0  0.28253984857E+02 -0.51482182002E+01 -0.72717581872E+02  0.78183364754E+02  0.00000000000E+00 0. -1.
         11    1    4    4    0    0 -0.88931204576E+01 -0.42484023713E+02  0.77876073674E+01  0.44097921616E+02  0.00000000000E+00 0.  1.
          1    1    1    2  501    0 -0.11621706371E+02 -0.13448803346E+03 -0.76306450810E+03  0.77491260070E+03  0.00000000000E+00 0. -1.
<scales pt_clust_5="13000.00000" pt_clust_6="13000.00000" pt_clust_7="13000.00000" pt_clust_8="13000.00000" pt_clust_9="13000.00000"></scales>
<clustering>
<clus scale="   81.603">  5  6 -1 -1</clus>
<clus scale="   89.962">  7  8 -1 -1</clus>
<clus scale="  134.989">  7  9 -1 -1</clus>
<clus scale="  199.717">  2  5  1 -1</clus>
<clus scale="  345.517">  1  5  2 -1</clus>
</clustering>
</event>
<event>
 9    2  0.2147756E-005  0.2646069E+03  0.7546771E-02  0.1120363E+00
         21   -1    0    0  501  502  0.00000000000E+00  0.00000000000E+00  0.18311617976E+03  0.18311617976E+03  0.00000000000E+00 0.  1.
          2   -1    0    0  502    0 -0.00000000000E+00 -0.00000000000E+00 -0.29088111173E+03  0.29088111173E+03  0.00000000000E+00 0. -1.
         24    2    1    2    0    0 -0.58637801485E+02 -0.14615476179E+03  0.24398462066E+02  0.17822036521E+03  0.79797289837E+02 0.  0.
         23    2    1    2    0    0  0.27561187851E+02  0.44794092249E+02  0.21836748033E+02  0.10881226385E+03  0.92720738903E+02 0.  0.
        -11    1    3    3    0    0 -0.45947883453E+02 -0.15373874671E+03  0.28290860194E+02  0.16293306296E+03  0.00000000000E+00 0.  1.
         12    1    3    3    0    0 -0.12689918032E+02  0.75839849174E+01 -0.38923981279E+01  0.15287302250E+02  0.00000000000E+00 0. -1.
        -11    1    4    4    0    0  0.50478935904E+02  0.51958997266E+02  0.36042566228E+02  0.80913082670E+02  0.00000000000E+00 0.  1.
         11    1    4    4    0    0 -0.22917748053E+02 -0.71649050171E+01 -0.14205818195E+02  0.27899181177E+02  0.00000000000E+00 0. -1.
          1    1    1    2  501    0  0.31076613634E+02  0.10136066954E+03 -0.15400014206E+03  0.18696466244E+03  0.00000000000E+00 0. -1.
<scales pt_clust_5="13000.00000" pt_clust_6="13000.00000" pt_clust_7="13000.00000" pt_clust_8="13000.00000" pt_clust_9="13000.00000"></scales>
<clustering>
<clus scale="   79.797">  5  6 -1 -1</clus>
<clus scale="   92.721">  7  8 -1 -1</clus>
<clus scale="  106.018">  7  9 -1 -1</clus>
<clus scale="  176.542">  2  5  1 -1</clus>
<clus scale="  264.607">  1  5  2 -1</clus>
</clustering>
</event>
<event>
 9    2  0.2147756E-005  0.2616510E+03  0.7546771E-02  0.1123906E+00
         21   -1    0    0  501  502  0.00000000000E+00  0.00000000000E+00  0.12443119640E+03  0.12443119640E+03  0.00000000000E+00 0. -1.
          2   -1    0    0  502    0 -0.00000000000E+00 -0.00000000000E+00 -0.37900883878E+03  0.37900883878E+03  0.00000000000E+00 0. -1.
         24    2    1    2    0    0 -0.19944098247E+01  0.14760910918E+03 -0.13896810093E+03  0.21738616186E+03  0.78435856014E+02 0.  0.
         23    2    1    2    0    0  0.37382725556E+02  0.33255663560E+01 -0.17090092593E+02  0.10237020239E+03  0.93696635534E+02 0.  0.
        -11    1    3    3    0    0 -0.38398566099E+02  0.91632553083E+02 -0.94818599897E+02  0.13733732759E+03  0.00000000000E+00 0.  1.
         12    1    3    3    0    0  0.36404156275E+02  0.55976556095E+02 -0.44149501029E+02  0.80048834266E+02  0.00000000000E+00 0. -1.
        -13    1    4    4    0    0  0.54484093375E+02 -0.73520137673E+01  0.21338778133E+02  0.58973824613E+02  0.00000000000E+00 0. -1.
         13    1    4    4    0    0 -0.17101367819E+02  0.10677580123E+02 -0.38428870726E+02  0.43396377773E+02  0.00000000000E+00 0.  1.
          1    1    1    2  501    0 -0.35388315731E+02 -0.15093467553E+03 -0.98519448861E+02  0.18368367095E+03  0.00000000000E+00 0. -1.
<scales pt_clust_5="13000.00000" pt_clust_6="13000.00000" pt_clust_7="13000.00000" pt_clust_8="13000.00000" pt_clust_9="13000.00000"></scales>
<clustering>
<clus scale="   78.436">  5  6 -1 -1</clus>
<clus scale="   93.697">  7  8 -1 -1</clus>
<clus scale="  155.028">  7  9 -1 -1</clus>
<clus scale="  167.166">  2  5  1 -1</clus>
<clus scale="  261.651">  1  5  2 -1</clus>
</clustering>
</event>
<event>
 9    2  0.2147756E-005  0.1718618E+03  0.7546771E-02  0.1198387E+00
          2   -1    0    0  502    0 -0.00000000000E+00  0.00000000000E+00  0.48147317087E+03  0.48147317087E+03  0.00000000000E+00 0. -1.
         21   -1    0    0  501  502  0.00000000000E+00 -0.00000000000E+00 -0.73646868755E+02  0.73646868755E+02  0.00000000000E+00 0. -1.
         24    2    1    2    0    0 -0.50478470749E+02 -0.49410029528E+02  0.36272561198E+03  0.37743900728E+03  0.76817365250E+02 0.  0.
         23    2    1    2    0    0 -0.10257074785E+02 -0.97018879221E+00  0.11015112395E+02  0.91722905918E+02  0.90474360564E+02 0.  0.
        -13    1    3    3    0    0 -0.69029905719E+01 -0.53852276931E+02  0.13443634637E+03  0.14498568976E+03  0.00000000000E+00 0.  1.
         14    1    3    3    0    0 -0.43575480177E+02  0.44422474027E+01  0.22828926560E+03  0.23245331751E+03  0.00000000000E+00 0. -1.
        -13    1    4    4    0    0  0.33218122113E+02 -0.15278768063E+02  0.24494696972E+02  0.44009937173E+02  0.00000000000E+00 0. -1.
         13    1    4    4    0    0 -0.43475196898E+02  0.14308579270E+02 -0.13479584577E+02  0.47712968745E+02  0.00000000000E+00 0.  1.
          1    1    1    2  501    0  0.60735545534E+02  0.50380218320E+02  0.34085577746E+02  0.85958126431E+02  0.00000000000E+00 0. -1.
<scales pt_clust_5="13000.00000" pt_clust_6="13000.00000" pt_clust_7="13000.00000" pt_clust_8="13000.00000" pt_clust_9="13000.00000"></scales>
<clustering>
<clus scale="   76.817">  5  6 -1 -1</clus>
<clus scale="   90.474">  7  8 -1 -1</clus>
<clus scale="   78.911">  7  9 -1 -1</clus>
<clus scale="  104.357">  1  5  2 -1</clus>
<clus scale="  171.862">  2  5  1 -1</clus>
</clustering>
</event>
<event>
 9    2  0.2147756E-005  0.2199418E+03  0.7546771E-02  0.1176402E+00
          2   -1    0    0  502    0 -0.00000000000E+00  0.00000000000E+00  0.14884911398E+03  0.14884911398E+03  0.00000000000E+00 0. -1.
         21   -1    0    0  501  502  0.00000000000E+00 -0.00000000000E+00 -0.15340779107E+03  0.15340779107E+03  0.00000000000E+00 0. -1.
         24    2    1    2    0    0 -0.57673895247E+01 -0.48913756054E+01 -0.13059829893E+02  0.82150847310E+02  0.80752796978E+02 0.  0.
         23    2    1    2    0    0  0.16665927546E+02 -0.48269800296E+02  0.78613418056E+02  0.13144592863E+03  0.92142476049E+02 0.  0.
        -11    1    3    3    0    0 -0.21259682756E+02  0.33151554880E+02 -0.11571116978E+02  0.41047417093E+02  0.00000000000E+00 0.  1.
         12    1    3    3    0    0  0.15492293232E+02 -0.38042930486E+02 -0.14887129153E+01  0.41103430218E+02  0.00000000000E+00 0. -1.
        -13    1    4    4    0    0  0.20052432339E+02  0.14806764386E+02 -0.62076349527E+01  0.25688033128E+02  0.00000000000E+00 0.  1.
         13    1    4    4    0    0 -0.33865047930E+01 -0.63076564682E+02  0.84821053009E+02  0.10575789550E+03  0.00000000000E+00 0. -1.
          1    1    1    2  501    0 -0.10898538021E+02  0.53161175901E+02 -0.70112265255E+02  0.88660129108E+02  0.00000000000E+00 0. -1.
<scales pt_clust_5="13000.00000" pt_clust_6="13000.00000" pt_clust_7="13000.00000" pt_clust_8="13000.00000" pt_clust_9="13000.00000"></scales>
<clustering>
<clus scale="   80.753">  5  6 -1 -1</clus>
<clus scale="   81.106">  1  5  2 -1</clus>
<clus scale="   92.142">  7  8 -1 -1</clus>
<clus scale="   53.975">  7  9 -1 -1</clus>
<clus scale="  219.942">  2  5  1 -1</clus>
</clustering>
</event>
<event>
 9    2  0.2147756E-005  0.2281827E+03  0.7546771E-02  0.1157909E+00
          2   -1    0    0  502    0 -0.00000000000E+00  0.00000000000E+00  0.79731342612E+03  0.79731342612E+03  0.00000000000E+00 0. -1.
         21   -1    0    0  501  502  0.00000000000E+00 -0.00000000000E+00 -0.57435772084E+02  0.57435772084E+02  0.00000000000E+00 0. -1.
         24    2    1    2    0    0  0.45085132556E+02 -0.67217041532E+02  0.54028289478E+03  0.55159016594E+03  0.76126900089E+02 0.  0.
         23    2    1    2    0    0 -0.26668882246E+02 -0.44047215192E+02  0.14280066056E+03  0.17688764696E+03  0.90806522589E+02 0.  0.
        -11    1    3    3    0    0  0.73562744195E+01 -0.72551422281E+02  0.36500364339E+03  0.37221698422E+03  0.00000000000E+00 0.  1.
         12    1    3    3    0    0  0.37728858137E+02  0.53343807490E+01  0.17527925139E+03  0.17937318173E+03  0.00000000000E+00 0. -1.
        -11    1    4    4    0    0 -0.39340657962E+02 -0.67270909063E+02  0.10727674982E+03  0.13259473453E+03  0.00000000000E+00 0. -1.
         11    1    4    4    0    0  0.12671775716E+02  0.23223693870E+02  0.35523910739E+02  0.44292912424E+02  0.00000000000E+00 0.  1.
          1    1    1    2  501    0 -0.18416250311E+02  0.11126425672E+03  0.56794098696E+02  0.12627138530E+03  0.00000000000E+00 0. -1.
<scales pt_clust_5="13000.00000" pt_clust_6="13000.00000" pt_clust_7="13000.00000" pt_clust_8="13000.00000" pt_clust_9="13000.00000"></scales>
<clustering>
<clus scale="   76.127">  5  6 -1 -1</clus>
<clus scale="   90.807">  7  8 -1 -1</clus>
<clus scale="  111.113">  1  5  2 -1</clus>
<clus scale="   86.812">  7  9 -1 -1</clus>
<clus scale="  228.183">  2  5  1 -1</clus>
</clustering>
</event>
<event>
 9    2  0.2147756E-005  0.3323532E+03  0.7546771E-02  0.1088141E+00
         21   -1    0    0  501  502  0.00000000000E+00  0.00000000000E+00  0.22088609768E+03  0.22088609768E+03  0.00000000000E+00 0. -1.
          2   -1    0    0  502    0 -0.00000000000E+00 -0.00000000000E+00 -0.64467205697E+03  0.64467205697E+03  0.00000000000E+00 0. -1.
         24    2    1    2    0    0 -0.18776171261E+03  0.15595523817E+02 -0.48622980268E+03  0.52738970814E+03  0.78884739666E+02 0.  0.
         23    2    1    2    0    0 -0.29812043127E+02  0.38625438453E+02 -0.42975326759E+01  0.10421831674E+03  0.91990794899E+02 0.  0.
        -13    1    3    3    0    0 -0.43348801145E+02  0.38514808788E+02 -0.13294048606E+03  0.14503682943E+03  0.00000000000E+00 0.  1.
         14    1    3    3    0    0 -0.14441291147E+03 -0.22919284971E+02 -0.35328931662E+03  0.38235287871E+03  0.00000000000E+00 0. -1.
        -13    1    4    4    0    0 -0.32064860577E+02  0.65608482651E+02  0.98197879911E+01  0.73682131591E+02  0.00000000000E+00 0.  1.
         13    1    4    4    0    0  0.22528174505E+01 -0.26983044198E+02 -0.14117320667E+02  0.30536185149E+02  0.00000000000E+00 0. -1.
          1    1    1    2  501    0  0.21757375574E+03 -0.54220962270E+02  0.66741376068E+02  0.23395012976E+03  0.00000000000E+00 0. -1.
<scales pt_clust_5="13000.00000" pt_clust_6="13000.00000" pt_clust_7="13000.00000" pt_clust_8="13000.00000" pt_clust_9="13000.00000"></scales>
<clustering>
<clus scale="   78.885">  5  6 -1 -1</clus>
<clus scale="   91.991">  7  8 -1 -1</clus>
<clus scale="  204.256">  2  5  1 -1</clus>
<clus scale="  112.957">  7  9 -1 -1</clus>
<clus scale="  332.353">  1  5  2 -1</clus>
</clustering>
</event>
<event>
 9    2  0.2147756E-005  0.2434448E+03  0.7546771E-02  0.1154294E+00
         21   -1    0    0  501  502  0.00000000000E+00  0.00000000000E+00  0.64462096048E+02  0.64462096048E+02  0.00000000000E+00 0.  1.
          2   -1    0    0  502    0 -0.00000000000E+00 -0.00000000000E+00 -0.55289135691E+03  0.55289135691E+03  0.00000000000E+00 0. -1.
         24    2    1    2    0    0  0.13371919102E+02 -0.56077692674E+02 -0.40433805912E+02  0.10748551138E+03  0.81207922394E+02 0.  0.
         23    2    1    2    0    0  0.35023861362E+02 -0.45531879107E+02 -0.11008675318E+03  0.15370934296E+03  0.90596059549E+02 0.  0.
        -13    1    3    3    0    0 -0.28211205591E+02 -0.19396114516E+02  0.64904024896E+01  0.34845468912E+02  0.00000000000E+00 0.  1.
         14    1    3    3    0    0  0.41583124693E+02 -0.36681578158E+02 -0.46924208401E+02  0.72640042466E+02  0.00000000000E+00 0. -1.
        -13    1    4    4    0    0  0.53592111826E+02  0.35257056607E+00 -0.78292967934E+02  0.94879015508E+02  0.00000000000E+00 0.  1.
         13    1    4    4    0    0 -0.18568250464E+02 -0.45884449674E+02 -0.31793785249E+02  0.58830327447E+02  0.00000000000E+00 0. -1.
          1    1    1    2  501    0 -0.48395780464E+02  0.10160957178E+03 -0.33790870177E+03  0.35615859863E+03  0.00000000000E+00 0. -1.
<scales pt_clust_5="13000.00000" pt_clust_6="13000.00000" pt_clust_7="13000.00000" pt_clust_8="13000.00000" pt_clust_9="13000.00000"></scales>
<clustering>
<clus scale="   81.208">  5  6 -1 -1</clus>
<clus scale="   90.596">  7  8 -1 -1</clus>
<clus scale="   99.590">  2  5  1 -1</clus>
<clus scale="   72.224">  7  9 -1 -1</clus>
<clus scale="  243.445">  1  5  2 -1</clus>
</clustering>
</event>
<event>
 9    2  0.2147756E-005  0.2618029E+03  0.7546771E-02  0.1138689E+00
         21   -1    0    0  501  502  0.00000000000E+00  0.00000000000E+00  0.92026161845E+02  0.92026161845E+02  0.00000000000E+00 0. -1.
          2   -1    0    0  502    0 -0.00000000000E+00 -0.00000000000E+00 -0.77673300545E+03  0.77673300545E+03  0.00000000000E+00 0. -1.
         24    2    1    2    0    0 -0.85512731747E+02  0.68810438071E+01 -0.57208475817E+03  0.58376009074E+03  0.78326859791E+02 0.  0.
         23    2    1    2    0    0 -0.18716897896E+02 -0.53408068751E+02 -0.13144246889E+03  0.16931508207E+03  0.90486078018E+02 0.  0.
        -11    1    3    3    0    0 -0.64994106017E+02 -0.31806334739E+02 -0.35164839045E+03  0.35901597075E+03  0.00000000000E+00 0.  1.
         12    1    3    3    0    0 -0.20518625730E+02  0.38687378546E+02 -0.22043636771E+03  0.22474411999E+03  0.00000000000E+00 0. -1.
        -13    1    4    4    0    0 -0.42668144263E+02 -0.39528241752E+01 -0.25221211441E+02  0.49722277304E+02  0.00000000000E+00 0. -1.
         13    1    4    4    0    0  0.23951246367E+02 -0.49455244575E+02 -0.10622125745E+03  0.11959280477E+03  0.00000000000E+00 0.  1.
          1    1    1    2  501    0  0.10422962964E+03  0.46527024944E+02  0.18820383448E+02  0.11568399448E+03  0.00000000000E+00 0. -1.
<scales pt_clust_5="13000.00000" pt_clust_6="13000.00000" pt_clust_7="13000.00000" pt_clust_8="13000.00000" pt_clust_9="13000.00000"></scales>
<clustering>
<clus scale="   78.327">  5  6 -1 -1</clus>
<clus scale="   90.486">  7  8 -1 -1</clus>
<clus scale="  114.143">  7  9 -1 -1</clus>
<clus scale="  116.167">  2  5  1 -1</clus>
<clus scale="  261.803">  1  5  2 -1</clus>
</clustering>
</event>
<event>
 9    2  0.2147756E-005  0.4413994E+03  0.7546771E-02  0.1062874E+00
         21   -1    0    0  501  502  0.00000000000E+00  0.00000000000E+00  0.13248130692E+03  0.13248130692E+03  0.00000000000E+00 0. -1.
          2   -1    0    0  502    0 -0.00000000000E+00 -0.00000000000E+00 -0.74967707177E+03  0.74967707177E+03  0.00000000000E+00 0. -1.
         24    2    1    2    0    0  0.84337366820E+02 -0.12817505842E+03 -0.92152059973E+02  0.19622520670E+03  0.80440615002E+02 0.  0.
         23    2    1    2    0    0  0.86542452661E+02 -0.59966104284E+02 -0.51509043636E+02  0.14850216693E+03  0.91182137669E+02 0.  0.
        -13    1    3    3    0    0  0.66650769901E+02 -0.12918966456E+03 -0.10041327405E+03  0.17667801267E+03  0.00000000000E+00 0.  1.
         14    1    3    3    0    0  0.17686596919E+02  0.10146061361E+01  0.82612140746E+01  0.19547194023E+02  0.00000000000E+00 0. -1.
        -11    1    4    4    0    0  0.45189541616E+02 -0.48107244001E+02 -0.74657306435E+02  0.99649962373E+02  0.00000000000E+00 0. -1.
         11    1    4    4    0    0  0.41352911045E+02 -0.11858860282E+02  0.23148262798E+02  0.48852204553E+02  0.00000000000E+00 0.  1.
          1    1    1    2  501    0 -0.17087981948E+03  0.18814116270E+03 -0.47353466124E+03  0.53743100507E+03  0.00000000000E+00 0. -1.
<scales pt_clust_5="13000.00000" pt_clust_6="13000.00000" pt_clust_7="13000.00000" pt_clust_8="13000.00000" pt_clust_9="13000.00000"></scales>
<clustering>
<clus scale="   80.441">  5  6 -1 -1</clus>
<clus scale="   91.182">  7  8 -1 -1</clus>
<clus scale="  173.241">  2  5  1 -1</clus>
<clus scale="  129.142">  7  9 -1 -1</clus>
<clus scale="  441.399">  1  5  2 -1</clus>
</clustering>
</event>
<event>
 9    2  0.5437448E-005  0.7449968E+03  0.7546771E-02  0.9921959E-01
         21   -1    0    0  501  502  0.00000000000E+00  0.00000000000E+00  0.50304351557E+03  0.50304351557E+03  0.00000000000E+00 0. -1.
          2   -1    0    0  502    0 -0.00000000000E+00 -0.00000000000E+00 -0.59737440584E+03  0.59737440584E+03  0.00000000000E+00 0. -1.
         24    2    1    2    0    0 -0.26265262782E+03 -0.11435128542E+03 -0.18473729617E+03  0.34995572826E+03  0.79237136307E+02 0.  0.
         23    2    1    2    0    0 -0.15158055259E+03 -0.63737164535E+02 -0.14912713069E+03  0.23989296288E+03  0.90943072664E+02 0.  0.
        -11    1    3    3    0    0 -0.45831963601E+02 -0.49654532933E+02 -0.21356938086E+02  0.70867907636E+02  0.00000000000E+00 0.  1.
         12    1    3    3    0    0 -0.21682066422E+03 -0.64696752483E+02 -0.16338035808E+03  0.27908782062E+03  0.00000000000E+00 0. -1.
        -11    1    4    4    0    0 -0.10513929277E+03 -0.19294217003E+02 -0.41776487118E+02  0.11476851733E+03  0.00000000000E+00 0.  1.
         11    1    4    4    0    0 -0.46441259813E+02 -0.44442947532E+02 -0.10735064357E+03  0.12512444554E+03  0.00000000000E+00 0. -1.
          1    1    1    2  501    0  0.41423318041E+03  0.17808844995E+03  0.23953353659E+03  0.51056923028E+03  0.00000000000E+00 0. -1.
<scales pt_clust_5="13000.00000" pt_clust_6="13000.00000" pt_clust_7="13000.00000" pt_clust_8="13000.00000" pt_clust_9="13000.00000"></scales>
<clustering>
<clus scale="   79.237">  5  6 -1 -1</clus>
<clus scale="   90.943">  7  8 -1 -1</clus>
<clus scale="  297.222">  2  5  1 -1</clus>
<clus scale="  333.265">  7  9 -1 -1</clus>
<clus scale="  744.997">  1  5  2 -1</clus>
</clustering>
</event>
<event>
 9    2  0.2147756E-005  0.1499589E+03  0.7546771E-02  0.1223953E+00
         21   -1    0    0  501  502  0.00000000000E+00  0.00000000000E+00  0.19595319295E+02  0.19595319295E+02  0.00000000000E+00 0.  1.
          2   -1    0    0  502    0 -0.00000000000E+00 -0.00000000000E+00 -0.79998135616E+03  0.79998135616E+03  0.00000000000E+00 0. -1.
         24    2    1    2    0    0  0.13464857261E+02  0.42123716929E+02 -0.40973856758E+03  0.41974269799E+03  0.79639995251E+02 0.  0.
         23    2    1    2    0    0  0.33330453457E+02 -0.28717706822E+02 -0.23348910379E+03  0.25429381312E+03  0.90623153720E+02 0.  0.
        -13    1    3    3    0    0  0.20371911227E+02  0.18487487883E+02 -0.36567624903E+02  0.45760170086E+02  0.00000000000E+00 0.  1.
         14    1    3    3    0    0 -0.69070539665E+01  0.23636229046E+02 -0.37317094267E+03  0.37398252790E+03  0.00000000000E+00 0. -1.
        -13    1    4    4    0    0 -0.80681818047E+01 -0.30460812998E+02 -0.21153117246E+02  0.37952747666E+02  0.00000000000E+00 0.  1.
         13    1    4    4    0    0  0.41398635261E+02  0.17431061764E+01 -0.21233598654E+03  0.21634106545E+03  0.00000000000E+00 0. -1.
          1    1    1    2  501    0 -0.46795310717E+02 -0.13406010107E+02 -0.13715836550E+03  0.14554016435E+03  0.00000000000E+00 0. -1.
<scales pt_clust_5="13000.00000" pt_clust_6="13000.00000" pt_clust_7="13000.00000" pt_clust_8="13000.00000" pt_clust_9="13000.00000"></scales>
<clustering>
<clus scale="   79.640">  5  6 -1 -1</clus>
<clus scale="   90.623">  7  8 -1 -1</clus>
<clus scale="   48.678">  7  9 -1 -1</clus>
<clus scale="   91.095">  2  5  1 -1</clus>
<clus scale="  149.959">  1  5  2 -1</clus>
</clustering>
</event>
<event>
 9    2  0.2147756E-005  0.1614792E+03  0.7546771E-02  0.1207794E+00
         21   -1    0    0  501  502  0.00000000000E+00  0.00000000000E+00  0.36190803944E+02  0.36190803944E+02  0.00000000000E+00 0.  1.
          2   -1    0    0  502    0 -0.00000000000E+00 -0.00000000000E+00 -0.55700803184E+03  0.55700803184E+03  0.00000000000E+00 0. -1.
         24    2    1    2    0    0  0.59510570702E+02 -0.27909995688E+02 -0.10375264761E+03  0.14596467517E+03  0.78870771683E+02 0.  0.
         23    2    1    2    0    0  0.32006638776E+01  0.12157225477E+01 -0.27458044899E+03  0.28928793295E+03  0.91001994242E+02 0.  0.
        -11    1    3    3    0    0  0.62575280457E+02  0.17130789103E+01 -0.36621188920E+02  0.72523870839E+02  0.00000000000E+00 0.  1.
         12    1    3    3    0    0 -0.30647097544E+01 -0.29623074598E+02 -0.67131458688E+02  0.73440804326E+02  0.00000000000E+00 0. -1.
        -11    1    4    4    0    0  0.10433535206E+02  0.44549935026E+02 -0.16505135642E+03  0.17127610932E+03  0.00000000000E+00 0.  1.
         11    1    4    4    0    0 -0.72328713282E+01 -0.43334212478E+02 -0.10952909257E+03  0.11801182363E+03  0.00000000000E+00 0. -1.
          1    1    1    2  501    0 -0.62711234580E+02  0.26694273140E+02 -0.14248413130E+03  0.15794622766E+03  0.00000000000E+00 0. -1.
<scales pt_clust_5="13000.00000" pt_clust_6="13000.00000" pt_clust_7="13000.00000" pt_clust_8="13000.00000" pt_clust_9="13000.00000"></scales>
<clustering>
<clus scale="   78.871">  5  6 -1 -1</clus>
<clus scale="   91.002">  7  8 -1 -1</clus>
<clus scale="   68.156">  7  9 -1 -1</clus>
<clus scale="  102.670">  2  5  1 -1</clus>
<clus scale="  161.479">  1  5  2 -1</clus>
</clustering>
</event>
<event>
 9    2  0.2147756E-005  0.2174493E+03  0.7546771E-02  0.1154413E+00
          2   -1    0    0  502    0 -0.00000000000E+00  0.00000000000E+00  0.29934675300E+03  0.29934675300E+03  0.00000000000E+00 0. -1.
         21   -1    0    0  501  502  0.00000000000E+00 -0.00000000000E+00 -0.11304007993E+03  0.11304007993E+03  0.00000000000E+00 0. -1.
         24    2    1    2    0    0 -0.93107196299E+02  0.65295466952E+02  0.12309298170E+03  0.18593558590E+03  0.80546334198E+02 0.  0.
         23    2    1    2    0    0  0.13243384323E+03 -0.27557989327E+02  0.47749338643E+02  0.16979572143E+03  0.90842842678E+02 0.  0.
        -13    1    3    3    0    0 -0.15272227370E+02 -0.19033646020E+02  0.17965824220E+02  0.30303324068E+02  0.00000000000E+00 0.  1.
         14    1    3    3    0    0 -0.77834968929E+02  0.84329112972E+02  0.10512715748E+03  0.15563226183E+03  0.00000000000E+00 0. -1.
        -11    1    4    4    0    0  0.76912826045E+02  0.20614301253E+02 -0.42746830592E+01  0.79742116486E+02  0.00000000000E+00 0. -1.
         11    1    4    4    0    0  0.55521017187E+02 -0.48172290580E+02  0.52024021702E+02  0.90053604944E+02  0.00000000000E+00 0.  1.
          1    1    1    2  501    0 -0.39326646933E+02 -0.37737477624E+02  0.15464352730E+02  0.56655525607E+02  0.00000000000E+00 0. -1.
<scales pt_clust_5="13000.00000" pt_clust_6="13000.00000" pt_clust_7="13000.00000" pt_clust_8="13000.00000" pt_clust_9="13000.00000"></scales>
<clustering>
<clus scale="   80.546">  5  6 -1 -1</clus>
<clus scale="   90.843">  7  8 -1 -1</clus>
<clus scale="   54.504">  7  9 -1 -1</clus>
<clus scale="  139.356">  1  5  2 -1</clus>
<clus scale="  217.449">  2  5  1 -1</clus>
</clustering>
</event>
<event>
 9    2  0.2147756E-005  0.5238948E+03  0.7546771E-02  0.1068364E+00
         21   -1    0    0  501  502  0.00000000000E+00  0.00000000000E+00  0.18761452233E+03  0.18761452233E+03  0.00000000000E+00 0. -1.
          2   -1    0    0  502    0 -0.00000000000E+00 -0.00000000000E+00 -0.50131670523E+03  0.50131670523E+03  0.00000000000E+00 0. -1.
         24    2    1    2    0    0 -0.39577132471E+02  0.81371919606E+01 -0.55206472774E+02  0.10473451728E+03  0.79303222927E+02 0.  0.
         23    2    1    2    0    0  0.84815532658E+02 -0.66630416054E+02 -0.39982956002E+03  0.42468737749E+03  0.94140345287E+02 0.  0.
        -11    1    3    3    0    0 -0.17116230741E+02  0.22005276458E+02 -0.69380902410E+02  0.74772369001E+02  0.00000000000E+00 0.  1.
         12    1    3    3    0    0 -0.22460901730E+02 -0.13868084497E+02  0.14174429636E+02  0.29962148282E+02  0.00000000000E+00 0. -1.
        -13    1    4    4    0    0 -0.12783305011E+02 -0.39045367728E+02 -0.97628717222E+02  0.10592129179E+03  0.00000000000E+00 0.  1.
         13    1    4    4    0    0  0.97598837669E+02 -0.27585048326E+02 -0.30220084280E+03  0.31876608570E+03  0.00000000000E+00 0. -1.
          1    1    1    2  501    0 -0.45238400188E+02  0.58493224094E+02  0.14133384990E+03  0.15950933278E+03  0.00000000000E+00 0. -1.
<scales pt_clust_5="13000.00000" pt_clust_6="13000.00000" pt_clust_7="13000.00000" pt_clust_8="13000.00000" pt_clust_9="13000.00000"></scales>
<clustering>
<clus scale="   79.303">  5  6 -1 -1</clus>
<clus scale="   89.003">  2  5  1 -1</clus>
<clus scale="   94.140">  7  8 -1 -1</clus>
<clus scale="   74.609">  7  9 -1 -1</clus>
<clus scale="  523.895">  1  5  2 -1</clus>
</clustering>
</event>
<event>
 9    2  0.2147756E-005  0.3929638E+03  0.7546771E-02  0.1069511E+00
          2   -1    0    0  502    0 -0.00000000000E+00  0.00000000000E+00  0.14590664890E+04  0.14590664890E+04  0.00000000000E+00 0. -1.
         21   -1    0    0  501  502  0.00000000000E+00 -0.00000000000E+00 -0.61686105849E+02  0.61686105849E+02  0.00000000000E+00 0.  1.
         24    2    1    2    0    0  0.17912149429E+03  0.56117044327E+02  0.54845143064E+03  0.58528429759E+03  0.80778121072E+02 0.  0.
         23    2    1    2    0    0 -0.30933562386E+02 -0.10962149635E+03  0.13462459645E+03  0.20399505604E+03  0.10254971075E+03 0.  0.
        -13    1    3    3    0    0  0.16471800025E+03  0.26522616532E+02  0.49652164144E+03  0.52380264338E+03  0.00000000000E+00 0.  1.
         14    1    3    3    0    0  0.14403494042E+02  0.29594427795E+02  0.51929789208E+02  0.61481654210E+02  0.00000000000E+00 0. -1.
        -13    1    4    4    0    0 -0.30606832178E+01 -0.41896981997E+02  0.12283052423E+03  0.12981549432E+03  0.00000000000E+00 0. -1.
         13    1    4    4    0    0 -0.27872879168E+02 -0.67724514352E+02  0.11794072219E+02  0.74179561719E+02  0.00000000000E+00 0.  1.
          1    1    1    2  501    0 -0.14818793191E+03  0.53504452022E+02  0.71430435610E+03  0.73147324127E+03  0.00000000000E+00 0. -1.
<scales pt_clust_5="13000.00000" pt_clust_6="13000.00000" pt_clust_7="13000.00000" pt_clust_8="13000.00000" pt_clust_9="13000.00000"></scales>
<clustering>
<clus scale="   80.778">  5  6 -1 -1</clus>
<clus scale="  102.550">  7  8 -1 -1</clus>
<clus scale="  157.551">  7  9 -1 -1</clus>
<clus scale="  204.350">  1  5  2 -1</clus>
<clus scale="  392.964">  2  5  1 -1</clus>
</clustering>
</event>
<event>
 9    2  0.2147756E-005  0.8992774E+03  0.7546771E-02  0.1006649E+00
          2   -1    0    0  502    0 -0.00000000000E+00  0.00000000000E+00  0.10925411977E+04  0.10925411977E+04  0.00000000000E+00 0. -1.
         21   -1    0    0  501  502  0.00000000000E+00 -0.00000000000E+00 -0.24490370461E+03  0.24490370461E+03  0.00000000000E+00 0. -1.
         24    2    1    2    0    0  0.43852288633E+02  0.53162219823E+02  0.84523454489E+01  0.10743206608E+03  0.81981472560E+02 0.  0.
         23    2    1    2    0    0  0.32217486402E+03  0.16867647168E+03  0.67112729554E+03  0.77019578222E+03  0.10267083821E+03 0.  0.
        -11    1    3    3    0    0 -0.23079285158E+02  0.24720175064E+02  0.77908964350E+01  0.34705021623E+02  0.00000000000E+00 0.  1.
         12    1    3    3    0    0  0.66931573791E+02  0.28442044759E+02  0.66144901394E+00  0.72727044453E+02  0.00000000000E+00 0. -1.
        -11    1    4    4    0    0  0.30803966006E+03  0.12807406387E+03  0.57252593050E+03  0.66262911127E+03  0.00000000000E+00 0. -1.
         11    1    4    4    0    0  0.14135203964E+02  0.40602407807E+02  0.98601365045E+02  0.10756667095E+03  0.00000000000E+00 0.  1.
          1    1    1    2  501    0 -0.36602715265E+03 -0.22183869150E+03  0.16805785212E+03  0.45981705404E+03  0.00000000000E+00 0. -1.
<scales pt_clust_5="13000.00000" pt_clust_6="13000.00000" pt_clust_7="13000.00000" pt_clust_8="13000.00000" pt_clust_9="13000.00000"></scales>
<clustering>
<clus scale="   81.981">  5  6 -1 -1</clus>
<clus scale="  102.671">  7  8 -1 -1</clus>
<clus scale="  107.099">  1  5  2 -1</clus>
<clus scale="  408.323">  7  9 -1 -1</clus>
<clus scale="  899.277">  2  5  1 -1</clus>
</clustering>
</event>
<event>
 9    2  0.2147756E-005  0.5520184E+03  0.7546771E-02  0.1055258E+00
         21   -1    0    0  501  502  0.00000000000E+00  0.00000000000E+00  0.11042023090E+03  0.11042023090E+03  0.00000000000E+00 0. -1.
          2   -1    0    0  502    0 -0.00000000000E+00 -0.00000000000E+00 -0.10296660348E+04  0.10296660348E+04  0.00000000000E+00 0. -1.
         24    2    1    2    0    0 -0.49316344042E+02  0.56368852730E+02 -0.80673588526E+02  0.13613026233E+03  0.80085398729E+02 0.  0.
         23    2    1    2    0    0  0.18523089916E+03 -0.14623890844E+03 -0.79630267801E+03  0.83562268227E+03  0.92038077904E+02 0.  0.
        -11    1    3    3    0    0 -0.19274105861E+02  0.71226348592E+02 -0.41806494921E+02  0.84808412956E+02  0.00000000000E+00 0.  1.
         12    1    3    3    0    0 -0.30042238181E+02 -0.14857495862E+02 -0.38867093605E+02  0.51321849377E+02  0.00000000000E+00 0. -1.
        -11    1    4    4    0    0  0.17966461995E+03 -0.12353581002E+03 -0.77072367989E+03  0.80097157425E+03  0.00000000000E+00 0. -1.
         11    1    4    4    0    0  0.55662792035E+01 -0.22703098427E+02 -0.25578998117E+02  0.34651108020E+02  0.00000000000E+00 0.  1.
          1    1    1    2  501    0 -0.13591455511E+03  0.89870055712E+02 -0.42269537380E+02  0.16833332111E+03  0.00000000000E+00 0. -1.
<scales pt_clust_5="13000.00000" pt_clust_6="13000.00000" pt_clust_7="13000.00000" pt_clust_8="13000.00000" pt_clust_9="13000.00000"></scales>
<clustering>
<clus scale="   80.085">  5  6 -1 -1</clus>
<clus scale="   92.038">  7  8 -1 -1</clus>
<clus scale="  109.651">  2  5  1 -1</clus>
<clus scale="  171.211">  7  9 -1 -1</clus>
<clus scale="  552.018">  1  5  2 -1</clus>
</clustering>
</event>
<event>
 9    2  0.2147756E-005  0.2663989E+03  0.7546771E-02  0.1143321E+00
          2   -1    0    0  502    0 -0.00000000000E+00  0.00000000000E+00  0.11929852828E+03  0.11929852828E+03  0.00000000000E+00 0. -1.
         21   -1    0    0  501  502  0.00000000000E+00 -0.00000000000E+00 -0.31167784415E+03  0.31167784415E+03  0.00000000000E+00 0. -1.
         24    2    1    2    0    0  0.25838570229E+02  0.47517083061E+02 -0.11919846457E+03  0.15470869042E+03  0.82468175935E+02 0.  0.
         23    2    1    2    0    0 -0.62585918559E+02 -0.11184307492E+03  0.17143405164E+02  0.15944871033E+03  0.93295896352E+02 0.  0.
        -13    1    3    3    0    0  0.42509827346E+02  0.15998754238E+02 -0.10827682186E+03  0.11741769761E+03  0.00000000000E+00 0.  1.
         14    1    3    3    0    0 -0.16671257118E+02  0.31518328822E+02 -0.10921642703E+02  0.37290992813E+02  0.00000000000E+00 0. -1.
        -11    1    4    4    0    0 -0.29404758378E+02 -0.14919970277E+02  0.42616945032E+02  0.53883664799E+02  0.00000000000E+00 0.  1.
         11    1    4    4    0    0 -0.33181160181E+02 -0.96923104643E+02 -0.25473539868E+02  0.10556504553E+03  0.00000000000E+00 0. -1.
          1    1    1    2  501    0  0.36747348330E+02  0.64325991859E+02 -0.90324256467E+02  0.11681897168E+03  0.00000000000E+00 0. -1.
<scales pt_clust_5="13000.00000" pt_clust_6="13000.00000" pt_clust_7="13000.00000" pt_clust_8="13000.00000" pt_clust_9="13000.00000"></scales>
<clustering>
<clus scale="   82.468">  5  6 -1 -1</clus>
<clus scale="   93.296">  7  8 -1 -1</clus>
<clus scale="   74.082">  7  9 -1 -1</clus>
<clus scale="   98.623">  1  5  2 -1</clus>
<clus scale="  266.399">  2  5  1 -1</clus>
</clustering>
</event>
<event>
 9    2  0.2147756E-005  0.3650095E+03  0.7546771E-02  0.1074413E+00
          2   -1    0    0  502    0 -0.00000000000E+00  0.00000000000E+00  0.59567483023E+03  0.59567483023E+03  0.00000000000E+00 0. -1.
         21   -1    0    0  501  502  0.00000000000E+00 -0.00000000000E+00 -0.17368221432E+03  0.17368221432E+03  0.00000000000E+00 0. -1.
         24    2    1    2    0    0 -0.35015186521E+02  0.20483069525E+03  0.32060423816E+03  0.39052787709E+03  0.80890470725E+02 0.  0.
         23    2    1    2    0    0  0.54454645682E+02  0.42583782467E+02  0.15734568779E+02  0.11628699686E+03  0.92175929712E+02 0.  0.
        -11    1    3    3    0    0 -0.55058190711E+02  0.12668690716E+03  0.16445844454E+03  0.21477326834E+03  0.00000000000E+00 0.  1.
         12    1    3    3    0    0  0.20043004190E+02  0.78143788090E+02  0.15614579361E+03  0.17575460875E+03  0.00000000000E+00 0. -1.
        -11    1    4    4    0    0  0.28410208591E+02 -0.90598044596E+00  0.48294817340E+02  0.56038827028E+02  0.00000000000E+00 0.  1.
         11    1    4    4    0    0  0.26044437091E+02  0.43489762913E+02 -0.32560248561E+02  0.60248169831E+02  0.00000000000E+00 0. -1.
          1    1    1    2  501    0 -0.19439459162E+02 -0.24741447771E+03  0.85653808973E+02  0.26254217061E+03  0.00000000000E+00 0. -1.
<scales pt_clust_5="13000.00000" pt_clust_6="13000.00000" pt_clust_7="13000.00000" pt_clust_8="13000.00000" pt_clust_9="13000.00000"></scales>
<clustering>
<clus scale="   80.890">  5  6 -1 -1</clus>
<clus scale="   92.176">  7  8 -1 -1</clus>
<clus scale="  222.991">  1  5  2 -1</clus>
<clus scale="  108.582">  7  9 -1 -1</clus>
<clus scale="  365.009">  2  5  1 -1</clus>
</clustering>
</event>
<event>
 9    2  0.2147756E-005  0.6312610E+03  0.7546771E-02  0.1040929E+00
          2   -1    0    0  502    0 -0.00000000000E+00  0.00000000000E+00  0.15162225162E+04  0.15162225162E+04  0.00000000000E+00 0. -1.
         21   -1    0    0  501  502  0.00000000000E+00 -0.00000000000E+00 -0.10023754666E+03  0.10023754666E+03  0.00000000000E+00 0.  1.
         24    2    1    2    0    0  0.15614698066E+02 -0.74478508903E+02  0.72847963101E+02  0.13237535321E+03  0.80159474328E+02 0.  0.
         23    2    1    2    0    0 -0.82027041393E+02  0.22753839249E+03  0.19463057874E+03  0.32352237105E+03  0.91013772640E+02 0.  0.
        -11    1    3    3    0    0 -0.29421795633E+02 -0.40200888662E+02  0.52127970682E+02  0.72104638096E+02  0.00000000000E+00 0.  1.
         12    1    3    3    0    0  0.45036493699E+02 -0.34277620242E+02  0.20719992418E+02  0.60270715111E+02  0.00000000000E+00 0. -1.
        -13    1    4    4    0    0 -0.28624704409E+02  0.71267460130E+02  0.11959412252E+03  0.14213085069E+03  0.00000000000E+00 0. -1.
         13    1    4    4    0    0 -0.53402336984E+02  0.15627093236E+03  0.75036456222E+02  0.18139152036E+03  0.00000000000E+00 0.  1.
          1    1    1    2  501    0  0.66412343327E+02 -0.15305988359E+03  0.11485064277E+04  0.11605623386E+04  0.00000000000E+00 0. -1.
<scales pt_clust_5="13000.00000" pt_clust_6="13000.00000" pt_clust_7="13000.00000" pt_clust_8="13000.00000" pt_clust_9="13000.00000"></scales>
<clustering>
<clus scale="   80.159">  5  6 -1 -1</clus>
<clus scale="   91.014">  7  8 -1 -1</clus>
<clus scale="  110.528">  1  5  2 -1</clus>
<clus scale="  228.069">  7  9 -1 -1</clus>
<clus scale="  631.261">  2  5  1 -1</clus>
</clustering>
</event>
<event>
 9    2  0.2147756E-005  0.5037433E+03  0.7546771E-02  0.1066480E+00
         21   -1    0    0  501  502  0.00000000000E+00  0.00000000000E+00  0.65117429053E+03  0.65117429053E+03  0.00000000000E+00 0. -1.
          4   -1    0    0  502    0 -0.00000000000E+00 -0.00000000000E+00 -0.14736261945E+03  0.14736261945E+03  0.00000000000E+00 0. -1.
         24    2    1    2    0    0 -0.65978032279E+02  0.30438086461E+01  0.37017279576E+02  0.11176597977E+03  0.82213075197E+02 0.  0.
         23    2    1    2    0    0  0.15036707492E+03 -0.10694321471E+03  0.50676703766E+03  0.54707694488E+03  0.91832699884E+02 0.  0.
        -13    1    3    3    0    0 -0.23266693710E+02 -0.38923631957E+02  0.12300923063E+02  0.46986177426E+02  0.00000000000E+00 0.  1.
         14    1    3    3    0    0 -0.42711338569E+02  0.41967440603E+02  0.24716356513E+02  0.64779802349E+02  0.00000000000E+00 0. -1.
        -13    1    4    4    0    0  0.15308541868E+03 -0.69211215240E+02  0.42413259007E+03  0.45619490537E+03  0.00000000000E+00 0. -1.
         13    1    4    4    0    0 -0.27183437597E+01 -0.37731999469E+02  0.82634447589E+02  0.90882039508E+02  0.00000000000E+00 0.  1.
          3    1    1    2  501    0 -0.84389042639E+02  0.10389940606E+03 -0.39972646156E+02  0.13969398533E+03  0.00000000000E+00 0. -1.
<scales pt_clust_5="13000.00000" pt_clust_6="13000.00000" pt_clust_7="13000.00000" pt_clust_8="13000.00000" pt_clust_9="13000.00000"></scales>
<clustering>
<clus scale="   82.213">  5  6 -1 -1</clus>
<clus scale="   91.833">  7  8 -1 -1</clus>
<clus scale="  105.458">  2  5  1 -1</clus>
<clus scale="  174.466">  7  9 -1 -1</clus>
<clus scale="  503.743">  1  5  2 -1</clus>
</clustering>
</event>
<event>
 9    2  0.2147756E-005  0.5524974E+03  0.7546771E-02  0.1026761E+00
          4   -1    0    0  502    0 -0.00000000000E+00  0.00000000000E+00  0.22604926296E+03  0.22604926296E+03  0.00000000000E+00 0. -1.
         21   -1    0    0  501  502  0.00000000000E+00 -0.00000000000E+00 -0.71734598632E+03  0.71734598632E+03  0.00000000000E+00 0. -1.
         24    2    1    2    0    0  0.17602725138E+03  0.15784698786E+03 -0.18924726237E+03  0.31372290593E+03  0.81891822461E+02 0.  0.
         23    2    1    2    0    0 -0.26135388864E+03  0.42015167081E+02 -0.30054810669E+02  0.28152495242E+03  0.91004823031E+02 0.  0.
        -11    1    3    3    0    0  0.25581458631E+02 -0.42083791197E+01 -0.37300221884E+02  0.45424971471E+02  0.00000000000E+00 0.  1.
         12    1    3    3    0    0  0.15044579275E+03  0.16205536698E+03 -0.15194704049E+03  0.26829793446E+03  0.00000000000E+00 0. -1.
        -13    1    4    4    0    0 -0.95670369662E+01  0.22227868547E+02 -0.15090329786E+02  0.28518842710E+02  0.00000000000E+00 0.  1.
         13    1    4    4    0    0 -0.25178685168E+03  0.19787298533E+02 -0.14964480883E+02  0.25300610971E+03  0.00000000000E+00 0. -1.
          3    1    1    2  501    0  0.85326637263E+02 -0.19986215494E+03 -0.27199465032E+03  0.34814739092E+03  0.00000000000E+00 0. -1.
<scales pt_clust_5="13000.00000" pt_clust_6="13000.00000" pt_clust_7="13000.00000" pt_clust_8="13000.00000" pt_clust_9="13000.00000"></scales>
<clustering>
<clus scale="   81.892">  5  6 -1 -1</clus>
<clus scale="   91.005">  7  8 -1 -1</clus>
<clus scale="  217.314">  7  9 -1 -1</clus>
<clus scale="  250.215">  1  5  2 -1</clus>
<clus scale="  552.497">  2  5  1 -1</clus>
</clustering>
</event>
<event>
 9    2  0.2147756E-005  0.1895456E+03  0.7546771E-02  0.1169890E+00
         21   -1    0    0  501  502  0.00000000000E+00  0.00000000000E+00  0.12800714452E+03  0.12800714452E+03  0.00000000000E+00 0. -1.
          2   -1    0    0  502    0 -0.00000000000E+00 -0.00000000000E+00 -0.22732939177E+03  0.22732939177E+03  0.00000000000E+00 0. -1.
         24    2    1    2    0    0  0.78411283770E+02 -0.91422200037E+02 -0.72630969205E+02  0.16392086818E+03  0.84192905022E+02 0.  0.
         23    2    1    2    0    0 -0.68103191483E+02  0.22802611564E+02 -0.35479301826E+02  0.12147187602E+03  0.91316110414E+02 0.  0.
        -11    1    3    3    0    0  0.27060667550E+02 -0.58577327451E+02 -0.79711294155E+02  0.10255473385E+03  0.00000000000E+00 0.  1.
         12    1    3    3    0    0  0.51350616220E+02 -0.32844872586E+02  0.70803249498E+01  0.61366134331E+02  0.00000000000E+00 0. -1.
        -11    1    4    4    0    0  0.18023960627E+02  0.22496736240E+02 -0.16721222304E+02  0.33325149264E+02  0.00000000000E+00 0.  1.
         11    1    4    4    0    0 -0.86127152109E+02  0.30587532377E+00 -0.18758079522E+02  0.88146726754E+02  0.00000000000E+00 0. -1.
          1    1    1    2  501    0 -0.10308092287E+02  0.68619588473E+02  0.87880237830E+01  0.69943792082E+02  0.00000000000E+00 0. -1.
<scales pt_clust_5="13000.00000" pt_clust_6="13000.00000" pt_clust_7="13000.00000" pt_clust_8="13000.00000" pt_clust_9="13000.00000"></scales>
<clustering>
<clus scale="   84.193">  5  6 -1 -1</clus>
<clus scale="   91.316">  7  8 -1 -1</clus>
<clus scale="   69.390">  7  9 -1 -1</clus>
<clus scale="  146.952">  2  5  1 -1</clus>
<clus scale="  189.546">  1  5  2 -1</clus>
</clustering>
</event>
<event>
 9    2  0.2147756E-005  0.6214818E+03  0.7546771E-02  0.1028299E+00
         -1   -1    0    0    0  501 -0.00000000000E+00  0.00000000000E+00  0.36431475185E+03  0.36431475185E+03  0.00000000000E+00 0.  1.
         21   -1    0    0  501  502  0.00000000000E+00 -0.00000000000E+00 -0.50521685982E+03  0.50521685982E+03  0.00000000000E+00 0.  1.
         24    2    1    2    0    0 -0.10675339525E+03  0.10104050304E+03  0.10844807257E+03  0.19989357827E+03  0.81184897234E+02 0.  0.
         23    2    1    2    0    0 -0.71211937739E+02 -0.12215345408E+03  0.15329614622E+03  0.22890968067E+03  0.94378636551E+02 0.  0.
        -11    1    3    3    0    0 -0.10420929766E+03  0.47857159844E+02  0.74365332787E+02  0.13667511913E+03  0.00000000000E+00 0.  1.
         12    1    3    3    0    0 -0.25440975898E+01  0.53183343193E+02  0.34082739783E+02  0.63218459147E+02  0.00000000000E+00 0. -1.
        -13    1    4    4    0    0 -0.24712074367E+02 -0.52840796574E+02  0.12963524678E+03  0.14215531509E+03  0.00000000000E+00 0. -1.
         13    1    4    4    0    0 -0.46499863372E+02 -0.69312657506E+02  0.23660899445E+02  0.86754365577E+02  0.00000000000E+00 0.  1.
         -2    1    1    2    0  502  0.17796533299E+03  0.21112951042E+02 -0.40264632676E+03  0.44072835273E+03  0.00000000000E+00 0.  1.
<scales pt_clust_5="13000.00000" pt_clust_6="13000.00000" pt_clust_7="13000.00000" pt_clust_8="13000.00000" pt_clust_9="13000.00000"></scales>
<clustering>
<clus scale="   81.185">  5  6 -1 -1</clus>
<clus scale="   94.379">  7  8 -1 -1</clus>
<clus scale="  167.918">  1  5  2 -1</clus>
<clus scale="  170.993">  7  9 -1 -1</clus>
<clus scale="  621.482">  2  5  1 -1</clus>
</clustering>
</event>
<event>
 9    2  0.2147756E-005  0.2203974E+03  0.7546771E-02  0.1151593E+00
          2   -1    0    0  502    0 -0.00000000000E+00  0.00000000000E+00  0.38334382611E+03  0.38334382611E+03  0.00000000000E+00 0. -1.
         21   -1    0    0  501  502  0.00000000000E+00 -0.00000000000E+00 -0.86352914682E+02  0.86352914682E+02  0.00000000000E+00 0. -1.
         24    2    1    2    0    0  0.57228653942E+02  0.10328066088E+03  0.10552971531E+03  0.17775083955E+03  0.80726862962E+02 0.  0.
         23    2    1    2    0    0  0.12745657564E+02 -0.63249166939E+01  0.46581797657E+02  0.10409792893E+03  0.92000318352E+02 0.  0.
        -11    1    3    3    0    0  0.29099879277E+02 -0.61698758954E+01  0.17588267506E+02  0.34557452111E+02  0.00000000000E+00 0.  1.
         12    1    3    3    0    0  0.28128774665E+02  0.10945053678E+03  0.87941447802E+02  0.14319338744E+03  0.00000000000E+00 0. -1.
        -11    1    4    4    0    0  0.38534879247E+02 -0.30556516070E+02  0.49040680239E+01  0.49423551836E+02  0.00000000000E+00 0. -1.
         11    1    4    4    0    0 -0.25789221683E+02  0.24231599376E+02  0.41677729633E+02  0.54674377095E+02  0.00000000000E+00 0.  1.
          1    1    1    2  501    0 -0.69974311506E+02 -0.96955744189E+02  0.14487939847E+03  0.18784797231E+03  0.00000000000E+00 0. -1.
<scales pt_clust_5="13000.00000" pt_clust_6="13000.00000" pt_clust_7="13000.00000" pt_clust_8="13000.00000" pt_clust_9="13000.00000"></scales>
<clustering>
<clus scale="   80.727">  5  6 -1 -1</clus>
<clus scale="   92.000">  7  8 -1 -1</clus>
<clus scale="  119.569">  7  9 -1 -1</clus>
<clus scale="  143.034">  1  5  2 -1</clus>
<clus scale="  220.397">  2  5  1 -1</clus>
</clustering>
</event>
<event>
 9    2  0.2147756E-005  0.1612222E+03  0.7546771E-02  0.1210999E+00
          2   -1    0    0  502    0 -0.00000000000E+00  0.00000000000E+00  0.31670909051E+02  0.31670909051E+02  0.00000000000E+00 0. -1.
         21   -1    0    0  501  502  0.00000000000E+00 -0.00000000000E+00 -0.53774582164E+03  0.53774582164E+03  0.00000000000E+00 0. -1.
         24    2    1    2    0    0  0.27935972344E+02 -0.43960784787E+02 -0.14625814906E+03  0.17513167950E+03  0.81035114897E+02 0.  0.
         23    2    1    2    0    0  0.37770817936E-01 -0.18886721035E+02 -0.21727419282E+03  0.23601084686E+03  0.90201636964E+02 0.  0.
        -11    1    3    3    0    0 -0.23468400904E+02 -0.44948341895E+01 -0.75449809741E+02  0.79143181420E+02  0.00000000000E+00 0.  1.
         12    1    3    3    0    0  0.51404373248E+02 -0.39465950598E+02 -0.70808339323E+02  0.95988498078E+02  0.00000000000E+00 0. -1.
        -13    1    4    4    0    0  0.20276722788E+02  0.30296470387E+02 -0.62517680378E+02  0.72370449527E+02  0.00000000000E+00 0.  1.
         13    1    4    4    0    0 -0.20238951970E+02 -0.49183191422E+02 -0.15475651244E+03  0.16364039733E+03  0.00000000000E+00 0. -1.
          1    1    1    2  501    0 -0.27973743162E+02  0.62847505822E+02 -0.14254257070E+03  0.15827420433E+03  0.00000000000E+00 0. -1.
<scales pt_clust_5="13000.00000" pt_clust_6="13000.00000" pt_clust_7="13000.00000" pt_clust_8="13000.00000" pt_clust_9="13000.00000"></scales>
<clustering>
<clus scale="   81.035">  5  6 -1 -1</clus>
<clus scale="   90.202">  7  8 -1 -1</clus>
<clus scale="   68.792">  7  9 -1 -1</clus>
<clus scale="   96.331">  1  5  2 -1</clus>
<clus scale="  161.222">  2  5  1 -1</clus>
</clustering>
</event>
<event>
 9    2  0.2147756E-005  0.3685672E+03  0.7546771E-02  0.1061666E+00
          2   -1    0    0  502    0 -0.00000000000E+00  0.00000000000E+00  0.30256024932E+04  0.30256024932E+04  0.00000000000E+00 0. -1.
         21   -1    0    0  501  502  0.00000000000E+00 -0.00000000000E+00 -0.39135799580E+02  0.39135799580E+02  0.00000000000E+00 0. -1.
         24    2    1    2    0    0  0.29468840959E+03  0.38755373069E+02  0.10811423640E+04  0.11240934127E+04  0.79837031409E+02 0.  0.
         23    2    1    2    0    0 -0.11461127563E+03  0.40896287262E+02  0.53821396977E+03  0.55942697648E+03  0.92065270053E+02 0.  0.
        -13    1    3    3    0    0  0.31827743365E+02  0.95732482836E+01  0.53665173967E+02  0.63123713669E+02  0.00000000000E+00 0.  1.
         14    1    3    3    0    0  0.26286066622E+03  0.29182124785E+02  0.10274771901E+04  0.10609696991E+04  0.00000000000E+00 0. -1.
        -13    1    4    4    0    0 -0.11798589488E+03  0.18262768890E+02  0.50611328781E+03  0.52000467326E+03  0.00000000000E+00 0. -1.
         13    1    4    4    0    0  0.33746192502E+01  0.22633518372E+02  0.32100681962E+02  0.39422303223E+02  0.00000000000E+00 0.  1.
          1    1    1    2  501    0 -0.18007713396E+03 -0.79651660331E+02  0.13671103598E+04  0.13812179035E+04  0.00000000000E+00 0. -1.
<scales pt_clust_5="13000.00000" pt_clust_6="13000.00000" pt_clust_7="13000.00000" pt_clust_8="13000.00000" pt_clust_9="13000.00000"></scales>
<clustering>
<clus scale="   79.837">  5  6 -1 -1</clus>
<clus scale="   92.065">  7  8 -1 -1</clus>
<clus scale="  196.907">  7  9 -1 -1</clus>
<clus scale="  307.762">  1  5  2 -1</clus>
<clus scale="  368.567">  2  5  1 -1</clus>
</clustering>
</event>
<event>
 9    2  0.2147756E-005  0.3319187E+03  0.7546771E-02  0.1123137E+00
          2   -1    0    0  502    0 -0.00000000000E+00  0.00000000000E+00  0.23359331006E+03  0.23359331006E+03  0.00000000000E+00 0. -1.
         21   -1    0    0  501  502  0.00000000000E+00 -0.00000000000E+00 -0.19947264492E+03  0.19947264492E+03  0.00000000000E+00 0.  1.
         24    2    1    2    0    0  0.21657051323E+01  0.99430057301E+01 -0.40634032687E+02  0.92833271995E+02  0.82845266221E+02 0.  0.
         23    2    1    2    0    0  0.70655656975E+02  0.12974351951E+03  0.43600215827E+02  0.17965286526E+03  0.92458479642E+02 0.  0.
        -11    1    3    3    0    0  0.42378404371E+02  0.85317831020E+01 -0.21345877352E+02  0.48211689037E+02  0.00000000000E+00 0.  1.
         12    1    3    3    0    0 -0.40212699239E+02  0.14112226281E+01 -0.19288155335E+02  0.44621582957E+02  0.00000000000E+00 0. -1.
        -11    1    4    4    0    0  0.12015129296E+02  0.57821697161E+02 -0.25122971689E+02  0.64178467581E+02  0.00000000000E+00 0. -1.
         11    1    4    4    0    0  0.58640527679E+02  0.71921822351E+02  0.68723187516E+02  0.11547439768E+03  0.00000000000E+00 0.  1.
          1    1    1    2  501    0 -0.72821362107E+02 -0.13968652524E+03  0.31154482000E+02  0.16057981773E+03  0.00000000000E+00 0. -1.
<scales pt_clust_5="13000.00000" pt_clust_6="13000.00000" pt_clust_7="13000.00000" pt_clust_8="13000.00000" pt_clust_9="13000.00000"></scales>
<clustering>
<clus scale="   82.845">  5  6 -1 -1</clus>
<clus scale="   83.468">  1  5  2 -1</clus>
<clus scale="   92.458">  7  8 -1 -1</clus>
<clus scale="  152.998">  7  9 -1 -1</clus>
<clus scale="  331.919">  2  5  1 -1</clus>
</clustering>
</event>
<event>
 9    2  0.2147756E-005  0.2171278E+03  0.7546771E-02  0.1162309E+00
         21   -1    0    0  501  502  0.00000000000E+00  0.00000000000E+00  0.25439517433E+03  0.25439517433E+03  0.00000000000E+00 0. -1.
          2   -1    0    0  502    0 -0.00000000000E+00 -0.00000000000E+00 -0.32441127384E+03  0.32441127384E+03  0.00000000000E+00 0. -1.
         24    2    1    2    0    0  0.74037721293E+02  0.33060456478E+02 -0.26344309549E+03  0.28801700072E+03  0.83528140089E+02 0.  0.
         23    2    1    2    0    0 -0.25386264785E+02  0.27875704761E+02  0.25942034607E+02  0.10604261459E+03  0.95658400543E+02 0.  0.
        -11    1    3    3    0    0  0.42555438828E+02  0.64837268256E+01 -0.33863688105E+02  0.54770005107E+02  0.00000000000E+00 0.  1.
         12    1    3    3    0    0  0.31482282465E+02  0.26576729652E+02 -0.22957940738E+03  0.23324699561E+03  0.00000000000E+00 0. -1.
        -11    1    4    4    0    0 -0.45809980866E+02 -0.19121395497E+02  0.25311587770E+01  0.49705018634E+02  0.00000000000E+00 0.  1.
         11    1    4    4    0    0  0.20423716081E+02  0.46997100258E+02  0.23410875830E+02  0.56337595958E+02  0.00000000000E+00 0. -1.
          1    1    1    2  501    0 -0.48651456508E+02 -0.60936161239E+02  0.16748496136E+03  0.18474683286E+03  0.00000000000E+00 0. -1.
<scales pt_clust_5="13000.00000" pt_clust_6="13000.00000" pt_clust_7="13000.00000" pt_clust_8="13000.00000" pt_clust_9="13000.00000"></scales>
<clustering>
<clus scale="   83.528">  5  6 -1 -1</clus>
<clus scale="   95.658">  7  8 -1 -1</clus>
<clus scale="   77.976">  7  9 -1 -1</clus>
<clus scale="  116.411">  2  5  1 -1</clus>
<clus scale="  217.128">  1  5  2 -1</clus>
</clustering>
</event>
<event>
 9    2  0.2147756E-005  0.4562395E+03  0.7546771E-02  0.1086638E+00
         -1   -1    0    0    0  501 -0.00000000000E+00  0.00000000000E+00  0.35544430035E+03  0.35544430035E+03  0.00000000000E+00 0.  1.
         21   -1    0    0  501  502  0.00000000000E+00 -0.00000000000E+00 -0.21483834949E+03  0.21483834949E+03  0.00000000000E+00 0.  1.
         24    2    1    2    0    0 -0.14513675642E+02 -0.29057802045E+00 -0.23429027905E+02  0.85450759136E+02  0.80883754068E+02 0.  0.
         23    2    1    2    0    0  0.19830728880E+03  0.89173910940E+02  0.21910413496E+02  0.23607552162E+03  0.89296240151E+02 0.  0.
        -13    1    3    3    0    0 -0.14690453560E+02 -0.36586108873E+02  0.44609889771E+01  0.39676859892E+02  0.00000000000E+00 0.  1.
         14    1    3    3    0    0  0.17677791732E+00  0.36295530853E+02 -0.27890016882E+02  0.45773899244E+02  0.00000000000E+00 0. -1.
        -11    1    4    4    0    0  0.79607011488E+02  0.84743582195E+02  0.11479257416E+02  0.11683545845E+03  0.00000000000E+00 0.  1.
         11    1    4    4    0    0  0.11870027731E+03  0.44303287455E+01  0.10431156080E+02  0.11924006317E+03  0.00000000000E+00 0. -1.
         -2    1    1    2    0  502 -0.18379361316E+03 -0.88883332920E+02  0.14212456526E+03  0.24875636909E+03  0.00000000000E+00 0.  1.
<scales pt_clust_5="13000.00000" pt_clust_6="13000.00000" pt_clust_7="13000.00000" pt_clust_8="13000.00000" pt_clust_9="13000.00000"></scales>
<clustering>
<clus scale="   80.884">  5  6 -1 -1</clus>
<clus scale="   82.176">  1  5  2 -1</clus>
<clus scale="   89.296">  7  8 -1 -1</clus>
<clus scale="  212.136">  7  9 -1 -1</clus>
<clus scale="  456.240">  2  5  1 -1</clus>
</clustering>
</event>
<event>
 9    2  0.2147756E-005  0.1682565E+03  0.7546771E-02  0.1193010E+00
         21   -1    0    0  501  502  0.00000000000E+00  0.00000000000E+00  0.41444067235E+02  0.41444067235E+02  0.00000000000E+00 0. -1.
          2   -1    0    0  502    0 -0.00000000000E+00 -0.00000000000E+00 -0.57119949877E+03  0.57119949877E+03  0.00000000000E+00 0. -1.
         24    2    1    2    0    0  0.81822423690E+02  0.41789107078E+02 -0.32105641202E+03  0.34456612199E+03  0.84896137911E+02 0.  0.
         23    2    1    2    0    0 -0.16834255708E+02 -0.18723024755E+02 -0.93753607287E+02  0.13403284725E+03  0.92418187826E+02 0.  0.
        -13    1    3    3    0    0  0.32183008963E+02 -0.22956711561E+02 -0.67687596458E+02  0.78386015244E+02  0.00000000000E+00 0.  1.
         14    1    3    3    0    0  0.49639414727E+02  0.64745818639E+02 -0.25336881556E+03  0.26618010674E+03  0.00000000000E+00 0. -1.
        -13    1    4    4    0    0  0.19967675705E+02 -0.42327489348E+01 -0.92219364934E+02  0.94451233478E+02  0.00000000000E+00 0.  1.
         13    1    4    4    0    0 -0.36801931413E+02 -0.14490275820E+02 -0.15342423523E+01  0.39581613770E+02  0.00000000000E+00 0. -1.
          1    1    1    2  501    0 -0.64988167982E+02 -0.23066082324E+02 -0.11494541223E+03  0.13404459677E+03  0.00000000000E+00 0. -1.
<scales pt_clust_5="13000.00000" pt_clust_6="13000.00000" pt_clust_7="13000.00000" pt_clust_8="13000.00000" pt_clust_9="13000.00000"></scales>
<clustering>
<clus scale="   84.896">  5  6 -1 -1</clus>
<clus scale="   92.418">  7  8 -1 -1</clus>
<clus scale="   68.960">  7  9 -1 -1</clus>
<clus scale="  125.094">  2  5  1 -1</clus>
<clus scale="  168.256">  1  5  2 -1</clus>
</clustering>
</event>
<event>
 9    2  0.2147756E-005  0.1672433E+03  0.7546771E-02  0.1211683E+00
         -1   -1    0    0    0  501 -0.00000000000E+00  0.00000000000E+00  0.13529053744E+02  0.13529053744E+02  0.00000000000E+00 0.  1.
         21   -1    0    0  501  502  0.00000000000E+00 -0.00000000000E+00 -0.14344640642E+04  0.14344640642E+04  0.00000000000E+00 0. -1.
         24    2    1    2    0    0  0.11147991041E+02 -0.24972434089E+02 -0.81420916383E+03  0.81863902480E+03  0.80531920965E+02 0.  0.
         23    2    1    2    0    0  0.31165503299E+02 -0.20369082208E+02 -0.28720883600E+03  0.30387382495E+03  0.92001075580E+02 0.  0.
        -13    1    3    3    0    0  0.12725377888E+02 -0.24185600805E+02 -0.82126983527E+02  0.86554722297E+02  0.00000000000E+00 0.  1.
         14    1    3    3    0    0 -0.15773868467E+01 -0.78683328426E+00 -0.73208218030E+03  0.73208430250E+03  0.00000000000E+00 0. -1.
        -13    1    4    4    0    0  0.28739361018E+02  0.33621007901E+02 -0.10841172412E+03  0.11708725366E+03  0.00000000000E+00 0.  1.
         13    1    4    4    0    0  0.24261422805E+01 -0.53990090109E+02 -0.17879711188E+03  0.18678657129E+03  0.00000000000E+00 0. -1.
         -2    1    1    2    0  502 -0.42313494340E+02  0.45341516297E+02 -0.31951701064E+03  0.32548026821E+03  0.00000000000E+00 0.  1.
<scales pt_clust_5="13000.00000" pt_clust_6="13000.00000" pt_clust_7="13000.00000" pt_clust_8="13000.00000" pt_clust_9="13000.00000"></scales>
<clustering>
<clus scale="   80.532">  5  6 -1 -1</clus>
<clus scale="   85.049">  1  5  2 -1</clus>
<clus scale="   92.001">  7  8 -1 -1</clus>
<clus scale="   55.252">  7  9 -1 -1</clus>
<clus scale="  167.243">  2  5  1 -1</clus>
</clustering>
</event>
<event>
 9    2  0.2147756E-005  0.4289968E+03  0.7546771E-02  0.1092428E+00
         21   -1    0    0  501  502  0.00000000000E+00  0.00000000000E+00  0.71802195438E+02  0.71802195438E+02  0.00000000000E+00 0. -1.
          2   -1    0    0  502    0 -0.00000000000E+00 -0.00000000000E+00 -0.10822119904E+04  0.10822119904E+04  0.00000000000E+00 0. -1.
         24    2    1    2    0    0 -0.11564080950E+02  0.20924216205E+02 -0.41573039484E+02  0.94446858454E+02  0.81365475896E+02 0.  0.
         23    2    1    2    0    0 -0.85278315864E+02  0.17075912117E+03 -0.41844778722E+03  0.46876366454E+03  0.90607692513E+02 0.  0.
        -11    1    3    3    0    0  0.20645779253E+02  0.19602941155E+02  0.12816467362E+02  0.31221552468E+02  0.00000000000E+00 0.  1.
         12    1    3    3    0    0 -0.32209860203E+02  0.13212750500E+01 -0.54389506846E+02  0.63225305986E+02  0.00000000000E+00 0. -1.
        -11    1    4    4    0    0  0.16869260855E+02  0.18211955105E+02 -0.28736657107E+02  0.37974237744E+02  0.00000000000E+00 0.  1.
         11    1    4    4    0    0 -0.10214757672E+03  0.15254716607E+03 -0.38971113012E+03  0.43078942680E+03  0.00000000000E+00 0. -1.
          1    1    1    2  501    0  0.96842396815E+02 -0.19168333738E+03 -0.55038896821E+03  0.59080366280E+03  0.00000000000E+00 0. -1.
<scales pt_clust_5="13000.00000" pt_clust_6="13000.00000" pt_clust_7="13000.00000" pt_clust_8="13000.00000" pt_clust_9="13000.00000"></scales>
<clustering>
<clus scale="   81.365">  5  6 -1 -1</clus>
<clus scale="   84.805">  2  5  1 -1</clus>
<clus scale="   90.608">  7  8 -1 -1</clus>
<clus scale="  201.318">  7  9 -1 -1</clus>
<clus scale="  428.997">  1  5  2 -1</clus>
</clustering>
</event>
<event>
 9    2  0.2147756E-005  0.1118084E+04  0.7546771E-02  0.9891932E-01
         21   -1    0    0  501  502  0.00000000000E+00  0.00000000000E+00  0.32933426639E+03  0.32933426639E+03  0.00000000000E+00 0. -1.
          2   -1    0    0  502    0 -0.00000000000E+00 -0.00000000000E+00 -0.11444422486E+04  0.11444422486E+04  0.00000000000E+00 0. -1.
         24    2    1    2    0    0 -0.38075772146E+02  0.35441074866E+02 -0.12919240247E+02  0.97688517670E+02  0.81671938288E+02 0.  0.
         23    2    1    2    0    0 -0.14276674556E+03  0.30820143503E+03 -0.90800727304E+03  0.97360600725E+03  0.89782967521E+02 0.  0.
        -13    1    3    3    0    0 -0.34262710776E+02 -0.10733484248E+02 -0.31505751797E+02  0.47767702793E+02  0.00000000000E+00 0.  1.
         14    1    3    3    0    0 -0.38130613703E+01  0.46174559114E+02  0.18586511550E+02  0.49920814877E+02  0.00000000000E+00 0. -1.
        -11    1    4    4    0    0 -0.88648623024E+02  0.15548138227E+03 -0.35825257403E+03  0.40047215309E+03  0.00000000000E+00 0.  1.
         11    1    4    4    0    0 -0.54118122536E+02  0.15272005276E+03 -0.54975469901E+03  0.57313385416E+03  0.00000000000E+00 0. -1.
          1    1    1    2  501    0  0.18084251771E+03 -0.34364250990E+03  0.10581853108E+03  0.40248199008E+03  0.00000000000E+00 0. -1.
<scales pt_clust_5="13000.00000" pt_clust_6="13000.00000" pt_clust_7="13000.00000" pt_clust_8="13000.00000" pt_clust_9="13000.00000"></scales>
<clustering>
<clus scale="   81.672">  5  6 -1 -1</clus>
<clus scale="   89.783">  7  8 -1 -1</clus>
<clus scale="   96.831">  2  5  1 -1</clus>
<clus scale="  381.643">  7  9 -1 -1</clus>
<clus scale=" 1118.084">  1  5  2 -1</clus>
</clustering>
</event>
<event>
 9    2  0.2147756E-005  0.4094736E+03  0.7546771E-02  0.1045828E+00
          2   -1    0    0  502    0 -0.00000000000E+00  0.00000000000E+00  0.30405495883E+04  0.30405495883E+04  0.00000000000E+00 0. -1.
         21   -1    0    0  501  502  0.00000000000E+00 -0.00000000000E+00 -0.67420086521E+02  0.67420086521E+02  0.00000000000E+00 0. -1.
         24    2    1    2    0    0 -0.33299019838E+03  0.78594659136E+02  0.22471487756E+04  0.22744730484E+04  0.80563239475E+02 0.  0.
         23    2    1    2    0    0  0.96163706444E+02 -0.39960678358E+02  0.12737191155E+03  0.18858431866E+03  0.92174438647E+02 0.  0.
        -11    1    3    3    0    0 -0.19291066591E+02 -0.13356633987E+02  0.11066802354E+03  0.11312805291E+03  0.00000000000E+00 0.  1.
         12    1    3    3    0    0 -0.31369913179E+03  0.91951293122E+02  0.21364807521E+04  0.21613449955E+04  0.00000000000E+00 0. -1.
        -13    1    4    4    0    0  0.30316270751E+02  0.16830102943E+02  0.38185949699E+00  0.34676713426E+02  0.00000000000E+00 0.  1.
         13    1    4    4    0    0  0.65847435693E+02 -0.56790781301E+02  0.12699005205E+03  0.15390760523E+03  0.00000000000E+00 0. -1.
          1    1    1    2  501    0  0.23682649193E+03 -0.38633980777E+02  0.59860881463E+03  0.64491230777E+03  0.00000000000E+00 0. -1.
<scales pt_clust_5="13000.00000" pt_clust_6="13000.00000" pt_clust_7="13000.00000" pt_clust_8="13000.00000" pt_clust_9="13000.00000"></scales>
<clustering>
<clus scale="   80.563">  5  6 -1 -1</clus>
<clus scale="   92.174">  7  8 -1 -1</clus>
<clus scale="  239.957">  7  9 -1 -1</clus>
<clus scale="  351.497">  1  5  2 -1</clus>
<clus scale="  409.474">  2  5  1 -1</clus>
</clustering>
</event>
<event>
 9    2  0.2147756E-005  0.1250820E+03  0.7546771E-02  0.1245297E+00
         21   -1    0    0  501  502  0.00000000000E+00  0.00000000000E+00  0.42010783201E+02  0.42010783201E+02  0.00000000000E+00 0.  1.
          2   -1    0    0  502    0 -0.00000000000E+00 -0.00000000000E+00 -0.73144369690E+03  0.73144369690E+03  0.00000000000E+00 0. -1.
         24    2    1    2    0    0  0.22158525895E+01  0.18678435545E+02 -0.62421542569E+03  0.63239131775E+03  0.99599634198E+02 0.  0.
         23    2    1    2    0    0 -0.11467973611E+02 -0.42737318095E+02 -0.51707931342E+02  0.11196093401E+03  0.88901899894E+02 0.  0.
        -13    1    3    3    0    0  0.84229087613E+01 -0.18902786459E+02 -0.27276692402E+02  0.34238555406E+02  0.00000000000E+00 0.  1.
         14    1    3    3    0    0 -0.62070561718E+01  0.37581222004E+02 -0.59693873329E+03  0.59815276234E+03  0.00000000000E+00 0. -1.
        -11    1    4    4    0    0 -0.40543675634E+02 -0.15919160508E+02 -0.57339251971E+02  0.72006938011E+02  0.00000000000E+00 0. -1.
         11    1    4    4    0    0  0.29075702023E+02 -0.26818157588E+02  0.56313206286E+01  0.39953996002E+02  0.00000000000E+00 0.  1.
          1    1    1    2  501    0  0.92521210219E+01  0.24058882550E+02 -0.13509556660E+02  0.29102228336E+02  0.00000000000E+00 0. -1.
<scales pt_clust_5="13000.00000" pt_clust_6="13000.00000" pt_clust_7="13000.00000" pt_clust_8="13000.00000" pt_clust_9="13000.00000"></scales>
<clustering>
<clus scale="   88.902">  7  8 -1 -1</clus>
<clus scale="   25.777">  7  9 -1 -1</clus>
<clus scale="   99.600">  5  6 -1 -1</clus>
<clus scale="  101.360">  2  5  1 -1</clus>
<clus scale="  125.082">  1  5  2 -1</clus>
</clustering>
</event>
<event>
 9    2  0.2147756E-005  0.1362773E+03  0.7546771E-02  0.1243976E+00
         21   -1    0    0  501  502  0.00000000000E+00  0.00000000000E+00  0.32320512821E+03  0.32320512821E+03  0.00000000000E+00 0.  1.
          2   -1    0    0  502    0 -0.00000000000E+00 -0.00000000000E+00 -0.42586998684E+02  0.42586998684E+02  0.00000000000E+00 0. -1.
         24    2    1    2    0    0  0.12453263994E+02  0.13214018584E+02  0.41481493816E+02  0.90550730567E+02  0.78415728051E+02 0.  0.
         23    2    1    2    0    0 -0.13436940519E+02  0.80896306200E+01  0.23667792863E+03  0.25377378516E+03  0.90214736264E+02 0.  0.
        -13    1    3    3    0    0  0.42564499981E+01  0.46251512674E+02  0.24405117398E+02  0.52468367103E+02  0.00000000000E+00 0.  1.
         14    1    3    3    0    0  0.81968139959E+01 -0.33037494090E+02  0.17076376417E+02  0.38082363463E+02  0.00000000000E+00 0. -1.
        -13    1    4    4    0    0  0.25287239874E+02  0.35763648588E+02  0.12118935983E+03  0.12886172433E+03  0.00000000000E+00 0.  1.
         13    1    4    4    0    0 -0.38724180393E+02 -0.27674017968E+02  0.11548856880E+03  0.12491206083E+03  0.00000000000E+00 0. -1.
          1    1    1    2  501    0  0.98367652537E+00 -0.21303649204E+02  0.24587070851E+01  0.21467611173E+02  0.00000000000E+00 0. -1.
<scales pt_clust_5="13000.00000" pt_clust_6="13000.00000" pt_clust_7="13000.00000" pt_clust_8="13000.00000" pt_clust_9="13000.00000"></scales>
<clustering>
<clus scale="   78.416">  5  6 -1 -1</clus>
<clus scale="   80.490">  2  5  1 -1</clus>
<clus scale="   90.215">  7  8 -1 -1</clus>
<clus scale="   16.207">  7  9 -1 -1</clus>
<clus scale="  136.277">  1  5  2 -1</clus>
</clustering>
</event>
<event>
 9    2  0.2147756E-005  0.2103447E+03  0.7546771E-02  0.1150776E+00
          2   -1    0    0  502    0 -0.00000000000E+00  0.00000000000E+00  0.47375806853E+03  0.47375806853E+03  0.00000000000E+00 0. -1.
         21   -1    0    0  501  502  0.00000000000E+00 -0.00000000000E+00 -0.79468230648E+02  0.79468230648E+02  0.00000000000E+00 0. -1.
         24    2    1    2    0    0  0.98438948371E+02  0.11293913539E+03  0.23798859265E+03  0.29116718929E+03  0.75460499778E+02 0.  0.
         23    2    1    2    0    0 -0.78203291472E+02 -0.38002892882E+02  0.13266065960E+03  0.18091849404E+03  0.87021125109E+02 0.  0.
        -11    1    3    3    0    0  0.36177769448E+02 -0.22870971147E+01  0.61536090791E+02  0.71419551142E+02  0.00000000000E+00 0.  1.
         12    1    3    3    0    0  0.62261178923E+02  0.11522623251E+03  0.17645250186E+03  0.21974763814E+03  0.00000000000E+00 0. -1.
        -11    1    4    4    0    0 -0.23131955336E+02  0.23603299495E+02  0.69344413296E+02  0.76816995255E+02  0.00000000000E+00 0.  1.
         11    1    4    4    0    0 -0.55071336136E+02 -0.61606192377E+02  0.63316246308E+02  0.10410149879E+03  0.00000000000E+00 0. -1.
          1    1    1    2  501    0 -0.20235656899E+02 -0.74936242509E+02  0.23640585627E+02  0.81140615849E+02  0.00000000000E+00 0. -1.
<scales pt_clust_5="13000.00000" pt_clust_6="13000.00000" pt_clust_7="13000.00000" pt_clust_8="13000.00000" pt_clust_9="13000.00000"></scales>
<clustering>
<clus scale="   75.460">  5  6 -1 -1</clus>
<clus scale="   87.021">  7  8 -1 -1</clus>
<clus scale="   77.620">  7  9 -1 -1</clus>
<clus scale="  167.749">  1  5  2 -1</clus>
<clus scale="  210.345">  2  5  1 -1</clus>
</clustering>
</event>
<event>
 9    2  0.3581454E-005  0.2980570E+03  0.7546771E-02  0.1103653E+00
         21   -1    0    0  501  502  0.00000000000E+00  0.00000000000E+00  0.17705393183E+03  0.17705393183E+03  0.00000000000E+00 0. -1.
          2   -1    0    0  502    0 -0.00000000000E+00 -0.00000000000E+00 -0.42853949236E+03  0.42853949236E+03  0.00000000000E+00 0. -1.
         24    2    1    2    0    0 -0.27755027293E+02 -0.16858277132E+03  0.35219204171E+02  0.19202649231E+03  0.80270100788E+02 0.  0.
         23    2    1    2    0    0  0.32937156693E+02 -0.29514176025E+02 -0.93451689620E+02  0.13677096725E+03  0.89538462757E+02 0.  0.
        -13    1    3    3    0    0 -0.37291983461E+02 -0.29251510051E+02  0.20350672856E+02  0.51579964680E+02  0.00000000000E+00 0.  1.
         14    1    3    3    0    0  0.95369561684E+01 -0.13933126127E+03  0.14868531314E+02  0.14044652763E+03  0.00000000000E+00 0. -1.
        -11    1    4    4    0    0  0.42549710818E+02  0.16366756417E+02 -0.20337221892E+02  0.49919447118E+02  0.00000000000E+00 0. -1.
         11    1    4    4    0    0 -0.96125541250E+01 -0.45880932442E+02 -0.73114467728E+02  0.86851520135E+02  0.00000000000E+00 0.  1.
          1    1    1    2  501    0 -0.51821294001E+01  0.19809694734E+03 -0.19325307507E+03  0.27679596463E+03  0.00000000000E+00 0. -1.
<scales pt_clust_5="13000.00000" pt_clust_6="13000.00000" pt_clust_7="13000.00000" pt_clust_8="13000.00000" pt_clust_9="13000.00000"></scales>
<clustering>
<clus scale="   80.270">  5  6 -1 -1</clus>
<clus scale="   89.538">  7  8 -1 -1</clus>
<clus scale="  188.769">  2  5  1 -1</clus>
<clus scale="   88.213">  7  9 -1 -1</clus>
<clus scale="  298.057">  1  5  2 -1</clus>
</clustering>
</event>
<event>
 9    2  0.2147756E-005  0.2954940E+03  0.7546771E-02  0.1099310E+00
         21   -1    0    0  501  502  0.00000000000E+00  0.00000000000E+00  0.62791028725E+03  0.62791028725E+03  0.00000000000E+00 0.  1.
         -1   -1    0    0    0  501 -0.00000000000E+00 -0.00000000000E+00 -0.12230131649E+03  0.12230131649E+03  0.00000000000E+00 0.  1.
         24    2    1    2    0    0  0.41350834385E+02  0.19761372604E+03  0.36135673973E+03  0.42138732433E+03  0.78914558393E+02 0.  0.
         23    2    1    2    0    0 -0.73376832134E+01 -0.67550857703E+02  0.15658351669E+03  0.19382315061E+03  0.91826227404E+02 0.  0.
        -13    1    3    3    0    0 -0.71084783034E+01  0.11017589980E+03  0.13837933117E+03  0.17702570055E+03  0.00000000000E+00 0.  1.
         14    1    3    3    0    0  0.48459312689E+02  0.87437826248E+02  0.22297740856E+03  0.24436162378E+03  0.00000000000E+00 0. -1.
        -11    1    4    4    0    0 -0.24783696263E+02  0.12769576591E+02  0.19626400748E+02  0.34095297228E+02  0.00000000000E+00 0.  1.
         11    1    4    4    0    0  0.17446013050E+02 -0.80320434294E+02  0.13695711595E+03  0.15972785338E+03  0.00000000000E+00 0. -1.
         -2    1    1    2    0  502 -0.34013151172E+02 -0.13006286834E+03 -0.12331285659E+02  0.13500112881E+03  0.00000000000E+00 0.  1.
<scales pt_clust_5="13000.00000" pt_clust_6="13000.00000" pt_clust_7="13000.00000" pt_clust_8="13000.00000" pt_clust_9="13000.00000"></scales>
<clustering>
<clus scale="   78.915">  5  6 -1 -1</clus>
<clus scale="   91.826">  7  8 -1 -1</clus>
<clus scale="  134.437">  7  9 -1 -1</clus>
<clus scale="  216.769">  2  5  1 -1</clus>
<clus scale="  295.494">  1  5  2 -1</clus>
</clustering>
</event>
<event>
 9    2  0.2147756E-005  0.8309669E+03  0.7546771E-02  0.1018127E+00
         21   -1    0    0  501  502  0.00000000000E+00  0.00000000000E+00  0.21324179530E+03  0.21324179530E+03  0.00000000000E+00 0. -1.
          2   -1    0    0  502    0 -0.00000000000E+00 -0.00000000000E+00 -0.10759048474E+04  0.10759048474E+04  0.00000000000E+00 0. -1.
         24    2    1    2    0    0 -0.56564116757E+01 -0.54347093299E+02 -0.58546124563E+01  0.95569355706E+02  0.78189665046E+02 0.  0.
         23    2    1    2    0    0  0.51600822338E+02  0.42132153499E+03 -0.30974530998E+03  0.53322950168E+03  0.90648020863E+02 0.  0.
        -13    1    3    3    0    0  0.34292464682E+02 -0.11238755697E+02 -0.71204736085E+01  0.36782929573E+02  0.00000000000E+00 0.  1.
         14    1    3    3    0    0 -0.39948876357E+02 -0.43108337603E+02  0.12658611522E+01  0.58786426134E+02  0.00000000000E+00 0. -1.
        -11    1    4    4    0    0  0.71025125830E+02  0.36817171148E+03 -0.24842617657E+03  0.44978944278E+03  0.00000000000E+00 0. -1.
         11    1    4    4    0    0 -0.19424303493E+02  0.53149823516E+02 -0.61319133416E+02  0.83440058897E+02  0.00000000000E+00 0.  1.
          1    1    1    2  501    0 -0.45944410662E+02 -0.36697444169E+03 -0.54706312961E+03  0.66034778527E+03  0.00000000000E+00 0. -1.
<scales pt_clust_5="13000.00000" pt_clust_6="13000.00000" pt_clust_7="13000.00000" pt_clust_8="13000.00000" pt_clust_9="13000.00000"></scales>
<clustering>
<clus scale="   78.190">  5  6 -1 -1</clus>
<clus scale="   90.648">  7  8 -1 -1</clus>
<clus scale="   95.390">  2  5  1 -1</clus>
<clus scale="  402.009">  7  9 -1 -1</clus>
<clus scale="  830.967">  1  5  2 -1</clus>
</clustering>
</event>
<event>
 9    2  0.3470509E-005  0.3466372E+03  0.7546771E-02  0.1109442E+00
          2   -1    0    0  502    0 -0.00000000000E+00  0.00000000000E+00  0.97658064263E+03  0.97658064263E+03  0.00000000000E+00 0. -1.
         21   -1    0    0  501  502  0.00000000000E+00 -0.00000000000E+00 -0.10773113982E+03  0.10773113982E+03  0.00000000000E+00 0. -1.
         24    2    1    2    0    0  0.55381683662E+02 -0.32540693986E+02  0.68339621317E+03  0.69118293173E+03  0.81101376582E+02 0.  0.
         23    2    1    2    0    0 -0.12574426360E+02 -0.10055273204E+03  0.21103610548E+03  0.25099932602E+03  0.90528756341E+02 0.  0.
        -11    1    3    3    0    0 -0.19527769010E+02 -0.81807525332E+01  0.83732884659E+02  0.86368133289E+02  0.00000000000E+00 0.  1.
         12    1    3    3    0    0  0.74909452671E+02 -0.24359941452E+02  0.59966332851E+03  0.60481479844E+03  0.00000000000E+00 0. -1.
        -11    1    4    4    0    0 -0.19596250957E+02  0.98031721828E+01  0.59504116662E+02  0.63410213185E+02  0.00000000000E+00 0.  1.
         11    1    4    4    0    0  0.70218245972E+01 -0.11035590422E+03  0.15153198882E+03  0.18758911283E+03  0.00000000000E+00 0. -1.
          1    1    1    2  501    0 -0.42807257302E+02  0.13309342602E+03 -0.25582815848E+02  0.14212952471E+03  0.00000000000E+00 0. -1.
<scales pt_clust_5="13000.00000" pt_clust_6="13000.00000" pt_clust_7="13000.00000" pt_clust_8="13000.00000" pt_clust_9="13000.00000"></scales>
<clustering>
<clus scale="   81.101">  5  6 -1 -1</clus>
<clus scale="   90.529">  7  8 -1 -1</clus>
<clus scale="  103.458">  1  5  2 -1</clus>
<clus scale="  130.437">  7  9 -1 -1</clus>
<clus scale="  346.637">  2  5  1 -1</clus>
</clustering>
</event>
<event>
 9    2  0.2147756E-005  0.5167637E+03  0.7546771E-02  0.1049584E+00
         -3   -1    0    0    0  501 -0.00000000000E+00  0.00000000000E+00  0.13495071681E+04  0.13495071681E+04  0.00000000000E+00 0.  1.
         21   -1    0    0  501  502  0.00000000000E+00 -0.00000000000E+00 -0.10837288270E+03  0.10837288270E+03  0.00000000000E+00 0.  1.
         24    2    1    2    0    0 -0.47133402371E+02  0.12530487796E+03  0.59024646758E+02  0.16775296971E+03  0.82062658143E+02 0.  0.
         23    2    1    2    0    0 -0.11141208607E+03 -0.22304802590E+03  0.98029460737E+03  0.10155006044E+04  0.90004918964E+02 0.  0.
        -11    1    3    3    0    0 -0.59464346391E+02  0.76505644862E+02  0.65567162329E+02  0.11699647415E+03  0.00000000000E+00 0.  1.
         12    1    3    3    0    0  0.12330944020E+02  0.48799233099E+02 -0.65425155715E+01  0.50756495560E+02  0.00000000000E+00 0. -1.
        -13    1    4    4    0    0 -0.11390899404E+03 -0.13459847870E+03  0.67361205202E+03  0.69630826939E+03  0.00000000000E+00 0.  1.
         13    1    4    4    0    0  0.24969079716E+01 -0.88449547196E+02  0.30668255535E+03  0.31919233497E+03  0.00000000000E+00 0. -1.
         -4    1    1    2    0  502  0.15854548844E+03  0.97743147935E+02  0.20181503127E+03  0.27462647673E+03  0.00000000000E+00 0.  1.
<scales pt_clust_5="13000.00000" pt_clust_6="13000.00000" pt_clust_7="13000.00000" pt_clust_8="13000.00000" pt_clust_9="13000.00000"></scales>
<clustering>
<clus scale="   82.063">  5  6 -1 -1</clus>
<clus scale="   90.005">  7  8 -1 -1</clus>
<clus scale="  157.026">  1  5  2 -1</clus>
<clus scale="  192.864">  7  9 -1 -1</clus>
<clus scale="  516.764">  2  5  1 -1</clus>
</clustering>
</event>
<event>
 9    2  0.2147756E-005  0.5156084E+03  0.7546771E-02  0.1065425E+00
         21   -1    0    0  501  502  0.00000000000E+00  0.00000000000E+00  0.51446517033E+03  0.51446517033E+03  0.00000000000E+00 0.  1.
         -1   -1    0    0    0  501 -0.00000000000E+00 -0.00000000000E+00 -0.18789703225E+03  0.18789703225E+03  0.00000000000E+00 0.  1.
         24    2    1    2    0    0  0.42290825775E+02 -0.40381432234E+02  0.22341972201E+02  0.10369236832E+03  0.82666616672E+02 0.  0.
         23    2    1    2    0    0 -0.16284036170E+03 -0.15319468745E+03  0.28008752062E+03  0.36935219666E+03  0.89366830026E+02 0.  0.
        -11    1    3    3    0    0  0.38460086855E+01  0.25055650791E+02  0.48771188451E+01  0.25814021531E+02  0.00000000000E+00 0.  1.
         12    1    3    3    0    0  0.38444817090E+02 -0.65437083025E+02  0.17464853356E+02  0.77878346789E+02  0.00000000000E+00 0. -1.
        -13    1    4    4    0    0 -0.11832845135E+03 -0.11324404396E+03  0.13441963470E+03  0.21188316140E+03  0.00000000000E+00 0.  1.
         13    1    4    4    0    0 -0.44511910353E+02 -0.39950643490E+02  0.14566788592E+03  0.15746903526E+03  0.00000000000E+00 0. -1.
         -2    1    1    2    0  502  0.12054953592E+03  0.19357611968E+03  0.24138645261E+02  0.22931763761E+03  0.00000000000E+00 0.  1.
<scales pt_clust_5="13000.00000" pt_clust_6="13000.00000" pt_clust_7="13000.00000" pt_clust_8="13000.00000" pt_clust_9="13000.00000"></scales>
<clustering>
<clus scale="   82.667">  5  6 -1 -1</clus>
<clus scale="   89.367">  7  8 -1 -1</clus>
<clus scale="  101.257">  2  5  1 -1</clus>
<clus scale="  223.328">  7  9 -1 -1</clus>
<clus scale="  515.608">  1  5  2 -1</clus>
</clustering>
</event>
<event>
 9    2  0.2147756E-005  0.2046397E+03  0.7546771E-02  0.1186505E+00
         21   -1    0    0  501  502  0.00000000000E+00  0.00000000000E+00  0.30274833329E+03  0.30274833329E+03  0.00000000000E+00 0.  1.
          4   -1    0    0  502    0 -0.00000000000E+00 -0.00000000000E+00 -0.68733339178E+02  0.68733339178E+02  0.00000000000E+00 0. -1.
         24    2    1    2    0    0  0.11917904721E+02  0.12313084767E+02  0.40872198270E+02  0.90089514441E+02  0.78434275105E+02 0.  0.
         23    2    1    2    0    0  0.40649033259E+02 -0.63681954024E+02  0.16437439151E+03  0.20246393250E+03  0.90911870546E+02 0.  0.
        -13    1    3    3    0    0 -0.32831500345E+02 -0.94266939264E+00  0.23072689034E+02  0.40139070988E+02  0.00000000000E+00 0.  1.
         14    1    3    3    0    0  0.44749405066E+02  0.13255754160E+02  0.17799509236E+02  0.49950443453E+02  0.00000000000E+00 0. -1.
        -11    1    4    4    0    0 -0.94231164243E+01  0.18839397682E+02  0.37945765854E+02  0.43400451316E+02  0.00000000000E+00 0. -1.
         11    1    4    4    0    0  0.50072149683E+02 -0.82521351707E+02  0.12642862566E+03  0.15906348119E+03  0.00000000000E+00 0.  1.
          3    1    1    2  501    0 -0.52566937980E+02  0.51368869257E+02  0.28768404335E+02  0.78928225530E+02  0.00000000000E+00 0. -1.
<scales pt_clust_5="13000.00000" pt_clust_6="13000.00000" pt_clust_7="13000.00000" pt_clust_8="13000.00000" pt_clust_9="13000.00000"></scales>
<clustering>
<clus scale="   78.434">  5  6 -1 -1</clus>
<clus scale="   80.284">  2  5  1 -1</clus>
<clus scale="   90.912">  7  8 -1 -1</clus>
<clus scale="   74.187">  7  9 -1 -1</clus>
<clus scale="  204.640">  1  5  2 -1</clus>
</clustering>
</event>
<event>
 9    2  0.2147756E-005  0.2906589E+03  0.7546771E-02  0.1099079E+00
         21   -1    0    0  501  502  0.00000000000E+00  0.00000000000E+00  0.30350611592E+03  0.30350611592E+03  0.00000000000E+00 0.  1.
         -3   -1    0    0    0  501 -0.00000000000E+00 -0.00000000000E+00 -0.22652054630E+03  0.22652054630E+03  0.00000000000E+00 0.  1.
         24    2    1    2    0    0 -0.12658474769E+03 -0.16956568175E+03 -0.81691685153E+00  0.22913491532E+03  0.87897231423E+02 0.  0.
         23    2    1    2    0    0  0.60140821246E+02  0.25791603534E+01  0.25561807342E+02  0.11373303819E+03  0.93049597167E+02 0.  0.
        -11    1    3    3    0    0 -0.95887143659E+02 -0.17330627589E+03 -0.34903410598E+01  0.19809490671E+03  0.00000000000E+00 0.  1.
         12    1    3    3    0    0 -0.30697604030E+02  0.37405941442E+01  0.26734242083E+01  0.31040008613E+02  0.00000000000E+00 0. -1.
        -11    1    4    4    0    0  0.66423265910E+02 -0.27406959665E+02 -0.29022154969E+01  0.71913938475E+02  0.00000000000E+00 0.  1.
         11    1    4    4    0    0 -0.62824446636E+01  0.29986120018E+02  0.28464022839E+02  0.41819099714E+02  0.00000000000E+00 0. -1.
         -4    1    1    2    0  502  0.66443926442E+02  0.16698652140E+03  0.52240679126E+02  0.18715870871E+03  0.00000000000E+00 0.  1.
<scales pt_clust_5="13000.00000" pt_clust_6="13000.00000" pt_clust_7="13000.00000" pt_clust_8="13000.00000" pt_clust_9="13000.00000"></scales>
<clustering>
<clus scale="   87.897">  5  6 -1 -1</clus>
<clus scale="   93.050">  7  8 -1 -1</clus>
<clus scale="  179.720">  7  9 -1 -1</clus>
<clus scale="  229.133">  2  5  1 -1</clus>
<clus scale="  290.659">  1  5  2 -1</clus>
</clustering>
</event>
<event>
 9    2  0.2147756E-005  0.1920730E+03  0.7546771E-02  0.1172828E+00
          2   -1    0    0  502    0 -0.00000000000E+00  0.00000000000E+00  0.86254951777E+03  0.86254951777E+03  0.00000000000E+00 0. -1.
         21   -1    0    0  501  502  0.00000000000E+00 -0.00000000000E+00 -0.49664709377E+02  0.49664709377E+02  0.00000000000E+00 0. -1.
         24    2    1    2    0    0 -0.76537585658E+02 -0.71420797511E+02  0.64099230525E+03  0.65445647805E+03  0.80518407427E+02 0.  0.
         23    2    1    2    0    0  0.18260605608E+02  0.90570826556E+02  0.10018760170E+03  0.16339396946E+03  0.90130513048E+02 0.  0.
        -13    1    3    3    0    0 -0.35769959424E+02 -0.87140830204E+01  0.75056146698E+02  0.83599344479E+02  0.00000000000E+00 0.  1.
         14    1    3    3    0    0 -0.40767626233E+02 -0.62706714491E+02  0.56593615856E+03  0.57085713357E+03  0.00000000000E+00 0. -1.
        -13    1    4    4    0    0  0.35896220751E+02  0.34461281248E+02  0.91204684165E+02  0.10389616443E+03  0.00000000000E+00 0.  1.
         13    1    4    4    0    0 -0.17635615144E+02  0.56109545308E+02  0.89829175305E+01  0.59497805031E+02  0.00000000000E+00 0. -1.
          1    1    1    2  501    0  0.58276980050E+02 -0.19150029045E+02  0.71704901448E+02  0.94363779639E+02  0.00000000000E+00 0. -1.
<scales pt_clust_5="13000.00000" pt_clust_6="13000.00000" pt_clust_7="13000.00000" pt_clust_8="13000.00000" pt_clust_9="13000.00000"></scales>
<clustering>
<clus scale="   80.518">  5  6 -1 -1</clus>
<clus scale="   90.131">  7  8 -1 -1</clus>
<clus scale="   61.343">  7  9 -1 -1</clus>
<clus scale="  132.069">  1  5  2 -1</clus>
<clus scale="  192.073">  2  5  1 -1</clus>
</clustering>
</event>
<event>
 9    2  0.2147756E-005  0.1364477E+03  0.7546771E-02  0.1238950E+00
         21   -1    0    0  501  502  0.00000000000E+00  0.00000000000E+00  0.11528055944E+03  0.11528055944E+03  0.00000000000E+00 0.  1.
          2   -1    0    0  502    0 -0.00000000000E+00 -0.00000000000E+00 -0.18559180874E+03  0.18559180874E+03  0.00000000000E+00 0. -1.
         24    2    1    2    0    0 -0.18250261113E+02  0.32598592639E+02 -0.12546234298E+03  0.15370032928E+03  0.80543475484E+02 0.  0.
         23    2    1    2    0    0 -0.20986420348E+01  0.19279334291E+01  0.52309003201E+02  0.10699447875E+03  0.93292365393E+02 0.  0.
        -11    1    3    3    0    0 -0.18522729773E+02 -0.11190380944E+02 -0.10150328548E+03  0.10378455139E+03  0.00000000000E+00 0.  1.
         12    1    3    3    0    0  0.27246865954E+00  0.43788973584E+02 -0.23959057504E+02  0.49915777898E+02  0.00000000000E+00 0. -1.
        -11    1    4    4    0    0 -0.13875126149E+01  0.28580255847E+02 -0.16618773559E+02  0.33089875342E+02  0.00000000000E+00 0. -1.
         11    1    4    4    0    0 -0.71112941989E+00 -0.26652322418E+02  0.68927776760E+02  0.73904603405E+02  0.00000000000E+00 0.  1.
          1    1    1    2  501    0  0.20348903148E+02 -0.34526526068E+02  0.28420904825E+01  0.40177560155E+02  0.00000000000E+00 0. -1.
<scales pt_clust_5="13000.00000" pt_clust_6="13000.00000" pt_clust_7="13000.00000" pt_clust_8="13000.00000" pt_clust_9="13000.00000"></scales>
<clustering>
<clus scale="   80.543">  5  6 -1 -1</clus>
<clus scale="   88.786">  2  5  1 -1</clus>
<clus scale="   93.292">  7  8 -1 -1</clus>
<clus scale="   24.925">  7  9 -1 -1</clus>
<clus scale="  136.448">  1  5  2 -1</clus>
</clustering>
</event>
<event>
 9    2  0.2147756E-005  0.4288382E+03  0.7546771E-02  0.1074310E+00
          2   -1    0    0  502    0 -0.00000000000E+00  0.00000000000E+00  0.17596753692E+04  0.17596753692E+04  0.00000000000E+00 0. -1.
         21   -1    0    0  501  502  0.00000000000E+00 -0.00000000000E+00 -0.69838759802E+02  0.69838759802E+02  0.00000000000E+00 0. -1.
         24    2    1    2    0    0 -0.50658394239E+02  0.10101210633E+03  0.10515094744E+04  0.10605123430E+04  0.79022378198E+02 0.  0.
         23    2    1    2    0    0  0.55387275656E+02  0.14627425601E+03  0.23546537700E+03  0.29627511728E+03  0.88719180992E+02 0.  0.
        -13    1    3    3    0    0 -0.36864919226E+02  0.10714458418E+02  0.16990200511E+03  0.17418528419E+03  0.00000000000E+00 0.  1.
         14    1    3    3    0    0 -0.13793475013E+02  0.90297647911E+02  0.88160746932E+03  0.88632705879E+03  0.00000000000E+00 0. -1.
        -13    1    4    4    0    0  0.37416361195E+02  0.78174232017E+02  0.19880334860E+03  0.21687315659E+03  0.00000000000E+00 0.  1.
         13    1    4    4    0    0  0.17970914461E+02  0.68100023989E+02  0.36662028405E+02  0.79401960685E+02  0.00000000000E+00 0. -1.
          1    1    1    2  501    0 -0.47288814170E+01 -0.24728636233E+03  0.40286175797E+03  0.47272666875E+03  0.00000000000E+00 0. -1.
<scales pt_clust_5="13000.00000" pt_clust_6="13000.00000" pt_clust_7="13000.00000" pt_clust_8="13000.00000" pt_clust_9="13000.00000"></scales>
<clustering>
<clus scale="   79.022">  5  6 -1 -1</clus>
<clus scale="   88.719">  7  8 -1 -1</clus>
<clus scale="  137.892">  1  5  2 -1</clus>
<clus scale="  187.968">  7  9 -1 -1</clus>
<clus scale="  428.838">  2  5  1 -1</clus>
</clustering>
</event>
<event>
 9    2  0.2147756E-005  0.7928527E+03  0.7546771E-02  0.1011656E+00
         21   -1    0    0  501  502  0.00000000000E+00  0.00000000000E+00  0.10442755512E+03  0.10442755512E+03  0.00000000000E+00 0.  1.
          2   -1    0    0  502    0 -0.00000000000E+00 -0.00000000000E+00 -0.21993464425E+04  0.21993464425E+04  0.00000000000E+00 0. -1.
         24    2    1    2    0    0 -0.72955967911E+02  0.78203665135E+02 -0.13756815580E+03  0.19194129496E+03  0.80486500281E+02 0.  0.
         23    2    1    2    0    0 -0.16308927243E+03  0.43390157912E+02 -0.67255971087E+02  0.20317856508E+03  0.90979926767E+02 0.  0.
        -11    1    3    3    0    0  0.14751457299E+02  0.25098850269E+02 -0.17162732412E+02  0.33795223940E+02  0.00000000000E+00 0.  1.
         12    1    3    3    0    0 -0.87707425210E+02  0.53104814865E+02 -0.12040542339E+03  0.15814607102E+03  0.00000000000E+00 0. -1.
        -13    1    4    4    0    0 -0.15811310848E+03  0.17082400044E+02 -0.37979740541E+02  0.16350542546E+03  0.00000000000E+00 0.  1.
         13    1    4    4    0    0 -0.49761639488E+01  0.26307757869E+02 -0.29276230546E+02  0.39673139612E+02  0.00000000000E+00 0. -1.
          1    1    1    2  501    0  0.23604524034E+03 -0.12159382305E+03 -0.18900947605E+04  0.19086541376E+04  0.00000000000E+00 0. -1.
<scales pt_clust_5="13000.00000" pt_clust_6="13000.00000" pt_clust_7="13000.00000" pt_clust_8="13000.00000" pt_clust_9="13000.00000"></scales>
<clustering>
<clus scale="   80.487">  5  6 -1 -1</clus>
<clus scale="   90.980">  7  8 -1 -1</clus>
<clus scale="  133.852">  2  5  1 -1</clus>
<clus scale="  174.825">  7  9 -1 -1</clus>
<clus scale="  792.853">  1  5  2 -1</clus>
</clustering>
</event>
<event>
 9    2  0.2147756E-005  0.6807274E+03  0.7546771E-02  0.1038452E+00
          2   -1    0    0  502    0 -0.00000000000E+00  0.00000000000E+00  0.10782630308E+04  0.10782630308E+04  0.00000000000E+00 0. -1.
         21   -1    0    0  501  502  0.00000000000E+00 -0.00000000000E+00 -0.16838009238E+03  0.16838009238E+03  0.00000000000E+00 0. -1.
         24    2    1    2    0    0  0.48825296634E+02  0.13134680271E+02  0.35795829182E+03  0.37028101137E+03  0.80109046180E+02 0.  0.
         23    2    1    2    0    0  0.10720146467E+03  0.24500271660E+03  0.49475573440E+03  0.56936447272E+03  0.88736581536E+02 0.  0.
        -11    1    3    3    0    0 -0.18972162668E+02  0.17320972991E+02  0.74773614577E+02  0.79063597810E+02  0.00000000000E+00 0.  1.
         12    1    3    3    0    0  0.67797459302E+02 -0.41862927206E+01  0.28318467724E+03  0.29121741356E+03  0.00000000000E+00 0. -1.
        -13    1    4    4    0    0  0.50412181609E+02  0.99810920533E+02  0.29826879537E+03  0.31854023640E+03  0.00000000000E+00 0. -1.
         13    1    4    4    0    0  0.56789283065E+02  0.14519179607E+03  0.19648693902E+03  0.25082423632E+03  0.00000000000E+00 0.  1.
          1    1    1    2  501    0 -0.15602676131E+03 -0.25813739688E+03  0.57168912247E+02  0.30699763914E+03  0.00000000000E+00 0. -1.
<scales pt_clust_5="13000.00000" pt_clust_6="13000.00000" pt_clust_7="13000.00000" pt_clust_8="13000.00000" pt_clust_9="13000.00000"></scales>
<clustering>
<clus scale="   80.109">  5  6 -1 -1</clus>
<clus scale="   88.737">  7  8 -1 -1</clus>
<clus scale="   94.731">  1  5  2 -1</clus>
<clus scale="  292.458">  7  9 -1 -1</clus>
<clus scale="  680.727">  2  5  1 -1</clus>
</clustering>
</event>
<event>
 9    2  0.2147756E-005  0.3581065E+03  0.7546771E-02  0.1070452E+00
         21   -1    0    0  501  502  0.00000000000E+00  0.00000000000E+00  0.21991627186E+03  0.21991627186E+03  0.00000000000E+00 0.  1.
          2   -1    0    0  502    0 -0.00000000000E+00 -0.00000000000E+00 -0.48019211607E+03  0.48019211607E+03  0.00000000000E+00 0. -1.
         24    2    1    2    0    0 -0.22339935560E+03 -0.11403141010E+03 -0.21371382103E+03  0.33898752763E+03  0.79551945444E+02 0.  0.
         23    2    1    2    0    0  0.19317848514E+02 -0.40266149687E+02 -0.15596551391E+02  0.10340811530E+03  0.91953487228E+02 0.  0.
        -11    1    3    3    0    0 -0.14021602859E+03 -0.29815270139E+02 -0.99499726755E+02  0.17449836857E+03  0.00000000000E+00 0.  1.
         12    1    3    3    0    0 -0.83183327004E+02 -0.84216139957E+02 -0.11421409427E+03  0.16448915907E+03  0.00000000000E+00 0. -1.
        -13    1    4    4    0    0  0.18403901703E+02  0.23812734039E+02  0.13550782243E+02  0.33005660116E+02  0.00000000000E+00 0. -1.
         13    1    4    4    0    0  0.91394681154E+00 -0.64078883726E+02 -0.29147333634E+02  0.70402455187E+02  0.00000000000E+00 0.  1.
          1    1    1    2  501    0  0.20408150708E+03  0.15429755978E+03 -0.30965471799E+02  0.25771274499E+03  0.00000000000E+00 0. -1.
<scales pt_clust_5="13000.00000" pt_clust_6="13000.00000" pt_clust_7="13000.00000" pt_clust_8="13000.00000" pt_clust_9="13000.00000"></scales>
<clustering>
<clus scale="   79.552">  5  6 -1 -1</clus>
<clus scale="   91.953">  7  8 -1 -1</clus>
<clus scale="  255.846">  7  9 -1 -1</clus>
<clus scale="  263.133">  2  5  1 -1</clus>
<clus scale="  358.106">  1  5  2 -1</clus>
</clustering>
</event>
<event>
 9    2  0.2147756E-005  0.1963702E+03  0.7546771E-02  0.1174800E+00
         21   -1    0    0  501  502  0.00000000000E+00  0.00000000000E+00  0.21188000560E+03  0.21188000560E+03  0.00000000000E+00 0.  1.
         -1   -1    0    0    0  501 -0.00000000000E+00 -0.00000000000E+00 -0.21993727188E+03  0.21993727188E+03  0.00000000000E+00 0.  1.
         24    2    1    2    0    0  0.44567933903E+02  0.70707597471E+02  0.14195420391E+03  0.18470459386E+03  0.83539965945E+02 0.  0.
         23    2    1    2    0    0 -0.55794382088E+02 -0.41260959545E+01 -0.31805758007E+02  0.11098142390E+03  0.90416992137E+02 0.  0.
        -13    1    3    3    0    0  0.34282963807E+02 -0.99052688819E+01  0.56100664180E+02  0.66488498859E+02  0.00000000000E+00 0.  1.
         14    1    3    3    0    0  0.10284970096E+02  0.80612866353E+02  0.85853539734E+02  0.11821609500E+03  0.00000000000E+00 0. -1.
        -11    1    4    4    0    0 -0.23546608134E+02 -0.29485333415E+02  0.21723180460E+02  0.43539915141E+02  0.00000000000E+00 0. -1.
         11    1    4    4    0    0 -0.32247773954E+02  0.25359237461E+02 -0.53528938467E+02  0.67441508754E+02  0.00000000000E+00 0.  1.
         -2    1    1    2    0  502  0.11226448185E+02 -0.66581501517E+02 -0.11820571218E+03  0.13613125973E+03  0.00000000000E+00 0.  1.
<scales pt_clust_5="13000.00000" pt_clust_6="13000.00000" pt_clust_7="13000.00000" pt_clust_8="13000.00000" pt_clust_9="13000.00000"></scales>
<clustering>
<clus scale="   83.540">  5  6 -1 -1</clus>
<clus scale="   90.417">  7  8 -1 -1</clus>
<clus scale="   67.521">  7  9 -1 -1</clus>
<clus scale="  118.173">  2  5  1 -1</clus>
<clus scale="  196.370">  1  5  2 -1</clus>
</clustering>
</event>
<event>
 9    2  0.2147756E-005  0.1667477E+03  0.7546771E-02  0.1210662E+00
         21   -1    0    0  501  502  0.00000000000E+00  0.00000000000E+00  0.14653976678E+03  0.14653976678E+03  0.00000000000E+00 0. -1.
         -3   -1    0    0    0  501 -0.00000000000E+00 -0.00000000000E+00 -0.13559386736E+03  0.13559386736E+03  0.00000000000E+00 0.  1.
         24    2    1    2    0    0  0.85602120908E+01  0.35421996606E+02 -0.54220805985E+02  0.10310433793E+03  0.79765992902E+02 0.  0.
         23    2    1    2    0    0  0.10849828087E+01  0.13431211468E+02  0.72065119378E+02  0.12875749657E+03  0.10584676123E+03 0.  0.
        -11    1    3    3    0    0  0.31228954662E+02  0.51257926169E+02 -0.36041865633E+02  0.70011703898E+02  0.00000000000E+00 0.  1.
         12    1    3    3    0    0 -0.22668742571E+02 -0.15835929563E+02 -0.18178940353E+02  0.33092634032E+02  0.00000000000E+00 0. -1.
        -13    1    4    4    0    0  0.20301004077E+02 -0.81507542621E+01 -0.21595911163E+02  0.30740021805E+02  0.00000000000E+00 0.  1.
         13    1    4    4    0    0 -0.19216021268E+02  0.21581965730E+02  0.93661030541E+02  0.98017474769E+02  0.00000000000E+00 0. -1.
         -4    1    1    2    0  502 -0.96451948995E+01 -0.48853208074E+02 -0.68984139776E+01  0.50271799641E+02  0.00000000000E+00 0.  1.
<scales pt_clust_5="13000.00000" pt_clust_6="13000.00000" pt_clust_7="13000.00000" pt_clust_8="13000.00000" pt_clust_9="13000.00000"></scales>
<clustering>
<clus scale="   79.766">  5  6 -1 -1</clus>
<clus scale="   87.696">  2  5  1 -1</clus>
<clus scale="  105.847">  7  8 -1 -1</clus>
<clus scale="   31.525">  7  9 -1 -1</clus>
<clus scale="  166.748">  1  5  2 -1</clus>
</clustering>
</event>
<event>
 9    2  0.2147756E-005  0.3224466E+03  0.7546771E-02  0.1111993E+00
          2   -1    0    0  502    0 -0.00000000000E+00  0.00000000000E+00  0.26104655143E+03  0.26104655143E+03  0.00000000000E+00 0. -1.
         21   -1    0    0  501  502  0.00000000000E+00 -0.00000000000E+00 -0.24228641306E+03  0.24228641306E+03  0.00000000000E+00 0.  1.
         24    2    1    2    0    0  0.77948442580E+02  0.45771511343E+02 -0.10317484779E+03  0.15860125358E+03  0.79613550791E+02 0.  0.
         23    2    1    2    0    0 -0.15950443102E+03  0.51479573788E+02  0.10253577990E+03  0.21633590874E+03  0.90530819167E+02 0.  0.
        -13    1    3    3    0    0  0.36502041565E+02 -0.20210683347E+02 -0.44953932246E+02  0.61332917623E+02  0.00000000000E+00 0.  1.
         14    1    3    3    0    0  0.41446401015E+02  0.65982194690E+02 -0.58220915544E+02  0.97268335958E+02  0.00000000000E+00 0. -1.
        -13    1    4    4    0    0 -0.84004970331E+02  0.59080274704E+02  0.20759193042E+02  0.10477718261E+03  0.00000000000E+00 0.  1.
         13    1    4    4    0    0 -0.75499460690E+02 -0.76007009157E+01  0.81776586855E+02  0.11155872613E+03  0.00000000000E+00 0. -1.
          1    1    1    2  501    0  0.81555988440E+02 -0.97251085131E+02  0.19399206266E+02  0.12839580216E+03  0.00000000000E+00 0. -1.
<scales pt_clust_5="13000.00000" pt_clust_6="13000.00000" pt_clust_7="13000.00000" pt_clust_8="13000.00000" pt_clust_9="13000.00000"></scales>
<clustering>
<clus scale="   79.614">  5  6 -1 -1</clus>
<clus scale="   90.531">  7  8 -1 -1</clus>
<clus scale="  120.455">  1  5  2 -1</clus>
<clus scale="  134.670">  7  9 -1 -1</clus>
<clus scale="  322.447">  2  5  1 -1</clus>
</clustering>
</event>
<event>
 9    2  0.2147756E-005  0.2896036E+03  0.7546771E-02  0.1127800E+00
         -3   -1    0    0    0  501 -0.00000000000E+00  0.00000000000E+00  0.37189557067E+03  0.37189557067E+03  0.00000000000E+00 0.  1.
         21   -1    0    0  501  502  0.00000000000E+00 -0.00000000000E+00 -0.12443306115E+03  0.12443306115E+03  0.00000000000E+00 0.  1.
         24    2    1    2    0    0 -0.40551937960E+01  0.80768043946E+02 -0.50851708597E+01  0.11207536494E+03  0.77428075949E+02 0.  0.
         23    2    1    2    0    0  0.96749548673E+02  0.38181370490E+02  0.12303602191E+03  0.18547078198E+03  0.91887192045E+02 0.  0.
        -11    1    3    3    0    0 -0.25107251338E+02  0.25585759453E+02 -0.31176173620E+02  0.47507462131E+02  0.00000000000E+00 0.  1.
         12    1    3    3    0    0  0.21052057542E+02  0.55182284493E+02  0.26091002761E+02  0.64567902813E+02  0.00000000000E+00 0. -1.
        -11    1    4    4    0    0  0.25356315508E+02 -0.17055293625E+02  0.79665698037E+02  0.85325548463E+02  0.00000000000E+00 0. -1.
         11    1    4    4    0    0  0.71393233165E+02  0.55236664115E+02  0.43370323870E+02  0.10014523352E+03  0.00000000000E+00 0.  1.
         -4    1    1    2    0  502 -0.92694354877E+02 -0.11894941444E+03  0.12951165847E+03  0.19878248489E+03  0.00000000000E+00 0.  1.
<scales pt_clust_5="13000.00000" pt_clust_6="13000.00000" pt_clust_7="13000.00000" pt_clust_8="13000.00000" pt_clust_9="13000.00000"></scales>
<clustering>
<clus scale="   77.428">  5  6 -1 -1</clus>
<clus scale="   91.887">  7  8 -1 -1</clus>
<clus scale="  111.960">  1  5  2 -1</clus>
<clus scale="  122.316">  7  9 -1 -1</clus>
<clus scale="  289.604">  2  5  1 -1</clus>
</clustering>
</event>
<event>
 9    2  0.2147756E-005  0.4095394E+03  0.7546771E-02  0.1075694E+00
         21   -1    0    0  501  502  0.00000000000E+00  0.00000000000E+00  0.79553609773E+02  0.79553609773E+02  0.00000000000E+00 0.  1.
         -1   -1    0    0    0  501 -0.00000000000E+00 -0.00000000000E+00 -0.10066494304E+04  0.10066494304E+04  0.00000000000E+00 0.  1.
         24    2    1    2    0    0  0.86136431923E+02  0.96317873491E+02 -0.19729446002E+03  0.24934432020E+03  0.80937435104E+02 0.  0.
         23    2    1    2    0    0  0.11275376054E+03  0.48440176040E+02 -0.35105450809E+03  0.38523788361E+03  0.10054401097E+03 0.  0.
        -11    1    3    3    0    0  0.89487720861E+02  0.80368423745E+02 -0.11837472297E+03  0.16875932791E+03  0.00000000000E+00 0.  1.
         12    1    3    3    0    0 -0.33512889376E+01  0.15949449746E+02 -0.78919737054E+02  0.80584992284E+02  0.00000000000E+00 0. -1.
        -13    1    4    4    0    0  0.59366050923E+02  0.47592306526E+02 -0.30617394828E+03  0.31548667523E+03  0.00000000000E+00 0.  1.
         13    1    4    4    0    0  0.53387709613E+02  0.84786951351E+00 -0.44880559809E+02  0.69751208371E+02  0.00000000000E+00 0. -1.
         -2    1    1    2    0  502 -0.19889019246E+03 -0.14475804953E+03 -0.37874685255E+03  0.45162083641E+03  0.00000000000E+00 0.  1.
<scales pt_clust_5="13000.00000" pt_clust_6="13000.00000" pt_clust_7="13000.00000" pt_clust_8="13000.00000" pt_clust_9="13000.00000"></scales>
<clustering>
<clus scale="   80.937">  5  6 -1 -1</clus>
<clus scale="  100.544">  7  8 -1 -1</clus>
<clus scale="  152.471">  2  5  1 -1</clus>
<clus scale="  179.617">  7  9 -1 -1</clus>
<clus scale="  409.539">  1  5  2 -1</clus>
</clustering>
</event>
<event>
 9    2  0.2147756E-005  0.1798623E+03  0.7546771E-02  0.1202278E+00
          2   -1    0    0  502    0 -0.00000000000E+00  0.00000000000E+00  0.10136621541E+04  0.10136621541E+04  0.00000000000E+00 0. -1.
         21   -1    0    0  501  502  0.00000000000E+00 -0.00000000000E+00 -0.46172639294E+02  0.46172639294E+02  0.00000000000E+00 0. -1.
         24    2    1    2    0    0  0.14575785167E+02  0.14869757935E+02  0.82801333958E+03  0.83222979612E+03  0.81035669987E+02 0.  0.
         23    2    1    2    0    0 -0.19430080978E+02  0.49617651748E+02  0.46036084697E+02  0.11396855631E+03  0.89610665221E+02 0.  0.
        -13    1    3    3    0    0  0.34998342568E+02  0.10737281119E+02  0.17047511887E+03  0.17436151910E+03  0.00000000000E+00 0.  1.
         14    1    3    3    0    0 -0.20422557401E+02  0.41324768161E+01  0.65753822071E+03  0.65786827702E+03  0.00000000000E+00 0. -1.
        -13    1    4    4    0    0 -0.49450243517E+02  0.54297040091E+01  0.14007071249E+02  0.51681779328E+02  0.00000000000E+00 0.  1.
         13    1    4    4    0    0  0.30020162540E+02  0.44187947739E+02  0.32029013448E+02  0.62286776982E+02  0.00000000000E+00 0. -1.
          1    1    1    2  501    0  0.48542958107E+01 -0.64487409683E+02  0.93440090486E+02  0.11363644092E+03  0.00000000000E+00 0. -1.
<scales pt_clust_5="13000.00000" pt_clust_6="13000.00000" pt_clust_7="13000.00000" pt_clust_8="13000.00000" pt_clust_9="13000.00000"></scales>
<clustering>
<clus scale="   81.036">  5  6 -1 -1</clus>
<clus scale="   83.668">  1  5  2 -1</clus>
<clus scale="   89.611">  7  8 -1 -1</clus>
<clus scale="   57.603">  7  9 -1 -1</clus>
<clus scale="  179.862">  2  5  1 -1</clus>
</clustering>
</event>
<event>
 9    2  0.2147756E-005  0.1894692E+03  0.7546771E-02  0.1193491E+00
         21   -1    0    0  501  502  0.00000000000E+00  0.00000000000E+00  0.23359982988E+03  0.23359982988E+03  0.00000000000E+00 0.  1.
         -1   -1    0    0    0  501 -0.00000000000E+00 -0.00000000000E+00 -0.82234289471E+02  0.82234289471E+02  0.00000000000E+00 0.  1.
         24    2    1    2    0    0  0.19581287562E+02 -0.57934865931E+02  0.35004287556E+02  0.93486378847E+02  0.61437182306E+02 0.  0.
         23    2    1    2    0    0 -0.49302746280E+02  0.89935520544E+02  0.10485354618E+03  0.17718321552E+03  0.99400538574E+02 0.  0.
        -13    1    3    3    0    0 -0.30972542632E+01 -0.63250689765E+02  0.23961844848E+02  0.67708291577E+02  0.00000000000E+00 0.  1.
         14    1    3    3    0    0  0.22678541825E+02  0.53158238344E+01  0.11042442707E+02  0.25778087270E+02  0.00000000000E+00 0. -1.
        -11    1    4    4    0    0 -0.57651348422E+01  0.94735227239E+02  0.90361812837E+02  0.13104677516E+03  0.00000000000E+00 0.  1.
         11    1    4    4    0    0 -0.43537611437E+02 -0.47997066953E+01  0.14491733346E+02  0.46136440363E+02  0.00000000000E+00 0. -1.
         -2    1    1    2    0  502  0.29721458717E+02 -0.32000654613E+02  0.11507706666E+02  0.45164524980E+02  0.00000000000E+00 0.  1.
<scales pt_clust_5="13000.00000" pt_clust_6="13000.00000" pt_clust_7="13000.00000" pt_clust_8="13000.00000" pt_clust_9="13000.00000"></scales>
<clustering>
<clus scale="   61.437">  5  6 -1 -1</clus>
<clus scale="   86.686">  2  5  1 -1</clus>
<clus scale="   99.401">  7  8 -1 -1</clus>
<clus scale="   61.900">  7  9 -1 -1</clus>
<clus scale="  189.469">  1  5  2 -1</clus>
</clustering>
</event>
<event>
 9    2  0.2147756E-005  0.6831025E+03  0.7546771E-02  0.9838875E-01
         21   -1    0    0  501  502  0.00000000000E+00  0.00000000000E+00  0.48566304779E+03  0.48566304779E+03  0.00000000000E+00 0. -1.
          2   -1    0    0  502    0 -0.00000000000E+00 -0.00000000000E+00 -0.72650453582E+03  0.72650453582E+03  0.00000000000E+00 0. -1.
         24    2    1    2    0    0  0.49625749236E+03  0.18730211834E+02 -0.12229427696E+03  0.51885486224E+03  0.87362224846E+02 0.  0.
         23    2    1    2    0    0 -0.14445549936E+03  0.19361760079E+02 -0.26096128609E+03  0.31187149475E+03  0.88998692959E+02 0.  0.
        -13    1    3    3    0    0  0.89646792140E+02  0.33541943734E+02 -0.70857043145E+01  0.95978208653E+02  0.00000000000E+00 0.  1.
         14    1    3    3    0    0  0.40661070022E+03 -0.14811731900E+02 -0.11520857264E+03  0.42287665358E+03  0.00000000000E+00 0. -1.
        -13    1    4    4    0    0 -0.28461041113E+01 -0.22243687893E+02 -0.45208236068E+02  0.50464508004E+02  0.00000000000E+00 0. -1.
         13    1    4    4    0    0 -0.14160939525E+03  0.41605447972E+02 -0.21575305003E+03  0.26140698674E+03  0.00000000000E+00 0.  1.
          1    1    1    2  501    0 -0.35180199300E+03 -0.38091971913E+02  0.14241407502E+03  0.38144122662E+03  0.00000000000E+00 0. -1.
<scales pt_clust_5="13000.00000" pt_clust_6="13000.00000" pt_clust_7="13000.00000" pt_clust_8="13000.00000" pt_clust_9="13000.00000"></scales>
<clustering>
<clus scale="   87.362">  5  6 -1 -1</clus>
<clus scale="   88.999">  7  8 -1 -1</clus>
<clus scale="  353.858">  7  9 -1 -1</clus>
<clus scale="  504.237">  2  5  1 -1</clus>
<clus scale="  683.103">  1  5  2 -1</clus>
</clustering>
</event>
<event>
 9    2  0.2147756E-005  0.7050677E+03  0.7546771E-02  0.1012893E+00
         21   -1    0    0  501  502  0.00000000000E+00  0.00000000000E+00  0.84986216693E+02  0.84986216693E+02  0.00000000000E+00 0. -1.
          2   -1    0    0  502    0 -0.00000000000E+00 -0.00000000000E+00 -0.23396623779E+04  0.23396623779E+04  0.00000000000E+00 0. -1.
         24    2    1    2    0    0 -0.15493152458E+03  0.56202031131E+02 -0.55768676508E+03  0.58701601820E+03  0.80067671840E+02 0.  0.
         23    2    1    2    0    0 -0.18119686232E+03  0.14708728632E+03 -0.32388572356E+03  0.40944402627E+03  0.90969643348E+02 0.  0.
        -13    1    3    3    0    0 -0.45915627228E+02 -0.19648347360E+02 -0.13413422005E+03  0.14313033000E+03  0.00000000000E+00 0.  1.
         14    1    3    3    0    0 -0.10901589735E+03  0.75850378491E+02 -0.42355254503E+03  0.44388568820E+03  0.00000000000E+00 0. -1.
        -13    1    4    4    0    0 -0.66404053275E+02  0.25184279799E+02 -0.16042268495E+03  0.17543997289E+03  0.00000000000E+00 0.  1.
         13    1    4    4    0    0 -0.11479280904E+03  0.12190300652E+03 -0.16346303861E+03  0.23400405338E+03  0.00000000000E+00 0. -1.
          1    1    1    2  501    0  0.33612838689E+03 -0.20328931745E+03 -0.13731036725E+04  0.14281885501E+04  0.00000000000E+00 0. -1.
<scales pt_clust_5="13000.00000" pt_clust_6="13000.00000" pt_clust_7="13000.00000" pt_clust_8="13000.00000" pt_clust_9="13000.00000"></scales>
<clustering>
<clus scale="   80.068">  5  6 -1 -1</clus>
<clus scale="   90.970">  7  8 -1 -1</clus>
<clus scale="  183.230">  2  5  1 -1</clus>
<clus scale="  265.923">  7  9 -1 -1</clus>
<clus scale="  705.068">  1  5  2 -1</clus>
</clustering>
</event>
<event>
 9    2  0.2147756E-005  0.5642326E+03  0.7546771E-02  0.1030843E+00
          2   -1    0    0  502    0 -0.00000000000E+00  0.00000000000E+00  0.97403813687E+03  0.97403813687E+03  0.00000000000E+00 0. -1.
         21   -1    0    0  501  502  0.00000000000E+00 -0.00000000000E+00 -0.18676608268E+03  0.18676608268E+03  0.00000000000E+00 0. -1.
         24    2    1    2    0    0 -0.97774354155E+02 -0.16386799251E+03  0.46879987992E+03  0.51289759184E+03  0.82934124463E+02 0.  0.
         23    2    1    2    0    0 -0.19767335982E+03 -0.12879257293E+02  0.87024119928E+02  0.23306069985E+03  0.86622513919E+02 0.  0.
        -11    1    3    3    0    0 -0.72714411644E+02 -0.67392578448E+02  0.15822985340E+03  0.18672394543E+03  0.00000000000E+00 0.  1.
         12    1    3    3    0    0 -0.25059942511E+02 -0.96475414062E+02  0.31057002653E+03  0.32617364641E+03  0.00000000000E+00 0. -1.
        -11    1    4    4    0    0 -0.64670310375E+02  0.16501761401E+02 -0.76515046596E+01  0.67179630075E+02  0.00000000000E+00 0.  1.
         11    1    4    4    0    0 -0.13300304944E+03 -0.29381018695E+02  0.94675624587E+02  0.16588106978E+03  0.00000000000E+00 0. -1.
          1    1    1    2  501    0  0.29544771397E+03  0.17674724980E+03  0.23144805433E+03  0.41484592786E+03  0.00000000000E+00 0. -1.
<scales pt_clust_5="13000.00000" pt_clust_6="13000.00000" pt_clust_7="13000.00000" pt_clust_8="13000.00000" pt_clust_9="13000.00000"></scales>
<clustering>
<clus scale="   82.934">  5  6 -1 -1</clus>
<clus scale="   86.623">  7  8 -1 -1</clus>
<clus scale="  208.064">  1  5  2 -1</clus>
<clus scale="  239.660">  7  9 -1 -1</clus>
<clus scale="  564.233">  2  5  1 -1</clus>
</clustering>
</event>
<event>
 9    2  0.2147756E-005  0.4938422E+03  0.7546771E-02  0.1069654E+00
         21   -1    0    0  501  502  0.00000000000E+00  0.00000000000E+00  0.49956718630E+03  0.49956718630E+03  0.00000000000E+00 0.  1.
          2   -1    0    0  502    0 -0.00000000000E+00 -0.00000000000E+00 -0.20004867431E+03  0.20004867431E+03  0.00000000000E+00 0. -1.
         24    2    1    2    0    0  0.29196436900E+02 -0.54058840114E+02 -0.28889073138E+02  0.10654618690E+03  0.82114074760E+02 0.  0.
         23    2    1    2    0    0 -0.17112029699E-01 -0.15542057729E+03  0.33536532796E+03  0.38145334755E+03  0.94240103033E+02 0.  0.
        -13    1    3    3    0    0  0.35669296666E+02 -0.79914722168E+01 -0.44397697406E+02  0.57509285231E+02  0.00000000000E+00 0.  1.
         14    1    3    3    0    0 -0.64728597657E+01 -0.46067367898E+02  0.15508624267E+02  0.49036901668E+02  0.00000000000E+00 0. -1.
        -13    1    4    4    0    0 -0.26593234969E+02 -0.14249182031E+03  0.31110807467E+03  0.34321910367E+03  0.00000000000E+00 0.  1.
         13    1    4    4    0    0  0.26576122939E+02 -0.12928756977E+02  0.24257253292E+02  0.38234243875E+02  0.00000000000E+00 0. -1.
          1    1    1    2  501    0 -0.29179324870E+02  0.20947941740E+03 -0.69577428359E+01  0.21161632617E+03  0.00000000000E+00 0. -1.
<scales pt_clust_5="13000.00000" pt_clust_6="13000.00000" pt_clust_7="13000.00000" pt_clust_8="13000.00000" pt_clust_9="13000.00000"></scales>
<clustering>
<clus scale="   82.114">  5  6 -1 -1</clus>
<clus scale="   94.240">  7  8 -1 -1</clus>
<clus scale="  102.555">  2  5  1 -1</clus>
<clus scale="  164.912">  7  9 -1 -1</clus>
<clus scale="  493.842">  1  5  2 -1</clus>
</clustering>
</event>
<event>
 9    2  0.2147756E-005  0.7519232E+03  0.7546771E-02  0.9834039E-01
          2   -1    0    0  502    0 -0.00000000000E+00  0.00000000000E+00  0.40477936689E+03  0.40477936689E+03  0.00000000000E+00 0. -1.
         21   -1    0    0  501  502  0.00000000000E+00 -0.00000000000E+00 -0.82741198319E+03  0.82741198319E+03  0.00000000000E+00 0.  1.
         24    2    1    2    0    0  0.34597838923E+03 -0.14559707324E+03 -0.33473940036E+02  0.38553149295E+03  0.81329415621E+02 0.  0.
         23    2    1    2    0    0 -0.43818663947E+02 -0.17787892208E+03  0.59665769164E+02  0.21627854242E+03  0.98261984871E+02 0.  0.
        -13    1    3    3    0    0  0.33214422194E+03 -0.12970542758E+03 -0.48215811577E+02  0.35981668471E+03  0.00000000000E+00 0.  1.
         14    1    3    3    0    0  0.13834167299E+02 -0.15891645656E+02  0.14741871542E+02  0.25714808245E+02  0.00000000000E+00 0. -1.
        -13    1    4    4    0    0 -0.70315257459E+02 -0.15244339187E+03  0.33516255262E+02  0.17119159595E+03  0.00000000000E+00 0. -1.
         13    1    4    4    0    0  0.26496593512E+02 -0.25435530207E+02  0.26149513902E+02  0.45086946470E+02  0.00000000000E+00 0.  1.
          1    1    1    2  501    0 -0.30215972529E+03  0.32347599531E+03 -0.44882444542E+03  0.63038131471E+03  0.00000000000E+00 0. -1.
<scales pt_clust_5="13000.00000" pt_clust_6="13000.00000" pt_clust_7="13000.00000" pt_clust_8="13000.00000" pt_clust_9="13000.00000"></scales>
<clustering>
<clus scale="   81.329">  5  6 -1 -1</clus>
<clus scale="   98.262">  7  8 -1 -1</clus>
<clus scale="  384.076">  1  5  2 -1</clus>
<clus scale="  312.688">  7  9 -1 -1</clus>
<clus scale="  751.923">  2  5  1 -1</clus>
</clustering>
</event>
<event>
 9    2  0.2147756E-005  0.4654712E+03  0.7546771E-02  0.1077273E+00
         21   -1    0    0  501  502  0.00000000000E+00  0.00000000000E+00  0.77921713489E+03  0.77921713489E+03  0.00000000000E+00 0. -1.
          2   -1    0    0  502    0 -0.00000000000E+00 -0.00000000000E+00 -0.56332708277E+03  0.56332708277E+03  0.00000000000E+00 0. -1.
         24    2    1    2    0    0  0.46648612217E+02 -0.35798285457E+02 -0.48834742972E+03  0.49837961388E+03  0.80258439791E+02 0.  0.
         23    2    1    2    0    0  0.20897036993E+02  0.20510333484E+03  0.58078545012E+03  0.62401234145E+03  0.97854990129E+02 0.  0.
        -13    1    3    3    0    0  0.13446468705E+02 -0.31881491237E+02 -0.64320405708E+02  0.73036645560E+02  0.00000000000E+00 0.  1.
         14    1    3    3    0    0  0.33202143512E+02 -0.39167942199E+01 -0.42402702401E+03  0.42534296832E+03  0.00000000000E+00 0. -1.
        -13    1    4    4    0    0 -0.25620314236E+01  0.18872650341E+03  0.41672073987E+03  0.45747178288E+03  0.00000000000E+00 0. -1.
         13    1    4    4    0    0  0.23459068417E+02  0.16376831426E+02  0.16406471025E+03  0.16654055857E+03  0.00000000000E+00 0.  1.
          1    1    1    2  501    0 -0.67545649211E+02 -0.16930504938E+03  0.12345203172E+03  0.22015226233E+03  0.00000000000E+00 0. -1.
<scales pt_clust_5="13000.00000" pt_clust_6="13000.00000" pt_clust_7="13000.00000" pt_clust_8="13000.00000" pt_clust_9="13000.00000"></scales>
<clustering>
<clus scale="   80.258">  5  6 -1 -1</clus>
<clus scale="   97.855">  7  8 -1 -1</clus>
<clus scale="   99.494">  2  5  1 -1</clus>
<clus scale="  197.231">  7  9 -1 -1</clus>
<clus scale="  465.471">  1  5  2 -1</clus>
</clustering>
</event>
<event>
 9    2  0.2147756E-005  0.4191478E+03  0.7546771E-02  0.1057108E+00
          2   -1    0    0  502    0 -0.00000000000E+00  0.00000000000E+00  0.12372264596E+03  0.12372264596E+03  0.00000000000E+00 0. -1.
         21   -1    0    0  501  502  0.00000000000E+00 -0.00000000000E+00 -0.87824734195E+03  0.87824734195E+03  0.00000000000E+00 0.  1.
         24    2    1    2    0    0 -0.13002175384E+03 -0.17962173773E+03 -0.23299699008E+03  0.33288400945E+03  0.85758621900E+02 0.  0.
         23    2    1    2    0    0 -0.19040384327E+02 -0.75705843581E+02 -0.18582288348E+03  0.22175006148E+03  0.92460990461E+02 0.  0.
        -13    1    3    3    0    0 -0.11778822777E+03 -0.17501025146E+03 -0.17698310948E+03  0.27536462329E+03  0.00000000000E+00 0.  1.
         14    1    3    3    0    0 -0.12233526070E+02 -0.46114862697E+01 -0.56013880595E+02  0.57519386167E+02  0.00000000000E+00 0. -1.
        -11    1    4    4    0    0  0.11597283317E+02 -0.86385433451E+02 -0.14944545354E+03  0.17300544406E+03  0.00000000000E+00 0.  1.
         11    1    4    4    0    0 -0.30637667643E+02  0.10679589870E+02 -0.36377429938E+02  0.48744617419E+02  0.00000000000E+00 0. -1.
          1    1    1    2  501    0  0.14906213816E+03  0.25532758131E+03 -0.33570482244E+03  0.44733591698E+03  0.00000000000E+00 0. -1.
<scales pt_clust_5="13000.00000" pt_clust_6="13000.00000" pt_clust_7="13000.00000" pt_clust_8="13000.00000" pt_clust_9="13000.00000"></scales>
<clustering>
<clus scale="   85.759">  5  6 -1 -1</clus>
<clus scale="   92.461">  7  8 -1 -1</clus>
<clus scale="  237.748">  1  5  2 -1</clus>
<clus scale="  129.754">  7  9 -1 -1</clus>
<clus scale="  419.148">  2  5  1 -1</clus>
</clustering>
</event>
<event>
 9    2  0.2147756E-005  0.1813350E+03  0.7546771E-02  0.1189620E+00
         21   -1    0    0  501  502  0.00000000000E+00  0.00000000000E+00  0.16324122379E+03  0.16324122379E+03  0.00000000000E+00 0.  1.
         -3   -1    0    0    0  501 -0.00000000000E+00 -0.00000000000E+00 -0.24286735199E+03  0.24286735199E+03  0.00000000000E+00 0.  1.
         24    2    1    2    0    0  0.73138911445E+02 -0.62387697146E+01 -0.17174719886E+03  0.20271567177E+03  0.78792897210E+02 0.  0.
         23    2    1    2    0    0 -0.63185249254E+02 -0.11256393762E+02  0.33552519783E+01  0.11237352859E+03  0.92181723179E+02 0.  0.
        -11    1    3    3    0    0  0.89599720276E+02 -0.11663346519E+02 -0.14410297747E+03  0.17008765870E+03  0.00000000000E+00 0.  1.
         12    1    3    3    0    0 -0.16460808831E+02  0.54245768043E+01 -0.27644221388E+02  0.32628013072E+02  0.00000000000E+00 0. -1.
        -13    1    4    4    0    0 -0.60707140348E+02 -0.42368888127E+02  0.20429520318E+02  0.76797427502E+02  0.00000000000E+00 0. -1.
         13    1    4    4    0    0 -0.24781089056E+01  0.31112494365E+02 -0.17074268340E+02  0.35576101089E+02  0.00000000000E+00 0.  1.
         -4    1    1    2    0  502 -0.99536621908E+01  0.17495163477E+02  0.88765818679E+02  0.91019375420E+02  0.00000000000E+00 0.  1.
<scales pt_clust_5="13000.00000" pt_clust_6="13000.00000" pt_clust_7="13000.00000" pt_clust_8="13000.00000" pt_clust_9="13000.00000"></scales>
<clustering>
<clus scale="   78.793">  5  6 -1 -1</clus>
<clus scale="   92.182">  7  8 -1 -1</clus>
<clus scale="   20.129">  7  9 -1 -1</clus>
<clus scale="  107.687">  2  5  1 -1</clus>
<clus scale="  181.335">  1  5  2 -1</clus>
</clustering>
</event>
<event>
 9    2  0.2147756E-005  0.3231228E+03  0.7546771E-02  0.1096602E+00
          2   -1    0    0  502    0 -0.00000000000E+00  0.00000000000E+00  0.47797441492E+03  0.47797441492E+03  0.00000000000E+00 0. -1.
         21   -1    0    0  501  502  0.00000000000E+00 -0.00000000000E+00 -0.13140349141E+03  0.13140349141E+03  0.00000000000E+00 0. -1.
         24    2    1    2    0    0  0.55246616381E+02 -0.14913365158E+03  0.11461867804E+03  0.21162143261E+03  0.79706679330E+02 0.  0.
         23    2    1    2    0    0  0.50359608368E+02 -0.35111781202E+02  0.67146736529E+02  0.12894443905E+03  0.91373173314E+02 0.  0.
        -11    1    3    3    0    0 -0.16392643045E+02 -0.35948676122E+02  0.77509228998E+01  0.40262921736E+02  0.00000000000E+00 0.  1.
         12    1    3    3    0    0  0.71639259426E+02 -0.11318497546E+03  0.10686775514E+03  0.17135851088E+03  0.00000000000E+00 0. -1.
        -13    1    4    4    0    0  0.40197282659E+02  0.10593583904E+02 -0.60965023390E+01  0.42014436732E+02  0.00000000000E+00 0.  1.
         13    1    4    4    0    0  0.10162325708E+02 -0.45705365106E+02  0.73243238868E+02  0.86930002319E+02  0.00000000000E+00 0. -1.
          1    1    1    2  501    0 -0.10560622475E+03  0.18424543278E+03  0.16480550893E+03  0.26881203467E+03  0.00000000000E+00 0. -1.
<scales pt_clust_5="13000.00000" pt_clust_6="13000.00000" pt_clust_7="13000.00000" pt_clust_8="13000.00000" pt_clust_9="13000.00000"></scales>
<clustering>
<clus scale="   79.707">  5  6 -1 -1</clus>
<clus scale="   91.373">  7  8 -1 -1</clus>
<clus scale="  177.894">  1  5  2 -1</clus>
<clus scale="  105.903">  7  9 -1 -1</clus>
<clus scale="  323.123">  2  5  1 -1</clus>
</clustering>
</event>
<event>
 9    2  0.2147756E-005  0.7294884E+03  0.7546771E-02  0.1019313E+00
          2   -1    0    0  502    0 -0.00000000000E+00  0.00000000000E+00  0.10115010613E+04  0.10115010613E+04  0.00000000000E+00 0. -1.
         21   -1    0    0  501  502  0.00000000000E+00 -0.00000000000E+00 -0.18670372347E+03  0.18670372347E+03  0.00000000000E+00 0. -1.
         24    2    1    2    0    0 -0.40516797871E+02  0.10206335745E+03  0.91959506734E+02  0.16418131070E+03  0.80252177921E+02 0.  0.
         23    2    1    2    0    0 -0.11333738231E+03  0.18659073227E+03  0.65749743717E+03  0.69836223526E+03  0.88008341436E+02 0.  0.
        -11    1    3    3    0    0  0.34378579749E+01  0.53479228953E+02  0.81932396134E+02  0.97901809652E+02  0.00000000000E+00 0.  1.
         12    1    3    3    0    0 -0.43954655846E+02  0.48584128502E+02  0.10027110600E+02  0.66279501052E+02  0.00000000000E+00 0. -1.
        -11    1    4    4    0    0 -0.36628851630E+02  0.67115968704E+02  0.11888021811E+03  0.14134614351E+03  0.00000000000E+00 0.  1.
         11    1    4    4    0    0 -0.76708530676E+02  0.11947476356E+03  0.53861721906E+03  0.55701609176E+03  0.00000000000E+00 0. -1.
          1    1    1    2  501    0  0.15385418018E+03 -0.28865408972E+03  0.75340393913E+02  0.33566123879E+03  0.00000000000E+00 0. -1.
<scales pt_clust_5="13000.00000" pt_clust_6="13000.00000" pt_clust_7="13000.00000" pt_clust_8="13000.00000" pt_clust_9="13000.00000"></scales>
<clustering>
<clus scale="   80.252">  5  6 -1 -1</clus>
<clus scale="   88.008">  7  8 -1 -1</clus>
<clus scale="  136.011">  1  5  2 -1</clus>
<clus scale="  301.726">  7  9 -1 -1</clus>
<clus scale="  729.488">  2  5  1 -1</clus>
</clustering>
</event>
<event>
 9    2  0.2147756E-005  0.1957349E+03  0.7546771E-02  0.1191578E+00
         21   -1    0    0  501  502  0.00000000000E+00  0.00000000000E+00  0.36834747850E+02  0.36834747850E+02  0.00000000000E+00 0. -1.
         -1   -1    0    0    0  501 -0.00000000000E+00 -0.00000000000E+00 -0.52929588779E+03  0.52929588779E+03  0.00000000000E+00 0.  1.
         24    2    1    2    0    0 -0.78760818871E+00 -0.90377834458E+01 -0.11954551548E+03  0.14496768890E+03  0.81499685259E+02 0.  0.
         23    2    1    2    0    0 -0.64447781047E+02  0.12862890194E+02 -0.31511949004E+03  0.33392373191E+03  0.88802000569E+02 0.  0.
        -13    1    3    3    0    0 -0.18246544319E+02  0.20740270861E+02 -0.10309055244E+03  0.10672749045E+03  0.00000000000E+00 0.  1.
         14    1    3    3    0    0  0.17458936130E+02 -0.29778054306E+02 -0.16454963042E+02  0.38240198453E+02  0.00000000000E+00 0. -1.
        -11    1    4    4    0    0 -0.71725171145E+02 -0.17173845353E+02 -0.16617238821E+03  0.18180402565E+03  0.00000000000E+00 0.  1.
         11    1    4    4    0    0  0.72773900985E+01  0.30036735547E+02 -0.14894710183E+03  0.15211970626E+03  0.00000000000E+00 0. -1.
         -2    1    1    2    0  502  0.65235389235E+02 -0.38251067478E+01 -0.57796134428E+02  0.87239214835E+02  0.00000000000E+00 0.  1.
<scales pt_clust_5="13000.00000" pt_clust_6="13000.00000" pt_clust_7="13000.00000" pt_clust_8="13000.00000" pt_clust_9="13000.00000"></scales>
<clustering>
<clus scale="   81.500">  5  6 -1 -1</clus>
<clus scale="   82.003">  2  5  1 -1</clus>
<clus scale="   88.802">  7  8 -1 -1</clus>
<clus scale="   65.321">  7  9 -1 -1</clus>
<clus scale="  195.735">  1  5  2 -1</clus>
</clustering>
</event>
<event>
 9    2  0.2147756E-005  0.3498832E+03  0.7546771E-02  0.1094851E+00
          2   -1    0    0  502    0 -0.00000000000E+00  0.00000000000E+00  0.11156575486E+04  0.11156575486E+04  0.00000000000E+00 0. -1.
         21   -1    0    0  501  502  0.00000000000E+00 -0.00000000000E+00 -0.70511028874E+02  0.70511028874E+02  0.00000000000E+00 0. -1.
         24    2    1    2    0    0 -0.12139391676E+03  0.17565876784E+02  0.61214257915E+03  0.62947236914E+03  0.80448015785E+02 0.  0.
         23    2    1    2    0    0  0.18019802640E+03 -0.11667134818E+03  0.32136507451E+03  0.39624978679E+03  0.87492000840E+02 0.  0.
        -13    1    3    3    0    0 -0.13334430944E+03  0.18774769968E+02  0.56447153576E+03  0.58031139187E+03  0.00000000000E+00 0.  1.
         14    1    3    3    0    0  0.11950392685E+02 -0.12088931839E+01  0.47671043393E+02  0.49160977271E+02  0.00000000000E+00 0. -1.
        -11    1    4    4    0    0  0.13917713600E+03 -0.87911272371E+02  0.29913924379E+03  0.34144246099E+03  0.00000000000E+00 0. -1.
         11    1    4    4    0    0  0.41020890396E+02 -0.28760075807E+02  0.22225830722E+02  0.54807325793E+02  0.00000000000E+00 0.  1.
          1    1    1    2  501    0 -0.58804109639E+02  0.99105471394E+02  0.11163886605E+03  0.16044642154E+03  0.00000000000E+00 0. -1.
<scales pt_clust_5="13000.00000" pt_clust_6="13000.00000" pt_clust_7="13000.00000" pt_clust_8="13000.00000" pt_clust_9="13000.00000"></scales>
<clustering>
<clus scale="   80.448">  5  6 -1 -1</clus>
<clus scale="   87.492">  7  8 -1 -1</clus>
<clus scale="  115.238">  7  9 -1 -1</clus>
<clus scale="  146.686">  1  5  2 -1</clus>
<clus scale="  349.883">  2  5  1 -1</clus>
</clustering>
</event>
<event>
 9    2  0.2147756E-005  0.1452240E+03  0.7546771E-02  0.1229002E+00
         21   -1    0    0  501  502  0.00000000000E+00  0.00000000000E+00  0.51371790284E+02  0.51371790284E+02  0.00000000000E+00 0.  1.
          2   -1    0    0  502    0 -0.00000000000E+00 -0.00000000000E+00 -0.36833897085E+03  0.36833897085E+03  0.00000000000E+00 0. -1.
         24    2    1    2    0    0  0.15967156369E+02  0.36098239554E+02 -0.25141920013E+02  0.93747579682E+02  0.81230902820E+02 0.  0.
         23    2    1    2    0    0 -0.27955132135E+02 -0.64536675480E+02 -0.23552108135E+03  0.26175557446E+03  0.89996272710E+02 0.  0.
        -13    1    3    3    0    0 -0.16172122178E+02  0.31890597106E+02  0.17802701794E+02  0.39943508994E+02  0.00000000000E+00 0.  1.
         14    1    3    3    0    0  0.32139278547E+02  0.42076424471E+01 -0.42944621807E+02  0.53804070689E+02  0.00000000000E+00 0. -1.
        -13    1    4    4    0    0 -0.21001946464E+02 -0.85557448235E+02 -0.21135357961E+03  0.22897924430E+03  0.00000000000E+00 0. -1.
         13    1    4    4    0    0 -0.69531856714E+01  0.21020772755E+02 -0.24167501739E+02  0.32776330156E+02  0.00000000000E+00 0.  1.
          1    1    1    2  501    0  0.11987975766E+02  0.28438435927E+02 -0.56304179200E+02  0.64207606997E+02  0.00000000000E+00 0. -1.
<scales pt_clust_5="13000.00000" pt_clust_6="13000.00000" pt_clust_7="13000.00000" pt_clust_8="13000.00000" pt_clust_9="13000.00000"></scales>
<clustering>
<clus scale="   81.231">  5  6 -1 -1</clus>
<clus scale="   89.996">  7  8 -1 -1</clus>
<clus scale="   30.862">  7  9 -1 -1</clus>
<clus scale="   90.313">  2  5  1 -1</clus>
<clus scale="  145.224">  1  5  2 -1</clus>
</clustering>
</event>
<event>
 9    2  0.2147756E-005  0.3654592E+03  0.7546771E-02  0.1095279E+00
          2   -1    0    0  502    0 -0.00000000000E+00  0.00000000000E+00  0.17239203051E+03  0.17239203051E+03  0.00000000000E+00 0. -1.
         21   -1    0    0  501  502  0.00000000000E+00 -0.00000000000E+00 -0.35770835339E+03  0.35770835339E+03  0.00000000000E+00 0. -1.
         24    2    1    2    0    0 -0.97219838003E+02  0.18147233820E+02 -0.19446398783E+02  0.12876109645E+03  0.80126391006E+02 0.  0.
         23    2    1    2    0    0 -0.11595245044E+03  0.12940032543E+02 -0.62136715336E+02  0.16223800914E+03  0.94062665341E+02 0.  0.
        -11    1    3    3    0    0 -0.60535169352E+02  0.14166211724E+02  0.28390310244E+02  0.68346163015E+02  0.00000000000E+00 0.  1.
         12    1    3    3    0    0 -0.36684668651E+02  0.39810220964E+01 -0.47836709027E+02  0.60414933431E+02  0.00000000000E+00 0. -1.
        -13    1    4    4    0    0 -0.25234158743E+01 -0.28299614241E+02 -0.18473111932E+02  0.33889403334E+02  0.00000000000E+00 0.  1.
         13    1    4    4    0    0 -0.11342903457E+03  0.41239646785E+02 -0.43663603404E+02  0.12834860581E+03  0.00000000000E+00 0. -1.
          1    1    1    2  501    0  0.21317228845E+03 -0.31087266363E+02 -0.10373320876E+03  0.23910127831E+03  0.00000000000E+00 0. -1.
<scales pt_clust_5="13000.00000" pt_clust_6="13000.00000" pt_clust_7="13000.00000" pt_clust_8="13000.00000" pt_clust_9="13000.00000"></scales>
<clustering>
<clus scale="   80.126">  5  6 -1 -1</clus>
<clus scale="   94.063">  7  8 -1 -1</clus>
<clus scale="  127.284">  1  5  2 -1</clus>
<clus scale="  158.632">  7  9 -1 -1</clus>
<clus scale="  365.459">  2  5  1 -1</clus>
</clustering>
</event>
<event>
 9    2  0.2147756E-005  0.6449814E+03  0.7546771E-02  0.1004353E+00
          2   -1    0    0  502    0 -0.00000000000E+00  0.00000000000E+00  0.64140579630E+03  0.64140579630E+03  0.00000000000E+00 0. -1.
         21   -1    0    0  501  502  0.00000000000E+00 -0.00000000000E+00 -0.36394272938E+03  0.36394272938E+03  0.00000000000E+00 0. -1.
         24    2    1    2    0    0  0.28970466767E+03  0.82913705618E+02  0.25372787218E+02  0.31285267969E+03  0.80184436202E+02 0.  0.
         23    2    1    2    0    0  0.38930523974E+02  0.18147053590E+03  0.15802671518E+03  0.26035226971E+03  0.91453379027E+02 0.  0.
        -13    1    3    3    0    0  0.63887742737E+02 -0.11979583066E+02  0.19401821573E+02  0.67834981852E+02  0.00000000000E+00 0.  1.
         14    1    3    3    0    0  0.22581692494E+03  0.94893288684E+02  0.59709656444E+01  0.24501769784E+03  0.00000000000E+00 0. -1.
        -11    1    4    4    0    0  0.22401192723E+02  0.45155117800E+02 -0.78024371518E+00  0.50412368316E+02  0.00000000000E+00 0.  1.
         11    1    4    4    0    0  0.16529331252E+02  0.13631541810E+03  0.15880695890E+03  0.20993990140E+03  0.00000000000E+00 0. -1.
          1    1    1    2  501    0 -0.32863519165E+03 -0.26438424152E+03  0.94063564517E+02  0.43214357628E+03  0.00000000000E+00 0. -1.
<scales pt_clust_5="13000.00000" pt_clust_6="13000.00000" pt_clust_7="13000.00000" pt_clust_8="13000.00000" pt_clust_9="13000.00000"></scales>
<clustering>
<clus scale="   80.184">  5  6 -1 -1</clus>
<clus scale="   91.453">  7  8 -1 -1</clus>
<clus scale="  311.822">  1  5  2 -1</clus>
<clus scale="  274.920">  7  9 -1 -1</clus>
<clus scale="  644.981">  2  5  1 -1</clus>
</clustering>
</event>
<event>
 9    2  0.2147756E-005  0.1827967E+03  0.7546771E-02  0.1183866E+00
          2   -1    0    0  502    0 -0.00000000000E+00  0.00000000000E+00  0.86847320073E+03  0.86847320073E+03  0.00000000000E+00 0. -1.
         21   -1    0    0  501  502  0.00000000000E+00 -0.00000000000E+00 -0.31088731595E+02  0.31088731595E+02  0.00000000000E+00 0. -1.
         24    2    1    2    0    0 -0.98676775241E+01 -0.88917111473E+02  0.17123742838E+03  0.20878952984E+03  0.79165567757E+02 0.  0.
         23    2    1    2    0    0 -0.19777950299E+02  0.42833569864E+01  0.32043170499E+03  0.33361581354E+03  0.90628466919E+02 0.  0.
        -11    1    3    3    0    0  0.32901382342E+02 -0.31556388228E+02  0.87365509052E+02  0.98544602946E+02  0.00000000000E+00 0.  1.
         12    1    3    3    0    0 -0.42769059866E+02 -0.57360723245E+02  0.83871919333E+02  0.11024492689E+03  0.00000000000E+00 0. -1.
        -11    1    4    4    0    0  0.14247429799E+02 -0.36736298236E+02  0.14606013381E+03  0.15128155060E+03  0.00000000000E+00 0.  1.
         11    1    4    4    0    0 -0.34025380098E+02  0.41019655223E+02  0.17437157118E+03  0.18233426294E+03  0.00000000000E+00 0. -1.
          1    1    1    2  501    0  0.29645627823E+02  0.84633754487E+02  0.34571533576E+03  0.35715658895E+03  0.00000000000E+00 0. -1.
<scales pt_clust_5="13000.00000" pt_clust_6="13000.00000" pt_clust_7="13000.00000" pt_clust_8="13000.00000" pt_clust_9="13000.00000"></scales>
<clustering>
<clus scale="   79.166">  5  6 -1 -1</clus>
<clus scale="   90.628">  7  8 -1 -1</clus>
<clus scale="   89.676">  7  9 -1 -1</clus>
<clus scale="  119.461">  1  5  2 -1</clus>
<clus scale="  182.797">  2  5  1 -1</clus>
</clustering>
</event>
<event>
 9    2  0.2147756E-005  0.1705097E+03  0.7546771E-02  0.1202866E+00
         21   -1    0    0  501  502  0.00000000000E+00  0.00000000000E+00  0.46207837355E+02  0.46207837355E+02  0.00000000000E+00 0. -1.
          2   -1    0    0  502    0 -0.00000000000E+00 -0.00000000000E+00 -0.51632263951E+03  0.51632263951E+03  0.00000000000E+00 0. -1.
         24    2    1    2    0    0 -0.56474524434E+02 -0.14792292502E-01 -0.32328700788E+03  0.33751500141E+03  0.78819506373E+02 0.  0.
         23    2    1    2    0    0  0.20222767211E+01  0.44966694777E+02 -0.72506878252E+02  0.12250050398E+03  0.87880787655E+02 0.  0.
        -13    1    3    3    0    0 -0.95575876470E+01  0.36223268888E+02 -0.11433042478E+03  0.12031175637E+03  0.00000000000E+00 0.  1.
         14    1    3    3    0    0 -0.46916936787E+02 -0.36238061180E+02 -0.20895658310E+03  0.21720324504E+03  0.00000000000E+00 0. -1.
        -13    1    4    4    0    0 -0.24460118603E+02  0.41381778978E+02 -0.31501507488E+01  0.48173358646E+02  0.00000000000E+00 0. -1.
         13    1    4    4    0    0  0.26482395324E+02  0.35849157987E+01 -0.69356727503E+02  0.74327145333E+02  0.00000000000E+00 0.  1.
          1    1    1    2  501    0  0.54452247713E+02 -0.44951902484E+02 -0.74320916022E+02  0.10251497147E+03  0.00000000000E+00 0. -1.
<scales pt_clust_5="13000.00000" pt_clust_6="13000.00000" pt_clust_7="13000.00000" pt_clust_8="13000.00000" pt_clust_9="13000.00000"></scales>
<clustering>
<clus scale="   78.820">  5  6 -1 -1</clus>
<clus scale="   87.881">  7  8 -1 -1</clus>
<clus scale="   70.610">  7  9 -1 -1</clus>
<clus scale="   96.963">  2  5  1 -1</clus>
<clus scale="  170.510">  1  5  2 -1</clus>
</clustering>
</event>
<event>
 9    2  0.2147756E-005  0.1287150E+03  0.7546771E-02  0.1252683E+00
         21   -1    0    0  501  502  0.00000000000E+00  0.00000000000E+00  0.58460737055E+02  0.58460737055E+02  0.00000000000E+00 0. -1.
          2   -1    0    0  502    0 -0.00000000000E+00 -0.00000000000E+00 -0.19789245961E+03  0.19789245961E+03  0.00000000000E+00 0. -1.
         24    2    1    2    0    0 -0.80829373817E+01 -0.76297034901E+01 -0.84140696210E+02  0.11626518505E+03  0.79463137643E+02 0.  0.
         23    2    1    2    0    0 -0.22064331763E+02  0.84501034743E+01 -0.57632401987E+02  0.10983883092E+03  0.90470083643E+02 0.  0.
        -13    1    3    3    0    0 -0.12401903035E+02 -0.42891901762E+02 -0.49123197689E+02  0.66382309292E+02  0.00000000000E+00 0.  1.
         14    1    3    3    0    0  0.43189656531E+01  0.35262198272E+02 -0.35017498521E+02  0.49882875759E+02  0.00000000000E+00 0. -1.
        -11    1    4    4    0    0  0.17362919793E+02  0.31755729691E+02  0.40102773756E-01  0.36192526302E+02  0.00000000000E+00 0.  1.
         11    1    4    4    0    0 -0.39427251556E+02 -0.23305626216E+02 -0.57672504761E+02  0.73646304618E+02  0.00000000000E+00 0. -1.
          1    1    1    2  501    0  0.30147269145E+02 -0.82039998418E+00  0.23413756376E+01  0.30249180698E+02  0.00000000000E+00 0. -1.
<scales pt_clust_5="13000.00000" pt_clust_6="13000.00000" pt_clust_7="13000.00000" pt_clust_8="13000.00000" pt_clust_9="13000.00000"></scales>
<clustering>
<clus scale="   79.463">  5  6 -1 -1</clus>
<clus scale="   80.237">  2  5  1 -1</clus>
<clus scale="   90.470">  7  8 -1 -1</clus>
<clus scale="   29.056">  7  9 -1 -1</clus>
<clus scale="  128.715">  1  5  2 -1</clus>
</clustering>
</event>
<event>
 9    2  0.2147756E-005  0.2747947E+03  0.7546771E-02  0.1135817E+00
         21   -1    0    0  501  502  0.00000000000E+00  0.00000000000E+00  0.22352268969E+03  0.22352268969E+03  0.00000000000E+00 0. -1.
          2   -1    0    0  502    0 -0.00000000000E+00 -0.00000000000E+00 -0.18229755192E+03  0.18229755192E+03  0.00000000000E+00 0. -1.
         24    2    1    2    0    0  0.57965795661E+02 -0.42355346825E+02  0.71633773462E+02  0.12934813690E+03  0.80284084033E+02 0.  0.
         23    2    1    2    0    0  0.38319100927E+02  0.10373612960E+03 -0.64836147894E+02  0.15720922111E+03  0.91002610111E+02 0.  0.
        -13    1    3    3    0    0  0.18519636815E+02 -0.45395997425E+02  0.17703306134E+01  0.49060244602E+02  0.00000000000E+00 0.  1.
         14    1    3    3    0    0  0.39446158846E+02  0.30406505991E+01  0.69863442848E+02  0.80287892303E+02  0.00000000000E+00 0. -1.
        -13    1    4    4    0    0  0.24716961940E+02  0.17783182335E+02  0.19392346728E+02  0.36100317078E+02  0.00000000000E+00 0.  1.
         13    1    4    4    0    0  0.13602138987E+02  0.85952947270E+02 -0.84228494622E+02  0.12110890403E+03  0.00000000000E+00 0. -1.
          1    1    1    2  501    0 -0.96284896587E+02 -0.61380782779E+02  0.34427512202E+02  0.11926288359E+03  0.00000000000E+00 0. -1.
<scales pt_clust_5="13000.00000" pt_clust_6="13000.00000" pt_clust_7="13000.00000" pt_clust_8="13000.00000" pt_clust_9="13000.00000"></scales>
<clustering>
<clus scale="   80.284">  5  6 -1 -1</clus>
<clus scale="   91.003">  7  8 -1 -1</clus>
<clus scale="  107.701">  2  5  1 -1</clus>
<clus scale="  108.554">  7  9 -1 -1</clus>
<clus scale="  274.795">  1  5  2 -1</clus>
</clustering>
</event>
<event>
 9    2  0.2147756E-005  0.2894088E+03  0.7546771E-02  0.1140592E+00
          2   -1    0    0  502    0 -0.00000000000E+00  0.00000000000E+00  0.74783637019E+02  0.74783637019E+02  0.00000000000E+00 0. -1.
         21   -1    0    0  501  502  0.00000000000E+00 -0.00000000000E+00 -0.58292774242E+03  0.58292774242E+03  0.00000000000E+00 0. -1.
         24    2    1    2    0    0  0.98353923059E+01 -0.81085416576E+01 -0.11555439760E+02  0.82943810502E+02  0.81139781383E+02 0.  0.
         23    2    1    2    0    0 -0.13099906515E+03 -0.19089287680E+02 -0.32720953161E+03  0.36474459738E+03  0.91909671783E+02 0.  0.
        -13    1    3    3    0    0  0.24758835189E+02  0.30094013189E+02  0.37886037996E+01  0.39153583087E+02  0.00000000000E+00 0.  1.
         14    1    3    3    0    0 -0.14923442884E+02 -0.38202554847E+02 -0.15344043560E+02  0.43790227415E+02  0.00000000000E+00 0. -1.
        -13    1    4    4    0    0 -0.86622853824E+02  0.81375057311E+01 -0.28418340862E+03  0.29720354564E+03  0.00000000000E+00 0.  1.
         13    1    4    4    0    0 -0.44376211323E+02 -0.27226793411E+02 -0.43026122987E+02  0.67541051740E+02  0.00000000000E+00 0. -1.
          1    1    1    2  501    0  0.12116367284E+03  0.27197829337E+02 -0.16937913403E+03  0.21002297156E+03  0.00000000000E+00 0. -1.
<scales pt_clust_5="13000.00000" pt_clust_6="13000.00000" pt_clust_7="13000.00000" pt_clust_8="13000.00000" pt_clust_9="13000.00000"></scales>
<clustering>
<clus scale="   81.140">  5  6 -1 -1</clus>
<clus scale="   82.135">  1  5  2 -1</clus>
<clus scale="   91.910">  7  8 -1 -1</clus>
<clus scale="  128.351">  7  9 -1 -1</clus>
<clus scale="  289.409">  2  5  1 -1</clus>
</clustering>
</event>
<event>
 9    2  0.2147756E-005  0.5116953E+03  0.7546771E-02  0.1073881E+00
         21   -1    0    0  501  502  0.00000000000E+00  0.00000000000E+00  0.25564785336E+03  0.25564785336E+03  0.00000000000E+00 0.  1.
         -3   -1    0    0    0  501 -0.00000000000E+00 -0.00000000000E+00 -0.58607758592E+03  0.58607758592E+03  0.00000000000E+00 0.  1.
         24    2    1    2    0    0  0.67733429111E+01 -0.21399598225E+02 -0.31952955882E+03  0.32991403810E+03  0.78995649231E+02 0.  0.
         23    2    1    2    0    0  0.55105992202E+02  0.18228564685E+02 -0.24666459998E+03  0.26804107435E+03  0.87370714261E+02 0.  0.
        -13    1    3    3    0    0 -0.22675476505E+02 -0.34317110604E+02 -0.10136831971E+03  0.10939550976E+03  0.00000000000E+00 0.  1.
         14    1    3    3    0    0  0.29448819416E+02  0.12917512379E+02 -0.21816123911E+03  0.22051852834E+03  0.00000000000E+00 0. -1.
        -13    1    4    4    0    0  0.59224630892E+02  0.41800395302E+02 -0.12904101651E+03  0.14800815482E+03  0.00000000000E+00 0.  1.
         13    1    4    4    0    0 -0.41186386898E+01 -0.23571830617E+02 -0.11762358347E+03  0.12003291953E+03  0.00000000000E+00 0. -1.
         -4    1    1    2    0  502 -0.61879335114E+02  0.31710335395E+01  0.23576442623E+03  0.24377032683E+03  0.00000000000E+00 0.  1.
<scales pt_clust_5="13000.00000" pt_clust_6="13000.00000" pt_clust_7="13000.00000" pt_clust_8="13000.00000" pt_clust_9="13000.00000"></scales>
<clustering>
<clus scale="   78.996">  5  6 -1 -1</clus>
<clus scale="   82.123">  2  5  1 -1</clus>
<clus scale="   87.371">  7  8 -1 -1</clus>
<clus scale="   61.841">  7  9 -1 -1</clus>
<clus scale="  511.695">  1  5  2 -1</clus>
</clustering>
</event>
<event>
 9    2  0.2147756E-005  0.2031287E+03  0.7546771E-02  0.1178093E+00
         21   -1    0    0  501  502  0.00000000000E+00  0.00000000000E+00  0.17078562589E+03  0.17078562589E+03  0.00000000000E+00 0. -1.
          2   -1    0    0  502    0 -0.00000000000E+00 -0.00000000000E+00 -0.43316428967E+03  0.43316428967E+03  0.00000000000E+00 0. -1.
         24    2    1    2    0    0  0.96092445872E+01 -0.51880638147E+02 -0.36369557793E+03  0.37695563542E+03  0.83887659843E+02 0.  0.
         23    2    1    2    0    0 -0.58851329322E+02  0.13392401214E+02  0.11864342420E+03  0.16213801412E+03  0.92572340058E+02 0.  0.
        -11    1    3    3    0    0  0.45118683185E+02 -0.14429671096E+02 -0.16472447787E+03  0.17140030510E+03  0.00000000000E+00 0.  1.
         12    1    3    3    0    0 -0.35509438598E+02 -0.37450967051E+02 -0.19897110006E+03  0.20555533032E+03  0.00000000000E+00 0. -1.
        -11    1    4    4    0    0 -0.41686337112E+02 -0.16746925880E+02  0.11926756215E+03  0.12744787801E+03  0.00000000000E+00 0. -1.
         11    1    4    4    0    0 -0.17164992210E+02  0.30139327094E+02 -0.62413794785E+00  0.34690136111E+02  0.00000000000E+00 0.  1.
          1    1    1    2  501    0  0.49242084735E+02  0.38488236933E+02 -0.17326510050E+02  0.64856266018E+02  0.00000000000E+00 0. -1.
<scales pt_clust_5="13000.00000" pt_clust_6="13000.00000" pt_clust_7="13000.00000" pt_clust_8="13000.00000" pt_clust_9="13000.00000"></scales>
<clustering>
<clus scale="   83.888">  5  6 -1 -1</clus>
<clus scale="   92.572">  7  8 -1 -1</clus>
<clus scale="   62.499">  7  9 -1 -1</clus>
<clus scale="   99.101">  2  5  1 -1</clus>
<clus scale="  203.129">  1  5  2 -1</clus>
</clustering>
</event>
<event>
 9    2  0.2147756E-005  0.2721712E+03  0.7546771E-02  0.1144109E+00
          4   -1    0    0  502    0 -0.00000000000E+00  0.00000000000E+00  0.68964587961E+02  0.68964587961E+02  0.00000000000E+00 0. -1.
         21   -1    0    0  501  502  0.00000000000E+00 -0.00000000000E+00 -0.49208156854E+03  0.49208156854E+03  0.00000000000E+00 0. -1.
         24    2    1    2    0    0  0.45160886902E+02 -0.35400652850E+01 -0.15102951491E+03  0.17619716271E+03  0.78635157560E+02 0.  0.
         23    2    1    2    0    0 -0.11933534554E+03 -0.44512761218E+02 -0.24536399728E+03  0.29251769784E+03  0.95607540411E+02 0.  0.
        -11    1    3    3    0    0 -0.20451986198E+02 -0.84715635050E+00 -0.63860048997E+02  0.67060474731E+02  0.00000000000E+00 0.  1.
         12    1    3    3    0    0  0.65612873100E+02 -0.26929089345E+01 -0.87169465915E+02  0.10913668798E+03  0.00000000000E+00 0. -1.
        -11    1    4    4    0    0 -0.66280680824E+01 -0.21515669906E+02 -0.12114301322E+03  0.12321722684E+03  0.00000000000E+00 0.  1.
         11    1    4    4    0    0 -0.11270727746E+03 -0.22997091312E+02 -0.12422098406E+03  0.16930047100E+03  0.00000000000E+00 0. -1.
          3    1    1    2  501    0  0.74174458640E+02  0.48052826503E+02 -0.26723468392E+02  0.92331295953E+02  0.00000000000E+00 0. -1.
<scales pt_clust_5="13000.00000" pt_clust_6="13000.00000" pt_clust_7="13000.00000" pt_clust_8="13000.00000" pt_clust_9="13000.00000"></scales>
<clustering>
<clus scale="   78.635">  5  6 -1 -1</clus>
<clus scale="   90.750">  1  5  2 -1</clus>
<clus scale="   95.608">  7  8 -1 -1</clus>
<clus scale="  110.479">  7  9 -1 -1</clus>
<clus scale="  272.171">  2  5  1 -1</clus>
</clustering>
</event>
<event>
 9    2  0.2147756E-005  0.9578135E+03  0.7546771E-02  0.9485408E-01
         21   -1    0    0  501  502  0.00000000000E+00  0.00000000000E+00  0.40767497397E+03  0.40767497397E+03  0.00000000000E+00 0. -1.
          2   -1    0    0  502    0 -0.00000000000E+00 -0.00000000000E+00 -0.16443082634E+04  0.16443082634E+04  0.00000000000E+00 0. -1.
         24    2    1    2    0    0 -0.59639811256E+03  0.56710922180E+02 -0.79121890646E+03  0.99566858479E+03  0.80135731406E+02 0.  0.
         23    2    1    2    0    0 -0.15533812544E+03  0.47953701614E+02 -0.23665779248E+02  0.18802095817E+03  0.91445726463E+02 0.  0.
        -11    1    3    3    0    0 -0.20567978102E+03  0.44443526681E+02 -0.32603663966E+03  0.38804547386E+03  0.00000000000E+00 0.  1.
         12    1    3    3    0    0 -0.39071833154E+03  0.12267395500E+02 -0.46518226679E+03  0.60762311093E+03  0.00000000000E+00 0. -1.
        -11    1    4    4    0    0 -0.10942009767E+03  0.52401284426E+02 -0.54013606930E+02  0.13280106219E+03  0.00000000000E+00 0.  1.
         11    1    4    4    0    0 -0.45918027769E+02 -0.44475828119E+01  0.30347827682E+02  0.55219895980E+02  0.00000000000E+00 0. -1.
          1    1    1    2  501    0  0.75173623800E+03 -0.10466462379E+03 -0.42174860371E+03  0.86829369439E+03  0.00000000000E+00 0. -1.
<scales pt_clust_5="13000.00000" pt_clust_6="13000.00000" pt_clust_7="13000.00000" pt_clust_8="13000.00000" pt_clust_9="13000.00000"></scales>
<clustering>
<clus scale="   80.136">  5  6 -1 -1</clus>
<clus scale="   91.446">  7  8 -1 -1</clus>
<clus scale="  604.424">  2  5  1 -1</clus>
<clus scale="  245.858">  7  9 -1 -1</clus>
<clus scale="  957.813">  1  5  2 -1</clus>
</clustering>
</event>
<event>
 9    2  0.2147756E-005  0.4233969E+03  0.7546771E-02  0.1073945E+00
          2   -1    0    0  502    0 -0.00000000000E+00  0.00000000000E+00  0.76577145211E+03  0.76577145211E+03  0.00000000000E+00 0. -1.
         21   -1    0    0  501  502  0.00000000000E+00 -0.00000000000E+00 -0.18029298939E+03  0.18029298939E+03  0.00000000000E+00 0. -1.
         24    2    1    2    0    0  0.11962744617E+03 -0.11260172070E+02 -0.73876361363E+02  0.16247415364E+03  0.80638802577E+02 0.  0.
         23    2    1    2    0    0  0.13430298649E+03  0.29310758010E+02  0.20936306022E+03  0.26658054345E+03  0.91301053909E+02 0.  0.
        -11    1    3    3    0    0  0.87685732515E+02 -0.25608159827E+02 -0.13032414083E+02  0.92273557173E+02  0.00000000000E+00 0.  1.
         12    1    3    3    0    0  0.31941713653E+02  0.14347987757E+02 -0.60843947280E+02  0.70200596468E+02  0.00000000000E+00 0. -1.
        -11    1    4    4    0    0  0.35109221176E+02 -0.32448693111E+02  0.52927666747E+02  0.71322598127E+02  0.00000000000E+00 0. -1.
         11    1    4    4    0    0  0.99193765312E+02  0.61759451122E+02  0.15643539347E+03  0.19525794532E+03  0.00000000000E+00 0.  1.
          1    1    1    2  501    0 -0.25393043266E+03 -0.18050585940E+02  0.44999176386E+03  0.51700974442E+03  0.00000000000E+00 0. -1.
<scales pt_clust_5="13000.00000" pt_clust_6="13000.00000" pt_clust_7="13000.00000" pt_clust_8="13000.00000" pt_clust_9="13000.00000"></scales>
<clustering>
<clus scale="   80.639">  5  6 -1 -1</clus>
<clus scale="   91.301">  7  8 -1 -1</clus>
<clus scale="  144.707">  1  5  2 -1</clus>
<clus scale="  175.636">  7  9 -1 -1</clus>
<clus scale="  423.397">  2  5  1 -1</clus>
</clustering>
</event>
<event>
 9    2  0.2147756E-005  0.1505123E+03  0.7546771E-02  0.1229579E+00
         21   -1    0    0  501  502  0.00000000000E+00  0.00000000000E+00  0.50255650254E+03  0.50255650254E+03  0.00000000000E+00 0.  1.
          2   -1    0    0  502    0 -0.00000000000E+00 -0.00000000000E+00 -0.91555888172E+02  0.91555888172E+02  0.00000000000E+00 0. -1.
         24    2    1    2    0    0  0.23403232196E+02  0.55746970552E+01 -0.59689346019E+02  0.99943402969E+02  0.76466183666E+02 0.  0.
         23    2    1    2    0    0 -0.53364215412E+02  0.15126902067E+01  0.24023016020E+03  0.26166175974E+03  0.88917483769E+02 0.  0.
        -13    1    3    3    0    0  0.17698416688E+01 -0.24820885266E+02  0.48920450955E+01  0.25360220625E+02  0.00000000000E+00 0.  1.
         14    1    3    3    0    0  0.21633390527E+02  0.30395582321E+02 -0.64581391115E+02  0.74583182345E+02  0.00000000000E+00 0. -1.
        -11    1    4    4    0    0 -0.13253385438E+02  0.38574034630E+02  0.54521046311E+02  0.68089300658E+02  0.00000000000E+00 0. -1.
         11    1    4    4    0    0 -0.40110829974E+02 -0.37061344424E+02  0.18570911389E+03  0.19357245908E+03  0.00000000000E+00 0.  1.
          1    1    1    2  501    0  0.29960983216E+02 -0.70873872619E+01  0.23045980018E+03  0.23250722800E+03  0.00000000000E+00 0. -1.
<scales pt_clust_5="13000.00000" pt_clust_6="13000.00000" pt_clust_7="13000.00000" pt_clust_8="13000.00000" pt_clust_9="13000.00000"></scales>
<clustering>
<clus scale="   76.466">  5  6 -1 -1</clus>
<clus scale="   80.161">  2  5  1 -1</clus>
<clus scale="   88.917">  7  8 -1 -1</clus>
<clus scale="   32.676">  7  9 -1 -1</clus>
<clus scale="  150.512">  1  5  2 -1</clus>
</clustering>
</event>
<event>
 9    2  0.2147756E-005  0.3553339E+03  0.7546771E-02  0.1082103E+00
         21   -1    0    0  501  502  0.00000000000E+00  0.00000000000E+00  0.81251489664E+03  0.81251489664E+03  0.00000000000E+00 0.  1.
         -3   -1    0    0    0  501 -0.00000000000E+00 -0.00000000000E+00 -0.18407378471E+03  0.18407378471E+03  0.00000000000E+00 0.  1.
         24    2    1    2    0    0  0.17891329679E+03 -0.10083762115E+02  0.60994917775E+03  0.64077388782E+03  0.80259116969E+02 0.  0.
         23    2    1    2    0    0 -0.68856014798E+01  0.21554203076E+01  0.12326343403E+03  0.15423737976E+03  0.92429637036E+02 0.  0.
        -13    1    3    3    0    0  0.14628340579E+03 -0.36674566577E+02  0.52064127819E+03  0.54204353995E+03  0.00000000000E+00 0.  1.
         14    1    3    3    0    0  0.32629891001E+02  0.26590804462E+02  0.89307899554E+02  0.98730347875E+02  0.00000000000E+00 0. -1.
        -11    1    4    4    0    0  0.39070869061E+02 -0.99542576486E+01  0.81675647542E+02  0.91085297693E+02  0.00000000000E+00 0. -1.
         11    1    4    4    0    0 -0.45956470540E+02  0.12109677956E+02  0.41587786491E+02  0.63152082071E+02  0.00000000000E+00 0.  1.
         -4    1    1    2    0  502 -0.17202769531E+03  0.79283418072E+01 -0.10477149986E+03  0.20157741376E+03  0.00000000000E+00 0.  1.
<scales pt_clust_5="13000.00000" pt_clust_6="13000.00000" pt_clust_7="13000.00000" pt_clust_8="13000.00000" pt_clust_9="13000.00000"></scales>
<clustering>
<clus scale="   80.259">  5  6 -1 -1</clus>
<clus scale="   92.430">  7  8 -1 -1</clus>
<clus scale="  172.210">  7  9 -1 -1</clus>
<clus scale="  196.350">  2  5  1 -1</clus>
<clus scale="  355.334">  1  5  2 -1</clus>
</clustering>
</event>
<event>
 9    2  0.2147756E-005  0.1876443E+03  0.7546771E-02  0.1193775E+00
         -1   -1    0    0    0  501 -0.00000000000E+00  0.00000000000E+00  0.32180690921E+02  0.32180690921E+02  0.00000000000E+00 0.  1.
         21   -1    0    0  501  502  0.00000000000E+00 -0.00000000000E+00 -0.94959925951E+03  0.94959925951E+03  0.00000000000E+00 0.  1.
         24    2    1    2    0    0 -0.14857621552E+02 -0.35655434373E+02 -0.67651501521E+02  0.11154180069E+03  0.79829748367E+02 0.  0.
         23    2    1    2    0    0 -0.54736433914E+02  0.33073001420E+02 -0.35862633297E+03  0.37418450123E+03  0.85506102925E+02 0.  0.
        -11    1    3    3    0    0 -0.39373219280E+02 -0.40983221895E+02 -0.25062496947E+02  0.62112829807E+02  0.00000000000E+00 0.  1.
         12    1    3    3    0    0  0.24515597728E+02  0.53277875226E+01 -0.42589004574E+02  0.49428970882E+02  0.00000000000E+00 0. -1.
        -13    1    4    4    0    0 -0.56608509876E+02 -0.12957131948E+02 -0.15792364238E+03  0.16826255519E+03  0.00000000000E+00 0.  1.
         13    1    4    4    0    0  0.18720759616E+01  0.46030133368E+02 -0.20070269060E+03  0.20592194604E+03  0.00000000000E+00 0. -1.
         -2    1    1    2    0  502  0.69594055466E+02  0.25824329531E+01 -0.49114073409E+03  0.49605364851E+03  0.00000000000E+00 0.  1.
<scales pt_clust_5="13000.00000" pt_clust_6="13000.00000" pt_clust_7="13000.00000" pt_clust_8="13000.00000" pt_clust_9="13000.00000"></scales>
<clustering>
<clus scale="   79.830">  5  6 -1 -1</clus>
<clus scale="   85.506">  7  8 -1 -1</clus>
<clus scale="   69.642">  7  9 -1 -1</clus>
<clus scale="   88.684">  1  5  2 -1</clus>
<clus scale="  187.644">  2  5  1 -1</clus>
</clustering>
</event>
<event>
 9    2  0.2147756E-005  0.2563499E+03  0.7546771E-02  0.1145919E+00
         21   -1    0    0  501  502  0.00000000000E+00  0.00000000000E+00  0.10500137313E+03  0.10500137313E+03  0.00000000000E+00 0. -1.
          2   -1    0    0  502    0 -0.00000000000E+00 -0.00000000000E+00 -0.49532182718E+03  0.49532182718E+03  0.00000000000E+00 0. -1.
         24    2    1    2    0    0 -0.19093776872E+02  0.64337376610E+02 -0.31709826621E+03  0.33372099565E+03  0.79463967673E+02 0.  0.
         23    2    1    2    0    0  0.93695094160E+01 -0.36016741342E+00 -0.14374584482E+03  0.17088788564E+03  0.91934129282E+02 0.  0.
        -11    1    3    3    0    0 -0.62152112075E+01  0.28823759022E+02 -0.23507842075E+02  0.37710165387E+02  0.00000000000E+00 0.  1.
         12    1    3    3    0    0 -0.12878565665E+02  0.35513617588E+02 -0.29359042414E+03  0.29601083026E+03  0.00000000000E+00 0. -1.
        -11    1    4    4    0    0 -0.27016341216E+02 -0.33578969422E+02 -0.64436524599E+02  0.77520936414E+02  0.00000000000E+00 0. -1.
         11    1    4    4    0    0  0.36385850632E+02  0.33218802009E+02 -0.79309320220E+02  0.93366949221E+02  0.00000000000E+00 0.  1.
          1    1    1    2  501    0  0.97242674561E+01 -0.63977209196E+02  0.70523656972E+02  0.95714319027E+02  0.00000000000E+00 0. -1.
<scales pt_clust_5="13000.00000" pt_clust_6="13000.00000" pt_clust_7="13000.00000" pt_clust_8="13000.00000" pt_clust_9="13000.00000"></scales>
<clustering>
<clus scale="   79.464">  5  6 -1 -1</clus>
<clus scale="   91.934">  7  8 -1 -1</clus>
<clus scale="   64.712">  7  9 -1 -1</clus>
<clus scale="  104.012">  2  5  1 -1</clus>
<clus scale="  256.350">  1  5  2 -1</clus>
</clustering>
</event>
<event>
 9    2  0.2648246E-005  0.8818805E+03  0.7546771E-02  0.9903593E-01
         21   -1    0    0  501  502  0.00000000000E+00  0.00000000000E+00  0.35840117026E+03  0.35840117026E+03  0.00000000000E+00 0.  1.
          2   -1    0    0  502    0 -0.00000000000E+00 -0.00000000000E+00 -0.85207647003E+03  0.85207647003E+03  0.00000000000E+00 0. -1.
         24    2    1    2    0    0  0.15225950152E+03  0.79328893587E+02  0.17982344683E+02  0.19091561023E+03  0.81543708199E+02 0.  0.
         23    2    1    2    0    0  0.27181301082E+03  0.16940472794E+03 -0.35934629446E+02  0.33544340203E+03  0.93009159082E+02 0.  0.
        -11    1    3    3    0    0  0.24088572465E+02 -0.17188612249E+02  0.39674444217E+01  0.29857131974E+02  0.00000000000E+00 0.  1.
         12    1    3    3    0    0  0.12817092906E+03  0.96517505836E+02  0.14014900262E+02  0.16105847825E+03  0.00000000000E+00 0. -1.
        -13    1    4    4    0    0  0.15914138597E+03  0.73955379805E+02  0.21915401616E+02  0.17684926847E+03  0.00000000000E+00 0. -1.
         13    1    4    4    0    0  0.11267162485E+03  0.95449348137E+02 -0.57850031062E+02  0.15859413356E+03  0.00000000000E+00 0.  1.
          1    1    1    2  501    0 -0.42407251234E+03 -0.24873362153E+03 -0.47572301501E+03  0.68411862803E+03  0.00000000000E+00 0. -1.
<scales pt_clust_5="13000.00000" pt_clust_6="13000.00000" pt_clust_7="13000.00000" pt_clust_8="13000.00000" pt_clust_9="13000.00000"></scales>
<clustering>
<clus scale="   81.544">  5  6 -1 -1</clus>
<clus scale="   93.009">  7  8 -1 -1</clus>
<clus scale="  190.067">  2  5  1 -1</clus>
<clus scale="  361.813">  7  9 -1 -1</clus>
<clus scale="  881.880">  1  5  2 -1</clus>
</clustering>
</event>
<event>
 9    2  0.2147756E-005  0.5324863E+03  0.7546771E-02  0.1048050E+00
         21   -1    0    0  501  502  0.00000000000E+00  0.00000000000E+00  0.62993038446E+02  0.62993038446E+02  0.00000000000E+00 0.  1.
          2   -1    0    0  502    0 -0.00000000000E+00 -0.00000000000E+00 -0.18753762280E+04  0.18753762280E+04  0.00000000000E+00 0. -1.
         24    2    1    2    0    0 -0.27610010499E+02  0.12367688160E+03 -0.50221695830E+03  0.52412840070E+03  0.80189921343E+02 0.  0.
         23    2    1    2    0    0  0.21325245329E+03  0.44413334891E+02 -0.34768134736E+03  0.41970851878E+03  0.88452067741E+02 0.  0.
        -13    1    3    3    0    0 -0.53994034118E+02  0.98658319184E+02 -0.40531750551E+03  0.42063178665E+03  0.00000000000E+00 0.  1.
         14    1    3    3    0    0  0.26384023620E+02  0.25018562421E+02 -0.96899452793E+02  0.10349661405E+03  0.00000000000E+00 0. -1.
        -13    1    4    4    0    0  0.37487324127E+02  0.35654817261E+02 -0.12915018537E+03  0.13912704929E+03  0.00000000000E+00 0. -1.
         13    1    4    4    0    0  0.17576512916E+03  0.87585176306E+01 -0.21853116199E+03  0.28058146949E+03  0.00000000000E+00 0.  1.
          1    1    1    2  501    0 -0.18564244279E+03 -0.16809021650E+03 -0.96248488388E+03  0.99453234695E+03  0.00000000000E+00 0. -1.
<scales pt_clust_5="13000.00000" pt_clust_6="13000.00000" pt_clust_7="13000.00000" pt_clust_8="13000.00000" pt_clust_9="13000.00000"></scales>
<clustering>
<clus scale="   80.190">  5  6 -1 -1</clus>
<clus scale="   88.452">  7  8 -1 -1</clus>
<clus scale="  149.962">  2  5  1 -1</clus>
<clus scale="  220.229">  7  9 -1 -1</clus>
<clus scale="  532.486">  1  5  2 -1</clus>
</clustering>
</event>
<event>
 9    2  0.2147756E-005  0.3883928E+03  0.7546771E-02  0.1064719E+00
         -1   -1    0    0    0  501 -0.00000000000E+00  0.00000000000E+00  0.14817000048E+03  0.14817000048E+03  0.00000000000E+00 0.  1.
         21   -1    0    0  501  502  0.00000000000E+00 -0.00000000000E+00 -0.66965210154E+03  0.66965210154E+03  0.00000000000E+00 0. -1.
         24    2    1    2    0    0 -0.15137744318E+03  0.17048443177E+03 -0.20301002952E+03  0.31555384972E+03  0.79881713853E+02 0.  0.
         23    2    1    2    0    0 -0.22367311249E+02  0.51461315062E+01  0.62938087624E+01  0.94216525850E+02  0.91161189288E+02 0.  0.
        -11    1    3    3    0    0 -0.71059793635E+02  0.25524089775E+02 -0.55756786041E+02  0.93860495524E+02  0.00000000000E+00 0.  1.
         12    1    3    3    0    0 -0.80317649543E+02  0.14496034200E+03 -0.14725324347E+03  0.22169335419E+03  0.00000000000E+00 0. -1.
        -11    1    4    4    0    0  0.35018771865E+02  0.29130164667E+01  0.10383035343E+02  0.36641608464E+02  0.00000000000E+00 0.  1.
         11    1    4    4    0    0 -0.57386083114E+02  0.22331150395E+01 -0.40892265808E+01  0.57574917386E+02  0.00000000000E+00 0. -1.
         -2    1    1    2    0  502  0.17374475443E+03 -0.17563056328E+03 -0.32476588031E+03  0.40805172645E+03  0.00000000000E+00 0.  1.
<scales pt_clust_5="13000.00000" pt_clust_6="13000.00000" pt_clust_7="13000.00000" pt_clust_8="13000.00000" pt_clust_9="13000.00000"></scales>
<clustering>
<clus scale="   79.882">  5  6 -1 -1</clus>
<clus scale="   91.161">  7  8 -1 -1</clus>
<clus scale="  241.581">  1  5  2 -1</clus>
<clus scale="  143.994">  7  9 -1 -1</clus>
<clus scale="  388.393">  2  5  1 -1</clus>
</clustering>
</event>
<event>
 9    2  0.2147756E-005  0.2118907E+03  0.7546771E-02  0.1177688E+00
          4   -1    0    0  502    0 -0.00000000000E+00  0.00000000000E+00  0.29321599274E+03  0.29321599274E+03  0.00000000000E+00 0. -1.
         21   -1    0    0  501  502  0.00000000000E+00 -0.00000000000E+00 -0.76736866205E+02  0.76736866205E+02  0.00000000000E+00 0. -1.
         24    2    1    2    0    0  0.32055723295E+02 -0.19856662615E+02  0.63016385132E+02  0.10832623044E+03  0.79634483489E+02 0.  0.
         23    2    1    2    0    0 -0.92297052193E+02 -0.10711292656E+02  0.53348665710E+02  0.14085309767E+03  0.91433239893E+02 0.  0.
        -13    1    3    3    0    0  0.25460613881E+02  0.28573664944E+02  0.19832775208E+02  0.43104943567E+02  0.00000000000E+00 0.  1.
         14    1    3    3    0    0  0.65951094146E+01 -0.48430327558E+02  0.43183609924E+02  0.65221286875E+02  0.00000000000E+00 0. -1.
        -13    1    4    4    0    0  0.11045666688E+02 -0.19682314164E+02 -0.30598274806E+01  0.22776364671E+02  0.00000000000E+00 0.  1.
         13    1    4    4    0    0 -0.10334271888E+03  0.89710215075E+01  0.56408493191E+02  0.11807673300E+03  0.00000000000E+00 0. -1.
          3    1    1    2  501    0  0.60241328898E+02  0.30567955271E+02  0.10011407570E+03  0.12077353083E+03  0.00000000000E+00 0. -1.
<scales pt_clust_5="13000.00000" pt_clust_6="13000.00000" pt_clust_7="13000.00000" pt_clust_8="13000.00000" pt_clust_9="13000.00000"></scales>
<clustering>
<clus scale="   79.634">  5  6 -1 -1</clus>
<clus scale="   88.111">  1  5  2 -1</clus>
<clus scale="   91.433">  7  8 -1 -1</clus>
<clus scale="   79.845">  7  9 -1 -1</clus>
<clus scale="  211.891">  2  5  1 -1</clus>
</clustering>
</event>
<event>
 9    2  0.2147756E-005  0.6537293E+03  0.7546771E-02  0.1005436E+00
          2   -1    0    0  502    0 -0.00000000000E+00  0.00000000000E+00  0.16272907360E+04  0.16272907360E+04  0.00000000000E+00 0. -1.
         21   -1    0    0  501  502  0.00000000000E+00 -0.00000000000E+00 -0.43050830678E+03  0.43050830678E+03  0.00000000000E+00 0.  1.
         24    2    1    2    0    0  0.27716885972E+03 -0.24427902233E+02  0.13546787800E+04  0.13852715537E+04  0.80021129704E+02 0.  0.
         23    2    1    2    0    0  0.12610676134E+03  0.18781042755E+02 -0.21280461805E+03  0.26549182561E+03  0.94575161539E+02 0.  0.
        -13    1    3    3    0    0  0.14470911121E+03  0.26340518449E+02  0.64577928155E+03  0.66231822432E+03  0.00000000000E+00 0.  1.
         14    1    3    3    0    0  0.13245974851E+03 -0.50768420681E+02  0.70889949844E+03  0.72295332934E+03  0.00000000000E+00 0. -1.
        -13    1    4    4    0    0  0.70899695900E+02 -0.79576006571E+01 -0.18473500658E+03  0.19803311072E+03  0.00000000000E+00 0.  1.
         13    1    4    4    0    0  0.55207065439E+02  0.26738643412E+02 -0.28069611468E+02  0.67458714885E+02  0.00000000000E+00 0. -1.
          1    1    1    2  501    0 -0.40327562105E+03  0.56468594782E+01  0.54908267278E+02  0.40703566352E+03  0.00000000000E+00 0. -1.
<scales pt_clust_5="13000.00000" pt_clust_6="13000.00000" pt_clust_7="13000.00000" pt_clust_8="13000.00000" pt_clust_9="13000.00000"></scales>
<clustering>
<clus scale="   80.021">  5  6 -1 -1</clus>
<clus scale="   94.575">  7  8 -1 -1</clus>
<clus scale="  289.521">  1  5  2 -1</clus>
<clus scale="  155.338">  7  9 -1 -1</clus>
<clus scale="  653.729">  2  5  1 -1</clus>
</clustering>
</event>
<event>
 9    2  0.2147756E-005  0.3472974E+03  0.7546771E-02  0.1108526E+00
          2   -1    0    0  502    0 -0.00000000000E+00  0.00000000000E+00  0.12174013080E+04  0.12174013080E+04  0.00000000000E+00 0. -1.
         21   -1    0    0  501  502  0.00000000000E+00 -0.00000000000E+00 -0.48640543580E+02  0.48640543580E+02  0.00000000000E+00 0. -1.
         24    2    1    2    0    0  0.41857625805E+02 -0.54838042239E+02  0.51607301598E+03  0.52670646917E+03  0.79555484551E+02 0.  0.
         23    2    1    2    0    0 -0.11594873864E+03 -0.13260813781E+02  0.10280067795E+03  0.18031593957E+03  0.91246367052E+02 0.  0.
        -13    1    3    3    0    0  0.21911799986E+02  0.13631131570E+02  0.63406182597E+02  0.68456400125E+02  0.00000000000E+00 0.  1.
         14    1    3    3    0    0  0.19945825818E+02 -0.68469173809E+02  0.45266683338E+03  0.45825006904E+03  0.00000000000E+00 0. -1.
        -13    1    4    4    0    0 -0.76499861141E+02 -0.15086057803E+02  0.89377669584E+01  0.78483766302E+02  0.00000000000E+00 0. -1.
         13    1    4    4    0    0 -0.39448877500E+02  0.18252440222E+01  0.93862910996E+02  0.10183217327E+03  0.00000000000E+00 0.  1.
          1    1    1    2  501    0  0.74091112837E+02  0.68098856020E+02  0.54988707047E+03  0.55901944284E+03  0.00000000000E+00 0. -1.
<scales pt_clust_5="13000.00000" pt_clust_6="13000.00000" pt_clust_7="13000.00000" pt_clust_8="13000.00000" pt_clust_9="13000.00000"></scales>
<clustering>
<clus scale="   79.555">  5  6 -1 -1</clus>
<clus scale="   91.246">  7  8 -1 -1</clus>
<clus scale="  100.633">  7  9 -1 -1</clus>
<clus scale="  105.301">  1  5  2 -1</clus>
<clus scale="  347.297">  2  5  1 -1</clus>
</clustering>
</event>
<event>
 9    2  0.2147756E-005  0.2945394E+03  0.7546771E-02  0.1111980E+00
          2   -1    0    0  502    0 -0.00000000000E+00  0.00000000000E+00  0.55774461463E+03  0.55774461463E+03  0.00000000000E+00 0. -1.
         21   -1    0    0  501  502  0.00000000000E+00 -0.00000000000E+00 -0.95895081691E+02  0.95895081691E+02  0.00000000000E+00 0. -1.
         24    2    1    2    0    0  0.44065365509E+02  0.12822520007E+03  0.22853263306E+03  0.27788681310E+03  0.81304724068E+02 0.  0.
         23    2    1    2    0    0 -0.34018701453E+01  0.53653758475E+02  0.13981697484E+03  0.16724458267E+03  0.74375166952E+02 0.  0.
        -13    1    3    3    0    0 -0.49490060967E+01  0.56049367105E+02  0.36787542413E+02  0.67226092338E+02  0.00000000000E+00 0.  1.
         14    1    3    3    0    0  0.49014371606E+02  0.72175832960E+02  0.19174509064E+03  0.21066072077E+03  0.00000000000E+00 0. -1.
        -13    1    4    4    0    0  0.34792692621E+02  0.28220390481E+02  0.81907784640E+02  0.93358486938E+02  0.00000000000E+00 0.  1.
         13    1    4    4    0    0 -0.38194562767E+02  0.25433367993E+02  0.57909190203E+02  0.73886095731E+02  0.00000000000E+00 0. -1.
          1    1    1    2  501    0 -0.40663495364E+02 -0.18187895854E+03  0.93499925040E+02  0.20850830055E+03  0.00000000000E+00 0. -1.
<scales pt_clust_5="13000.00000" pt_clust_6="13000.00000" pt_clust_7="13000.00000" pt_clust_8="13000.00000" pt_clust_9="13000.00000"></scales>
<clustering>
<clus scale="   74.375">  7  8 -1 -1</clus>
<clus scale="   81.305">  5  6 -1 -1</clus>
<clus scale="  158.095">  1  5  2 -1</clus>
<clus scale="  119.785">  7  9 -1 -1</clus>
<clus scale="  294.539">  2  5  1 -1</clus>
</clustering>
</event>
<event>
 9    2  0.2147756E-005  0.9406187E+03  0.7546771E-02  0.9594116E-01
         21   -1    0    0  501  502  0.00000000000E+00  0.00000000000E+00  0.56020791087E+03  0.56020791087E+03  0.00000000000E+00 0. -1.
          2   -1    0    0  502    0 -0.00000000000E+00 -0.00000000000E+00 -0.86007637901E+03  0.86007637901E+03  0.00000000000E+00 0. -1.
         24    2    1    2    0    0 -0.19624160082E+03 -0.38315084178E+03 -0.16794454495E+02  0.43799388426E+03  0.79001617051E+02 0.  0.
         23    2    1    2    0    0  0.16441658942E+03 -0.19809135578E+03 -0.29363761589E+03  0.40008175465E+03  0.87002073721E+02 0.  0.
        -11    1    3    3    0    0 -0.11518254572E+03 -0.14569161225E+03 -0.22036706861E+02  0.18702588368E+03  0.00000000000E+00 0.  1.
         12    1    3    3    0    0 -0.81059055104E+02 -0.23745922953E+03  0.52422523665E+01  0.25096800058E+03  0.00000000000E+00 0. -1.
        -13    1    4    4    0    0  0.71081883576E+02 -0.52483474233E+02 -0.50709913426E+02  0.10187563281E+03  0.00000000000E+00 0. -1.
         13    1    4    4    0    0  0.93334705847E+02 -0.14560788154E+03 -0.24292770246E+03  0.29820612185E+03  0.00000000000E+00 0.  1.
          1    1    1    2  501    0  0.31825011397E+02  0.58124219755E+03  0.10563602241E+02  0.58220865097E+03  0.00000000000E+00 0. -1.
<scales pt_clust_5="13000.00000" pt_clust_6="13000.00000" pt_clust_7="13000.00000" pt_clust_8="13000.00000" pt_clust_9="13000.00000"></scales>
<clustering>
<clus scale="   79.002">  5  6 -1 -1</clus>
<clus scale="   87.002">  7  8 -1 -1</clus>
<clus scale="  437.672">  2  5  1 -1</clus>
<clus scale="  412.086">  7  9 -1 -1</clus>
<clus scale="  940.619">  1  5  2 -1</clus>
</clustering>
</event>
<event>
 9    2  0.2147756E-005  0.3202640E+03  0.7546771E-02  0.1117461E+00
         21   -1    0    0  501  502  0.00000000000E+00  0.00000000000E+00  0.16947684862E+03  0.16947684862E+03  0.00000000000E+00 0.  1.
          2   -1    0    0  502    0 -0.00000000000E+00 -0.00000000000E+00 -0.68744008162E+03  0.68744008162E+03  0.00000000000E+00 0. -1.
         24    2    1    2    0    0 -0.70873924919E+02 -0.38503996949E+01 -0.52576450622E+03  0.53655790469E+03  0.80175621420E+02 0.  0.
         23    2    1    2    0    0 -0.89147278541E+02  0.71602830709E+02  0.89843630873E+01  0.14658164737E+03  0.91275724758E+02 0.  0.
        -11    1    3    3    0    0 -0.44493884313E+02 -0.40945328538E+02 -0.26132111843E+03  0.26822556293E+03  0.00000000000E+00 0.  1.
         12    1    3    3    0    0 -0.26380040606E+02  0.37094928843E+02 -0.26444338780E+03  0.26833234177E+03  0.00000000000E+00 0. -1.
        -11    1    4    4    0    0  0.12178568799E+02  0.32738072843E+02 -0.10170457123E+02  0.36380450101E+02  0.00000000000E+00 0. -1.
         11    1    4    4    0    0 -0.10132584734E+03  0.38864757866E+02  0.19154820210E+02  0.11020119727E+03  0.00000000000E+00 0.  1.
          1    1    1    2  501    0  0.16002120346E+03 -0.67752431014E+02 -0.11830898582E+01  0.17377737818E+03  0.00000000000E+00 0. -1.
<scales pt_clust_5="13000.00000" pt_clust_6="13000.00000" pt_clust_7="13000.00000" pt_clust_8="13000.00000" pt_clust_9="13000.00000"></scales>
<clustering>
<clus scale="   80.176">  5  6 -1 -1</clus>
<clus scale="   91.276">  7  8 -1 -1</clus>
<clus scale="  107.080">  2  5  1 -1</clus>
<clus scale="  139.179">  7  9 -1 -1</clus>
<clus scale="  320.264">  1  5  2 -1</clus>
</clustering>
</event>
<event>
 9    2  0.2147756E-005  0.1913346E+03  0.7546771E-02  0.1194774E+00
         21   -1    0    0  501  502  0.00000000000E+00  0.00000000000E+00  0.26618768655E+03  0.26618768655E+03  0.00000000000E+00 0. -1.
          2   -1    0    0  502    0 -0.00000000000E+00 -0.00000000000E+00 -0.88818493564E+02  0.88818493564E+02  0.00000000000E+00 0. -1.
         24    2    1    2    0    0 -0.49988007131E+01 -0.13717219249E+02  0.13681061529E+03  0.15942002248E+03  0.80526076511E+02 0.  0.
         23    2    1    2    0    0  0.54160130215E+02  0.53800353703E+02 -0.23923344218E+01  0.11898149174E+03  0.91230884837E+02 0.  0.
        -13    1    3    3    0    0 -0.40215075567E+02  0.53676111225E+01  0.55163658831E+02  0.68476950922E+02  0.00000000000E+00 0.  1.
         14    1    3    3    0    0  0.35216274854E+02 -0.19084830371E+02  0.81646956462E+02  0.90943071558E+02  0.00000000000E+00 0. -1.
        -13    1    4    4    0    0  0.53491513991E+02 -0.84878787860E+01 -0.13231764781E+02  0.55753616516E+02  0.00000000000E+00 0.  1.
         13    1    4    4    0    0  0.66861622396E+00  0.62288232489E+02  0.10839430360E+02  0.63227875220E+02  0.00000000000E+00 0. -1.
          1    1    1    2  501    0 -0.49161329502E+02 -0.40083134454E+02  0.42950912117E+02  0.76604665901E+02  0.00000000000E+00 0. -1.
<scales pt_clust_5="13000.00000" pt_clust_6="13000.00000" pt_clust_7="13000.00000" pt_clust_8="13000.00000" pt_clust_9="13000.00000"></scales>
<clustering>
<clus scale="   80.526">  5  6 -1 -1</clus>
<clus scale="   81.839">  2  5  1 -1</clus>
<clus scale="   91.231">  7  8 -1 -1</clus>
<clus scale="   66.174">  7  9 -1 -1</clus>
<clus scale="  191.335">  1  5  2 -1</clus>
</clustering>
</event>
<event>
 9    2  0.2147756E-005  0.3236556E+03  0.7546771E-02  0.1090749E+00
         21   -1    0    0  501  502  0.00000000000E+00  0.00000000000E+00  0.25726917020E+03  0.25726917020E+03  0.00000000000E+00 0. -1.
         -1   -1    0    0    0  501 -0.00000000000E+00 -0.00000000000E+00 -0.27578984152E+03  0.27578984152E+03  0.00000000000E+00 0.  1.
         24    2    1    2    0    0 -0.56837642111E+02  0.18511993918E+03  0.18700843795E+02  0.20727012217E+03  0.71493164295E+02 0.  0.
         23    2    1    2    0    0 -0.91135888046E+01 -0.17520670822E+03  0.61117872107E+02  0.20696771263E+03  0.91212892043E+02 0.  0.
        -13    1    3    3    0    0  0.12516235323E+02  0.64776378290E+02  0.17941223581E+02  0.68370482188E+02  0.00000000000E+00 0.  1.
         14    1    3    3    0    0 -0.69353877435E+02  0.12034356089E+03  0.75962021392E+00  0.13889963998E+03  0.00000000000E+00 0. -1.
        -11    1    4    4    0    0 -0.30810885338E+02 -0.12415944553E+02  0.14530715958E+02  0.36257523919E+02  0.00000000000E+00 0.  1.
         11    1    4    4    0    0  0.21697296534E+02 -0.16279076367E+03  0.46587156149E+02  0.17071018872E+03  0.00000000000E+00 0. -1.
         -2    1    1    2    0  502  0.65951230916E+02 -0.99132309585E+01 -0.98339387220E+02  0.11882117693E+03  0.00000000000E+00 0.  1.
<scales pt_clust_5="13000.00000" pt_clust_6="13000.00000" pt_clust_7="13000.00000" pt_clust_8="13000.00000" pt_clust_9="13000.00000"></scales>
<clustering>
<clus scale="   71.493">  5  6 -1 -1</clus>
<clus scale="   91.213">  7  8 -1 -1</clus>
<clus scale="   66.692">  7  9 -1 -1</clus>
<clus scale="  206.425">  2  5  1 -1</clus>
<clus scale="  323.656">  1  5  2 -1</clus>
</clustering>
</event>
<event>
 9    2  0.2147756E-005  0.2764413E+03  0.7546771E-02  0.1117477E+00
         21   -1    0    0  501  502  0.00000000000E+00  0.00000000000E+00  0.49268119749E+02  0.49268119749E+02  0.00000000000E+00 0.  1.
         -1   -1    0    0    0  501 -0.00000000000E+00 -0.00000000000E+00 -0.10312246720E+04  0.10312246720E+04  0.00000000000E+00 0.  1.
         24    2    1    2    0    0  0.76792017516E+02 -0.12414515773E+03 -0.27547191631E+03  0.32184904957E+03  0.79956237353E+02 0.  0.
         23    2    1    2    0    0  0.49224800631E+02  0.23908782200E+02 -0.19079792407E+03  0.21840272722E+03  0.91110880618E+02 0.  0.
        -13    1    3    3    0    0  0.20160025689E+02 -0.49326068593E+02 -0.35093408938E+02  0.63804663071E+02  0.00000000000E+00 0.  1.
         14    1    3    3    0    0  0.56631991826E+02 -0.74819089134E+02 -0.24037850737E+03  0.25804438650E+03  0.00000000000E+00 0. -1.
        -13    1    4    4    0    0 -0.40851107032E+00 -0.21181166644E+02 -0.11611953215E+03  0.11803624210E+03  0.00000000000E+00 0. -1.
         13    1    4    4    0    0  0.49633311702E+02  0.45089948844E+02 -0.74678391913E+02  0.10036648512E+03  0.00000000000E+00 0.  1.
         -2    1    1    2    0  502 -0.12601681815E+03  0.10023637553E+03 -0.51568671183E+03  0.54024101491E+03  0.00000000000E+00 0.  1.
<scales pt_clust_5="13000.00000" pt_clust_6="13000.00000" pt_clust_7="13000.00000" pt_clust_8="13000.00000" pt_clust_9="13000.00000"></scales>
<clustering>
<clus scale="   79.956">  5  6 -1 -1</clus>
<clus scale="   91.111">  7  8 -1 -1</clus>
<clus scale="  161.020">  7  9 -1 -1</clus>
<clus scale="  166.439">  2  5  1 -1</clus>
<clus scale="  276.441">  1  5  2 -1</clus>
</clustering>
</event>
<event>
 9    2  0.2147756E-005  0.1886474E+03  0.7546771E-02  0.1182758E+00
         -3   -1    0    0    0  501 -0.00000000000E+00  0.00000000000E+00  0.14579966974E+03  0.14579966974E+03  0.00000000000E+00 0.  1.
         21   -1    0    0  501  502  0.00000000000E+00 -0.00000000000E+00 -0.16174017650E+03  0.16174017650E+03  0.00000000000E+00 0.  1.
         24    2    1    2    0    0  0.13874819718E+02  0.76991796876E+02  0.25731596045E+02  0.11434457214E+03  0.79324137153E+02 0.  0.
         23    2    1    2    0    0 -0.66219971756E+02 -0.29595345356E+02 -0.42752381054E+02  0.12257229230E+03  0.89079917080E+02 0.  0.
        -11    1    3    3    0    0 -0.28873470746E+02  0.24883987156E+02  0.27370003832E+02  0.46925549964E+02  0.00000000000E+00 0.  1.
         12    1    3    3    0    0  0.42748290464E+02  0.52107809720E+02 -0.16384077872E+01  0.67419022179E+02  0.00000000000E+00 0. -1.
        -13    1    4    4    0    0 -0.53150057237E+02 -0.51682439351E+02 -0.16959931726E+01  0.74154430174E+02  0.00000000000E+00 0. -1.
         13    1    4    4    0    0 -0.13069914520E+02  0.22087093995E+02 -0.41056387881E+02  0.48417862123E+02  0.00000000000E+00 0.  1.
         -4    1    1    2    0  502  0.52345152038E+02 -0.47396451520E+02  0.10802782494E+01  0.70622981810E+02  0.00000000000E+00 0.  1.
<scales pt_clust_5="13000.00000" pt_clust_6="13000.00000" pt_clust_7="13000.00000" pt_clust_8="13000.00000" pt_clust_9="13000.00000"></scales>
<clustering>
<clus scale="   79.324">  5  6 -1 -1</clus>
<clus scale="   89.080">  7  8 -1 -1</clus>
<clus scale="   70.615">  7  9 -1 -1</clus>
<clus scale="  111.412">  1  5  2 -1</clus>
<clus scale="  188.647">  2  5  1 -1</clus>
</clustering>
</event>
<event>
 9    2  0.2147756E-005  0.4159558E+03  0.7546771E-02  0.1048660E+00
          2   -1    0    0  502    0 -0.00000000000E+00  0.00000000000E+00  0.30427646091E+04  0.30427646091E+04  0.00000000000E+00 0. -1.
         21   -1    0    0  501  502  0.00000000000E+00 -0.00000000000E+00 -0.43440668586E+02  0.43440668586E+02  0.00000000000E+00 0. -1.
         24    2    1    2    0    0  0.28594960038E+03 -0.82770817531E+02  0.11662747868E+04  0.12065541411E+04  0.83413637298E+02 0.  0.
         23    2    1    2    0    0 -0.45189206340E+02 -0.45124759196E+02  0.25755554174E+03  0.28074433278E+03  0.91674505968E+02 0.  0.
        -13    1    3    3    0    0  0.11581426344E+03 -0.51511811314E+02  0.64469764155E+03  0.65703992218E+03  0.00000000000E+00 0.  1.
         14    1    3    3    0    0  0.17013533694E+03 -0.31259006218E+02  0.52157714526E+03  0.54951421892E+03  0.00000000000E+00 0. -1.
        -11    1    4    4    0    0 -0.35932132971E+01  0.27193123567E+02  0.79850853820E+02  0.84430657979E+02  0.00000000000E+00 0.  1.
         11    1    4    4    0    0 -0.41595993043E+02 -0.72317882762E+02  0.17770468792E+03  0.19631367480E+03  0.00000000000E+00 0. -1.
          1    1    1    2  501    0 -0.24076039404E+03  0.12789557673E+03  0.15754936120E+04  0.15989068038E+04  0.00000000000E+00 0. -1.
<scales pt_clust_5="13000.00000" pt_clust_6="13000.00000" pt_clust_7="13000.00000" pt_clust_8="13000.00000" pt_clust_9="13000.00000"></scales>
<clustering>
<clus scale="   83.414">  5  6 -1 -1</clus>
<clus scale="   91.675">  7  8 -1 -1</clus>
<clus scale="  272.622">  7  9 -1 -1</clus>
<clus scale="  309.154">  1  5  2 -1</clus>
<clus scale="  415.956">  2  5  1 -1</clus>
</clustering>
</event>
<event>
 9    2  0.2147756E-005  0.3047044E+03  0.7546771E-02  0.1125070E+00
         -3   -1    0    0    0  501 -0.00000000000E+00  0.00000000000E+00  0.37778323414E+03  0.37778323414E+03  0.00000000000E+00 0.  1.
         21   -1    0    0  501  502  0.00000000000E+00 -0.00000000000E+00 -0.11952562717E+03  0.11952562717E+03  0.00000000000E+00 0. -1.
         24    2    1    2    0    0 -0.23283865466E+02 -0.58866662347E+02  0.13237276081E+03  0.16762454013E+03  0.81043299056E+02 0.  0.
         23    2    1    2    0    0 -0.63854306154E+02  0.97871757432E+02 -0.25587384033E+02  0.15063601788E+03  0.91543663597E+02 0.  0.
        -13    1    3    3    0    0  0.25680960931E+02 -0.43697910417E+02  0.54811369515E+02  0.74654573586E+02  0.00000000000E+00 0.  1.
         14    1    3    3    0    0 -0.48964826398E+02 -0.15168751930E+02  0.77561391298E+02  0.92969966545E+02  0.00000000000E+00 0. -1.
        -11    1    4    4    0    0 -0.26272135712E+02  0.37235775894E+02  0.34665456043E+02  0.57257505743E+02  0.00000000000E+00 0.  1.
         11    1    4    4    0    0 -0.37582170443E+02  0.60635981539E+02 -0.60252840076E+02  0.93378512141E+02  0.00000000000E+00 0. -1.
         -4    1    1    2    0  502  0.87138171620E+02 -0.39005095085E+02  0.15147223018E+03  0.17904830330E+03  0.00000000000E+00 0.  1.
<scales pt_clust_5="13000.00000" pt_clust_6="13000.00000" pt_clust_7="13000.00000" pt_clust_8="13000.00000" pt_clust_9="13000.00000"></scales>
<clustering>
<clus scale="   81.043">  5  6 -1 -1</clus>
<clus scale="   91.544">  7  8 -1 -1</clus>
<clus scale="   95.470">  7  9 -1 -1</clus>
<clus scale="  102.837">  1  5  2 -1</clus>
<clus scale="  304.704">  2  5  1 -1</clus>
</clustering>
</event>
<event>
 9    2  0.2147756E-005  0.5797989E+03  0.7546771E-02  0.1060239E+00
         21   -1    0    0  501  502  0.00000000000E+00  0.00000000000E+00  0.17772110350E+03  0.17772110350E+03  0.00000000000E+00 0. -1.
          2   -1    0    0  502    0 -0.00000000000E+00 -0.00000000000E+00 -0.11123643006E+04  0.11123643006E+04  0.00000000000E+00 0. -1.
         24    2    1    2    0    0  0.18288435164E+02 -0.21343925322E+01 -0.62957287686E+03  0.63492534906E+03  0.80182099730E+02 0.  0.
         23    2    1    2    0    0  0.12000584455E+03 -0.14881105653E+03 -0.38046948523E+03  0.43699756864E+03  0.98304183673E+02 0.  0.
        -11    1    3    3    0    0 -0.15235332116E+02 -0.30524247938E+02 -0.17946114292E+03  0.18267497605E+03  0.00000000000E+00 0.  1.
         12    1    3    3    0    0  0.33523767281E+02  0.28389855406E+02 -0.45011173394E+03  0.45225037302E+03  0.00000000000E+00 0. -1.
        -13    1    4    4    0    0  0.17951990343E+02 -0.93875838040E+02 -0.21156461979E+03  0.23215196590E+03  0.00000000000E+00 0.  1.
         13    1    4    4    0    0  0.10205385421E+03 -0.54935218494E+02 -0.16890486545E+03  0.20484560274E+03  0.00000000000E+00 0. -1.
          1    1    1    2  501    0 -0.13829427972E+03  0.15094544907E+03  0.75399164977E+02  0.21816248641E+03  0.00000000000E+00 0. -1.
<scales pt_clust_5="13000.00000" pt_clust_6="13000.00000" pt_clust_7="13000.00000" pt_clust_8="13000.00000" pt_clust_9="13000.00000"></scales>
<clustering>
<clus scale="   80.182">  5  6 -1 -1</clus>
<clus scale="   82.269">  2  5  1 -1</clus>
<clus scale="   98.304">  7  8 -1 -1</clus>
<clus scale="  202.656">  7  9 -1 -1</clus>
<clus scale="  579.799">  1  5  2 -1</clus>
</clustering>
</event>
<event>
 9    2  0.2147756E-005  0.5336647E+03  0.7546771E-02  0.1035583E+00
          2   -1    0    0  502    0 -0.00000000000E+00  0.00000000000E+00  0.73276799482E+03  0.73276799482E+03  0.00000000000E+00 0. -1.
         21   -1    0    0  501  502  0.00000000000E+00 -0.00000000000E+00 -0.23620949598E+03  0.23620949598E+03  0.00000000000E+00 0. -1.
         24    2    1    2    0    0  0.19742676453E+03 -0.14506843480E+02 -0.33925591181E+02  0.21650729823E+03  0.80849790277E+02 0.  0.
         23    2    1    2    0    0  0.13488392789E+03  0.95670646232E+02  0.13477692288E+03  0.22940029160E+03  0.84339363833E+02 0.  0.
        -13    1    3    3    0    0  0.54790031484E+02 -0.36486821409E+02  0.77705856545E+01  0.66284369862E+02  0.00000000000E+00 0.  1.
         14    1    3    3    0    0  0.14263673305E+03  0.21979977929E+02 -0.41696176836E+02  0.15022292837E+03  0.00000000000E+00 0. -1.
        -13    1    4    4    0    0  0.35526721442E+02  0.71810396765E+02  0.81007607371E+02  0.11393468950E+03  0.00000000000E+00 0.  1.
         13    1    4    4    0    0  0.99357206444E+02  0.23860249467E+02  0.53769315510E+02  0.11546560210E+03  0.00000000000E+00 0. -1.
          1    1    1    2  501    0 -0.33231069242E+03 -0.81163802752E+02  0.39570716714E+03  0.52306990097E+03  0.00000000000E+00 0. -1.
<scales pt_clust_5="13000.00000" pt_clust_6="13000.00000" pt_clust_7="13000.00000" pt_clust_8="13000.00000" pt_clust_9="13000.00000"></scales>
<clustering>
<clus scale="   80.850">  5  6 -1 -1</clus>
<clus scale="   84.339">  7  8 -1 -1</clus>
<clus scale="  213.833">  1  5  2 -1</clus>
<clus scale="  211.741">  7  9 -1 -1</clus>
<clus scale="  533.665">  2  5  1 -1</clus>
</clustering>
</event>
<event>
 9    2  0.2147756E-005  0.3437447E+03  0.7546771E-02  0.1112814E+00
         21   -1    0    0  501  502  0.00000000000E+00  0.00000000000E+00  0.34308798850E+03  0.34308798850E+03  0.00000000000E+00 0. -1.
         -1   -1    0    0    0  501 -0.00000000000E+00 -0.00000000000E+00 -0.19366694480E+03  0.19366694480E+03  0.00000000000E+00 0.  1.
         24    2    1    2    0    0  0.50208717400E+02  0.19258382559E+02  0.16617332402E+03  0.19260221748E+03  0.81180292927E+02 0.  0.
         23    2    1    2    0    0  0.41193253116E+01  0.17189041707E+02  0.14277250618E+03  0.17173430478E+03  0.93788330413E+02 0.  0.
        -11    1    3    3    0    0  0.40482393866E+02 -0.27556782360E+02  0.73487977200E+02  0.88310153776E+02  0.00000000000E+00 0.  1.
         12    1    3    3    0    0  0.97263235348E+01  0.46815164919E+02  0.92685346818E+02  0.10429206370E+03  0.00000000000E+00 0. -1.
        -13    1    4    4    0    0 -0.28842490514E+01 -0.31350574327E+02  0.10560848870E+03  0.11020131709E+03  0.00000000000E+00 0. -1.
         13    1    4    4    0    0  0.70035743630E+01  0.48539616033E+02  0.37164017475E+02  0.61532987685E+02  0.00000000000E+00 0.  1.
         -2    1    1    2    0  502 -0.54328042712E+02 -0.36447424266E+02 -0.15952478650E+03  0.17241841104E+03  0.00000000000E+00 0.  1.
<scales pt_clust_5="13000.00000" pt_clust_6="13000.00000" pt_clust_7="13000.00000" pt_clust_8="13000.00000" pt_clust_9="13000.00000"></scales>
<clustering>
<clus scale="   81.180">  5  6 -1 -1</clus>
<clus scale="   93.788">  7  8 -1 -1</clus>
<clus scale="   65.421">  7  9 -1 -1</clus>
<clus scale="   97.376">  2  5  1 -1</clus>
<clus scale="  343.745">  1  5  2 -1</clus>
</clustering>
</event>
<event>
 9    2  0.2147756E-005  0.1924517E+03  0.7546771E-02  0.1183725E+00
         -3   -1    0    0    0  501 -0.00000000000E+00  0.00000000000E+00  0.28576680639E+03  0.28576680639E+03  0.00000000000E+00 0.  1.
         21   -1    0    0  501  502  0.00000000000E+00 -0.00000000000E+00 -0.10895305162E+03  0.10895305162E+03  0.00000000000E+00 0. -1.
         24    2    1    2    0    0 -0.40538307370E+02  0.49688956288E+02 -0.35039773389E+02  0.10850389152E+03  0.80205748014E+02 0.  0.
         23    2    1    2    0    0  0.38969116651E+01 -0.80749662797E+01  0.19708012708E+02  0.86230429144E+02  0.83467898886E+02 0.  0.
        -13    1    3    3    0    0 -0.25328243724E+02  0.61338280476E+02  0.24448938597E+01  0.66406943070E+02  0.00000000000E+00 0.  1.
         14    1    3    3    0    0 -0.15210063646E+02 -0.11649324187E+02 -0.37484667249E+02  0.42096948451E+02  0.00000000000E+00 0. -1.
        -11    1    4    4    0    0 -0.22089678423E+02 -0.28162383435E+02  0.34945719781E+02  0.50022765463E+02  0.00000000000E+00 0.  1.
         11    1    4    4    0    0  0.25986590088E+02  0.20087417155E+02 -0.15237707072E+02  0.36207663681E+02  0.00000000000E+00 0. -1.
         -4    1    1    2    0  502  0.36641395705E+02 -0.41613990009E+02  0.19214551545E+03  0.19998553735E+03  0.00000000000E+00 0.  1.
<scales pt_clust_5="13000.00000" pt_clust_6="13000.00000" pt_clust_7="13000.00000" pt_clust_8="13000.00000" pt_clust_9="13000.00000"></scales>
<clustering>
<clus scale="   80.206">  5  6 -1 -1</clus>
<clus scale="   83.468">  7  8 -1 -1</clus>
<clus scale="   55.447">  7  9 -1 -1</clus>
<clus scale="  102.690">  1  5  2 -1</clus>
<clus scale="  192.452">  2  5  1 -1</clus>
</clustering>
</event>
<event>
 9    2  0.2147756E-005  0.3856523E+03  0.7546771E-02  0.1105191E+00
         21   -1    0    0  501  502  0.00000000000E+00  0.00000000000E+00  0.83052459910E+02  0.83052459910E+02  0.00000000000E+00 0. -1.
          2   -1    0    0  502    0 -0.00000000000E+00 -0.00000000000E+00 -0.74969709847E+03  0.74969709847E+03  0.00000000000E+00 0. -1.
         24    2    1    2    0    0  0.13807493353E+02 -0.27131156288E+02 -0.31104117822E+02  0.89352339153E+02  0.78036067638E+02 0.  0.
         23    2    1    2    0    0  0.15728021941E+03  0.90094442358E+02 -0.32261588471E+03  0.38124088740E+03  0.91703485202E+02 0.  0.
        -13    1    3    3    0    0  0.12779349221E+02 -0.53159099612E+02 -0.31886071495E+02  0.63292362837E+02  0.00000000000E+00 0.  1.
         14    1    3    3    0    0  0.10281441322E+01  0.26027943324E+02  0.78195367281E+00  0.26059976316E+02  0.00000000000E+00 0. -1.
        -13    1    4    4    0    0  0.82058469563E+02  0.78886749445E+02 -0.25589568952E+03  0.28007019759E+03  0.00000000000E+00 0. -1.
         13    1    4    4    0    0  0.75221749843E+02  0.11207692913E+02 -0.66720195191E+02  0.10117068981E+03  0.00000000000E+00 0.  1.
          1    1    1    2  501    0 -0.17108771276E+03 -0.62963286070E+02 -0.31292463603E+03  0.36215633183E+03  0.00000000000E+00 0. -1.
<scales pt_clust_5="13000.00000" pt_clust_6="13000.00000" pt_clust_7="13000.00000" pt_clust_8="13000.00000" pt_clust_9="13000.00000"></scales>
<clustering>
<clus scale="   78.036">  5  6 -1 -1</clus>
<clus scale="   83.764">  2  5  1 -1</clus>
<clus scale="   91.703">  7  8 -1 -1</clus>
<clus scale="  181.155">  7  9 -1 -1</clus>
<clus scale="  385.652">  1  5  2 -1</clus>
</clustering>
</event>
<event>
 9    2  0.2147756E-005  0.3575194E+03  0.7546771E-02  0.1090192E+00
         21   -1    0    0  501  502  0.00000000000E+00  0.00000000000E+00  0.13247177191E+03  0.13247177191E+03  0.00000000000E+00 0. -1.
          2   -1    0    0  502    0 -0.00000000000E+00 -0.00000000000E+00 -0.53556457656E+03  0.53556457656E+03  0.00000000000E+00 0. -1.
         24    2    1    2    0    0  0.11994032448E+03  0.56077398517E+02 -0.21136431647E+03  0.26235182160E+03  0.81383339574E+02 0.  0.
         23    2    1    2    0    0  0.20331509710E+02 -0.15207956313E+03 -0.14207018952E+03  0.22860107279E+03  0.92373956953E+02 0.  0.
        -13    1    3    3    0    0  0.16192187842E+02  0.30926750128E+02 -0.13312749186E+02  0.37361478979E+02  0.00000000000E+00 0.  1.
         14    1    3    3    0    0  0.10374813664E+03  0.25150648390E+02 -0.19805156728E+03  0.22499034262E+03  0.00000000000E+00 0. -1.
        -11    1    4    4    0    0  0.25163413884E+02 -0.89618609603E+00 -0.35689993168E+02  0.43678097030E+02  0.00000000000E+00 0.  1.
         11    1    4    4    0    0 -0.48319041733E+01 -0.15118337704E+03 -0.10638019635E+03  0.18492297576E+03  0.00000000000E+00 0. -1.
          1    1    1    2  501    0 -0.14027183419E+03  0.96002164614E+02 -0.49658298661E+02  0.17708345407E+03  0.00000000000E+00 0. -1.
<scales pt_clust_5="13000.00000" pt_clust_6="13000.00000" pt_clust_7="13000.00000" pt_clust_8="13000.00000" pt_clust_9="13000.00000"></scales>
<clustering>
<clus scale="   81.383">  5  6 -1 -1</clus>
<clus scale="   92.374">  7  8 -1 -1</clus>
<clus scale="  155.414">  2  5  1 -1</clus>
<clus scale="  150.776">  7  9 -1 -1</clus>
<clus scale="  357.519">  1  5  2 -1</clus>
</clustering>
</event>
<event>
 9    2  0.2147756E-005  0.1665213E+03  0.7546771E-02  0.1211143E+00
         21   -1    0    0  501  502  0.00000000000E+00  0.00000000000E+00  0.13428487669E+03  0.13428487669E+03  0.00000000000E+00 0. -1.
          2   -1    0    0  502    0 -0.00000000000E+00 -0.00000000000E+00 -0.14300661444E+03  0.14300661444E+03  0.00000000000E+00 0. -1.
         24    2    1    2    0    0 -0.26449195781E+02  0.20005397923E+02  0.50289199663E+02  0.10062329950E+03  0.80599434831E+02 0.  0.
         23    2    1    2    0    0 -0.15242648566E+02 -0.46771643486E+02 -0.71306146877E+02  0.12562101774E+03  0.90973339755E+02 0.  0.
        -13    1    3    3    0    0  0.24440052534E+02 -0.11084161941E+02  0.99250972387E+01  0.28612626042E+02  0.00000000000E+00 0.  1.
         14    1    3    3    0    0 -0.50889248316E+02  0.31089559864E+02  0.40364102424E+02  0.72010673453E+02  0.00000000000E+00 0. -1.
        -13    1    4    4    0    0  0.11766586177E+02 -0.18406645503E+02 -0.82129895200E+02  0.84985744890E+02  0.00000000000E+00 0. -1.
         13    1    4    4    0    0 -0.27009234743E+02 -0.28364997983E+02  0.10823748323E+02  0.40635272852E+02  0.00000000000E+00 0.  1.
          1    1    1    2  501    0  0.41691844347E+02  0.26766245563E+02  0.12295209470E+02  0.51047173893E+02  0.00000000000E+00 0. -1.
<scales pt_clust_5="13000.00000" pt_clust_6="13000.00000" pt_clust_7="13000.00000" pt_clust_8="13000.00000" pt_clust_9="13000.00000"></scales>
<clustering>
<clus scale="   80.599">  5  6 -1 -1</clus>
<clus scale="   87.155">  2  5  1 -1</clus>
<clus scale="   90.973">  7  8 -1 -1</clus>
<clus scale="   47.936">  7  9 -1 -1</clus>
<clus scale="  166.521">  1  5  2 -1</clus>
</clustering>
</event>
<event>
 9    2  0.2147756E-005  0.2976605E+03  0.7546771E-02  0.1106927E+00
         21   -1    0    0  501  502  0.00000000000E+00  0.00000000000E+00  0.39112399331E+03  0.39112399331E+03  0.00000000000E+00 0.  1.
          2   -1    0    0  502    0 -0.00000000000E+00 -0.00000000000E+00 -0.68675953776E+03  0.68675953776E+03  0.00000000000E+00 0. -1.
         24    2    1    2    0    0  0.11453505120E+03  0.10206166807E+03 -0.61624330741E+03  0.64040084219E+03  0.82598805730E+02 0.  0.
         23    2    1    2    0    0 -0.17180093194E+03 -0.71190714581E+02  0.30764247165E+03  0.37114645711E+03  0.92315351932E+02 0.  0.
        -13    1    3    3    0    0  0.46339890634E+02  0.28124104750E+01 -0.26633896510E+03  0.27035483988E+03  0.00000000000E+00 0.  1.
         14    1    3    3    0    0  0.68195160568E+02  0.99249257593E+02 -0.34990434231E+03  0.37004600230E+03  0.00000000000E+00 0. -1.
        -11    1    4    4    0    0 -0.38766985582E+02 -0.58018163291E+02  0.14257606947E+03  0.15873538367E+03  0.00000000000E+00 0. -1.
         11    1    4    4    0    0 -0.13303394636E+03 -0.13172551291E+02  0.16506640218E+03  0.21241107344E+03  0.00000000000E+00 0.  1.
          1    1    1    2  501    0  0.57265880737E+02 -0.30870953486E+02  0.12965291304E+02  0.66336231761E+02  0.00000000000E+00 0. -1.
<scales pt_clust_5="13000.00000" pt_clust_6="13000.00000" pt_clust_7="13000.00000" pt_clust_8="13000.00000" pt_clust_9="13000.00000"></scales>
<clustering>
<clus scale="   82.599">  5  6 -1 -1</clus>
<clus scale="   92.315">  7  8 -1 -1</clus>
<clus scale="   65.057">  7  9 -1 -1</clus>
<clus scale="  174.234">  2  5  1 -1</clus>
<clus scale="  297.660">  1  5  2 -1</clus>
</clustering>
</event>
<event>
 9    2  0.2147756E-005  0.3372159E+03  0.7546771E-02  0.1118534E+00
         21   -1    0    0  501  502  0.00000000000E+00  0.00000000000E+00  0.25113382645E+03  0.25113382645E+03  0.00000000000E+00 0. -1.
          2   -1    0    0  502    0 -0.00000000000E+00 -0.00000000000E+00 -0.18481992220E+03  0.18481992220E+03  0.00000000000E+00 0. -1.
         24    2    1    2    0    0 -0.14006730493E+02  0.38450622827E+02  0.39605286639E+02  0.97681766260E+02  0.79363151620E+02 0.  0.
         23    2    1    2    0    0  0.14419679873E+03  0.24606680815E+02  0.72821042540E+02  0.18644302222E+03  0.89776894548E+02 0.  0.
        -11    1    3    3    0    0 -0.18651168780E+02 -0.21801353550E+02  0.15600315440E+02  0.32657846764E+02  0.00000000000E+00 0.  1.
         12    1    3    3    0    0  0.46444382864E+01  0.60251976377E+02  0.24004971199E+02  0.65023919496E+02  0.00000000000E+00 0. -1.
        -11    1    4    4    0    0  0.18145679016E+02  0.33800379856E+02 -0.39522925460E+01  0.38566202325E+02  0.00000000000E+00 0.  1.
         11    1    4    4    0    0  0.12605111971E+03 -0.91936990412E+01  0.76773335086E+02  0.14787681990E+03  0.00000000000E+00 0. -1.
          1    1    1    2  501    0 -0.13019006824E+03 -0.63057303642E+02 -0.46112424928E+02  0.15182896016E+03  0.00000000000E+00 0. -1.
<scales pt_clust_5="13000.00000" pt_clust_6="13000.00000" pt_clust_7="13000.00000" pt_clust_8="13000.00000" pt_clust_9="13000.00000"></scales>
<clustering>
<clus scale="   79.363">  5  6 -1 -1</clus>
<clus scale="   89.293">  2  5  1 -1</clus>
<clus scale="   89.777">  7  8 -1 -1</clus>
<clus scale="  144.353">  7  9 -1 -1</clus>
<clus scale="  337.216">  1  5  2 -1</clus>
</clustering>
</event>
<event>
 9    2  0.2147756E-005  0.1945797E+03  0.7546771E-02  0.1175425E+00
         21   -1    0    0  501  502  0.00000000000E+00  0.00000000000E+00  0.82295382293E+02  0.82295382293E+02  0.00000000000E+00 0.  1.
          4   -1    0    0  502    0 -0.00000000000E+00 -0.00000000000E+00 -0.36324175032E+03  0.36324175032E+03  0.00000000000E+00 0. -1.
         24    2    1    2    0    0 -0.63657306011E+02  0.54352717384E+02 -0.22207436729E+02  0.12179786675E+03  0.85645079276E+02 0.  0.
         23    2    1    2    0    0  0.16135897913E+02  0.28827221165E+02 -0.15972565266E+03  0.18596838450E+03  0.89334092226E+02 0.  0.
        -13    1    3    3    0    0 -0.81128898597E+02  0.50288880139E+02 -0.29732151822E+01  0.95497170962E+02  0.00000000000E+00 0.  1.
         14    1    3    3    0    0  0.17471592586E+02  0.40638372454E+01 -0.19234221547E+02  0.26300695793E+02  0.00000000000E+00 0. -1.
        -13    1    4    4    0    0  0.45470386705E+01  0.56715214567E+02 -0.64207881266E+02  0.85790110973E+02  0.00000000000E+00 0. -1.
         13    1    4    4    0    0  0.11588859242E+02 -0.27887993402E+02 -0.95517771391E+02  0.10017827352E+03  0.00000000000E+00 0.  1.
          3    1    1    2  501    0  0.47521408098E+02 -0.83179938549E+02 -0.99013278645E+02  0.13777088137E+03  0.00000000000E+00 0. -1.
<scales pt_clust_5="13000.00000" pt_clust_6="13000.00000" pt_clust_7="13000.00000" pt_clust_8="13000.00000" pt_clust_9="13000.00000"></scales>
<clustering>
<clus scale="   85.645">  5  6 -1 -1</clus>
<clus scale="   89.334">  7  8 -1 -1</clus>
<clus scale="   95.798">  7  9 -1 -1</clus>
<clus scale="  119.756">  2  5  1 -1</clus>
<clus scale="  194.580">  1  5  2 -1</clus>
</clustering>
</event>
<event>
 9    2  0.2147756E-005  0.2626550E+03  0.7546771E-02  0.1131519E+00
          2   -1    0    0  502    0 -0.00000000000E+00  0.00000000000E+00  0.11372160533E+04  0.11372160533E+04  0.00000000000E+00 0. -1.
         21   -1    0    0  501  502  0.00000000000E+00 -0.00000000000E+00 -0.70006026468E+02  0.70006026468E+02  0.00000000000E+00 0. -1.
         24    2    1    2    0    0 -0.93227279175E+02 -0.39152194863E+02  0.86491650856E+03  0.87569483672E+03  0.92394049231E+02 0.  0.
         23    2    1    2    0    0 -0.44520985749E+02 -0.30069987918E+02  0.64516926814E+02  0.12476969365E+03  0.92296913618E+02 0.  0.
        -11    1    3    3    0    0  0.12000611978E+01  0.22402832560E+02  0.97736715482E+02  0.10027857501E+03  0.00000000000E+00 0.  1.
         12    1    3    3    0    0 -0.94427340373E+02 -0.61555027423E+02  0.76717979308E+03  0.77541626171E+03  0.00000000000E+00 0. -1.
        -13    1    4    4    0    0 -0.23311984031E+02  0.31266124978E+02  0.38643078445E+02  0.54902701959E+02  0.00000000000E+00 0.  1.
         13    1    4    4    0    0 -0.21209001718E+02 -0.61336112896E+02  0.25873848369E+02  0.69866991695E+02  0.00000000000E+00 0. -1.
          1    1    1    2  501    0  0.13774826492E+03  0.69222182780E+02  0.13777659146E+03  0.20675754940E+03  0.00000000000E+00 0. -1.
<scales pt_clust_5="13000.00000" pt_clust_6="13000.00000" pt_clust_7="13000.00000" pt_clust_8="13000.00000" pt_clust_9="13000.00000"></scales>
<clustering>
<clus scale="   92.297">  7  8 -1 -1</clus>
<clus scale="   92.394">  5  6 -1 -1</clus>
<clus scale="  136.970">  1  5  2 -1</clus>
<clus scale="   89.164">  7  9 -1 -1</clus>
<clus scale="  262.655">  2  5  1 -1</clus>
</clustering>
</event>
<event>
 9    2  0.2147756E-005  0.6695039E+03  0.7546771E-02  0.1034810E+00
          2   -1    0    0  502    0 -0.00000000000E+00  0.00000000000E+00  0.53929473184E+03  0.53929473184E+03  0.00000000000E+00 0. -1.
         21   -1    0    0  501  502  0.00000000000E+00 -0.00000000000E+00 -0.28419257291E+03  0.28419257291E+03  0.00000000000E+00 0.  1.
         24    2    1    2    0    0 -0.74320654940E+02 -0.19791082942E+02  0.60736045106E+02  0.12634051115E+03  0.79735881929E+02 0.  0.
         23    2    1    2    0    0 -0.17888942991E+03  0.22333829004E+03  0.21834308200E+03  0.37138352436E+03  0.91490987371E+02 0.  0.
        -11    1    3    3    0    0 -0.63670944718E+02 -0.92583486460E+01  0.79536814241E+02  0.10230254660E+03  0.00000000000E+00 0.  1.
         12    1    3    3    0    0 -0.10649710222E+02 -0.10532734296E+02 -0.18800769135E+02  0.24037964548E+02  0.00000000000E+00 0. -1.
        -11    1    4    4    0    0 -0.59537759238E+02  0.12716599131E+03  0.65555755613E+02  0.15496287044E+03  0.00000000000E+00 0.  1.
         11    1    4    4    0    0 -0.11935167067E+03  0.96172298738E+02  0.15278732639E+03  0.21642065392E+03  0.00000000000E+00 0. -1.
          1    1    1    2  501    0  0.25321008485E+03 -0.20354720710E+03 -0.23976968180E+02  0.32576326925E+03  0.00000000000E+00 0. -1.
<scales pt_clust_5="13000.00000" pt_clust_6="13000.00000" pt_clust_7="13000.00000" pt_clust_8="13000.00000" pt_clust_9="13000.00000"></scales>
<clustering>
<clus scale="   79.736">  5  6 -1 -1</clus>
<clus scale="   91.491">  7  8 -1 -1</clus>
<clus scale="  110.784">  1  5  2 -1</clus>
<clus scale="  310.180">  7  9 -1 -1</clus>
<clus scale="  669.504">  2  5  1 -1</clus>
</clustering>
</event>
<event>
 9    2  0.2147756E-005  0.2324809E+03  0.7546771E-02  0.1166943E+00
          2   -1    0    0  502    0 -0.00000000000E+00  0.00000000000E+00  0.25915357792E+03  0.25915357792E+03  0.00000000000E+00 0. -1.
         21   -1    0    0  501  502  0.00000000000E+00 -0.00000000000E+00 -0.20327233002E+03  0.20327233002E+03  0.00000000000E+00 0. -1.
         24    2    1    2    0    0 -0.25686716982E+02 -0.12918248354E+02  0.17980735206E+03  0.19897748883E+03  0.80216386340E+02 0.  0.
         23    2    1    2    0    0  0.95189947751E+02  0.61948173481E+02 -0.53759637603E+02  0.15318525358E+03  0.87618039965E+02 0.  0.
        -11    1    3    3    0    0 -0.33672488805E+02  0.15023134515E+02  0.33517676981E+02  0.49829366273E+02  0.00000000000E+00 0.  1.
         12    1    3    3    0    0  0.79857718228E+01 -0.27941382869E+02  0.14628967508E+03  0.14914812256E+03  0.00000000000E+00 0. -1.
        -13    1    4    4    0    0  0.89013922796E+02  0.37402250740E+02 -0.31555446492E+01  0.96604162820E+02  0.00000000000E+00 0. -1.
         13    1    4    4    0    0  0.61760249542E+01  0.24545922741E+02 -0.50604092954E+02  0.56581090756E+02  0.00000000000E+00 0.  1.
          1    1    1    2  501    0 -0.69503230768E+02 -0.49029925127E+02 -0.70166466559E+02  0.11026316554E+03  0.00000000000E+00 0. -1.
<scales pt_clust_5="13000.00000" pt_clust_6="13000.00000" pt_clust_7="13000.00000" pt_clust_8="13000.00000" pt_clust_9="13000.00000"></scales>
<clustering>
<clus scale="   80.216">  5  6 -1 -1</clus>
<clus scale="   85.214">  1  5  2 -1</clus>
<clus scale="   87.618">  7  8 -1 -1</clus>
<clus scale="   93.237">  7  9 -1 -1</clus>
<clus scale="  232.481">  2  5  1 -1</clus>
</clustering>
</event>
<event>
 9    2  0.2147756E-005  0.1440635E+03  0.7546771E-02  0.1233783E+00
         21   -1    0    0  501  502  0.00000000000E+00  0.00000000000E+00  0.18502557645E+03  0.18502557645E+03  0.00000000000E+00 0.  1.
          2   -1    0    0  502    0 -0.00000000000E+00 -0.00000000000E+00 -0.31474747576E+03  0.31474747576E+03  0.00000000000E+00 0. -1.
         24    2    1    2    0    0  0.78605488928E+00  0.22689946132E+02 -0.27959181067E+03  0.29189022840E+03  0.80702374852E+02 0.  0.
         23    2    1    2    0    0  0.27690630272E+02  0.11740656589E+01  0.13998926181E+03  0.16943753943E+03  0.91345152630E+02 0.  0.
        -11    1    3    3    0    0  0.23383884645E+02 -0.62332445457E+01 -0.25478957346E+02  0.35140242829E+02  0.00000000000E+00 0.  1.
         12    1    3    3    0    0 -0.22597829756E+02  0.28923190677E+02 -0.25411285332E+03  0.25674998557E+03  0.00000000000E+00 0. -1.
        -13    1    4    4    0    0  0.48402470914E+02 -0.29744289158E+02  0.69843694177E+02  0.90031458638E+02  0.00000000000E+00 0.  1.
         13    1    4    4    0    0 -0.20711840642E+02  0.30918354817E+02  0.70145567634E+02  0.79406080788E+02  0.00000000000E+00 0. -1.
          1    1    1    2  501    0 -0.28476685161E+02 -0.23864011790E+02  0.98806495441E+01  0.38445284391E+02  0.00000000000E+00 0. -1.
<scales pt_clust_5="13000.00000" pt_clust_6="13000.00000" pt_clust_7="13000.00000" pt_clust_8="13000.00000" pt_clust_9="13000.00000"></scales>
<clustering>
<clus scale="   80.702">  5  6 -1 -1</clus>
<clus scale="   83.835">  2  5  1 -1</clus>
<clus scale="   91.345">  7  8 -1 -1</clus>
<clus scale="   30.824">  7  9 -1 -1</clus>
<clus scale="  144.063">  1  5  2 -1</clus>
</clustering>
</event>
<event>
 9    2  0.2147756E-005  0.1921473E+03  0.7546771E-02  0.1188156E+00
         21   -1    0    0  501  502  0.00000000000E+00  0.00000000000E+00  0.27345612213E+03  0.27345612213E+03  0.00000000000E+00 0.  1.
         -3   -1    0    0    0  501 -0.00000000000E+00 -0.00000000000E+00 -0.76485390315E+02  0.76485390315E+02  0.00000000000E+00 0.  1.
         24    2    1    2    0    0 -0.32296277251E+02 -0.35401536577E+02  0.91189419018E+02  0.13060097441E+03  0.80279424882E+02 0.  0.
         23    2    1    2    0    0 -0.33513860054E+02  0.54901698123E+02  0.25981199689E+02  0.11408233872E+03  0.90567002805E+02 0.  0.
        -13    1    3    3    0    0 -0.42105980503E+02 -0.53881321366E+02  0.84356124654E+02  0.10859128028E+03  0.00000000000E+00 0.  1.
         14    1    3    3    0    0  0.98097032523E+01  0.18479784789E+02  0.68332943637E+01  0.22009694128E+02  0.00000000000E+00 0. -1.
        -11    1    4    4    0    0 -0.55546549685E+01 -0.22069124833E+02 -0.97209127138E+01  0.24746648393E+02  0.00000000000E+00 0. -1.
         11    1    4    4    0    0 -0.27959205085E+02  0.76970822955E+02  0.35702112402E+02  0.89335690323E+02  0.00000000000E+00 0.  1.
         -4    1    1    2    0  502  0.65810137305E+02 -0.19500161546E+02  0.79800113109E+02  0.10525819932E+03  0.00000000000E+00 0.  1.
<scales pt_clust_5="13000.00000" pt_clust_6="13000.00000" pt_clust_7="13000.00000" pt_clust_8="13000.00000" pt_clust_9="13000.00000"></scales>
<clustering>
<clus scale="   80.279">  5  6 -1 -1</clus>
<clus scale="   90.567">  7  8 -1 -1</clus>
<clus scale="   68.638">  7  9 -1 -1</clus>
<clus scale="   93.494">  2  5  1 -1</clus>
<clus scale="  192.147">  1  5  2 -1</clus>
</clustering>
</event>
<event>
 9    2  0.2147756E-005  0.2099375E+03  0.7546771E-02  0.1158721E+00
         21   -1    0    0  501  502  0.00000000000E+00  0.00000000000E+00  0.23220291688E+03  0.23220291688E+03  0.00000000000E+00 0.  1.
          2   -1    0    0  502    0 -0.00000000000E+00 -0.00000000000E+00 -0.14656641062E+03  0.14656641062E+03  0.00000000000E+00 0. -1.
         24    2    1    2    0    0 -0.45008941426E+02  0.10539472207E+03  0.94065963195E+02  0.16866267523E+03  0.80404230819E+02 0.  0.
         23    2    1    2    0    0  0.27772723520E+02 -0.12208227946E+03  0.38537600483E+02  0.15736704419E+03  0.87199958806E+02 0.  0.
        -11    1    3    3    0    0 -0.43004871370E+02  0.52366638844E+02  0.93651197581E+02  0.11559511509E+03  0.00000000000E+00 0.  1.
         12    1    3    3    0    0 -0.20040700554E+01  0.53028083231E+02  0.41476561355E+00  0.53067560133E+02  0.00000000000E+00 0. -1.
        -11    1    4    4    0    0  0.49241870755E+02 -0.11532146481E+03  0.46132962892E+02  0.13361157265E+03  0.00000000000E+00 0.  1.
         11    1    4    4    0    0 -0.21469147235E+02 -0.67608146480E+01 -0.75953624095E+01  0.23755471535E+02  0.00000000000E+00 0. -1.
          1    1    1    2  501    0  0.17236217905E+02  0.16687557385E+02 -0.46967057411E+02  0.52739608085E+02  0.00000000000E+00 0. -1.
<scales pt_clust_5="13000.00000" pt_clust_6="13000.00000" pt_clust_7="13000.00000" pt_clust_8="13000.00000" pt_clust_9="13000.00000"></scales>
<clustering>
<clus scale="   80.404">  5  6 -1 -1</clus>
<clus scale="   87.200">  7  8 -1 -1</clus>
<clus scale="   23.991">  7  9 -1 -1</clus>
<clus scale="  139.995">  2  5  1 -1</clus>
<clus scale="  209.937">  1  5  2 -1</clus>
</clustering>
</event>
<event>
 9    2  0.2147756E-005  0.1177070E+04  0.7546771E-02  0.9459516E-01
         -1   -1    0    0    0  501 -0.00000000000E+00  0.00000000000E+00  0.53327156134E+03  0.53327156134E+03  0.00000000000E+00 0.  1.
         21   -1    0    0  501  502  0.00000000000E+00 -0.00000000000E+00 -0.11507328908E+04  0.11507328908E+04  0.00000000000E+00 0.  1.
         24    2    1    2    0    0  0.67059260961E+02 -0.34017769779E+03 -0.29673104764E+03  0.46402038926E+03  0.83951155229E+02 0.  0.
         23    2    1    2    0    0 -0.23134800433E+03 -0.36781081149E+03 -0.60679356530E+02  0.44806113654E+03  0.90940121007E+02 0.  0.
        -11    1    3    3    0    0  0.58556710606E+02 -0.11630599890E+03 -0.83193818279E+02  0.15452244218E+03  0.00000000000E+00 0.  1.
         12    1    3    3    0    0  0.85025503553E+01 -0.22387169888E+03 -0.21353722936E+03  0.30949794708E+03  0.00000000000E+00 0. -1.
        -11    1    4    4    0    0 -0.24530111792E+02 -0.42695529013E+02  0.22058490214E+02  0.53955644494E+02  0.00000000000E+00 0. -1.
         11    1    4    4    0    0 -0.20681789254E+03 -0.32511528248E+03 -0.82737846744E+02  0.39410549205E+03  0.00000000000E+00 0.  1.
         -2    1    1    2    0  502  0.16428874337E+03  0.70798850928E+03 -0.26005092531E+03  0.77192292635E+03  0.00000000000E+00 0.  1.
<scales pt_clust_5="13000.00000" pt_clust_6="13000.00000" pt_clust_7="13000.00000" pt_clust_8="13000.00000" pt_clust_9="13000.00000"></scales>
<clustering>
<clus scale="   83.951">  5  6 -1 -1</clus>
<clus scale="   90.940">  7  8 -1 -1</clus>
<clus scale="  356.743">  1  5  2 -1</clus>
<clus scale="  552.765">  7  9 -1 -1</clus>
<clus scale=" 1177.070">  2  5  1 -1</clus>
</clustering>
</event>
<event>
 9    2  0.2147756E-005  0.3568376E+03  0.7546771E-02  0.1080472E+00
         21   -1    0    0  501  502  0.00000000000E+00  0.00000000000E+00  0.82115874399E+02  0.82115874399E+02  0.00000000000E+00 0. -1.
          4   -1    0    0  502    0 -0.00000000000E+00 -0.00000000000E+00 -0.96548853893E+03  0.96548853893E+03  0.00000000000E+00 0. -1.
         24    2    1    2    0    0 -0.45318432575E+02 -0.17857998299E+03 -0.26350717336E+03  0.33236579706E+03  0.84180888485E+02 0.  0.
         23    2    1    2    0    0 -0.91964119823E+02 -0.22523659451E+01 -0.22606237955E+03  0.26067538818E+03  0.91569569549E+02 0.  0.
        -11    1    3    3    0    0 -0.25310658539E+02 -0.10991814294E+03 -0.22367056784E+03  0.25050179740E+03  0.00000000000E+00 0.  1.
         12    1    3    3    0    0 -0.20007774037E+02 -0.68661840046E+02 -0.39836605523E+02  0.81863999658E+02  0.00000000000E+00 0. -1.
        -11    1    4    4    0    0 -0.97049102697E+02  0.23525590337E+02 -0.14997420243E+03  0.18017836476E+03  0.00000000000E+00 0.  1.
         11    1    4    4    0    0  0.50849828740E+01 -0.25777956282E+02 -0.76088177129E+02  0.80497023421E+02  0.00000000000E+00 0. -1.
          3    1    1    2  501    0  0.13728255240E+03  0.18083234893E+03 -0.39380311162E+03  0.45456322809E+03  0.00000000000E+00 0. -1.
<scales pt_clust_5="13000.00000" pt_clust_6="13000.00000" pt_clust_7="13000.00000" pt_clust_8="13000.00000" pt_clust_9="13000.00000"></scales>
<clustering>
<clus scale="   84.181">  5  6 -1 -1</clus>
<clus scale="   91.570">  7  8 -1 -1</clus>
<clus scale="  202.561">  2  5  1 -1</clus>
<clus scale="  127.696">  7  9 -1 -1</clus>
<clus scale="  356.838">  1  5  2 -1</clus>
</clustering>
</event>
<event>
 9    2  0.2147756E-005  0.8444396E+03  0.7546771E-02  0.1016868E+00
         21   -1    0    0  501  502  0.00000000000E+00  0.00000000000E+00  0.18168172272E+03  0.18168172272E+03  0.00000000000E+00 0. -1.
          2   -1    0    0  502    0 -0.00000000000E+00 -0.00000000000E+00 -0.12156172056E+04  0.12156172056E+04  0.00000000000E+00 0. -1.
         24    2    1    2    0    0  0.48494691784E+02  0.14054208344E+02 -0.12452119806E+03  0.15628618644E+03  0.79815959561E+02 0.  0.
         23    2    1    2    0    0  0.46360621773E+02  0.15579788493E+03  0.10100122868E+03  0.21203909109E+03  0.91307391576E+02 0.  0.
        -11    1    3    3    0    0 -0.84286744958E+01 -0.23902223943E+02 -0.25725260475E+02  0.36112987826E+02  0.00000000000E+00 0.  1.
         12    1    3    3    0    0  0.56923366280E+02  0.37956432287E+02 -0.98795937589E+02  0.12017319861E+03  0.00000000000E+00 0. -1.
        -13    1    4    4    0    0  0.53614304093E+02  0.33181576380E+02  0.26605336164E+02  0.68435038736E+02  0.00000000000E+00 0. -1.
         13    1    4    4    0    0 -0.72536823204E+01  0.12261630855E+03  0.74395892518E+02  0.14360405236E+03  0.00000000000E+00 0.  1.
          1    1    1    2  501    0 -0.94855313556E+02 -0.16985209327E+03 -0.10104155135E+04  0.10289736508E+04  0.00000000000E+00 0. -1.
<scales pt_clust_5="13000.00000" pt_clust_6="13000.00000" pt_clust_7="13000.00000" pt_clust_8="13000.00000" pt_clust_9="13000.00000"></scales>
<clustering>
<clus scale="   79.816">  5  6 -1 -1</clus>
<clus scale="   91.307">  7  8 -1 -1</clus>
<clus scale="   94.445">  2  5  1 -1</clus>
<clus scale="  163.974">  7  9 -1 -1</clus>
<clus scale="  844.440">  1  5  2 -1</clus>
</clustering>
</event>
<event>
 9    2  0.2147756E-005  0.2749086E+03  0.7546771E-02  0.1105436E+00
          2   -1    0    0  502    0 -0.00000000000E+00  0.00000000000E+00  0.14706752722E+04  0.14706752722E+04  0.00000000000E+00 0. -1.
         21   -1    0    0  501  502  0.00000000000E+00 -0.00000000000E+00 -0.45084564450E+02  0.45084564450E+02  0.00000000000E+00 0. -1.
         24    2    1    2    0    0 -0.32252766993E+02 -0.21259458326E+03  0.50144111909E+03  0.55158806133E+03  0.81052425508E+02 0.  0.
         23    2    1    2    0    0  0.78555017368E+02  0.18139615755E+03  0.76309745105E+03  0.79371641112E+03  0.92696088083E+02 0.  0.
        -11    1    3    3    0    0 -0.16867396881E+02 -0.32122226233E+02  0.17055330269E+03  0.17436965204E+03  0.00000000000E+00 0.  1.
         12    1    3    3    0    0 -0.15385370112E+02 -0.18047235703E+03  0.33088781640E+03  0.37721840929E+03  0.00000000000E+00 0. -1.
        -13    1    4    4    0    0  0.77980867394E+01  0.12788536062E+03  0.40435674890E+03  0.42416960759E+03  0.00000000000E+00 0. -1.
         13    1    4    4    0    0  0.70756930629E+02  0.53510796933E+02  0.35874070215E+03  0.36954680353E+03  0.00000000000E+00 0.  1.
          1    1    1    2  501    0 -0.46302250375E+02  0.31198425706E+02  0.16105213760E+03  0.17045536419E+03  0.00000000000E+00 0. -1.
<scales pt_clust_5="13000.00000" pt_clust_6="13000.00000" pt_clust_7="13000.00000" pt_clust_8="13000.00000" pt_clust_9="13000.00000"></scales>
<clustering>
<clus scale="   81.052">  5  6 -1 -1</clus>
<clus scale="   92.696">  7  8 -1 -1</clus>
<clus scale="   55.832">  7  9 -1 -1</clus>
<clus scale="  229.796">  1  5  2 -1</clus>
<clus scale="  274.909">  2  5  1 -1</clus>
</clustering>
</event>
<event>
 9    2  0.2147756E-005  0.2186195E+03  0.7546771E-02  0.1161392E+00
          4   -1    0    0  502    0 -0.00000000000E+00  0.00000000000E+00  0.10010608969E+03  0.10010608969E+03  0.00000000000E+00 0. -1.
         21   -1    0    0  501  502  0.00000000000E+00 -0.00000000000E+00 -0.28049234656E+03  0.28049234656E+03  0.00000000000E+00 0. -1.
         24    2    1    2    0    0 -0.57813404407E+02  0.72322313238E+02 -0.64578242783E+02  0.13319998279E+03  0.70703459985E+02 0.  0.
         23    2    1    2    0    0  0.10317893895E+02 -0.12046088067E+03 -0.70420217748E+02  0.16595401073E+03  0.89243733137E+02 0.  0.
        -11    1    3    3    0    0  0.15072153249E+02  0.26233586001E+02 -0.16075724084E+02  0.34260760979E+02  0.00000000000E+00 0.  1.
         12    1    3    3    0    0 -0.72885557655E+02  0.46088727237E+02 -0.48502518699E+02  0.98939221814E+02  0.00000000000E+00 0. -1.
        -11    1    4    4    0    0 -0.18057628027E+02 -0.64414910799E+02 -0.77908750856E+02  0.10268949373E+03  0.00000000000E+00 0.  1.
         11    1    4    4    0    0  0.28375521921E+02 -0.56045969869E+02  0.74885331077E+01  0.63264516998E+02  0.00000000000E+00 0. -1.
          3    1    1    2  501    0  0.47495510512E+02  0.48138567430E+02 -0.45387796339E+02  0.81444442717E+02  0.00000000000E+00 0. -1.
<scales pt_clust_5="13000.00000" pt_clust_6="13000.00000" pt_clust_7="13000.00000" pt_clust_8="13000.00000" pt_clust_9="13000.00000"></scales>
<clustering>
<clus scale="   70.703">  5  6 -1 -1</clus>
<clus scale="   89.244">  7  8 -1 -1</clus>
<clus scale="   67.625">  7  9 -1 -1</clus>
<clus scale="  116.498">  1  5  2 -1</clus>
<clus scale="  218.620">  2  5  1 -1</clus>
</clustering>
</event>
<event>
 9    2  0.2147756E-005  0.1405636E+04  0.7546771E-02  0.9686567E-01
         21   -1    0    0  501  502  0.00000000000E+00  0.00000000000E+00  0.32280740331E+03  0.32280740331E+03  0.00000000000E+00 0. -1.
          2   -1    0    0  502    0 -0.00000000000E+00 -0.00000000000E+00 -0.17760868476E+04  0.17760868476E+04  0.00000000000E+00 0. -1.
         24    2    1    2    0    0 -0.44954271562E+02 -0.35737430182E+02 -0.34835691117E+02  0.10194790256E+03  0.76692887629E+02 0.  0.
         23    2    1    2    0    0  0.51943325424E+03  0.16383976423E+03 -0.63886173709E+02  0.55598599182E+03  0.91567494018E+02 0.  0.
        -13    1    3    3    0    0 -0.56195271604E+02  0.47671523595E+00 -0.30053983418E+02  0.63728939481E+02  0.00000000000E+00 0.  1.
         14    1    3    3    0    0  0.11241000042E+02 -0.36214145418E+02 -0.47817076996E+01  0.38218963078E+02  0.00000000000E+00 0. -1.
        -11    1    4    4    0    0  0.44910917673E+03  0.16763027656E+03 -0.73258500284E+02  0.48493893441E+03  0.00000000000E+00 0. -1.
         11    1    4    4    0    0  0.70324077509E+02 -0.37905123397E+01  0.93723265751E+01  0.71047057411E+02  0.00000000000E+00 0.  1.
          1    1    1    2  501    0 -0.47447898268E+03 -0.12810233404E+03 -0.13545575795E+04  0.14409603566E+04  0.00000000000E+00 0. -1.
<scales pt_clust_5="13000.00000" pt_clust_6="13000.00000" pt_clust_7="13000.00000" pt_clust_8="13000.00000" pt_clust_9="13000.00000"></scales>
<clustering>
<clus scale="   76.693">  5  6 -1 -1</clus>
<clus scale="   91.567">  7  8 -1 -1</clus>
<clus scale="   95.812">  2  5  1 -1</clus>
<clus scale="  534.941">  7  9 -1 -1</clus>
<clus scale=" 1405.636">  1  5  2 -1</clus>
</clustering>
</event>
<event>
 9    2  0.2147756E-005  0.4222131E+03  0.7546771E-02  0.1088282E+00
          2   -1    0    0  502    0 -0.00000000000E+00  0.00000000000E+00  0.82775924398E+03  0.82775924398E+03  0.00000000000E+00 0. -1.
         21   -1    0    0  501  502  0.00000000000E+00 -0.00000000000E+00 -0.12394122778E+03  0.12394122778E+03  0.00000000000E+00 0.  1.
         24    2    1    2    0    0 -0.45206442722E+02  0.37180168070E+02 -0.31202768190E+02  0.10404520500E+03  0.80161116381E+02 0.  0.
         23    2    1    2    0    0 -0.69973303277E+02  0.11404069967E+03  0.11193184052E+03  0.19621535648E+03  0.89834207523E+02 0.  0.
        -13    1    3    3    0    0 -0.16692310864E+02  0.23554293550E+02 -0.56576778442E+02  0.63516689504E+02  0.00000000000E+00 0.  1.
         14    1    3    3    0    0 -0.28514131858E+02  0.13625874520E+02  0.25374010252E+02  0.40528515496E+02  0.00000000000E+00 0. -1.
        -11    1    4    4    0    0 -0.20280092798E+02 -0.18446771733E+01  0.53498445342E+02  0.57243066408E+02  0.00000000000E+00 0. -1.
         11    1    4    4    0    0 -0.49693210479E+02  0.11588537685E+03  0.58433395178E+02  0.13897229007E+03  0.00000000000E+00 0.  1.
          1    1    1    2  501    0  0.11517974600E+03 -0.15122086774E+03  0.62308894387E+03  0.65143991028E+03  0.00000000000E+00 0. -1.
<scales pt_clust_5="13000.00000" pt_clust_6="13000.00000" pt_clust_7="13000.00000" pt_clust_8="13000.00000" pt_clust_9="13000.00000"></scales>
<clustering>
<clus scale="   80.161">  5  6 -1 -1</clus>
<clus scale="   89.834">  7  8 -1 -1</clus>
<clus scale="   99.256">  1  5  2 -1</clus>
<clus scale="  144.618">  7  9 -1 -1</clus>
<clus scale="  422.213">  2  5  1 -1</clus>
</clustering>
</event>
<event>
 9    2  0.2147756E-005  0.9793428E+03  0.7546771E-02  0.9987060E-01
          2   -1    0    0  502    0 -0.00000000000E+00  0.00000000000E+00  0.86373299615E+03  0.86373299615E+03  0.00000000000E+00 0. -1.
         21   -1    0    0  501  502  0.00000000000E+00 -0.00000000000E+00 -0.34189255327E+03  0.34189255327E+03  0.00000000000E+00 0. -1.
         24    2    1    2    0    0  0.58561776799E+02 -0.32640724367E+02  0.35191329770E+02  0.11203530487E+03  0.82574701068E+02 0.  0.
         23    2    1    2    0    0  0.14130122200E+03 -0.43004682979E+03  0.14305682911E+03  0.48360610650E+03  0.92213332761E+02 0.  0.
        -11    1    3    3    0    0  0.34474982759E+02  0.16729715815E+02 -0.11427240542E+02  0.39987368679E+02  0.00000000000E+00 0.  1.
         12    1    3    3    0    0  0.24086794040E+02 -0.49370440182E+02  0.46618570313E+02  0.72047936188E+02  0.00000000000E+00 0. -1.
        -11    1    4    4    0    0  0.15134737230E+03 -0.38443284493E+03  0.11397398089E+03  0.42858453972E+03  0.00000000000E+00 0. -1.
         11    1    4    4    0    0 -0.10046150306E+02 -0.45613984853E+02  0.29082848218E+02  0.55021566777E+02  0.00000000000E+00 0.  1.
          1    1    1    2  501    0 -0.19986299879E+03  0.46268755415E+03  0.34359228401E+03  0.60998413806E+03  0.00000000000E+00 0. -1.
<scales pt_clust_5="13000.00000" pt_clust_6="13000.00000" pt_clust_7="13000.00000" pt_clust_8="13000.00000" pt_clust_9="13000.00000"></scales>
<clustering>
<clus scale="   82.575">  5  6 -1 -1</clus>
<clus scale="   92.213">  7  8 -1 -1</clus>
<clus scale="  106.365">  1  5  2 -1</clus>
<clus scale="  472.556">  7  9 -1 -1</clus>
<clus scale="  979.343">  2  5  1 -1</clus>
</clustering>
</event>
<event>
 9    2  0.2147756E-005  0.7279700E+03  0.7546771E-02  0.1034790E+00
          2   -1    0    0  502    0 -0.00000000000E+00  0.00000000000E+00  0.69205322794E+03  0.69205322794E+03  0.00000000000E+00 0. -1.
         21   -1    0    0  501  502  0.00000000000E+00 -0.00000000000E+00 -0.27615782083E+03  0.27615782083E+03  0.00000000000E+00 0. -1.
         24    2    1    2    0    0 -0.41603040094E+01  0.56668988249E+01 -0.54013875195E+02  0.10174978482E+03  0.85942411677E+02 0.  0.
         23    2    1    2    0    0 -0.92297930966E+02 -0.34803250042E+03  0.21959394792E+03  0.43151740221E+03  0.91324898236E+02 0.  0.
        -11    1    3    3    0    0  0.27610637388E+02 -0.28312978179E+02 -0.27946688593E+02  0.48425090951E+02  0.00000000000E+00 0.  1.
         12    1    3    3    0    0 -0.31770941397E+02  0.33979877004E+02 -0.26067186602E+02  0.53324693865E+02  0.00000000000E+00 0. -1.
        -13    1    4    4    0    0 -0.57683423154E+02 -0.12335309374E+03  0.40361994188E+02  0.14202976314E+03  0.00000000000E+00 0. -1.
         13    1    4    4    0    0 -0.34614507812E+02 -0.22467940667E+03  0.17923195373E+03  0.28948763907E+03  0.00000000000E+00 0.  1.
          1    1    1    2  501    0  0.96458234975E+02  0.34236560159E+03  0.25031533439E+03  0.43494386175E+03  0.00000000000E+00 0. -1.
<scales pt_clust_5="13000.00000" pt_clust_6="13000.00000" pt_clust_7="13000.00000" pt_clust_8="13000.00000" pt_clust_9="13000.00000"></scales>
<clustering>
<clus scale="   85.942">  5  6 -1 -1</clus>
<clus scale="   86.230">  1  5  2 -1</clus>
<clus scale="   91.325">  7  8 -1 -1</clus>
<clus scale="  357.924">  7  9 -1 -1</clus>
<clus scale="  727.970">  2  5  1 -1</clus>
</clustering>
</event>
<event>
 9    2  0.2147756E-005  0.6953583E+03  0.7546771E-02  0.1029793E+00
         21   -1    0    0  501  502  0.00000000000E+00  0.00000000000E+00  0.25578365527E+03  0.25578365527E+03  0.00000000000E+00 0. -1.
          2   -1    0    0  502    0 -0.00000000000E+00 -0.00000000000E+00 -0.69803340668E+03  0.69803340668E+03  0.00000000000E+00 0. -1.
         24    2    1    2    0    0  0.70010859397E+02 -0.34475603138E+02 -0.17425278969E+03  0.20860194386E+03  0.84027665811E+02 0.  0.
         23    2    1    2    0    0  0.27852430797E+03 -0.10852898408E+03 -0.83832254547E+02  0.32587788599E+03  0.99066740937E+02 0.  0.
        -11    1    3    3    0    0 -0.97769511760E+01 -0.17747142807E+02 -0.51990295141E+01  0.20918407205E+02  0.00000000000E+00 0.  1.
         12    1    3    3    0    0  0.79787810573E+02 -0.16728460331E+02 -0.16905376018E+03  0.18768353666E+03  0.00000000000E+00 0. -1.
        -13    1    4    4    0    0  0.15444562538E+03 -0.30508913733E+02 -0.85804738431E+02  0.17929500315E+03  0.00000000000E+00 0. -1.
         13    1    4    4    0    0  0.12407868259E+03 -0.78020070346E+02  0.19724838846E+01  0.14658288285E+03  0.00000000000E+00 0.  1.
          1    1    1    2  501    0 -0.34853516737E+03  0.14300458722E+03 -0.18416470717E+03  0.41933723210E+03  0.00000000000E+00 0. -1.
<scales pt_clust_5="13000.00000" pt_clust_6="13000.00000" pt_clust_7="13000.00000" pt_clust_8="13000.00000" pt_clust_9="13000.00000"></scales>
<clustering>
<clus scale="   84.028">  5  6 -1 -1</clus>
<clus scale="   99.067">  7  8 -1 -1</clus>
<clus scale="  114.677">  2  5  1 -1</clus>
<clus scale="  330.373">  7  9 -1 -1</clus>
<clus scale="  695.358">  1  5  2 -1</clus>
</clustering>
</event>
<event>
 9    2  0.2147756E-005  0.3297709E+03  0.7546771E-02  0.1090351E+00
          2   -1    0    0  502    0 -0.00000000000E+00  0.00000000000E+00  0.10409437243E+04  0.10409437243E+04  0.00000000000E+00 0. -1.
         21   -1    0    0  501  502  0.00000000000E+00 -0.00000000000E+00 -0.84474168195E+02  0.84474168195E+02  0.00000000000E+00 0. -1.
         24    2    1    2    0    0  0.24145431777E+02  0.17849880505E+03  0.63486304271E+03  0.66478833738E+03  0.80297106049E+02 0.  0.
         23    2    1    2    0    0 -0.83872681028E+01  0.28968126170E+02  0.18949821254E+03  0.21416769105E+03  0.95124806100E+02 0.  0.
        -13    1    3    3    0    0  0.11377177121E+02  0.40106031650E+02  0.58051904162E+02  0.71469976289E+02  0.00000000000E+00 0.  1.
         14    1    3    3    0    0  0.12768254656E+02  0.13839277340E+03  0.57681113855E+03  0.59331836109E+03  0.00000000000E+00 0. -1.
        -13    1    4    4    0    0 -0.30300250409E+02  0.55238962688E+02  0.98230728914E+02  0.11669928996E+03  0.00000000000E+00 0. -1.
         13    1    4    4    0    0  0.21912982306E+02 -0.26270836518E+02  0.91267483625E+02  0.97468401096E+02  0.00000000000E+00 0.  1.
          1    1    1    2  501    0 -0.15758163674E+02 -0.20746693122E+03  0.13210830081E+03  0.24646186402E+03  0.00000000000E+00 0. -1.
<scales pt_clust_5="13000.00000" pt_clust_6="13000.00000" pt_clust_7="13000.00000" pt_clust_8="13000.00000" pt_clust_9="13000.00000"></scales>
<clustering>
<clus scale="   80.297">  5  6 -1 -1</clus>
<clus scale="   95.125">  7  8 -1 -1</clus>
<clus scale="  197.212">  1  5  2 -1</clus>
<clus scale="  121.149">  7  9 -1 -1</clus>
<clus scale="  329.771">  2  5  1 -1</clus>
</clustering>
</event>
<event>
 9    2  0.2147756E-005  0.4522851E+03  0.7546771E-02  0.1078637E+00
         21   -1    0    0  501  502  0.00000000000E+00  0.00000000000E+00  0.69326117178E+02  0.69326117178E+02  0.00000000000E+00 0. -1.
          2   -1    0    0  502    0 -0.00000000000E+00 -0.00000000000E+00 -0.14360834470E+04  0.14360834470E+04  0.00000000000E+00 0. -1.
         24    2    1    2    0    0 -0.69646390954E+02 -0.61879954670E+01 -0.55507206821E+02  0.11834838573E+03  0.77694139644E+02 0.  0.
         23    2    1    2    0    0  0.11160856039E+03 -0.18311661262E+03 -0.93506376200E+03  0.96384346083E+03  0.93068863801E+02 0.  0.
        -13    1    3    3    0    0 -0.68815059511E+02  0.16334569737E+00 -0.72638069541E+02  0.10005912374E+03  0.00000000000E+00 0.  1.
         14    1    3    3    0    0 -0.83133144307E+00 -0.63513411643E+01  0.17130862720E+02  0.18289261988E+02  0.00000000000E+00 0. -1.
        -13    1    4    4    0    0  0.51671882093E+02 -0.12306796028E+03 -0.72691390781E+03  0.73906666520E+03  0.00000000000E+00 0. -1.
         13    1    4    4    0    0  0.59936678295E+02 -0.60048652345E+02 -0.20814985420E+03  0.22477679563E+03  0.00000000000E+00 0.  1.
          1    1    1    2  501    0 -0.41962169434E+02  0.18930460809E+03 -0.37618636103E+03  0.42321771765E+03  0.00000000000E+00 0. -1.
<scales pt_clust_5="13000.00000" pt_clust_6="13000.00000" pt_clust_7="13000.00000" pt_clust_8="13000.00000" pt_clust_9="13000.00000"></scales>
<clustering>
<clus scale="   77.694">  5  6 -1 -1</clus>
<clus scale="   93.069">  7  8 -1 -1</clus>
<clus scale="  104.524">  2  5  1 -1</clus>
<clus scale="  197.646">  7  9 -1 -1</clus>
<clus scale="  452.285">  1  5  2 -1</clus>
</clustering>
</event>
<event>
 9    2  0.2147756E-005  0.1904106E+03  0.7546771E-02  0.1188179E+00
         21   -1    0    0  501  502  0.00000000000E+00  0.00000000000E+00  0.87650609778E+03  0.87650609778E+03  0.00000000000E+00 0. -1.
          4   -1    0    0  502    0 -0.00000000000E+00 -0.00000000000E+00 -0.24379411369E+02  0.24379411369E+02  0.00000000000E+00 0. -1.
         24    2    1    2    0    0  0.49052734046E+02 -0.14713468763E+02  0.37669029956E+03  0.38873713051E+03  0.81230031237E+02 0.  0.
         23    2    1    2    0    0  0.32435351441E+02 -0.11379049646E+02  0.31872345222E+03  0.33359846552E+03  0.92313392361E+02 0.  0.
        -11    1    3    3    0    0  0.46325829837E+02 -0.29775330952E+02  0.12513506082E+03  0.13671662770E+03  0.00000000000E+00 0.  1.
         12    1    3    3    0    0  0.27269042093E+01  0.15061862189E+02  0.25155523874E+03  0.25202050281E+03  0.00000000000E+00 0. -1.
        -11    1    4    4    0    0  0.21501375486E+02 -0.51731338067E+02  0.16289455882E+03  0.17225875240E+03  0.00000000000E+00 0. -1.
         11    1    4    4    0    0  0.10933975956E+02  0.40352288422E+02  0.15582889340E+03  0.16133971312E+03  0.00000000000E+00 0.  1.
          3    1    1    2  501    0 -0.81488085488E+02  0.26092518409E+02  0.15671293463E+03  0.17854991312E+03  0.00000000000E+00 0. -1.
<scales pt_clust_5="13000.00000" pt_clust_6="13000.00000" pt_clust_7="13000.00000" pt_clust_8="13000.00000" pt_clust_9="13000.00000"></scales>
<clustering>
<clus scale="   81.230">  5  6 -1 -1</clus>
<clus scale="   92.313">  7  8 -1 -1</clus>
<clus scale="   85.564">  7  9 -1 -1</clus>
<clus scale="   96.026">  2  5  1 -1</clus>
<clus scale="  190.411">  1  5  2 -1</clus>
</clustering>
</event>
<event>
 9    2  0.2147756E-005  0.3370916E+03  0.7546771E-02  0.1114939E+00
         21   -1    0    0  501  502  0.00000000000E+00  0.00000000000E+00  0.39694213951E+03  0.39694213951E+03  0.00000000000E+00 0.  1.
         -1   -1    0    0    0  501 -0.00000000000E+00 -0.00000000000E+00 -0.16127418093E+03  0.16127418093E+03  0.00000000000E+00 0.  1.
         24    2    1    2    0    0 -0.57919948726E+02 -0.64239914487E+01 -0.55750591798E+02  0.11262062885E+03  0.78608456480E+02 0.  0.
         23    2    1    2    0    0 -0.47613523490E+02 -0.55260009154E+02 -0.11437745127E+02  0.11900088849E+03  0.93325630005E+02 0.  0.
        -13    1    3    3    0    0 -0.39728261567E+02  0.34637221754E+02 -0.33981671383E+02  0.62712246714E+02  0.00000000000E+00 0.  1.
         14    1    3    3    0    0 -0.18191687159E+02 -0.41061213203E+02 -0.21768920415E+02  0.49908382136E+02  0.00000000000E+00 0. -1.
        -13    1    4    4    0    0  0.11440046965E+02 -0.51334557077E+02 -0.25076016164E+02  0.58265924960E+02  0.00000000000E+00 0.  1.
         13    1    4    4    0    0 -0.59053570455E+02 -0.39254520775E+01  0.13638271037E+02  0.60734963525E+02  0.00000000000E+00 0. -1.
         -2    1    1    2    0  502  0.10553347222E+03  0.61684000603E+02  0.30285629551E+03  0.32659480311E+03  0.00000000000E+00 0.  1.
<scales pt_clust_5="13000.00000" pt_clust_6="13000.00000" pt_clust_7="13000.00000" pt_clust_8="13000.00000" pt_clust_9="13000.00000"></scales>
<clustering>
<clus scale="   78.608">  5  6 -1 -1</clus>
<clus scale="   93.326">  7  8 -1 -1</clus>
<clus scale="   97.853">  2  5  1 -1</clus>
<clus scale="  114.098">  7  9 -1 -1</clus>
<clus scale="  337.092">  1  5  2 -1</clus>
</clustering>
</event>
<event>
 9    2  0.2147756E-005  0.2777955E+03  0.7546771E-02  0.1145013E+00
         21   -1    0    0  501  502  0.00000000000E+00  0.00000000000E+00  0.55412066682E+03  0.55412066682E+03  0.00000000000E+00 0. -1.
          4   -1    0    0  502    0 -0.00000000000E+00 -0.00000000000E+00 -0.12020982701E+03  0.12020982701E+03  0.00000000000E+00 0. -1.
         24    2    1    2    0    0  0.73898648095E+01 -0.29281137294E+02 -0.63285720859E+02  0.10479139920E+03  0.77872715233E+02 0.  0.
         23    2    1    2    0    0  0.22690249747E+02  0.71677733469E+02  0.50326778079E+03  0.51720225891E+03  0.92559021874E+02 0.  0.
        -11    1    3    3    0    0 -0.86760376156E+01  0.23516861015E+02 -0.71395856327E+01  0.26063193659E+02  0.00000000000E+00 0.  1.
         12    1    3    3    0    0  0.16065902425E+02 -0.52797998309E+02 -0.56146135227E+02  0.78728205537E+02  0.00000000000E+00 0. -1.
        -11    1    4    4    0    0  0.18860521913E+02 -0.15234978075E+02  0.48896226805E+02  0.54577145762E+02  0.00000000000E+00 0.  1.
         11    1    4    4    0    0  0.38297278342E+01  0.86912711544E+02  0.45437155399E+03  0.46262511315E+03  0.00000000000E+00 0. -1.
          3    1    1    2  501    0 -0.30080114556E+02 -0.42396596175E+02 -0.60712201236E+01  0.52336835716E+02  0.00000000000E+00 0. -1.
<scales pt_clust_5="13000.00000" pt_clust_6="13000.00000" pt_clust_7="13000.00000" pt_clust_8="13000.00000" pt_clust_9="13000.00000"></scales>
<clustering>
<clus scale="   77.873">  5  6 -1 -1</clus>
<clus scale="   83.523">  2  5  1 -1</clus>
<clus scale="   92.559">  7  8 -1 -1</clus>
<clus scale="   70.303">  7  9 -1 -1</clus>
<clus scale="  277.796">  1  5  2 -1</clus>
</clustering>
</event>
<event>
 9    2  0.2147756E-005  0.3887449E+03  0.7546771E-02  0.1078074E+00
         21   -1    0    0  501  502  0.00000000000E+00  0.00000000000E+00  0.21892180787E+03  0.21892180787E+03  0.00000000000E+00 0.  1.
         -3   -1    0    0    0  501 -0.00000000000E+00 -0.00000000000E+00 -0.35378449160E+03  0.35378449160E+03  0.00000000000E+00 0.  1.
         24    2    1    2    0    0 -0.12297108166E+03 -0.79398391330E+02 -0.53974436072E+02  0.17563513748E+03  0.80675090929E+02 0.  0.
         23    2    1    2    0    0 -0.10423207105E+03  0.79382023602E+01 -0.31322839868E+01  0.14652411831E+03  0.10262634335E+03 0.  0.
        -13    1    3    3    0    0 -0.68591034742E+02 -0.87497456378E+02 -0.44943437634E+02  0.11991850360E+03  0.00000000000E+00 0.  1.
         14    1    3    3    0    0 -0.54380046921E+02  0.80990650478E+01 -0.90309984378E+01  0.55716633877E+02  0.00000000000E+00 0. -1.
        -11    1    4    4    0    0 -0.66506034524E+02 -0.59737403371E+01  0.47443397406E+02  0.81912234490E+02  0.00000000000E+00 0.  1.
         11    1    4    4    0    0 -0.37726036530E+02  0.13911942697E+02 -0.50575681393E+02  0.64611883816E+02  0.00000000000E+00 0. -1.
         -4    1    1    2    0  502  0.22720315272E+03  0.71460188970E+02 -0.77755963668E+02  0.25054704368E+03  0.00000000000E+00 0.  1.
<scales pt_clust_5="13000.00000" pt_clust_6="13000.00000" pt_clust_7="13000.00000" pt_clust_8="13000.00000" pt_clust_9="13000.00000"></scales>
<clustering>
<clus scale="   80.675">  5  6 -1 -1</clus>
<clus scale="  102.626">  7  8 -1 -1</clus>
<clus scale="  167.136">  2  5  1 -1</clus>
<clus scale="  143.736">  7  9 -1 -1</clus>
<clus scale="  388.745">  1  5  2 -1</clus>
</clustering>
</event>
<event>
 9    2  0.2147756E-005  0.2714914E+03  0.7546771E-02  0.1137525E+00
         21   -1    0    0  501  502  0.00000000000E+00  0.00000000000E+00  0.74407708966E+02  0.74407708966E+02  0.00000000000E+00 0.  1.
          2   -1    0    0  502    0 -0.00000000000E+00 -0.00000000000E+00 -0.65289756081E+03  0.65289756081E+03  0.00000000000E+00 0. -1.
         24    2    1    2    0    0  0.45918341482E+01  0.67214553684E+02 -0.36941385232E+03  0.38463873354E+03  0.83315544050E+02 0.  0.
         23    2    1    2    0    0 -0.10453811239E+03 -0.83280374445E+02 -0.16830838850E+03  0.23353648886E+03  0.91365968947E+02 0.  0.
        -11    1    3    3    0    0  0.27724662715E+02 -0.18034514109E+01 -0.51695114241E+02  0.58688109494E+02  0.00000000000E+00 0.  1.
         12    1    3    3    0    0 -0.23132828567E+02  0.69018005095E+02 -0.31771873808E+03  0.32595062404E+03  0.00000000000E+00 0. -1.
        -11    1    4    4    0    0 -0.28609752019E+02 -0.48025894071E+02 -0.13446564937E+02  0.57496213097E+02  0.00000000000E+00 0.  1.
         11    1    4    4    0    0 -0.75928360375E+02 -0.35254480373E+02 -0.15486182356E+03  0.17604027576E+03  0.00000000000E+00 0. -1.
          1    1    1    2  501    0  0.99946278246E+02  0.16065820760E+02 -0.40767611025E+02  0.10913004738E+03  0.00000000000E+00 0. -1.
<scales pt_clust_5="13000.00000" pt_clust_6="13000.00000" pt_clust_7="13000.00000" pt_clust_8="13000.00000" pt_clust_9="13000.00000"></scales>
<clustering>
<clus scale="   83.316">  5  6 -1 -1</clus>
<clus scale="   91.366">  7  8 -1 -1</clus>
<clus scale="  101.229">  7  9 -1 -1</clus>
<clus scale="  107.146">  2  5  1 -1</clus>
<clus scale="  271.491">  1  5  2 -1</clus>
</clustering>
</event>
<event>
 9    2  0.2301991E-005  0.5309338E+03  0.7546771E-02  0.1038884E+00
         21   -1    0    0  501  502  0.00000000000E+00  0.00000000000E+00  0.35376890018E+03  0.35376890018E+03  0.00000000000E+00 0. -1.
          2   -1    0    0  502    0 -0.00000000000E+00 -0.00000000000E+00 -0.38021102083E+03  0.38021102083E+03  0.00000000000E+00 0. -1.
         24    2    1    2    0    0 -0.13867761639E+03 -0.11338380245E+03 -0.46876751741E+02  0.20265307051E+03  0.82361818746E+02 0.  0.
         23    2    1    2    0    0 -0.89256865088E+02 -0.97759256010E+02 -0.10991753825E+03  0.19438886357E+03  0.90451671981E+02 0.  0.
        -13    1    3    3    0    0  0.84826078667E+01 -0.19619025858E+02  0.19331327627E+01  0.21461542678E+02  0.00000000000E+00 0.  1.
         14    1    3    3    0    0 -0.14716022425E+03 -0.93764776597E+02 -0.48809884504E+02  0.18119152783E+03  0.00000000000E+00 0. -1.
        -13    1    4    4    0    0 -0.67647396370E+02 -0.11277008557E+03 -0.77516577391E+02  0.15265019556E+03  0.00000000000E+00 0.  1.
         13    1    4    4    0    0 -0.21609468718E+02  0.15010829560E+02 -0.32400960862E+02  0.41738668009E+02  0.00000000000E+00 0. -1.
          1    1    1    2  501    0  0.22793448147E+03  0.21114305846E+03  0.13035216934E+03  0.33693798693E+03  0.00000000000E+00 0. -1.
<scales pt_clust_5="13000.00000" pt_clust_6="13000.00000" pt_clust_7="13000.00000" pt_clust_8="13000.00000" pt_clust_9="13000.00000"></scales>
<clustering>
<clus scale="   82.362">  5  6 -1 -1</clus>
<clus scale="   90.452">  7  8 -1 -1</clus>
<clus scale="  197.157">  2  5  1 -1</clus>
<clus scale="  238.449">  7  9 -1 -1</clus>
<clus scale="  530.934">  1  5  2 -1</clus>
</clustering>
</event>
<event>
 9    2  0.2147756E-005  0.1663799E+03  0.7546771E-02  0.1198032E+00
         21   -1    0    0  501  502  0.00000000000E+00  0.00000000000E+00  0.11796224827E+03  0.11796224827E+03  0.00000000000E+00 0.  1.
         -1   -1    0    0    0  501 -0.00000000000E+00 -0.00000000000E+00 -0.28273885672E+03  0.28273885672E+03  0.00000000000E+00 0.  1.
         24    2    1    2    0    0 -0.49929328128E+01 -0.90924519933E+02 -0.19950890746E+03  0.23073461353E+03  0.71710947712E+02 0.  0.
         23    2    1    2    0    0  0.76390477400E+00  0.17117678181E+02  0.23280231546E+02  0.95156836891E+02  0.90660112339E+02 0.  0.
        -11    1    3    3    0    0 -0.14762220139E+02 -0.86521844847E+02 -0.20154443951E+03  0.21982746388E+03  0.00000000000E+00 0.  1.
         12    1    3    3    0    0  0.97692873267E+01 -0.44026750861E+01  0.20355320476E+01  0.10907149651E+02  0.00000000000E+00 0. -1.
        -11    1    4    4    0    0  0.23600364375E+01  0.41150490986E+02 -0.19856278388E+02  0.45751551578E+02  0.00000000000E+00 0. -1.
         11    1    4    4    0    0 -0.15961316635E+01 -0.24032812805E+02  0.43136509933E+02  0.49405285313E+02  0.00000000000E+00 0.  1.
         -2    1    1    2    0  502  0.42290280388E+01  0.73806841752E+02  0.11452067462E+02  0.74809654569E+02  0.00000000000E+00 0.  1.
<scales pt_clust_5="13000.00000" pt_clust_6="13000.00000" pt_clust_7="13000.00000" pt_clust_8="13000.00000" pt_clust_9="13000.00000"></scales>
<clustering>
<clus scale="   71.711">  5  6 -1 -1</clus>
<clus scale="   90.660">  7  8 -1 -1</clus>
<clus scale="   73.928">  7  9 -1 -1</clus>
<clus scale="  115.908">  2  5  1 -1</clus>
<clus scale="  166.380">  1  5  2 -1</clus>
</clustering>
</event>
<event>
 9    2  0.2147756E-005  0.2179934E+03  0.7546771E-02  0.1159889E+00
         21   -1    0    0  501  502  0.00000000000E+00  0.00000000000E+00  0.58326501648E+03  0.58326501648E+03  0.00000000000E+00 0. -1.
          2   -1    0    0  502    0 -0.00000000000E+00 -0.00000000000E+00 -0.91442760898E+02  0.91442760898E+02  0.00000000000E+00 0. -1.
         24    2    1    2    0    0  0.89680968938E+02  0.14491823796E+02 -0.15372408686E+02  0.12265023347E+03  0.80957270678E+02 0.  0.
         23    2    1    2    0    0  0.15592788199E+02  0.21079274071E+02  0.15959962116E+03  0.18713264623E+03  0.94122884431E+02 0.  0.
        -11    1    3    3    0    0  0.64644617983E+02 -0.17726512655E+02  0.18591794714E+02  0.69561560619E+02  0.00000000000E+00 0.  1.
         12    1    3    3    0    0  0.25036350954E+02  0.32218336450E+02 -0.33964203400E+02  0.53088672853E+02  0.00000000000E+00 0. -1.
        -11    1    4    4    0    0  0.42039730287E+02  0.35307870696E+02  0.52721145027E+02  0.76115069393E+02  0.00000000000E+00 0. -1.
         11    1    4    4    0    0 -0.26446942088E+02 -0.14228596625E+02  0.10687847613E+03  0.11101757684E+03  0.00000000000E+00 0.  1.
          1    1    1    2  501    0 -0.10527375714E+03 -0.35571097867E+02  0.34759504311E+03  0.36492489767E+03  0.00000000000E+00 0. -1.
<scales pt_clust_5="13000.00000" pt_clust_6="13000.00000" pt_clust_7="13000.00000" pt_clust_8="13000.00000" pt_clust_9="13000.00000"></scales>
<clustering>
<clus scale="   80.957">  5  6 -1 -1</clus>
<clus scale="   94.123">  7  8 -1 -1</clus>
<clus scale="  111.121">  7  9 -1 -1</clus>
<clus scale="  121.683">  2  5  1 -1</clus>
<clus scale="  217.993">  1  5  2 -1</clus>
</clustering>
</event>
<event>
 9    2  0.2147756E-005  0.4181058E+03  0.7546771E-02  0.1087394E+00
          2   -1    0    0  502    0 -0.00000000000E+00  0.00000000000E+00  0.11294866726E+04  0.11294866726E+04  0.00000000000E+00 0. -1.
         21   -1    0    0  501  502  0.00000000000E+00 -0.00000000000E+00 -0.10711619692E+03  0.10711619692E+03  0.00000000000E+00 0. -1.
         24    2    1    2    0    0  0.52453560113E+02  0.40248218051E+02  0.70229109175E+03  0.71004493179E+03  0.81115550860E+02 0.  0.
         23    2    1    2    0    0 -0.45624446628E+02  0.13436277539E+03  0.30697193100E+03  0.35132254988E+03  0.95188350599E+02 0.  0.
        -13    1    3    3    0    0  0.16813042755E+02  0.37089109758E+02  0.12129758725E+03  0.12795071372E+03  0.00000000000E+00 0.  1.
         14    1    3    3    0    0  0.35640517357E+02  0.31591082932E+01  0.58099350450E+03  0.58209421807E+03  0.00000000000E+00 0. -1.
        -11    1    4    4    0    0 -0.38964457132E+02  0.51604266336E+02  0.22705665392E+03  0.23608463167E+03  0.00000000000E+00 0.  1.
         11    1    4    4    0    0 -0.66599894963E+01  0.82758509058E+02  0.79915277088E+02  0.11523791821E+03  0.00000000000E+00 0. -1.
          1    1    1    2  501    0 -0.68291134846E+01 -0.17461099345E+03  0.13107452896E+02  0.17523538782E+03  0.00000000000E+00 0. -1.
<scales pt_clust_5="13000.00000" pt_clust_6="13000.00000" pt_clust_7="13000.00000" pt_clust_8="13000.00000" pt_clust_9="13000.00000"></scales>
<clustering>
<clus scale="   81.116">  5  6 -1 -1</clus>
<clus scale="   95.188">  7  8 -1 -1</clus>
<clus scale="  104.647">  1  5  2 -1</clus>
<clus scale="  165.728">  7  9 -1 -1</clus>
<clus scale="  418.106">  2  5  1 -1</clus>
</clustering>
</event>
<event>
 9    2  0.2147756E-005  0.5080381E+03  0.7546771E-02  0.1060487E+00
         21   -1    0    0  501  502  0.00000000000E+00  0.00000000000E+00  0.78242636486E+03  0.78242636486E+03  0.00000000000E+00 0.  1.
          2   -1    0    0  502    0 -0.00000000000E+00 -0.00000000000E+00 -0.13147572220E+03  0.13147572220E+03  0.00000000000E+00 0. -1.
         24    2    1    2    0    0 -0.48705223903E+02 -0.71743045882E+02  0.62820616047E+02  0.13672795211E+03  0.85022582999E+02 0.  0.
         23    2    1    2    0    0 -0.13698988085E+03  0.54970460778E+02  0.55789252421E+03  0.58828713674E+03  0.11423531710E+03 0.  0.
        -11    1    3    3    0    0 -0.49156103361E+01 -0.30811681965E+02  0.69727860284E+02  0.76390427870E+02  0.00000000000E+00 0.  1.
         12    1    3    3    0    0 -0.43789613567E+02 -0.40931363916E+02 -0.69072442365E+01  0.60337524240E+02  0.00000000000E+00 0. -1.
        -11    1    4    4    0    0 -0.14876368705E+03  0.71978364130E+02  0.47809529439E+03  0.50585237966E+03  0.00000000000E+00 0.  1.
         11    1    4    4    0    0  0.11773806193E+02 -0.17007903352E+02  0.79797229813E+02  0.82434757079E+02  0.00000000000E+00 0. -1.
          1    1    1    2  501    0  0.18569510476E+03  0.16772585104E+02  0.30237502405E+02  0.18888699821E+03  0.00000000000E+00 0. -1.
<scales pt_clust_5="13000.00000" pt_clust_6="13000.00000" pt_clust_7="13000.00000" pt_clust_8="13000.00000" pt_clust_9="13000.00000"></scales>
<clustering>
<clus scale="   85.023">  5  6 -1 -1</clus>
<clus scale="  114.235">  7  8 -1 -1</clus>
<clus scale="  121.442">  2  5  1 -1</clus>
<clus scale="  151.194">  7  9 -1 -1</clus>
<clus scale="  508.038">  1  5  2 -1</clus>
</clustering>
</event>
<event>
 9    2  0.2147756E-005  0.1843320E+03  0.7546771E-02  0.1189444E+00
          2   -1    0    0  502    0 -0.00000000000E+00  0.00000000000E+00  0.22762755812E+03  0.22762755812E+03  0.00000000000E+00 0. -1.
         21   -1    0    0  501  502  0.00000000000E+00 -0.00000000000E+00 -0.95896537651E+02  0.95896537651E+02  0.00000000000E+00 0. -1.
         24    2    1    2    0    0  0.25167481672E+02 -0.49584401907E+02  0.84691630259E+02  0.13328477969E+03  0.86603378770E+02 0.  0.
         23    2    1    2    0    0  0.26869886726E+02 -0.20113841306E+02  0.33039518607E+02  0.10213863946E+03  0.90631862258E+02 0.  0.
        -11    1    3    3    0    0 -0.27692111475E+02 -0.38299988488E+01  0.44760438053E+02  0.52773276796E+02  0.00000000000E+00 0.  1.
         12    1    3    3    0    0  0.52859593147E+02 -0.45754403058E+02  0.39931192206E+02  0.80511502892E+02  0.00000000000E+00 0. -1.
        -11    1    4    4    0    0 -0.59494332360E+01 -0.51138084975E+02  0.17256695567E+02  0.54298186274E+02  0.00000000000E+00 0.  1.
         11    1    4    4    0    0  0.32819319962E+02  0.31024243669E+02  0.15782823040E+02  0.47840453187E+02  0.00000000000E+00 0. -1.
          1    1    1    2  501    0 -0.52037368398E+02  0.69698243213E+02  0.13999871606E+02  0.88100676624E+02  0.00000000000E+00 0. -1.
<scales pt_clust_5="13000.00000" pt_clust_6="13000.00000" pt_clust_7="13000.00000" pt_clust_8="13000.00000" pt_clust_9="13000.00000"></scales>
<clustering>
<clus scale="   86.603">  5  6 -1 -1</clus>
<clus scale="   90.632">  7  8 -1 -1</clus>
<clus scale="   86.981">  7  9 -1 -1</clus>
<clus scale="  102.918">  1  5  2 -1</clus>
<clus scale="  184.332">  2  5  1 -1</clus>
</clustering>
</event>
<event>
 9    2  0.2147756E-005  0.2800550E+03  0.7546771E-02  0.1139331E+00
         21   -1    0    0  501  502  0.00000000000E+00  0.00000000000E+00  0.64563085097E+03  0.64563085097E+03  0.00000000000E+00 0.  1.
         -3   -1    0    0    0  501 -0.00000000000E+00 -0.00000000000E+00 -0.56351197854E+02  0.56351197854E+02  0.00000000000E+00 0.  1.
         24    2    1    2    0    0 -0.35481844937E+02 -0.41177665936E+02  0.91221278649E+02  0.13058641585E+03  0.76006110510E+02 0.  0.
         23    2    1    2    0    0  0.17415156719E+02  0.14188651924E+03  0.37239224322E+03  0.40934423711E+03  0.91932853856E+02 0.  0.
        -11    1    3    3    0    0 -0.29447541089E+02  0.10938475356E+02  0.83504776756E+01  0.32504436570E+02  0.00000000000E+00 0.  1.
         12    1    3    3    0    0 -0.60343038478E+01 -0.52116141292E+02  0.82870800974E+02  0.98081979283E+02  0.00000000000E+00 0. -1.
        -13    1    4    4    0    0 -0.58545597747E+01  0.40505032862E+02  0.28003150587E+02  0.49589414194E+02  0.00000000000E+00 0. -1.
         13    1    4    4    0    0  0.23269716494E+02  0.10138148638E+03  0.34438909263E+03  0.35975482291E+03  0.00000000000E+00 0.  1.
         -4    1    1    2    0  502  0.18066688218E+02 -0.10070885331E+03  0.12566613125E+03  0.16205139586E+03  0.00000000000E+00 0.  1.
<scales pt_clust_5="13000.00000" pt_clust_6="13000.00000" pt_clust_7="13000.00000" pt_clust_8="13000.00000" pt_clust_9="13000.00000"></scales>
<clustering>
<clus scale="   76.006">  5  6 -1 -1</clus>
<clus scale="   91.933">  7  8 -1 -1</clus>
<clus scale="   93.442">  2  5  1 -1</clus>
<clus scale="  121.140">  7  9 -1 -1</clus>
<clus scale="  280.055">  1  5  2 -1</clus>
</clustering>
</event>
<event>
 9    2  0.2147756E-005  0.3071500E+03  0.7546771E-02  0.1114982E+00
          2   -1    0    0  502    0 -0.00000000000E+00  0.00000000000E+00  0.14309840028E+04  0.14309840028E+04  0.00000000000E+00 0. -1.
         21   -1    0    0  501  502  0.00000000000E+00 -0.00000000000E+00 -0.40585338422E+02  0.40585338422E+02  0.00000000000E+00 0. -1.
         24    2    1    2    0    0  0.72630649748E+02 -0.71075021803E+02  0.75323940280E+03  0.76424123880E+03  0.79801022220E+02 0.  0.
         23    2    1    2    0    0 -0.43827304598E+02 -0.86485410687E+02  0.39428894703E+03  0.41639698984E+03  0.92315331926E+02 0.  0.
        -11    1    3    3    0    0  0.18829550386E+02 -0.11081521754E+02  0.33438249461E+02  0.39943317578E+02  0.00000000000E+00 0.  1.
         12    1    3    3    0    0  0.53801099362E+02 -0.59993500049E+02  0.71980115334E+03  0.72429792122E+03  0.00000000000E+00 0. -1.
        -13    1    4    4    0    0  0.27448526491E+02 -0.10710199360E+02  0.74598086456E+02  0.80206012740E+02  0.00000000000E+00 0.  1.
         13    1    4    4    0    0 -0.71275831089E+02 -0.75775211327E+02  0.31969086058E+03  0.33619097710E+03  0.00000000000E+00 0. -1.
          1    1    1    2  501    0 -0.28803345150E+02  0.15756043249E+03  0.24287031455E+03  0.29093111258E+03  0.00000000000E+00 0. -1.
<scales pt_clust_5="13000.00000" pt_clust_6="13000.00000" pt_clust_7="13000.00000" pt_clust_8="13000.00000" pt_clust_9="13000.00000"></scales>
<clustering>
<clus scale="   79.801">  5  6 -1 -1</clus>
<clus scale="   92.315">  7  8 -1 -1</clus>
<clus scale="  129.209">  1  5  2 -1</clus>
<clus scale="  129.342">  7  9 -1 -1</clus>
<clus scale="  307.150">  2  5  1 -1</clus>
</clustering>
</event>
<event>
 9    2  0.2147756E-005  0.4941927E+03  0.7546771E-02  0.1066875E+00
         21   -1    0    0  501  502  0.00000000000E+00  0.00000000000E+00  0.13912062571E+04  0.13912062571E+04  0.00000000000E+00 0.  1.
         -1   -1    0    0    0  501 -0.00000000000E+00 -0.00000000000E+00 -0.66535590918E+02  0.66535590918E+02  0.00000000000E+00 0.  1.
         24    2    1    2    0    0 -0.23767242563E+02 -0.71117472044E+02  0.31054487844E+03  0.32961175981E+03  0.81137007776E+02 0.  0.
         23    2    1    2    0    0 -0.16532248831E+03 -0.10902250138E+03  0.32899946508E+03  0.39491564867E+03  0.92197020514E+02 0.  0.
        -11    1    3    3    0    0 -0.27273143309E+02 -0.82356280605E+02  0.19449688102E+03  0.21296811505E+03  0.00000000000E+00 0.  1.
         12    1    3    3    0    0  0.35059007466E+01  0.11238808561E+02  0.11604799742E+03  0.11664364476E+03  0.00000000000E+00 0. -1.
        -13    1    4    4    0    0 -0.13078832380E+03 -0.74299724892E+02  0.30565792970E+03  0.34066523854E+03  0.00000000000E+00 0.  1.
         13    1    4    4    0    0 -0.34534164508E+02 -0.34722776485E+02  0.23341535384E+02  0.54250410129E+02  0.00000000000E+00 0. -1.
         -2    1    1    2    0  502  0.18908973087E+03  0.18013997342E+03  0.68512632266E+03  0.73321443954E+03  0.00000000000E+00 0.  1.
<scales pt_clust_5="13000.00000" pt_clust_6="13000.00000" pt_clust_7="13000.00000" pt_clust_8="13000.00000" pt_clust_9="13000.00000"></scales>
<clustering>
<clus scale="   81.137">  5  6 -1 -1</clus>
<clus scale="   92.197">  7  8 -1 -1</clus>
<clus scale="  110.480">  2  5  1 -1</clus>
<clus scale="  233.681">  7  9 -1 -1</clus>
<clus scale="  494.193">  1  5  2 -1</clus>
</clustering>
</event>
<event>
 9    2  0.2147756E-005  0.4731952E+03  0.7546771E-02  0.1072333E+00
         21   -1    0    0  501  502  0.00000000000E+00  0.00000000000E+00  0.12557638798E+03  0.12557638798E+03  0.00000000000E+00 0. -1.
          2   -1    0    0  502    0 -0.00000000000E+00 -0.00000000000E+00 -0.67328224121E+03  0.67328224121E+03  0.00000000000E+00 0. -1.
         24    2    1    2    0    0 -0.32291521113E+02  0.66178544622E+02 -0.99032648699E+02  0.14676865012E+03  0.79443244177E+02 0.  0.
         23    2    1    2    0    0 -0.69543814111E+02 -0.68479944043E+02  0.50482974600E+02  0.14264653460E+03  0.90959652005E+02 0.  0.
        -13    1    3    3    0    0 -0.23650689752E+02  0.84652439505E+02 -0.81770295018E+02  0.12004903909E+03  0.00000000000E+00 0.  1.
         14    1    3    3    0    0 -0.86408313611E+01 -0.18473894883E+02 -0.17262353681E+02  0.26719611026E+02  0.00000000000E+00 0. -1.
        -13    1    4    4    0    0  0.10227360680E+02 -0.23369603787E+02 -0.15383617532E+02  0.29789141915E+02  0.00000000000E+00 0.  1.
         13    1    4    4    0    0 -0.79771174791E+02 -0.45110340256E+02  0.65866592132E+02  0.11285739269E+03  0.00000000000E+00 0. -1.
          1    1    1    2  501    0  0.10183533522E+03  0.23013994210E+01 -0.49915617913E+03  0.50944344446E+03  0.00000000000E+00 0. -1.
<scales pt_clust_5="13000.00000" pt_clust_6="13000.00000" pt_clust_7="13000.00000" pt_clust_8="13000.00000" pt_clust_9="13000.00000"></scales>
<clustering>
<clus scale="   79.443">  5  6 -1 -1</clus>
<clus scale="   90.960">  7  8 -1 -1</clus>
<clus scale="  101.861">  7  9 -1 -1</clus>
<clus scale="  108.322">  2  5  1 -1</clus>
<clus scale="  473.195">  1  5  2 -1</clus>
</clustering>
</event>
<event>
 9    2  0.2147756E-005  0.5805438E+03  0.7546771E-02  0.1006663E+00
         21   -1    0    0  501  502  0.00000000000E+00  0.00000000000E+00  0.39455161321E+03  0.39455161321E+03  0.00000000000E+00 0. -1.
          2   -1    0    0  502    0 -0.00000000000E+00 -0.00000000000E+00 -0.65950281213E+03  0.65950281213E+03  0.00000000000E+00 0. -1.
         24    2    1    2    0    0 -0.36558800904E+03 -0.13478357618E+03 -0.25656554187E+03  0.47345010201E+03  0.80671662032E+02 0.  0.
         23    2    1    2    0    0  0.27935585124E+03  0.21460418365E+03  0.13581202848E+03  0.39459279968E+03  0.11473414146E+03 0.  0.
        -11    1    3    3    0    0 -0.21893780446E+03 -0.39113413028E+02 -0.15411362250E+03  0.27058202072E+03  0.00000000000E+00 0.  1.
         12    1    3    3    0    0 -0.14665020459E+03 -0.95670163147E+02 -0.10245191937E+03  0.20286808129E+03  0.00000000000E+00 0. -1.
        -11    1    4    4    0    0  0.27361146116E+03  0.17819008527E+03  0.96011340628E+02  0.34034264455E+03  0.00000000000E+00 0. -1.
         11    1    4    4    0    0  0.57443900775E+01  0.36414098382E+02  0.39800687855E+02  0.54250155134E+02  0.00000000000E+00 0.  1.
          1    1    1    2  501    0  0.86232157809E+02 -0.79820607479E+02 -0.14419768553E+03  0.18601152365E+03  0.00000000000E+00 0. -1.
<scales pt_clust_5="13000.00000" pt_clust_6="13000.00000" pt_clust_7="13000.00000" pt_clust_8="13000.00000" pt_clust_9="13000.00000"></scales>
<clustering>
<clus scale="   80.672">  5  6 -1 -1</clus>
<clus scale="  114.734">  7  8 -1 -1</clus>
<clus scale="  117.505">  7  9 -1 -1</clus>
<clus scale="  397.906">  2  5  1 -1</clus>
<clus scale="  580.544">  1  5  2 -1</clus>
</clustering>
</event>
<event>
 9    2  0.2147756E-005  0.5449648E+03  0.7546771E-02  0.1007185E+00
         21   -1    0    0  501  502  0.00000000000E+00  0.00000000000E+00  0.23285665899E+03  0.23285665899E+03  0.00000000000E+00 0. -1.
          2   -1    0    0  502    0 -0.00000000000E+00 -0.00000000000E+00 -0.13528080289E+04  0.13528080289E+04  0.00000000000E+00 0. -1.
         24    2    1    2    0    0  0.52241490935E+02  0.46344943141E+03 -0.19455256041E+03  0.51172352058E+03  0.80595991869E+02 0.  0.
         23    2    1    2    0    0 -0.31317107383E+02 -0.25394569193E+02 -0.23409933398E+03  0.25526854837E+03  0.93455274096E+02 0.  0.
        -13    1    3    3    0    0  0.52686018681E+02  0.25650900529E+03 -0.14338896189E+03  0.29855163833E+03  0.00000000000E+00 0.  1.
         14    1    3    3    0    0 -0.44452774510E+00  0.20694042612E+03 -0.51163598517E+02  0.21317188225E+03  0.00000000000E+00 0. -1.
        -13    1    4    4    0    0  0.27099360930E+02 -0.90777522612E+01 -0.14298277202E+03  0.14581102168E+03  0.00000000000E+00 0.  1.
         13    1    4    4    0    0 -0.58416468314E+02 -0.16316816932E+02 -0.91116561958E+02  0.10945752669E+03  0.00000000000E+00 0. -1.
          1    1    1    2  501    0 -0.20924383552E+02 -0.43805486222E+03 -0.69129947547E+03  0.81867261889E+03  0.00000000000E+00 0. -1.
<scales pt_clust_5="13000.00000" pt_clust_6="13000.00000" pt_clust_7="13000.00000" pt_clust_8="13000.00000" pt_clust_9="13000.00000"></scales>
<clustering>
<clus scale="   80.596">  5  6 -1 -1</clus>
<clus scale="   93.455">  7  8 -1 -1</clus>
<clus scale="  438.555">  7  9 -1 -1</clus>
<clus scale="  473.297">  2  5  1 -1</clus>
<clus scale="  544.965">  1  5  2 -1</clus>
</clustering>
</event>
<event>
 9    2  0.2147756E-005  0.4014312E+03  0.7546771E-02  0.1089655E+00
          2   -1    0    0  502    0 -0.00000000000E+00  0.00000000000E+00  0.56272077048E+03  0.56272077048E+03  0.00000000000E+00 0. -1.
         21   -1    0    0  501  502  0.00000000000E+00 -0.00000000000E+00 -0.11849948194E+03  0.11849948194E+03  0.00000000000E+00 0.  1.
         24    2    1    2    0    0 -0.40805619117E+02 -0.61697251077E+02  0.64730013541E+02  0.12880676838E+03  0.83243976268E+02 0.  0.
         23    2    1    2    0    0 -0.87900448844E+02 -0.19192826591E+01 -0.18181509288E+02  0.12961807411E+03  0.93488530323E+02 0.  0.
        -11    1    3    3    0    0 -0.20133939020E+02 -0.28821016801E+02 -0.16450423972E+02  0.38815498951E+02  0.00000000000E+00 0.  1.
         12    1    3    3    0    0 -0.20671680097E+02 -0.32876234276E+02  0.81180437514E+02  0.89991269427E+02  0.00000000000E+00 0. -1.
        -11    1    4    4    0    0 -0.72761950845E+02 -0.42991214909E+02 -0.13690333691E+02  0.85615251484E+02  0.00000000000E+00 0.  1.
         11    1    4    4    0    0 -0.15138497998E+02  0.41071932249E+02 -0.44911755969E+01  0.44002822621E+02  0.00000000000E+00 0. -1.
          1    1    1    2  501    0  0.12870606796E+03  0.63616533736E+02  0.39767278430E+03  0.42279540994E+03  0.00000000000E+00 0. -1.
<scales pt_clust_5="13000.00000" pt_clust_6="13000.00000" pt_clust_7="13000.00000" pt_clust_8="13000.00000" pt_clust_9="13000.00000"></scales>
<clustering>
<clus scale="   83.244">  5  6 -1 -1</clus>
<clus scale="   93.489">  7  8 -1 -1</clus>
<clus scale="  111.361">  1  5  2 -1</clus>
<clus scale="   93.245">  7  9 -1 -1</clus>
<clus scale="  401.431">  2  5  1 -1</clus>
</clustering>
</event>
<event>
 9    2  0.2147756E-005  0.4364729E+03  0.7546771E-02  0.1057428E+00
         21   -1    0    0  501  502  0.00000000000E+00  0.00000000000E+00  0.10647141617E+04  0.10647141617E+04  0.00000000000E+00 0. -1.
          2   -1    0    0  502    0 -0.00000000000E+00 -0.00000000000E+00 -0.14345435822E+03  0.14345435822E+03  0.00000000000E+00 0. -1.
         24    2    1    2    0    0  0.15279705565E+03  0.11713281625E+03  0.23564087847E+02  0.20998708114E+03  0.80450426677E+02 0.  0.
         23    2    1    2    0    0  0.11492997513E+03 -0.56671152103E+02  0.27295345502E+03  0.31580597907E+03  0.93857919974E+02 0.  0.
        -13    1    3    3    0    0  0.12192608159E+02  0.29799932309E+02  0.30461944777E+02  0.44324098850E+02  0.00000000000E+00 0.  1.
         14    1    3    3    0    0  0.14060444749E+03  0.87332883937E+02 -0.68978569297E+01  0.16566298229E+03  0.00000000000E+00 0. -1.
        -13    1    4    4    0    0  0.83900497735E+02  0.89550455028E+01  0.12239312000E+03  0.14865921493E+03  0.00000000000E+00 0. -1.
         13    1    4    4    0    0  0.31029477393E+02 -0.65626197605E+02  0.15056033502E+03  0.16714676413E+03  0.00000000000E+00 0.  1.
          1    1    1    2  501    0 -0.26772703077E+03 -0.60461664143E+02  0.62474226063E+03  0.68237545974E+03  0.00000000000E+00 0. -1.
<scales pt_clust_5="13000.00000" pt_clust_6="13000.00000" pt_clust_7="13000.00000" pt_clust_8="13000.00000" pt_clust_9="13000.00000"></scales>
<clustering>
<clus scale="   80.450">  5  6 -1 -1</clus>
<clus scale="   93.858">  7  8 -1 -1</clus>
<clus scale="  208.661">  2  5  1 -1</clus>
<clus scale="  180.216">  7  9 -1 -1</clus>
<clus scale="  436.473">  1  5  2 -1</clus>
</clustering>
</event>
<event>
 9    2  0.2147756E-005  0.2412537E+03  0.7546771E-02  0.1155603E+00
         21   -1    0    0  501  502  0.00000000000E+00  0.00000000000E+00  0.98493740772E+02  0.98493740772E+02  0.00000000000E+00 0. -1.
          2   -1    0    0  502    0 -0.00000000000E+00 -0.00000000000E+00 -0.42735749297E+03  0.42735749297E+03  0.00000000000E+00 0. -1.
         24    2    1    2    0    0  0.22791232619E+02  0.61280092347E+02 -0.25487039168E+03  0.27350547958E+03  0.74643424397E+02 0.  0.
         23    2    1    2    0    0  0.84978980540E+02 -0.42866063579E+02 -0.34462763119E+02  0.13608671825E+03  0.90955958031E+02 0.  0.
        -11    1    3    3    0    0  0.28342273922E+02  0.89197048793E+01 -0.28783751595E+02  0.41368466035E+02  0.00000000000E+00 0.  1.
         12    1    3    3    0    0 -0.55510413032E+01  0.52360387467E+02 -0.22608664008E+03  0.23213701355E+03  0.00000000000E+00 0. -1.
        -13    1    4    4    0    0  0.88957282580E+02 -0.92643268336E+01 -0.45694153733E+02  0.10043496185E+03  0.00000000000E+00 0. -1.
         13    1    4    4    0    0 -0.39783020398E+01 -0.33601736746E+02  0.11231390614E+02  0.35651756402E+02  0.00000000000E+00 0.  1.
          1    1    1    2  501    0 -0.10777021316E+03 -0.18414028767E+02 -0.39530597399E+02  0.11625903591E+03  0.00000000000E+00 0. -1.
<scales pt_clust_5="13000.00000" pt_clust_6="13000.00000" pt_clust_7="13000.00000" pt_clust_8="13000.00000" pt_clust_9="13000.00000"></scales>
<clustering>
<clus scale="   74.643">  5  6 -1 -1</clus>
<clus scale="   90.956">  7  8 -1 -1</clus>
<clus scale="   99.229">  2  5  1 -1</clus>
<clus scale="   97.495">  7  9 -1 -1</clus>
<clus scale="  241.254">  1  5  2 -1</clus>
</clustering>
</event>
<event>
 9    2  0.2147756E-005  0.1906078E+03  0.7546771E-02  0.1172382E+00
          2   -1    0    0  502    0 -0.00000000000E+00  0.00000000000E+00  0.18749563388E+02  0.18749563388E+02  0.00000000000E+00 0. -1.
         21   -1    0    0  501  502  0.00000000000E+00 -0.00000000000E+00 -0.15102739822E+04  0.15102739822E+04  0.00000000000E+00 0. -1.
         24    2    1    2    0    0  0.10074625977E+03  0.50062972683E+02 -0.45190181045E+03  0.47207202910E+03  0.77334625333E+02 0.  0.
         23    2    1    2    0    0 -0.14685049141E+02 -0.53143985273E+01 -0.37748288904E+03  0.38774454196E+03  0.87227316812E+02 0.  0.
        -11    1    3    3    0    0  0.53226208868E+02 -0.70102473113E+01 -0.27536948673E+03  0.28055396469E+03  0.00000000000E+00 0.  1.
         12    1    3    3    0    0  0.47520050902E+02  0.57073219994E+02 -0.17653232372E+03  0.19151806441E+03  0.00000000000E+00 0. -1.
        -13    1    4    4    0    0 -0.45062575514E+02  0.19610202895E+02 -0.22180190449E+03  0.22718116253E+03  0.00000000000E+00 0.  1.
         13    1    4    4    0    0  0.30377526373E+02 -0.24924601423E+02 -0.15568098455E+03  0.16056337943E+03  0.00000000000E+00 0. -1.
          1    1    1    2  501    0 -0.86061210630E+02 -0.44748574155E+02 -0.66213971932E+03  0.66920697453E+03  0.00000000000E+00 0. -1.
<scales pt_clust_5="13000.00000" pt_clust_6="13000.00000" pt_clust_7="13000.00000" pt_clust_8="13000.00000" pt_clust_9="13000.00000"></scales>
<clustering>
<clus scale="   77.335">  5  6 -1 -1</clus>
<clus scale="   87.227">  7  8 -1 -1</clus>
<clus scale="   97.000">  7  9 -1 -1</clus>
<clus scale="  136.516">  1  5  2 -1</clus>
<clus scale="  190.608">  2  5  1 -1</clus>
</clustering>
</event>
<event>
 9    2  0.3022244E-005  0.2327228E+03  0.7546771E-02  0.1152823E+00
         21   -1    0    0  501  502  0.00000000000E+00  0.00000000000E+00  0.46322147936E+02  0.46322147936E+02  0.00000000000E+00 0. -1.
          2   -1    0    0  502    0 -0.00000000000E+00 -0.00000000000E+00 -0.66526001424E+03  0.66526001424E+03  0.00000000000E+00 0. -1.
         24    2    1    2    0    0  0.85733868962E+02 -0.12432032494E+02 -0.22355401272E+03  0.25279212682E+03  0.80141194534E+02 0.  0.
         23    2    1    2    0    0  0.32036756497E+02 -0.26480508233E+02 -0.13179247871E+03  0.16747488134E+03  0.94609763522E+02 0.  0.
        -13    1    3    3    0    0 -0.90545000012E+01 -0.20468727913E+02 -0.33979408853E+02  0.40688487545E+02  0.00000000000E+00 0.  1.
         14    1    3    3    0    0  0.94788368963E+02  0.80366954193E+01 -0.18957460386E+03  0.21210363928E+03  0.00000000000E+00 0. -1.
        -11    1    4    4    0    0  0.27538968401E+02  0.22677422395E+02 -0.10587037231E+03  0.11171927318E+03  0.00000000000E+00 0.  1.
         11    1    4    4    0    0  0.44977880955E+01 -0.49157930628E+02 -0.25922106398E+02  0.55755608162E+02  0.00000000000E+00 0. -1.
          1    1    1    2  501    0 -0.11777062546E+03  0.38912540726E+02 -0.26359137488E+03  0.29131515401E+03  0.00000000000E+00 0. -1.
<scales pt_clust_5="13000.00000" pt_clust_6="13000.00000" pt_clust_7="13000.00000" pt_clust_8="13000.00000" pt_clust_9="13000.00000"></scales>
<clustering>
<clus scale="   80.141">  5  6 -1 -1</clus>
<clus scale="   94.610">  7  8 -1 -1</clus>
<clus scale="  118.015">  2  5  1 -1</clus>
<clus scale="   69.312">  7  9 -1 -1</clus>
<clus scale="  232.723">  1  5  2 -1</clus>
</clustering>
</event>
<event>
 9    2  0.2147756E-005  0.4454975E+03  0.7546771E-02  0.1032308E+00
         21   -1    0    0  501  502  0.00000000000E+00  0.00000000000E+00  0.27134035645E+03  0.27134035645E+03  0.00000000000E+00 0. -1.
          2   -1    0    0  502    0 -0.00000000000E+00 -0.00000000000E+00 -0.68159863476E+03  0.68159863476E+03  0.00000000000E+00 0. -1.
         24    2    1    2    0    0 -0.36174263656E+03 -0.16409682427E+03 -0.12375877952E+03  0.42326929012E+03  0.77814867553E+02 0.  0.
         23    2    1    2    0    0  0.71942964249E+02  0.36508994722E+02 -0.12213851358E+03  0.17291062584E+03  0.92041138773E+02 0.  0.
        -11    1    3    3    0    0 -0.77626044217E+02 -0.29806066328E+02  0.58028222649E+01  0.83353926584E+02  0.00000000000E+00 0.  1.
         12    1    3    3    0    0 -0.28411659234E+03 -0.13429075794E+03 -0.12956160178E+03  0.33991536353E+03  0.00000000000E+00 0. -1.
        -13    1    4    4    0    0  0.26569559672E+02 -0.12195386788E+01  0.98250265473E+01  0.28354187035E+02  0.00000000000E+00 0.  1.
         13    1    4    4    0    0  0.45373404577E+02  0.37728533401E+02 -0.13196354013E+03  0.14455643880E+03  0.00000000000E+00 0. -1.
          1    1    1    2  501    0  0.28979967231E+03  0.12758782954E+03 -0.16436098522E+03  0.35675907526E+03  0.00000000000E+00 0. -1.
<scales pt_clust_5="13000.00000" pt_clust_6="13000.00000" pt_clust_7="13000.00000" pt_clust_8="13000.00000" pt_clust_9="13000.00000"></scales>
<clustering>
<clus scale="   77.815">  5  6 -1 -1</clus>
<clus scale="   92.041">  7  8 -1 -1</clus>
<clus scale="  316.643">  7  9 -1 -1</clus>
<clus scale="  404.773">  2  5  1 -1</clus>
<clus scale="  445.498">  1  5  2 -1</clus>
</clustering>
</event>
<event>
 9    2  0.2147756E-005  0.6813924E+03  0.7546771E-02  0.1017952E+00
          2   -1    0    0  502    0 -0.00000000000E+00  0.00000000000E+00  0.24495744807E+03  0.24495744807E+03  0.00000000000E+00 0. -1.
         21   -1    0    0  501  502  0.00000000000E+00 -0.00000000000E+00 -0.74667297569E+03  0.74667297569E+03  0.00000000000E+00 0. -1.
         24    2    1    2    0    0  0.68758554268E+02 -0.13721395934E+03 -0.10484039411E+03  0.20308401449E+03  0.81830307836E+02 0.  0.
         23    2    1    2    0    0  0.19422687266E+03 -0.15728371599E+03 -0.67610015037E+02  0.27443967542E+03  0.91015251107E+02 0.  0.
        -13    1    3    3    0    0  0.90047535393E+01 -0.79072901802E+02 -0.15861881896E+02  0.81149298721E+02  0.00000000000E+00 0.  1.
         14    1    3    3    0    0  0.59753800729E+02 -0.58141057538E+02 -0.88978512214E+02  0.12193471577E+03  0.00000000000E+00 0. -1.
        -11    1    4    4    0    0  0.16870431630E+03 -0.11372631762E+03 -0.85758509046E+02  0.22079253504E+03  0.00000000000E+00 0.  1.
         11    1    4    4    0    0  0.25522556360E+02 -0.43557398371E+02  0.18148494010E+02  0.53647140378E+02  0.00000000000E+00 0. -1.
          1    1    1    2  501    0 -0.26298542693E+03  0.29449767533E+03 -0.32926511847E+03  0.51410673385E+03  0.00000000000E+00 0. -1.
<scales pt_clust_5="13000.00000" pt_clust_6="13000.00000" pt_clust_7="13000.00000" pt_clust_8="13000.00000" pt_clust_9="13000.00000"></scales>
<clustering>
<clus scale="   81.830">  5  6 -1 -1</clus>
<clus scale="   91.015">  7  8 -1 -1</clus>
<clus scale="  173.930">  1  5  2 -1</clus>
<clus scale="  325.467">  7  9 -1 -1</clus>
<clus scale="  681.392">  2  5  1 -1</clus>
</clustering>
</event>
<event>
 9    2  0.2147756E-005  0.1545403E+03  0.7546771E-02  0.1229038E+00
          2   -1    0    0  502    0 -0.00000000000E+00  0.00000000000E+00  0.90185820688E+03  0.90185820688E+03  0.00000000000E+00 0. -1.
         21   -1    0    0  501  502  0.00000000000E+00 -0.00000000000E+00 -0.14728851978E+02  0.14728851978E+02  0.00000000000E+00 0. -1.
         24    2    1    2    0    0 -0.23092236616E+02  0.20761476684E+02  0.33254729324E+03  0.34087536652E+03  0.68147068524E+02 0.  0.
         23    2    1    2    0    0 -0.32383315337E+02 -0.23601667520E+01  0.30309331064E+03  0.31752041255E+03  0.88878613466E+02 0.  0.
        -11    1    3    3    0    0 -0.23831732273E+02 -0.12943967600E+02  0.55366648101E+02  0.61651954408E+02  0.00000000000E+00 0.  1.
         12    1    3    3    0    0  0.73949565720E+00  0.33705444284E+02  0.27718064514E+03  0.27922341211E+03  0.00000000000E+00 0. -1.
        -13    1    4    4    0    0 -0.35077936018E+02 -0.41205027206E+02  0.14700567083E+03  0.15664923593E+03  0.00000000000E+00 0.  1.
         13    1    4    4    0    0  0.26946206811E+01  0.38844860454E+02  0.15608763982E+03  0.16087117662E+03  0.00000000000E+00 0. -1.
          1    1    1    2  501    0  0.55475551953E+02 -0.18401309932E+02  0.25148875101E+03  0.25819127979E+03  0.00000000000E+00 0. -1.
<scales pt_clust_5="13000.00000" pt_clust_6="13000.00000" pt_clust_7="13000.00000" pt_clust_8="13000.00000" pt_clust_9="13000.00000"></scales>
<clustering>
<clus scale="   68.147">  5  6 -1 -1</clus>
<clus scale="   74.889">  1  5  2 -1</clus>
<clus scale="   88.879">  7  8 -1 -1</clus>
<clus scale="   45.960">  7  9 -1 -1</clus>
<clus scale="  154.540">  2  5  1 -1</clus>
</clustering>
</event>
<event>
 9    2  0.2147756E-005  0.1968154E+03  0.7546771E-02  0.1186638E+00
          2   -1    0    0  502    0 -0.00000000000E+00  0.00000000000E+00  0.56064636084E+03  0.56064636084E+03  0.00000000000E+00 0. -1.
         21   -1    0    0  501  502  0.00000000000E+00 -0.00000000000E+00 -0.45798468938E+02  0.45798468938E+02  0.00000000000E+00 0.  1.
         24    2    1    2    0    0 -0.14274961964E+02 -0.37245542054E+02  0.53045647630E+02  0.10445120243E+03  0.80654869749E+02 0.  0.
         23    2    1    2    0    0 -0.40593901471E+02  0.43894702028E+02  0.42076045678E+03  0.43315154848E+03  0.83703597623E+02 0.  0.
        -11    1    3    3    0    0  0.32926157781E+02 -0.22278849551E+02  0.17174387206E+02  0.43306334172E+02  0.00000000000E+00 0.  1.
         12    1    3    3    0    0 -0.47201119744E+02 -0.14966692503E+02  0.35871260424E+02  0.61144868256E+02  0.00000000000E+00 0. -1.
        -11    1    4    4    0    0 -0.29352928786E+02 -0.18301614005E+02  0.90248353295E+02  0.96650446331E+02  0.00000000000E+00 0.  1.
         11    1    4    4    0    0 -0.11240972686E+02  0.62196316034E+02  0.33051210349E+03  0.33650110215E+03  0.00000000000E+00 0. -1.
          1    1    1    2  501    0  0.54868863435E+02 -0.66491599741E+01  0.41041787491E+02  0.68842078872E+02  0.00000000000E+00 0. -1.
<scales pt_clust_5="13000.00000" pt_clust_6="13000.00000" pt_clust_7="13000.00000" pt_clust_8="13000.00000" pt_clust_9="13000.00000"></scales>
<clustering>
<clus scale="   80.655">  5  6 -1 -1</clus>
<clus scale="   83.704">  7  8 -1 -1</clus>
<clus scale="   55.270">  7  9 -1 -1</clus>
<clus scale="   89.979">  1  5  2 -1</clus>
<clus scale="  196.815">  2  5  1 -1</clus>
</clustering>
</event>
<event>
 9    2  0.2147756E-005  0.2746088E+03  0.7546771E-02  0.1149349E+00
         21   -1    0    0  501  502  0.00000000000E+00  0.00000000000E+00  0.10084562553E+03  0.10084562553E+03  0.00000000000E+00 0. -1.
         -1   -1    0    0    0  501 -0.00000000000E+00 -0.00000000000E+00 -0.31745205343E+03  0.31745205343E+03  0.00000000000E+00 0.  1.
         24    2    1    2    0    0  0.28302781420E+00 -0.13025207370E+02 -0.19826473460E+02  0.80462876972E+02  0.76885950531E+02 0.  0.
         23    2    1    2    0    0  0.10176970114E+03 -0.58630438426E+02 -0.10480516660E+03  0.18288754431E+03  0.93108165797E+02 0.  0.
        -11    1    3    3    0    0 -0.36806657532E+02 -0.97304708835E+01  0.43068192277E+00  0.38073581250E+02  0.00000000000E+00 0.  1.
         12    1    3    3    0    0  0.37089685346E+02 -0.32947364865E+01 -0.20257155383E+02  0.42389295722E+02  0.00000000000E+00 0. -1.
        -13    1    4    4    0    0 -0.81394719174E+01 -0.36339076325E+02 -0.32715166647E+02  0.49568756288E+02  0.00000000000E+00 0. -1.
         13    1    4    4    0    0  0.10990917306E+03 -0.22291362101E+02 -0.72089999950E+02  0.13331878802E+03  0.00000000000E+00 0.  1.
         -2    1    1    2    0  502 -0.10205272896E+03  0.71655645796E+02 -0.91974787850E+02  0.15494725768E+03  0.00000000000E+00 0.  1.
<scales pt_clust_5="13000.00000" pt_clust_6="13000.00000" pt_clust_7="13000.00000" pt_clust_8="13000.00000" pt_clust_9="13000.00000"></scales>
<clustering>
<clus scale="   76.886">  5  6 -1 -1</clus>
<clus scale="   77.982">  2  5  1 -1</clus>
<clus scale="   93.108">  7  8 -1 -1</clus>
<clus scale="  121.230">  7  9 -1 -1</clus>
<clus scale="  274.609">  1  5  2 -1</clus>
</clustering>
</event>
<event>
 9    2  0.2147756E-005  0.2141693E+03  0.7546771E-02  0.1175295E+00
          2   -1    0    0  502    0 -0.00000000000E+00  0.00000000000E+00  0.81224363927E+03  0.81224363927E+03  0.00000000000E+00 0. -1.
         21   -1    0    0  501  502  0.00000000000E+00 -0.00000000000E+00 -0.36970168663E+02  0.36970168663E+02  0.00000000000E+00 0. -1.
         24    2    1    2    0    0 -0.21344602163E+02 -0.35144994489E+02  0.45566706343E+03  0.46448437158E+03  0.80140477106E+02 0.  0.
         23    2    1    2    0    0 -0.60642357484E+01 -0.34263221987E+02  0.28721889394E+03  0.30338021433E+03  0.91291391027E+02 0.  0.
        -11    1    3    3    0    0  0.20775744978E+02  0.33260123275E+01  0.42768280281E+02  0.47663610183E+02  0.00000000000E+00 0.  1.
         12    1    3    3    0    0 -0.42120347142E+02 -0.38471006816E+02  0.41289878314E+03  0.41682076140E+03  0.00000000000E+00 0. -1.
        -11    1    4    4    0    0 -0.37762140617E+02  0.10495941447E+02  0.16204844957E+03  0.16672085670E+03  0.00000000000E+00 0.  1.
         11    1    4    4    0    0  0.31697904868E+02 -0.44759163434E+02  0.12517044436E+03  0.13665935762E+03  0.00000000000E+00 0. -1.
          1    1    1    2  501    0  0.27408837912E+02  0.69408216475E+02  0.32387513244E+02  0.81349222025E+02  0.00000000000E+00 0. -1.
<scales pt_clust_5="13000.00000" pt_clust_6="13000.00000" pt_clust_7="13000.00000" pt_clust_8="13000.00000" pt_clust_9="13000.00000"></scales>
<clustering>
<clus scale="   80.140">  5  6 -1 -1</clus>
<clus scale="   90.074">  1  5  2 -1</clus>
<clus scale="   91.291">  7  8 -1 -1</clus>
<clus scale="   68.089">  7  9 -1 -1</clus>
<clus scale="  214.169">  2  5  1 -1</clus>
</clustering>
</event>
<event>
 9    2  0.2147756E-005  0.1910819E+03  0.7546771E-02  0.1190742E+00
         21   -1    0    0  501  502  0.00000000000E+00  0.00000000000E+00  0.30435069696E+02  0.30435069696E+02  0.00000000000E+00 0.  1.
          4   -1    0    0  502    0 -0.00000000000E+00 -0.00000000000E+00 -0.64804434411E+03  0.64804434411E+03  0.00000000000E+00 0. -1.
         24    2    1    2    0    0  0.20270225763E+02 -0.34214371203E+02 -0.19401514670E+03  0.21378137453E+03  0.80492817680E+02 0.  0.
         23    2    1    2    0    0 -0.62486138155E+02  0.19358634291E+01 -0.13686246476E+03  0.17308334167E+03  0.85546735017E+02 0.  0.
        -13    1    3    3    0    0  0.46908242577E+02 -0.40921869593E+02 -0.13822150317E+03  0.15159210590E+03  0.00000000000E+00 0.  1.
         14    1    3    3    0    0 -0.26638016815E+02  0.67074983899E+01 -0.55793643527E+02  0.62189268628E+02  0.00000000000E+00 0. -1.
        -13    1    4    4    0    0 -0.12629780584E+02 -0.19899707191E+02 -0.10979457028E+03  0.11229584750E+03  0.00000000000E+00 0. -1.
         13    1    4    4    0    0 -0.49856357571E+02  0.21835570620E+02 -0.27067894485E+02  0.60787494162E+02  0.00000000000E+00 0.  1.
          3    1    1    2  501    0  0.42215912393E+02  0.32278507774E+02 -0.28673166296E+03  0.29161469761E+03  0.00000000000E+00 0. -1.
<scales pt_clust_5="13000.00000" pt_clust_6="13000.00000" pt_clust_7="13000.00000" pt_clust_8="13000.00000" pt_clust_9="13000.00000"></scales>
<clustering>
<clus scale="   80.493">  5  6 -1 -1</clus>
<clus scale="   85.547">  7  8 -1 -1</clus>
<clus scale="   53.142">  7  9 -1 -1</clus>
<clus scale="   89.781">  2  5  1 -1</clus>
<clus scale="  191.082">  1  5  2 -1</clus>
</clustering>
</event>
<event>
 9    2  0.2147756E-005  0.5196498E+03  0.7546771E-02  0.1020500E+00
          2   -1    0    0  502    0 -0.00000000000E+00  0.00000000000E+00  0.24202472335E+04  0.24202472335E+04  0.00000000000E+00 0. -1.
         21   -1    0    0  501  502  0.00000000000E+00 -0.00000000000E+00 -0.11493415198E+03  0.11493415198E+03  0.00000000000E+00 0. -1.
         24    2    1    2    0    0  0.33418488640E+03 -0.11891537626E+03  0.32299555706E+03  0.48588425381E+03  0.77051756737E+02 0.  0.
         23    2    1    2    0    0  0.53741189076E+02  0.34521962825E+02  0.22751307515E+03  0.25014523602E+03  0.82039980607E+02 0.  0.
        -11    1    3    3    0    0  0.15397973525E+03 -0.76704910679E+02  0.11228282146E+03  0.20542841620E+03  0.00000000000E+00 0.  1.
         12    1    3    3    0    0  0.18020515116E+03 -0.42210465579E+02  0.21071273560E+03  0.28045583761E+03  0.00000000000E+00 0. -1.
        -13    1    4    4    0    0  0.26015953972E+02 -0.24317158941E+02  0.52519201118E+02  0.63454082344E+02  0.00000000000E+00 0. -1.
         13    1    4    4    0    0  0.27725235104E+02  0.58839121765E+02  0.17499387403E+03  0.18669115367E+03  0.00000000000E+00 0.  1.
          1    1    1    2  501    0 -0.38792607548E+03  0.84393413433E+02  0.17548044493E+04  0.17991518957E+04  0.00000000000E+00 0. -1.
<scales pt_clust_5="13000.00000" pt_clust_6="13000.00000" pt_clust_7="13000.00000" pt_clust_8="13000.00000" pt_clust_9="13000.00000"></scales>
<clustering>
<clus scale="   77.052">  5  6 -1 -1</clus>
<clus scale="   82.040">  7  8 -1 -1</clus>
<clus scale="  362.984">  1  5  2 -1</clus>
<clus scale="   95.545">  7  9 -1 -1</clus>
<clus scale="  519.650">  2  5  1 -1</clus>
</clustering>
</event>
<event>
 9    2  0.2147756E-005  0.1994203E+03  0.7546771E-02  0.1179938E+00
         21   -1    0    0  501  502  0.00000000000E+00  0.00000000000E+00  0.49586737904E+02  0.49586737904E+02  0.00000000000E+00 0.  1.
          2   -1    0    0  502    0 -0.00000000000E+00 -0.00000000000E+00 -0.75889602641E+03  0.75889602641E+03  0.00000000000E+00 0. -1.
         24    2    1    2    0    0 -0.43348705318E+02  0.42278841140E+02 -0.53272748643E+03  0.54211910129E+03  0.80174400715E+02 0.  0.
         23    2    1    2    0    0  0.89060522709E+02 -0.49650101447E+01 -0.16290604245E+03  0.20579206378E+03  0.88631635523E+02 0.  0.
        -11    1    3    3    0    0 -0.10185366219E+02 -0.21957516015E+02 -0.77641078393E+02  0.81326571602E+02  0.00000000000E+00 0.  1.
         12    1    3    3    0    0 -0.33163339099E+02  0.64236357155E+02 -0.45508640804E+03  0.46079252969E+03  0.00000000000E+00 0. -1.
        -13    1    4    4    0    0  0.32589575648E+02 -0.28165861186E+02 -0.12890493564E+03  0.13591128949E+03  0.00000000000E+00 0. -1.
         13    1    4    4    0    0  0.56470947061E+02  0.23200851042E+02 -0.34001106810E+02  0.69880774290E+02  0.00000000000E+00 0.  1.
          1    1    1    2  501    0 -0.45711817391E+02 -0.37313830996E+02 -0.13675759619E+02  0.60571599235E+02  0.00000000000E+00 0. -1.
<scales pt_clust_5="13000.00000" pt_clust_6="13000.00000" pt_clust_7="13000.00000" pt_clust_8="13000.00000" pt_clust_9="13000.00000"></scales>
<clustering>
<clus scale="   80.174">  5  6 -1 -1</clus>
<clus scale="   88.632">  7  8 -1 -1</clus>
<clus scale="   59.008">  7  9 -1 -1</clus>
<clus scale="  100.472">  2  5  1 -1</clus>
<clus scale="  199.420">  1  5  2 -1</clus>
</clustering>
</event>
<event>
 9    2  0.2147756E-005  0.5227717E+03  0.7546771E-02  0.1051856E+00
          2   -1    0    0  502    0 -0.00000000000E+00  0.00000000000E+00  0.13205287815E+04  0.13205287815E+04  0.00000000000E+00 0. -1.
         21   -1    0    0  501  502  0.00000000000E+00 -0.00000000000E+00 -0.83921342054E+02  0.83921342054E+02  0.00000000000E+00 0. -1.
         24    2    1    2    0    0  0.71168489028E+02  0.92466898481E+02  0.29450283649E+03  0.32702200550E+03  0.81218164457E+02 0.  0.
         23    2    1    2    0    0  0.15291410705E+03 -0.76859623562E+02  0.77037309287E+03  0.79467679897E+03  0.93522118944E+02 0.  0.
        -13    1    3    3    0    0  0.41947799901E+02  0.15896820540E+02  0.41629402374E+02  0.61199133669E+02  0.00000000000E+00 0.  1.
         14    1    3    3    0    0  0.29220689127E+02  0.76570077942E+02  0.25287343411E+03  0.26582287183E+03  0.00000000000E+00 0. -1.
        -13    1    4    4    0    0  0.20351015865E+02 -0.46266240052E+02  0.11971675320E+03  0.12994933556E+03  0.00000000000E+00 0.  1.
         13    1    4    4    0    0  0.13256309118E+03 -0.30593383510E+02  0.65065633967E+03  0.66472746341E+03  0.00000000000E+00 0. -1.
          1    1    1    2  501    0 -0.22408259608E+03 -0.15607274919E+02  0.17173151012E+03  0.28275131912E+03  0.00000000000E+00 0. -1.
<scales pt_clust_5="13000.00000" pt_clust_6="13000.00000" pt_clust_7="13000.00000" pt_clust_8="13000.00000" pt_clust_9="13000.00000"></scales>
<clustering>
<clus scale="   81.218">  5  6 -1 -1</clus>
<clus scale="   93.522">  7  8 -1 -1</clus>
<clus scale="  142.167">  1  5  2 -1</clus>
<clus scale="  208.132">  7  9 -1 -1</clus>
<clus scale="  522.772">  2  5  1 -1</clus>
</clustering>
</event>
<event>
 9    2  0.2147756E-005  0.2472779E+03  0.7546771E-02  0.1154463E+00
          2   -1    0    0  502    0 -0.00000000000E+00  0.00000000000E+00  0.10858231678E+04  0.10858231678E+04  0.00000000000E+00 0. -1.
         21   -1    0    0  501  502  0.00000000000E+00 -0.00000000000E+00 -0.40441212891E+02  0.40441212891E+02  0.00000000000E+00 0. -1.
         24    2    1    2    0    0  0.39787570769E+02  0.27461605416E+02  0.67066159334E+03  0.67730811471E+03  0.81376402736E+02 0.  0.
         23    2    1    2    0    0  0.43824789309E+02  0.54666010207E+02  0.11787254410E+03  0.16663238576E+03  0.94675395427E+02 0.  0.
        -13    1    3    3    0    0  0.33692227582E+02 -0.16368627837E+02  0.14405049932E+03  0.14884100420E+03  0.00000000000E+00 0.  1.
         14    1    3    3    0    0  0.60953431878E+01  0.43830233254E+02  0.52661109401E+03  0.52846711051E+03  0.00000000000E+00 0. -1.
        -11    1    4    4    0    0  0.72577795566E+01  0.29488389856E+02  0.11840007929E+03  0.12223264407E+03  0.00000000000E+00 0.  1.
         11    1    4    4    0    0  0.36567009753E+02  0.25177620352E+02 -0.52753518199E+00  0.44399741691E+02  0.00000000000E+00 0. -1.
          1    1    1    2  501    0 -0.83612360079E+02 -0.82127615624E+02  0.25684781751E+03  0.28232388026E+03  0.00000000000E+00 0. -1.
<scales pt_clust_5="13000.00000" pt_clust_6="13000.00000" pt_clust_7="13000.00000" pt_clust_8="13000.00000" pt_clust_9="13000.00000"></scales>
<clustering>
<clus scale="   81.376">  5  6 -1 -1</clus>
<clus scale="   94.654">  1  5  2 -1</clus>
<clus scale="   94.675">  7  8 -1 -1</clus>
<clus scale="   86.194">  7  9 -1 -1</clus>
<clus scale="  247.278">  2  5  1 -1</clus>
</clustering>
</event>
<event>
 9    2  0.2147756E-005  0.6845911E+03  0.7546771E-02  0.1043204E+00
         21   -1    0    0  501  502  0.00000000000E+00  0.00000000000E+00  0.32352002112E+03  0.32352002112E+03  0.00000000000E+00 0.  1.
          2   -1    0    0  502    0 -0.00000000000E+00 -0.00000000000E+00 -0.49647329171E+03  0.49647329171E+03  0.00000000000E+00 0. -1.
         24    2    1    2    0    0  0.18005042164E+02  0.47280780879E+01 -0.10405525729E+03  0.13194397293E+03  0.78963150620E+02 0.  0.
         23    2    1    2    0    0 -0.52359148094E+02  0.30413393531E+03 -0.16603810219E+03  0.36245427730E+03  0.92550098660E+02 0.  0.
        -13    1    3    3    0    0  0.30112305638E+01 -0.35820385696E+02 -0.33151460097E+02  0.48899763266E+02  0.00000000000E+00 0.  1.
         14    1    3    3    0    0  0.14993811600E+02  0.40548463784E+02 -0.70903797198E+02  0.83044209663E+02  0.00000000000E+00 0. -1.
        -13    1    4    4    0    0 -0.59434155864E+02  0.21116448589E+03 -0.74190825196E+02  0.23157533878E+03  0.00000000000E+00 0.  1.
         13    1    4    4    0    0  0.70750077695E+01  0.92969449418E+02 -0.91847276991E+02  0.13087893853E+03  0.00000000000E+00 0. -1.
          1    1    1    2  501    0  0.34354105930E+02 -0.30886201340E+03  0.97140088895E+02  0.32559506259E+03  0.00000000000E+00 0. -1.
<scales pt_clust_5="13000.00000" pt_clust_6="13000.00000" pt_clust_7="13000.00000" pt_clust_8="13000.00000" pt_clust_9="13000.00000"></scales>
<clustering>
<clus scale="   78.963">  5  6 -1 -1</clus>
<clus scale="   81.128">  2  5  1 -1</clus>
<clus scale="   92.550">  7  8 -1 -1</clus>
<clus scale="  309.999">  7  9 -1 -1</clus>
<clus scale="  684.591">  1  5  2 -1</clus>
</clustering>
</event>
<event>
 9    2  0.2147756E-005  0.2882140E+03  0.7546771E-02  0.1128720E+00
          2   -1    0    0  502    0 -0.00000000000E+00  0.00000000000E+00  0.20421745316E+03  0.20421745316E+03  0.00000000000E+00 0. -1.
         21   -1    0    0  501  502  0.00000000000E+00 -0.00000000000E+00 -0.22445016489E+03  0.22445016489E+03  0.00000000000E+00 0. -1.
         24    2    1    2    0    0  0.36304346996E+02  0.69348299102E+02  0.64297052847E+02  0.12831351304E+03  0.78759471963E+02 0.  0.
         23    2    1    2    0    0  0.77724317417E+02 -0.33586888135E+01 -0.11393414228E+03  0.16536602257E+03  0.91173364177E+02 0.  0.
        -11    1    3    3    0    0  0.30755956552E+02  0.19060818576E+02 -0.10802958422E+02  0.37761721079E+02  0.00000000000E+00 0.  1.
         12    1    3    3    0    0  0.55483904442E+01  0.50287480526E+02  0.75100011269E+02  0.90551791958E+02  0.00000000000E+00 0. -1.
        -13    1    4    4    0    0  0.38316117571E+02 -0.15351859176E+02 -0.11699174258E+03  0.12405995437E+03  0.00000000000E+00 0. -1.
         13    1    4    4    0    0  0.39408199846E+02  0.11993170362E+02  0.30576003045E+01  0.41306068199E+02  0.00000000000E+00 0.  1.
          1    1    1    2  501    0 -0.11402866441E+03 -0.65989610289E+02  0.29404377698E+02  0.13498808244E+03  0.00000000000E+00 0. -1.
<scales pt_clust_5="13000.00000" pt_clust_6="13000.00000" pt_clust_7="13000.00000" pt_clust_8="13000.00000" pt_clust_9="13000.00000"></scales>
<clustering>
<clus scale="   78.759">  5  6 -1 -1</clus>
<clus scale="   91.173">  7  8 -1 -1</clus>
<clus scale="  111.042">  1  5  2 -1</clus>
<clus scale="   87.374">  7  9 -1 -1</clus>
<clus scale="  288.214">  2  5  1 -1</clus>
</clustering>
</event>
<event>
 9    2  0.2147756E-005  0.4062156E+03  0.7546771E-02  0.1048293E+00
          4   -1    0    0  502    0 -0.00000000000E+00  0.00000000000E+00  0.34837888445E+03  0.34837888445E+03  0.00000000000E+00 0. -1.
         21   -1    0    0  501  502  0.00000000000E+00 -0.00000000000E+00 -0.49396299726E+03  0.49396299726E+03  0.00000000000E+00 0. -1.
         24    2    1    2    0    0 -0.11364210302E+03  0.30541460275E+03 -0.25533346268E+03  0.42156161145E+03  0.79538719696E+02 0.  0.
         23    2    1    2    0    0  0.11413336583E+02 -0.13126735473E+02  0.42403360089E+01  0.93648691143E+02  0.91921278642E+02 0.  0.
        -11    1    3    3    0    0 -0.85789275190E+02  0.22255331175E+03 -0.22802661810E+03  0.32997865820E+03  0.00000000000E+00 0.  1.
         12    1    3    3    0    0 -0.27852827835E+02  0.82861290999E+02 -0.27306844587E+02  0.91582953249E+02  0.00000000000E+00 0. -1.
        -13    1    4    4    0    0 -0.36862408283E+02  0.54054709976E+01  0.16114447536E+02  0.40592261338E+02  0.00000000000E+00 0.  1.
         13    1    4    4    0    0  0.48275744866E+02 -0.18532206471E+02 -0.11874111527E+02  0.53056429805E+02  0.00000000000E+00 0. -1.
          3    1    1    2  501    0  0.10222876644E+03 -0.29228786728E+03  0.10550901387E+03  0.32713157911E+03  0.00000000000E+00 0. -1.
<scales pt_clust_5="13000.00000" pt_clust_6="13000.00000" pt_clust_7="13000.00000" pt_clust_8="13000.00000" pt_clust_9="13000.00000"></scales>
<clustering>
<clus scale="   79.539">  5  6 -1 -1</clus>
<clus scale="   91.921">  7  8 -1 -1</clus>
<clus scale="  309.650">  7  9 -1 -1</clus>
<clus scale="  335.439">  1  5  2 -1</clus>
<clus scale="  406.216">  2  5  1 -1</clus>
</clustering>
</event>
<event>
 9    2  0.2147756E-005  0.2495290E+03  0.7546771E-02  0.1159382E+00
         21   -1    0    0  501  502  0.00000000000E+00  0.00000000000E+00  0.46006464080E+02  0.46006464080E+02  0.00000000000E+00 0.  1.
          2   -1    0    0  502    0 -0.00000000000E+00 -0.00000000000E+00 -0.59772587027E+03  0.59772587027E+03  0.00000000000E+00 0. -1.
         24    2    1    2    0    0  0.79111754921E+00  0.17224743322E+02 -0.13269234539E+03  0.15603527804E+03  0.80264760752E+02 0.  0.
         23    2    1    2    0    0 -0.95918211366E+02  0.27502545168E+02 -0.29604930959E+03  0.32591565563E+03  0.92839256852E+02 0.  0.
        -11    1    3    3    0    0  0.36273491845E+02  0.11841176125E+02 -0.34320245473E+02  0.51321135140E+02  0.00000000000E+00 0.  1.
         12    1    3    3    0    0 -0.35482374296E+02  0.53835671968E+01 -0.98372099915E+02  0.10471414290E+03  0.00000000000E+00 0. -1.
        -11    1    4    4    0    0 -0.10302979270E+03  0.31312706241E+01 -0.18283222448E+03  0.20988702996E+03  0.00000000000E+00 0.  1.
         11    1    4    4    0    0  0.71115813366E+01  0.24371274544E+02 -0.11321708512E+03  0.11602862567E+03  0.00000000000E+00 0. -1.
          1    1    1    2  501    0  0.95127093817E+02 -0.44727288491E+02 -0.12297775121E+03  0.16178140068E+03  0.00000000000E+00 0. -1.
<scales pt_clust_5="13000.00000" pt_clust_6="13000.00000" pt_clust_7="13000.00000" pt_clust_8="13000.00000" pt_clust_9="13000.00000"></scales>
<clustering>
<clus scale="   80.265">  5  6 -1 -1</clus>
<clus scale="   82.096">  2  5  1 -1</clus>
<clus scale="   92.839">  7  8 -1 -1</clus>
<clus scale="  103.162">  7  9 -1 -1</clus>
<clus scale="  249.529">  1  5  2 -1</clus>
</clustering>
</event>
<event>
 9    2  0.2147756E-005  0.2601488E+03  0.7546771E-02  0.1136660E+00
         21   -1    0    0  501  502  0.00000000000E+00  0.00000000000E+00  0.44768736291E+03  0.44768736291E+03  0.00000000000E+00 0.  1.
          2   -1    0    0  502    0 -0.00000000000E+00 -0.00000000000E+00 -0.82933046270E+02  0.82933046270E+02  0.00000000000E+00 0. -1.
         24    2    1    2    0    0 -0.27383249140E+02 -0.90623525902E+02  0.13487133225E+03  0.18345533511E+03  0.80641911800E+02 0.  0.
         23    2    1    2    0    0 -0.20946047012E+02 -0.55719119563E+02  0.11179741316E+03  0.15301025728E+03  0.85849403454E+02 0.  0.
        -11    1    3    3    0    0  0.10543131611E+02 -0.53678037128E+02  0.11418195486E+03  0.12660966831E+03  0.00000000000E+00 0.  1.
         12    1    3    3    0    0 -0.37926380751E+02 -0.36945488774E+02  0.20689377390E+02  0.56845666804E+02  0.00000000000E+00 0. -1.
        -13    1    4    4    0    0 -0.52120958580E+02 -0.17183386110E+02  0.60245406899E+02  0.81494614141E+02  0.00000000000E+00 0.  1.
         13    1    4    4    0    0  0.31174911569E+02 -0.38535733453E+02  0.51552006262E+02  0.71515643140E+02  0.00000000000E+00 0. -1.
          1    1    1    2  501    0  0.48329296151E+02  0.14634264546E+03  0.11808557123E+03  0.19415481678E+03  0.00000000000E+00 0. -1.
<scales pt_clust_5="13000.00000" pt_clust_6="13000.00000" pt_clust_7="13000.00000" pt_clust_8="13000.00000" pt_clust_9="13000.00000"></scales>
<clustering>
<clus scale="   80.642">  5  6 -1 -1</clus>
<clus scale="   85.849">  7  8 -1 -1</clus>
<clus scale="  124.361">  2  5  1 -1</clus>
<clus scale="   92.747">  7  9 -1 -1</clus>
<clus scale="  260.149">  1  5  2 -1</clus>
</clustering>
</event>
<event>
 9    2  0.2147756E-005  0.2853820E+03  0.7546771E-02  0.1153282E+00
         21   -1    0    0  501  502  0.00000000000E+00  0.00000000000E+00  0.21828973291E+03  0.21828973291E+03  0.00000000000E+00 0. -1.
          2   -1    0    0  502    0 -0.00000000000E+00 -0.00000000000E+00 -0.13927229193E+03  0.13927229193E+03  0.00000000000E+00 0. -1.
         24    2    1    2    0    0 -0.78588461886E+00  0.56635624826E+01  0.12574763230E+02  0.64547456411E+02  0.63052009518E+02 0.  0.
         23    2    1    2    0    0  0.16458373222E+02  0.12163542163E+03  0.62798747520E+02  0.16470269648E+03  0.90095736265E+02 0.  0.
        -13    1    3    3    0    0 -0.23613690770E+02  0.17172412237E+02  0.22767988392E+02  0.37025388982E+02  0.00000000000E+00 0.  1.
         14    1    3    3    0    0  0.22827806152E+02 -0.11508849754E+02 -0.10193225162E+02  0.27522067429E+02  0.00000000000E+00 0. -1.
        -11    1    4    4    0    0  0.22042028146E+01  0.30036237667E+02 -0.23383267861E+02  0.38128877496E+02  0.00000000000E+00 0.  1.
         11    1    4    4    0    0  0.14254170408E+02  0.91599183965E+02  0.86182015381E+02  0.12657381898E+03  0.00000000000E+00 0. -1.
          1    1    1    2  501    0 -0.15672488603E+02 -0.12729898411E+03  0.36439302236E+01  0.12831187195E+03  0.00000000000E+00 0. -1.
<scales pt_clust_5="13000.00000" pt_clust_6="13000.00000" pt_clust_7="13000.00000" pt_clust_8="13000.00000" pt_clust_9="13000.00000"></scales>
<clustering>
<clus scale="   63.052">  5  6 -1 -1</clus>
<clus scale="   63.311">  2  5  1 -1</clus>
<clus scale="   90.096">  7  8 -1 -1</clus>
<clus scale="  125.223">  7  9 -1 -1</clus>
<clus scale="  285.382">  1  5  2 -1</clus>
</clustering>
</event>
<event>
 9    2  0.2147756E-005  0.2337576E+03  0.7546771E-02  0.1148798E+00
          2   -1    0    0  502    0 -0.00000000000E+00  0.00000000000E+00  0.55601107366E+03  0.55601107366E+03  0.00000000000E+00 0. -1.
         21   -1    0    0  501  502  0.00000000000E+00 -0.00000000000E+00 -0.73426937768E+02  0.73426937768E+02  0.00000000000E+00 0. -1.
         24    2    1    2    0    0 -0.51445137545E+02 -0.84651711658E+02  0.32004051116E+03  0.34472231261E+03  0.81209787338E+02 0.  0.
         23    2    1    2    0    0  0.11388687460E+03  0.72891505996E+02  0.11763357329E+03  0.20690705095E+03  0.10338993334E+03 0.  0.
        -11    1    3    3    0    0 -0.20259213641E+02 -0.21607877300E+02  0.18132002621E+02  0.34729031340E+02  0.00000000000E+00 0.  1.
         12    1    3    3    0    0 -0.31185923904E+02 -0.63043834358E+02  0.30190850854E+03  0.30999328127E+03  0.00000000000E+00 0. -1.
        -13    1    4    4    0    0  0.11108329000E+02  0.64488105925E+02  0.31888351856E+02  0.72794077802E+02  0.00000000000E+00 0.  1.
         13    1    4    4    0    0  0.10277854560E+03  0.84034000709E+01  0.85745221431E+02  0.13411297315E+03  0.00000000000E+00 0. -1.
          1    1    1    2  501    0 -0.62441737052E+02  0.11760205663E+02  0.44910051441E+02  0.77808647873E+02  0.00000000000E+00 0. -1.
<scales pt_clust_5="13000.00000" pt_clust_6="13000.00000" pt_clust_7="13000.00000" pt_clust_8="13000.00000" pt_clust_9="13000.00000"></scales>
<clustering>
<clus scale="   81.210">  5  6 -1 -1</clus>
<clus scale="  103.390">  7  8 -1 -1</clus>
<clus scale="   63.540">  7  9 -1 -1</clus>
<clus scale="  128.092">  1  5  2 -1</clus>
<clus scale="  233.758">  2  5  1 -1</clus>
</clustering>
</event>
<event>
 9    2  0.2147756E-005  0.3077800E+03  0.7546771E-02  0.1099820E+00
         21   -1    0    0  501  502  0.00000000000E+00  0.00000000000E+00  0.53881752338E+02  0.53881752338E+02  0.00000000000E+00 0. -1.
          2   -1    0    0  502    0 -0.00000000000E+00 -0.00000000000E+00 -0.11705144135E+04  0.11705144135E+04  0.00000000000E+00 0. -1.
         24    2    1    2    0    0 -0.16699253591E+03  0.38776306227E+02 -0.34271490076E+03  0.39152329451E+03  0.80292452733E+02 0.  0.
         23    2    1    2    0    0 -0.81123592559E+01  0.23848203019E+02 -0.15392847282E+03  0.18559374283E+03  0.10058089020E+03 0.  0.
        -11    1    3    3    0    0 -0.11145109426E+03 -0.10554268004E+02 -0.17047996383E+03  0.20395135952E+03  0.00000000000E+00 0.  1.
         12    1    3    3    0    0 -0.55541441653E+02  0.49330574231E+02 -0.17223493693E+03  0.18757193498E+03  0.00000000000E+00 0. -1.
        -13    1    4    4    0    0  0.21358920106E+02  0.55632878386E+02 -0.77934234880E+02  0.98106908992E+02  0.00000000000E+00 0. -1.
         13    1    4    4    0    0 -0.29471279362E+02 -0.31784675368E+02 -0.75994237937E+02  0.87486833838E+02  0.00000000000E+00 0.  1.
          1    1    1    2  501    0  0.17510489516E+03 -0.62624509245E+02 -0.61998928755E+03  0.64727912847E+03  0.00000000000E+00 0. -1.
<scales pt_clust_5="13000.00000" pt_clust_6="13000.00000" pt_clust_7="13000.00000" pt_clust_8="13000.00000" pt_clust_9="13000.00000"></scales>
<clustering>
<clus scale="   80.292">  5  6 -1 -1</clus>
<clus scale="  100.581">  7  8 -1 -1</clus>
<clus scale="  185.967">  7  9 -1 -1</clus>
<clus scale="  189.307">  2  5  1 -1</clus>
<clus scale="  307.780">  1  5  2 -1</clus>
</clustering>
</event>
<event>
 9    2  0.2147756E-005  0.2433868E+03  0.7546771E-02  0.1149800E+00
         21   -1    0    0  501  502  0.00000000000E+00  0.00000000000E+00  0.24967079692E+03  0.24967079692E+03  0.00000000000E+00 0.  1.
          2   -1    0    0  502    0 -0.00000000000E+00 -0.00000000000E+00 -0.21590792241E+03  0.21590792241E+03  0.00000000000E+00 0. -1.
         24    2    1    2    0    0  0.74064018587E+02 -0.11170254839E+01 -0.13106300635E+03  0.17163197017E+03  0.82421447186E+02 0.  0.
         23    2    1    2    0    0 -0.74470256480E+01 -0.14493112768E+02  0.18887457647E+03  0.22142199528E+03  0.11440535759E+03 0.  0.
        -11    1    3    3    0    0  0.29549493990E+02  0.12785414668E+02  0.34026889739E+00  0.32198683300E+02  0.00000000000E+00 0.  1.
         12    1    3    3    0    0  0.44514524596E+02 -0.13902440152E+02 -0.13140327524E+03  0.13943328687E+03  0.00000000000E+00 0. -1.
        -13    1    4    4    0    0  0.30786360794E+02  0.38485672849E+02  0.95394661474E+02  0.10737359295E+03  0.00000000000E+00 0.  1.
         13    1    4    4    0    0 -0.38233386442E+02 -0.52978785617E+02  0.93479915001E+02  0.11404840232E+03  0.00000000000E+00 0. -1.
          1    1    1    2  501    0 -0.66616992939E+02  0.15610138252E+02 -0.24048695620E+02  0.72524753881E+02  0.00000000000E+00 0. -1.
<scales pt_clust_5="13000.00000" pt_clust_6="13000.00000" pt_clust_7="13000.00000" pt_clust_8="13000.00000" pt_clust_9="13000.00000"></scales>
<clustering>
<clus scale="   82.421">  5  6 -1 -1</clus>
<clus scale="  110.815">  2  5  1 -1</clus>
<clus scale="  114.405">  7  8 -1 -1</clus>
<clus scale="   18.553">  7  9 -1 -1</clus>
<clus scale="  243.387">  1  5  2 -1</clus>
</clustering>
</event>
<event>
 9    2  0.2147756E-005  0.3697431E+03  0.7546771E-02  0.1095274E+00
          2   -1    0    0  502    0 -0.00000000000E+00  0.00000000000E+00  0.69802191350E+03  0.69802191350E+03  0.00000000000E+00 0. -1.
         21   -1    0    0  501  502  0.00000000000E+00 -0.00000000000E+00 -0.96143140042E+02  0.96143140042E+02  0.00000000000E+00 0. -1.
         24    2    1    2    0    0  0.52158155129E+02 -0.76609149684E+02  0.27267930705E+03  0.29910725902E+03  0.80757123198E+02 0.  0.
         23    2    1    2    0    0 -0.12121772084E+03 -0.19540472597E+02  0.34318684672E+03  0.37585368264E+03  0.91723568790E+02 0.  0.
        -11    1    3    3    0    0  0.50414753091E+02 -0.30609848258E+02  0.22591911539E+03  0.23349102090E+03  0.00000000000E+00 0.  1.
         12    1    3    3    0    0  0.17434020377E+01 -0.45999301425E+02  0.46760191653E+02  0.65616238125E+02  0.00000000000E+00 0. -1.
        -11    1    4    4    0    0 -0.30100368049E+02  0.35237001388E+02  0.89396013441E+02  0.10069421852E+03  0.00000000000E+00 0.  1.
         11    1    4    4    0    0 -0.91117352792E+02 -0.54777473986E+02  0.25379083328E+03  0.27515946412E+03  0.00000000000E+00 0. -1.
          1    1    1    2  501    0  0.69059565712E+02  0.96149622281E+02 -0.13987380314E+02  0.11920411188E+03  0.00000000000E+00 0. -1.
<scales pt_clust_5="13000.00000" pt_clust_6="13000.00000" pt_clust_7="13000.00000" pt_clust_8="13000.00000" pt_clust_9="13000.00000"></scales>
<clustering>
<clus scale="   80.757">  5  6 -1 -1</clus>
<clus scale="   91.724">  7  8 -1 -1</clus>
<clus scale="  118.381">  7  9 -1 -1</clus>
<clus scale="  122.927">  1  5  2 -1</clus>
<clus scale="  369.743">  2  5  1 -1</clus>
</clustering>
</event>
<event>
 9    2  0.2147756E-005  0.4213706E+03  0.7546771E-02  0.1045369E+00
         21   -1    0    0  501  502  0.00000000000E+00  0.00000000000E+00  0.21095428598E+03  0.21095428598E+03  0.00000000000E+00 0.  1.
         -1   -1    0    0    0  501 -0.00000000000E+00 -0.00000000000E+00 -0.67147914192E+03  0.67147914192E+03  0.00000000000E+00 0.  1.
         24    2    1    2    0    0  0.29647961462E+03  0.10807853772E+03 -0.24940074357E+03  0.41113038683E+03  0.85125389163E+02 0.  0.
         23    2    1    2    0    0 -0.87323327520E+02  0.55855846950E+02 -0.13935204626E+03  0.19603578116E+03  0.90916420568E+02 0.  0.
        -13    1    3    3    0    0  0.23893768139E+03  0.85304439323E+02 -0.23866119254E+03  0.34832058191E+03  0.00000000000E+00 0.  1.
         14    1    3    3    0    0  0.57541933229E+02  0.22774098394E+02 -0.10739551026E+02  0.62809804916E+02  0.00000000000E+00 0. -1.
        -13    1    4    4    0    0 -0.75683790670E+02  0.25780541773E+02 -0.35845562354E+02  0.87621782935E+02  0.00000000000E+00 0.  1.
         13    1    4    4    0    0 -0.11639536850E+02  0.30075305177E+02 -0.10350648391E+03  0.10841399822E+03  0.00000000000E+00 0. -1.
         -2    1    1    2    0  502 -0.20915628710E+03 -0.16393438467E+03 -0.71772066108E+02  0.27526725992E+03  0.00000000000E+00 0.  1.
<scales pt_clust_5="13000.00000" pt_clust_6="13000.00000" pt_clust_7="13000.00000" pt_clust_8="13000.00000" pt_clust_9="13000.00000"></scales>
<clustering>
<clus scale="   85.125">  5  6 -1 -1</clus>
<clus scale="   90.916">  7  8 -1 -1</clus>
<clus scale="  265.746">  7  9 -1 -1</clus>
<clus scale="  326.845">  2  5  1 -1</clus>
<clus scale="  421.371">  1  5  2 -1</clus>
</clustering>
</event>
<event>
 9    2  0.2147756E-005  0.1482047E+03  0.7546771E-02  0.1216371E+00
          2   -1    0    0  502    0 -0.00000000000E+00  0.00000000000E+00  0.47462503586E+03  0.47462503586E+03  0.00000000000E+00 0. -1.
         21   -1    0    0  501  502  0.00000000000E+00 -0.00000000000E+00 -0.35701182336E+02  0.35701182336E+02  0.00000000000E+00 0.  1.
         24    2    1    2    0    0  0.66199272673E+02  0.32758636892E+02  0.16100429357E+03  0.19535970045E+03  0.82386637384E+02 0.  0.
         23    2    1    2    0    0 -0.39520881045E+02 -0.92431943570E+01  0.13655114759E+03  0.16919361000E+03  0.91284856774E+02 0.  0.
        -11    1    3    3    0    0  0.71512527005E+02  0.51710478444E+02  0.14604529494E+03  0.17063775453E+03  0.00000000000E+00 0.  1.
         12    1    3    3    0    0 -0.53132543325E+01 -0.18951841552E+02  0.14958998634E+02  0.24721945918E+02  0.00000000000E+00 0. -1.
        -11    1    4    4    0    0 -0.11908509260E+02  0.32116329653E+02  0.10464527206E+03  0.11010860179E+03  0.00000000000E+00 0.  1.
         11    1    4    4    0    0 -0.27612371785E+02 -0.41359524010E+02  0.31905875525E+02  0.59085008208E+02  0.00000000000E+00 0. -1.
          1    1    1    2  501    0 -0.26678391627E+02 -0.23515442535E+02  0.14136841237E+03  0.14577290775E+03  0.00000000000E+00 0. -1.
<scales pt_clust_5="13000.00000" pt_clust_6="13000.00000" pt_clust_7="13000.00000" pt_clust_8="13000.00000" pt_clust_9="13000.00000"></scales>
<clustering>
<clus scale="   82.387">  5  6 -1 -1</clus>
<clus scale="   91.285">  7  8 -1 -1</clus>
<clus scale="   35.563">  7  9 -1 -1</clus>
<clus scale="  110.648">  1  5  2 -1</clus>
<clus scale="  148.205">  2  5  1 -1</clus>
</clustering>
</event>
<event>
 9    2  0.2147756E-005  0.1657159E+03  0.7546771E-02  0.1207005E+00
         21   -1    0    0  501  502  0.00000000000E+00  0.00000000000E+00  0.43195272512E+03  0.43195272512E+03  0.00000000000E+00 0. -1.
          2   -1    0    0  502    0 -0.00000000000E+00 -0.00000000000E+00 -0.40288895428E+02  0.40288895428E+02  0.00000000000E+00 0. -1.
         24    2    1    2    0    0  0.27547945380E+02  0.49200821656E+02  0.16916444340E+03  0.19481102449E+03  0.78454548661E+02 0.  0.
         23    2    1    2    0    0 -0.57548933036E+02 -0.53339619626E+02  0.21059177182E+03  0.24488862022E+03  0.97285904631E+02 0.  0.
        -13    1    3    3    0    0  0.19595087917E+02 -0.17046341633E+02  0.25448660249E+02  0.36361786838E+02  0.00000000000E+00 0.  1.
         14    1    3    3    0    0  0.79528574623E+01  0.66247163290E+02  0.14371578315E+03  0.15844923765E+03  0.00000000000E+00 0. -1.
        -11    1    4    4    0    0 -0.42632931975E-01  0.20056403015E+02  0.74952290258E+01  0.21411202153E+02  0.00000000000E+00 0.  1.
         11    1    4    4    0    0 -0.57506300104E+02 -0.73396022641E+02  0.20309654280E+03  0.22347741807E+03  0.00000000000E+00 0. -1.
          1    1    1    2  501    0  0.30000987657E+02  0.41387979693E+01  0.11907614470E+02  0.32541975837E+02  0.00000000000E+00 0. -1.
<scales pt_clust_5="13000.00000" pt_clust_6="13000.00000" pt_clust_7="13000.00000" pt_clust_8="13000.00000" pt_clust_9="13000.00000"></scales>
<clustering>
<clus scale="   78.455">  5  6 -1 -1</clus>
<clus scale="   96.616">  2  5  1 -1</clus>
<clus scale="   97.286">  7  8 -1 -1</clus>
<clus scale="   46.257">  7  9 -1 -1</clus>
<clus scale="  165.716">  1  5  2 -1</clus>
</clustering>
</event>
<event>
 9    2  0.2147756E-005  0.2160873E+03  0.7546771E-02  0.1165681E+00
         21   -1    0    0  501  502  0.00000000000E+00  0.00000000000E+00  0.58942738610E+02  0.58942738610E+02  0.00000000000E+00 0.  1.
          2   -1    0    0  502    0 -0.00000000000E+00 -0.00000000000E+00 -0.47217861408E+03  0.47217861408E+03  0.00000000000E+00 0. -1.
         24    2    1    2    0    0  0.69143471851E+02 -0.18112699268E+02 -0.19794379465E+03  0.22608956278E+03  0.82618732627E+02 0.  0.
         23    2    1    2    0    0  0.18573712667E+01 -0.36253245842E+02 -0.31740502611E+02  0.10085549949E+03  0.88581175248E+02 0.  0.
        -13    1    3    3    0    0  0.21334410441E+02  0.31262757332E+02 -0.95501314566E+02  0.10272788399E+03  0.00000000000E+00 0.  1.
         14    1    3    3    0    0  0.47809061409E+02 -0.49375456600E+02 -0.10244248009E+03  0.12336167879E+03  0.00000000000E+00 0. -1.
        -11    1    4    4    0    0 -0.19162839623E+02 -0.35962788571E+02  0.19717219012E+02  0.45269253471E+02  0.00000000000E+00 0.  1.
         11    1    4    4    0    0  0.21020210890E+02 -0.29045727021E+00 -0.51457721624E+02  0.55586246014E+02  0.00000000000E+00 0. -1.
          1    1    1    2  501    0 -0.71000843117E+02  0.54365945109E+02 -0.18355157821E+03  0.20417629043E+03  0.00000000000E+00 0. -1.
<scales pt_clust_5="13000.00000" pt_clust_6="13000.00000" pt_clust_7="13000.00000" pt_clust_8="13000.00000" pt_clust_9="13000.00000"></scales>
<clustering>
<clus scale="   82.619">  5  6 -1 -1</clus>
<clus scale="   88.581">  7  8 -1 -1</clus>
<clus scale="   89.425">  7  9 -1 -1</clus>
<clus scale="  109.246">  2  5  1 -1</clus>
<clus scale="  216.087">  1  5  2 -1</clus>
</clustering>
</event>
<event>
 9    2  0.2147756E-005  0.1337768E+03  0.7546771E-02  0.1240961E+00
          2   -1    0    0  502    0 -0.00000000000E+00  0.00000000000E+00  0.32210858654E+03  0.32210858654E+03  0.00000000000E+00 0. -1.
         21   -1    0    0  501  502  0.00000000000E+00 -0.00000000000E+00 -0.62519829917E+02  0.62519829917E+02  0.00000000000E+00 0.  1.
         24    2    1    2    0    0  0.12242259478E+01 -0.40248816209E+02  0.23066422253E+03  0.24776033206E+03  0.80979828677E+02 0.  0.
         23    2    1    2    0    0  0.23777165178E+02  0.13827156820E+02  0.33273043200E+02  0.10023363102E+03  0.90460718180E+02 0.  0.
        -11    1    3    3    0    0 -0.36863080099E+02 -0.29060566736E+01  0.88174175251E+02  0.95613895543E+02  0.00000000000E+00 0.  1.
         12    1    3    3    0    0  0.38087306047E+02 -0.37342759535E+02  0.14249004728E+03  0.15214643652E+03  0.00000000000E+00 0. -1.
        -11    1    4    4    0    0 -0.20373538789E+01 -0.33583191138E+02  0.31702622390E+02  0.46228106216E+02  0.00000000000E+00 0.  1.
         11    1    4    4    0    0  0.25814519057E+02  0.47410347958E+02  0.15704208094E+01  0.54005524802E+02  0.00000000000E+00 0. -1.
          1    1    1    2  501    0 -0.25001391126E+02  0.26421659389E+02 -0.43485091029E+01  0.36634453381E+02  0.00000000000E+00 0. -1.
<scales pt_clust_5="13000.00000" pt_clust_6="13000.00000" pt_clust_7="13000.00000" pt_clust_8="13000.00000" pt_clust_9="13000.00000"></scales>
<clustering>
<clus scale="   80.980">  5  6 -1 -1</clus>
<clus scale="   90.439">  1  5  2 -1</clus>
<clus scale="   90.461">  7  8 -1 -1</clus>
<clus scale="   30.961">  7  9 -1 -1</clus>
<clus scale="  133.777">  2  5  1 -1</clus>
</clustering>
</event>
<event>
 9    2  0.2147756E-005  0.2038014E+03  0.7546771E-02  0.1156377E+00
         -3   -1    0    0    0  501 -0.00000000000E+00  0.00000000000E+00  0.15745388700E+03  0.15745388700E+03  0.00000000000E+00 0.  1.
         21   -1    0    0  501  502  0.00000000000E+00 -0.00000000000E+00 -0.21912095825E+03  0.21912095825E+03  0.00000000000E+00 0.  1.
         24    2    1    2    0    0 -0.11745109880E+03  0.73409996860E+02 -0.60999169942E+02  0.17277234822E+03  0.83340250343E+02 0.  0.
         23    2    1    2    0    0  0.27470231322E+02 -0.50102400412E+02 -0.74857755959E+01  0.11060226113E+03  0.94403173645E+02 0.  0.
        -13    1    3    3    0    0 -0.74721032261E+02  0.39277803664E+02  0.79254423524E+01  0.84786739289E+02  0.00000000000E+00 0.  1.
         14    1    3    3    0    0 -0.42730066538E+02  0.34132193196E+02 -0.68924612294E+02  0.87985608929E+02  0.00000000000E+00 0. -1.
        -13    1    4    4    0    0 -0.81403684356E+01 -0.36719915586E+02 -0.43991289220E+02  0.57877900153E+02  0.00000000000E+00 0.  1.
         13    1    4    4    0    0  0.35610599758E+02 -0.13382484826E+02  0.36505513624E+02  0.52724360975E+02  0.00000000000E+00 0. -1.
         -4    1    1    2    0  502  0.89980867477E+02 -0.23307596448E+02  0.68178742891E+01  0.93200235912E+02  0.00000000000E+00 0.  1.
<scales pt_clust_5="13000.00000" pt_clust_6="13000.00000" pt_clust_7="13000.00000" pt_clust_8="13000.00000" pt_clust_9="13000.00000"></scales>
<clustering>
<clus scale="   83.340">  5  6 -1 -1</clus>
<clus scale="   94.403">  7  8 -1 -1</clus>
<clus scale="   92.951">  7  9 -1 -1</clus>
<clus scale="  161.646">  1  5  2 -1</clus>
<clus scale="  203.801">  2  5  1 -1</clus>
</clustering>
</event>
<event>
 9    2  0.2147756E-005  0.4603701E+03  0.7546771E-02  0.1080105E+00
         21   -1    0    0  501  502  0.00000000000E+00  0.00000000000E+00  0.47538569223E+02  0.47538569223E+02  0.00000000000E+00 0. -1.
          2   -1    0    0  502    0 -0.00000000000E+00 -0.00000000000E+00 -0.16258543055E+04  0.16258543055E+04  0.00000000000E+00 0. -1.
         24    2    1    2    0    0 -0.13385830735E+02 -0.75804722404E+02 -0.29485440743E+03  0.30986304913E+03  0.56128880588E+02 0.  0.
         23    2    1    2    0    0  0.11488799560E+03 -0.15096503641E+03 -0.65488909693E+03  0.68763762729E+03  0.89308921348E+02 0.  0.
        -11    1    3    3    0    0 -0.23105194584E+02 -0.14027381255E+02 -0.46781144042E+02  0.54028630184E+02  0.00000000000E+00 0.  1.
         12    1    3    3    0    0  0.97193638487E+01 -0.61777341149E+02 -0.24807326338E+03  0.25583441895E+03  0.00000000000E+00 0. -1.
        -13    1    4    4    0    0  0.46455107092E+02 -0.10576608687E+03 -0.26288516782E+03  0.28714657158E+03  0.00000000000E+00 0. -1.
         13    1    4    4    0    0  0.68432888504E+02 -0.45198949542E+02 -0.39200392911E+03  0.40049105571E+03  0.00000000000E+00 0.  1.
          1    1    1    2  501    0 -0.10150216486E+03  0.22676975882E+03 -0.62857223192E+03  0.67589219831E+03  0.00000000000E+00 0. -1.
<scales pt_clust_5="13000.00000" pt_clust_6="13000.00000" pt_clust_7="13000.00000" pt_clust_8="13000.00000" pt_clust_9="13000.00000"></scales>
<clustering>
<clus scale="   56.129">  5  6 -1 -1</clus>
<clus scale="   89.309">  7  8 -1 -1</clus>
<clus scale="   95.268">  2  5  1 -1</clus>
<clus scale="  218.088">  7  9 -1 -1</clus>
<clus scale="  460.370">  1  5  2 -1</clus>
</clustering>
</event>
<event>
 9    2  0.2147756E-005  0.6995157E+03  0.7546771E-02  0.1006934E+00
         21   -1    0    0  501  502  0.00000000000E+00  0.00000000000E+00  0.14195275522E+03  0.14195275522E+03  0.00000000000E+00 0.  1.
          2   -1    0    0  502    0 -0.00000000000E+00 -0.00000000000E+00 -0.15086593208E+04  0.15086593208E+04  0.00000000000E+00 0. -1.
         24    2    1    2    0    0 -0.11497426230E+03 -0.17600130896E+03 -0.31069406088E+03  0.38392953384E+03  0.81704013038E+02 0.  0.
         23    2    1    2    0    0  0.26957659943E+03 -0.11610365873E+03 -0.24989780902E+03  0.39544887812E+03  0.88200327252E+02 0.  0.
        -11    1    3    3    0    0 -0.10988254081E+03 -0.18203237638E+03 -0.31012605108E+03  0.37601612516E+03  0.00000000000E+00 0.  1.
         12    1    3    3    0    0 -0.50917214818E+01  0.60310674184E+01 -0.56800980364E+00  0.79134086834E+01  0.00000000000E+00 0. -1.
        -11    1    4    4    0    0  0.19592543831E+03 -0.12460644068E+03 -0.19462216300E+03  0.30297083815E+03  0.00000000000E+00 0.  1.
         11    1    4    4    0    0  0.73651161116E+02  0.85027819564E+01 -0.55275646019E+02  0.92478039974E+02  0.00000000000E+00 0. -1.
          1    1    1    2  501    0 -0.15460233714E+03  0.29210496768E+03 -0.80611469567E+03  0.87123366405E+03  0.00000000000E+00 0. -1.
<scales pt_clust_5="13000.00000" pt_clust_6="13000.00000" pt_clust_7="13000.00000" pt_clust_8="13000.00000" pt_clust_9="13000.00000"></scales>
<clustering>
<clus scale="   81.704">  5  6 -1 -1</clus>
<clus scale="   88.200">  7  8 -1 -1</clus>
<clus scale="  225.546">  2  5  1 -1</clus>
<clus scale="  289.302">  7  9 -1 -1</clus>
<clus scale="  699.516">  1  5  2 -1</clus>
</clustering>
</event>
<event>
 9    2  0.2147756E-005  0.4201870E+03  0.7546771E-02  0.1052477E+00
         21   -1    0    0  501  502  0.00000000000E+00  0.00000000000E+00  0.84673878631E+02  0.84673878631E+02  0.00000000000E+00 0.  1.
         -1   -1    0    0    0  501 -0.00000000000E+00 -0.00000000000E+00 -0.14576288905E+04  0.14576288905E+04  0.00000000000E+00 0.  1.
         24    2    1    2    0    0  0.17942697907E+03  0.17813969218E+03 -0.39493570149E+03  0.47784099014E+03  0.91815101159E+02 0.  0.
         23    2    1    2    0    0 -0.18052940880E+03 -0.24511421904E+03 -0.58157437197E+03  0.66239786394E+03  0.88714892729E+02 0.  0.
        -11    1    3    3    0    0  0.13200971723E+03  0.12572515581E+03 -0.34841331189E+03  0.39322412967E+03  0.00000000000E+00 0.  1.
         12    1    3    3    0    0  0.47417261835E+02  0.52414536371E+02 -0.46522389596E+02  0.84616860475E+02  0.00000000000E+00 0. -1.
        -11    1    4    4    0    0 -0.10863503650E+03 -0.20707034534E+03 -0.46159809318E+03  0.51744806377E+03  0.00000000000E+00 0.  1.
         11    1    4    4    0    0 -0.71894372295E+02 -0.38043873706E+02 -0.11997627879E+03  0.14494980016E+03  0.00000000000E+00 0. -1.
         -2    1    1    2    0  502  0.11024297335E+01  0.66974526864E+02 -0.39644493841E+03  0.40206391506E+03  0.00000000000E+00 0.  1.
<scales pt_clust_5="13000.00000" pt_clust_6="13000.00000" pt_clust_7="13000.00000" pt_clust_8="13000.00000" pt_clust_9="13000.00000"></scales>
<clustering>
<clus scale="   88.715">  7  8 -1 -1</clus>
<clus scale="   66.984">  7  9 -1 -1</clus>
<clus scale="   91.815">  5  6 -1 -1</clus>
<clus scale="  268.994">  2  5  1 -1</clus>
<clus scale="  420.187">  1  5  2 -1</clus>
</clustering>
</event>
<event>
 9    2  0.2147756E-005  0.1283672E+03  0.7546771E-02  0.1243800E+00
         21   -1    0    0  501  502  0.00000000000E+00  0.00000000000E+00  0.13510628041E+03  0.13510628041E+03  0.00000000000E+00 0.  1.
          2   -1    0    0  502    0 -0.00000000000E+00 -0.00000000000E+00 -0.77168322942E+03  0.77168322942E+03  0.00000000000E+00 0. -1.
         24    2    1    2    0    0 -0.65907893272E+01  0.51649080550E+02 -0.73730967246E+03  0.74361710975E+03  0.81423502649E+02 0.  0.
         23    2    1    2    0    0 -0.15158399145E+02 -0.42326227065E+02  0.63153371241E+02  0.11876349886E+03  0.89972961498E+02 0.  0.
        -13    1    3    3    0    0 -0.26226095311E+02  0.44698883281E+02 -0.22528901280E+03  0.23117296021E+03  0.00000000000E+00 0.  1.
         14    1    3    3    0    0  0.19635305984E+02  0.69501972687E+01 -0.51202065965E+03  0.51244414954E+03  0.00000000000E+00 0. -1.
        -13    1    4    4    0    0 -0.15339578087E+02  0.17137383633E+02  0.53876331620E+02  0.58580301147E+02  0.00000000000E+00 0.  1.
         13    1    4    4    0    0  0.18117894236E+00 -0.59463610698E+02  0.92770396216E+01  0.60183197715E+02  0.00000000000E+00 0. -1.
          1    1    1    2  501    0  0.21749188472E+02 -0.93228534851E+01  0.37579352196E+02  0.44408901222E+02  0.00000000000E+00 0. -1.
<scales pt_clust_5="13000.00000" pt_clust_6="13000.00000" pt_clust_7="13000.00000" pt_clust_8="13000.00000" pt_clust_9="13000.00000"></scales>
<clustering>
<clus scale="   81.424">  5  6 -1 -1</clus>
<clus scale="   89.973">  7  8 -1 -1</clus>
<clus scale="   23.663">  7  9 -1 -1</clus>
<clus scale="   96.648">  2  5  1 -1</clus>
<clus scale="  128.367">  1  5  2 -1</clus>
</clustering>
</event>
<event>
 9    2  0.2147756E-005  0.2275492E+03  0.7546771E-02  0.1154961E+00
          2   -1    0    0  502    0 -0.00000000000E+00  0.00000000000E+00  0.23580187221E+03  0.23580187221E+03  0.00000000000E+00 0. -1.
         21   -1    0    0  501  502  0.00000000000E+00 -0.00000000000E+00 -0.13120457540E+03  0.13120457540E+03  0.00000000000E+00 0. -1.
         24    2    1    2    0    0 -0.74158702282E+02  0.60887223182E+02  0.96539322418E+01  0.12044432949E+03  0.72158651787E+02 0.  0.
         23    2    1    2    0    0  0.37709382915E+01  0.44529013045E+02  0.37183175434E+02  0.10726653446E+03  0.90146923969E+02 0.  0.
        -11    1    3    3    0    0 -0.72382340503E+02  0.17404766619E+02 -0.47683885899E+01  0.74598033805E+02  0.00000000000E+00 0.  1.
         12    1    3    3    0    0 -0.17763617783E+01  0.43482456563E+02  0.14422320832E+02  0.45846295685E+02  0.00000000000E+00 0. -1.
        -13    1    4    4    0    0 -0.23878788057E+02  0.26404999038E+02 -0.20279839654E+02  0.40971848745E+02  0.00000000000E+00 0. -1.
         13    1    4    4    0    0  0.27649726348E+02  0.18124014008E+02  0.57463015087E+02  0.66294685713E+02  0.00000000000E+00 0.  1.
          1    1    1    2  501    0  0.70387763990E+02 -0.10541623623E+03  0.57760189128E+02  0.13929558366E+03  0.00000000000E+00 0. -1.
<scales pt_clust_5="13000.00000" pt_clust_6="13000.00000" pt_clust_7="13000.00000" pt_clust_8="13000.00000" pt_clust_9="13000.00000"></scales>
<clustering>
<clus scale="   72.159">  5  6 -1 -1</clus>
<clus scale="   90.147">  7  8 -1 -1</clus>
<clus scale="  120.057">  1  5  2 -1</clus>
<clus scale="   75.507">  7  9 -1 -1</clus>
<clus scale="  227.549">  2  5  1 -1</clus>
</clustering>
</event>
<event>
 9    2  0.2147756E-005  0.3038205E+03  0.7546771E-02  0.1122065E+00
          2   -1    0    0  502    0 -0.00000000000E+00  0.00000000000E+00  0.52354024766E+03  0.52354024766E+03  0.00000000000E+00 0. -1.
         21   -1    0    0  501  502  0.00000000000E+00 -0.00000000000E+00 -0.88608794471E+02  0.88608794471E+02  0.00000000000E+00 0.  1.
         24    2    1    2    0    0  0.70863985171E+02 -0.77521000348E+01  0.51865785214E+02  0.12322551252E+03  0.86096851341E+02 0.  0.
         23    2    1    2    0    0  0.20552801208E+02  0.38510766758E+02  0.76749811379E+01  0.10133961331E+03  0.91133501505E+02 0.  0.
        -11    1    3    3    0    0  0.76555790817E+02  0.18105544712E+02  0.55813798269E+02  0.96456103665E+02  0.00000000000E+00 0.  1.
         12    1    3    3    0    0 -0.56918056463E+01 -0.25857644747E+02 -0.39480130552E+01  0.26769408855E+02  0.00000000000E+00 0. -1.
        -11    1    4    4    0    0  0.32657578858E+02 -0.20508894429E+02  0.13387866006E+02  0.40821160735E+02  0.00000000000E+00 0. -1.
         11    1    4    4    0    0 -0.12104777650E+02  0.59019661187E+02 -0.57128848683E+01  0.60518452575E+02  0.00000000000E+00 0.  1.
          1    1    1    2  501    0 -0.91416786379E+02 -0.30758666723E+02  0.37539068684E+03  0.38758391630E+03  0.00000000000E+00 0. -1.
<scales pt_clust_5="13000.00000" pt_clust_6="13000.00000" pt_clust_7="13000.00000" pt_clust_8="13000.00000" pt_clust_9="13000.00000"></scales>
<clustering>
<clus scale="   86.097">  5  6 -1 -1</clus>
<clus scale="   91.134">  7  8 -1 -1</clus>
<clus scale="   96.453">  7  9 -1 -1</clus>
<clus scale="  111.779">  1  5  2 -1</clus>
<clus scale="  303.821">  2  5  1 -1</clus>
</clustering>
</event>
<event>
 9    2  0.2147756E-005  0.1596433E+03  0.7546771E-02  0.1191381E+00
         21   -1    0    0  501  502  0.00000000000E+00  0.00000000000E+00  0.89077297917E+02  0.89077297917E+02  0.00000000000E+00 0. -1.
          2   -1    0    0  502    0 -0.00000000000E+00 -0.00000000000E+00 -0.27530572388E+03  0.27530572388E+03  0.00000000000E+00 0. -1.
         24    2    1    2    0    0  0.43367048622E+02  0.96537309757E+02 -0.71543489969E+02  0.16781594711E+03  0.10882815843E+03 0.  0.
         23    2    1    2    0    0 -0.88485351236E+01 -0.74008400932E+02 -0.93098609925E+02  0.15003698786E+03  0.91039587940E+02 0.  0.
        -13    1    3    3    0    0  0.14791058430E+02 -0.23610985101E+02 -0.18260309903E+02  0.33312054045E+02  0.00000000000E+00 0.  1.
         14    1    3    3    0    0  0.28575990192E+02  0.12014829486E+03 -0.53283180065E+02  0.13450389307E+03  0.00000000000E+00 0. -1.
        -13    1    4    4    0    0  0.22309479582E+02 -0.53497172879E+02 -0.98242666780E+01  0.58789255829E+02  0.00000000000E+00 0. -1.
         13    1    4    4    0    0 -0.31158014705E+02 -0.20511228054E+02 -0.83274343247E+02  0.91247732026E+02  0.00000000000E+00 0.  1.
          1    1    1    2  501    0 -0.34518513498E+02 -0.22528908825E+02 -0.21586326066E+02  0.46530086826E+02  0.00000000000E+00 0. -1.
<scales pt_clust_5="13000.00000" pt_clust_6="13000.00000" pt_clust_7="13000.00000" pt_clust_8="13000.00000" pt_clust_9="13000.00000"></scales>
<clustering>
<clus scale="   91.040">  7  8 -1 -1</clus>
<clus scale="   41.220">  7  9 -1 -1</clus>
<clus scale="  108.828">  5  6 -1 -1</clus>
<clus scale="  151.802">  2  5  1 -1</clus>
<clus scale="  159.643">  1  5  2 -1</clus>
</clustering>
</event>
<event>
 9    2  0.2147756E-005  0.1916424E+03  0.7546771E-02  0.1173519E+00
         21   -1    0    0  501  502  0.00000000000E+00  0.00000000000E+00  0.20871693538E+02  0.20871693538E+02  0.00000000000E+00 0. -1.
          2   -1    0    0  502    0 -0.00000000000E+00 -0.00000000000E+00 -0.12739897302E+04  0.12739897302E+04  0.00000000000E+00 0. -1.
         24    2    1    2    0    0  0.98898103890E+02  0.34010785669E+02 -0.41685007835E+03  0.43691567777E+03  0.78700401289E+02 0.  0.
         23    2    1    2    0    0 -0.10078432088E+03  0.19648390030E+02 -0.60007802761E+03  0.61572983337E+03  0.92119758565E+02 0.  0.
        -13    1    3    3    0    0  0.44486279400E+02 -0.74334307054E+01 -0.69199554510E+02  0.82600625248E+02  0.00000000000E+00 0.  1.
         14    1    3    3    0    0  0.54411824489E+02  0.41444216375E+02 -0.34765052384E+03  0.35431505252E+03  0.00000000000E+00 0. -1.
        -13    1    4    4    0    0 -0.53511123003E+02  0.54272701653E+02 -0.40221076163E+03  0.40936837103E+03  0.00000000000E+00 0.  1.
         13    1    4    4    0    0 -0.47273197881E+02 -0.34624311623E+02 -0.19786726598E+03  0.20636146234E+03  0.00000000000E+00 0. -1.
          1    1    1    2  501    0  0.18862169938E+01 -0.53659175699E+02 -0.23618993075E+03  0.24221591265E+03  0.00000000000E+00 0. -1.
<scales pt_clust_5="13000.00000" pt_clust_6="13000.00000" pt_clust_7="13000.00000" pt_clust_8="13000.00000" pt_clust_9="13000.00000"></scales>
<clustering>
<clus scale="   78.700">  5  6 -1 -1</clus>
<clus scale="   92.120">  7  8 -1 -1</clus>
<clus scale="   53.692">  7  9 -1 -1</clus>
<clus scale="  130.887">  2  5  1 -1</clus>
<clus scale="  191.642">  1  5  2 -1</clus>
</clustering>
</event>
<event>
 9    2  0.2147756E-005  0.1057348E+04  0.7546771E-02  0.9768210E-01
          2   -1    0    0  502    0 -0.00000000000E+00  0.00000000000E+00  0.63906528502E+03  0.63906528502E+03  0.00000000000E+00 0. -1.
         21   -1    0    0  501  502  0.00000000000E+00 -0.00000000000E+00 -0.60457488142E+03  0.60457488142E+03  0.00000000000E+00 0. -1.
         24    2    1    2    0    0 -0.91386928000E+02  0.12030548650E+03  0.71206281185E+02  0.18565510376E+03  0.81070971252E+02 0.  0.
         23    2    1    2    0    0 -0.81071620390E+02 -0.56520997130E+03 -0.61247772426E+02  0.58019455903E+03  0.82701374898E+02 0.  0.
        -13    1    3    3    0    0 -0.19577886751E+02  0.62697979366E+02 -0.53789506746E+01  0.65903439793E+02  0.00000000000E+00 0.  1.
         14    1    3    3    0    0 -0.71809041248E+02  0.57607507136E+02  0.76585231860E+02  0.11975166397E+03  0.00000000000E+00 0. -1.
        -11    1    4    4    0    0 -0.24758243106E+02 -0.46408625176E+02  0.98839787259E+01  0.53520315095E+02  0.00000000000E+00 0.  1.
         11    1    4    4    0    0 -0.56313377284E+02 -0.51880134613E+03 -0.71131751152E+02  0.52667424394E+03  0.00000000000E+00 0. -1.
          1    1    1    2  501    0  0.17245854839E+03  0.44490448480E+03  0.24531894838E+02  0.47779050365E+03  0.00000000000E+00 0. -1.
<scales pt_clust_5="13000.00000" pt_clust_6="13000.00000" pt_clust_7="13000.00000" pt_clust_8="13000.00000" pt_clust_9="13000.00000"></scales>
<clustering>
<clus scale="   81.071">  5  6 -1 -1</clus>
<clus scale="   82.701">  7  8 -1 -1</clus>
<clus scale="  171.457">  1  5  2 -1</clus>
<clus scale="  519.955">  7  9 -1 -1</clus>
<clus scale=" 1057.348">  2  5  1 -1</clus>
</clustering>
</event>
<event>
 9    2  0.2908435E-005  0.6521670E+03  0.7546771E-02  0.1008875E+00
         21   -1    0    0  501  502  0.00000000000E+00  0.00000000000E+00  0.31690921362E+03  0.31690921362E+03  0.00000000000E+00 0. -1.
          2   -1    0    0  502    0 -0.00000000000E+00 -0.00000000000E+00 -0.65985729460E+03  0.65985729460E+03  0.00000000000E+00 0. -1.
         24    2    1    2    0    0  0.10866552433E+03  0.22478058579E+03 -0.86039057334E+02  0.27582140516E+03  0.79625499876E+02 0.  0.
         23    2    1    2    0    0  0.73619220798E+02  0.16353375450E+03 -0.16966957674E+03  0.26319348825E+03  0.91213861066E+02 0.  0.
        -11    1    3    3    0    0  0.81587926067E+00  0.83312584281E+02 -0.17179803089E+02  0.85069371649E+02  0.00000000000E+00 0.  1.
         12    1    3    3    0    0  0.10784964507E+03  0.14146800150E+03 -0.68859254245E+02  0.19075203351E+03  0.00000000000E+00 0. -1.
        -13    1    4    4    0    0  0.48437768932E+02  0.53470800426E+02 -0.18443670484E+02  0.74468200853E+02  0.00000000000E+00 0.  1.
         13    1    4    4    0    0  0.25181451866E+02  0.11006295408E+03 -0.15122590626E+03  0.18872528739E+03  0.00000000000E+00 0. -1.
          1    1    1    2  501    0 -0.18228474513E+03 -0.38831434029E+03 -0.87239446905E+02  0.43775161482E+03  0.00000000000E+00 0. -1.
<scales pt_clust_5="13000.00000" pt_clust_6="13000.00000" pt_clust_7="13000.00000" pt_clust_8="13000.00000" pt_clust_9="13000.00000"></scales>
<clustering>
<clus scale="   79.625">  5  6 -1 -1</clus>
<clus scale="   91.214">  7  8 -1 -1</clus>
<clus scale="  262.059">  2  5  1 -1</clus>
<clus scale="  292.143">  7  9 -1 -1</clus>
<clus scale="  652.167">  1  5  2 -1</clus>
</clustering>
</event>
<event>
 9    2  0.2683238E-005  0.4706370E+03  0.7546771E-02  0.1067182E+00
          2   -1    0    0  502    0 -0.00000000000E+00  0.00000000000E+00  0.19299905423E+03  0.19299905423E+03  0.00000000000E+00 0. -1.
         21   -1    0    0  501  502  0.00000000000E+00 -0.00000000000E+00 -0.46480531355E+03  0.46480531355E+03  0.00000000000E+00 0. -1.
         24    2    1    2    0    0 -0.58480804949E+02  0.80510318578E+02 -0.77501675297E+02  0.14863498370E+03  0.78637985490E+02 0.  0.
         23    2    1    2    0    0  0.39243796425E+02  0.29894548965E+02  0.13037542028E+03  0.16569245258E+03  0.89568292462E+02 0.  0.
        -11    1    3    3    0    0 -0.40227345439E+02 -0.38046219266E+01 -0.28179893303E+02  0.49262773528E+02  0.00000000000E+00 0.  1.
         12    1    3    3    0    0 -0.18253459510E+02  0.84314940505E+02 -0.49321781993E+02  0.99372210177E+02  0.00000000000E+00 0. -1.
        -11    1    4    4    0    0  0.62771181562E+02  0.41516777635E+02  0.10502787277E+03  0.12920804200E+03  0.00000000000E+00 0. -1.
         11    1    4    4    0    0 -0.23527385137E+02 -0.11622228670E+02  0.25347547508E+02  0.36484410579E+02  0.00000000000E+00 0.  1.
          1    1    1    2  501    0  0.19237008524E+02 -0.11040486754E+03 -0.32468000430E+03  0.34347693149E+03  0.00000000000E+00 0. -1.
<scales pt_clust_5="13000.00000" pt_clust_6="13000.00000" pt_clust_7="13000.00000" pt_clust_8="13000.00000" pt_clust_9="13000.00000"></scales>
<clustering>
<clus scale="   78.638">  5  6 -1 -1</clus>
<clus scale="   89.568">  7  8 -1 -1</clus>
<clus scale="  112.068">  7  9 -1 -1</clus>
<clus scale="  126.830">  1  5  2 -1</clus>
<clus scale="  470.637">  2  5  1 -1</clus>
</clustering>
</event>
<event>
 9    2  0.2147756E-005  0.2144640E+03  0.7546771E-02  0.1170486E+00
          2   -1    0    0  502    0 -0.00000000000E+00  0.00000000000E+00  0.14357960625E+04  0.14357960625E+04  0.00000000000E+00 0. -1.
         21   -1    0    0  501  502  0.00000000000E+00 -0.00000000000E+00 -0.34237164785E+02  0.34237164785E+02  0.00000000000E+00 0. -1.
         24    2    1    2    0    0  0.44206325795E+02  0.36269484376E+02  0.10731086470E+04  0.10777650019E+04  0.82131336182E+02 0.  0.
         23    2    1    2    0    0  0.52942680678E+02  0.12806193788E+02  0.20151351997E+03  0.22505792287E+03  0.84121601734E+02 0.  0.
        -13    1    3    3    0    0  0.45326435591E+02  0.16076345198E+02  0.26034634886E+03  0.26475112087E+03  0.00000000000E+00 0.  1.
         14    1    3    3    0    0 -0.11201097958E+01  0.20193139178E+02  0.81276229816E+03  0.81301388107E+03  0.00000000000E+00 0. -1.
        -11    1    4    4    0    0  0.27775300942E+02 -0.27835887284E+02  0.14874983691E+03  0.15385973464E+03  0.00000000000E+00 0.  1.
         11    1    4    4    0    0  0.25167379735E+02  0.40642081072E+02  0.52763683061E+02  0.71198188227E+02  0.00000000000E+00 0. -1.
          1    1    1    2  501    0 -0.97149006473E+02 -0.49075678164E+02  0.12693673075E+03  0.16721030249E+03  0.00000000000E+00 0. -1.
<scales pt_clust_5="13000.00000" pt_clust_6="13000.00000" pt_clust_7="13000.00000" pt_clust_8="13000.00000" pt_clust_9="13000.00000"></scales>
<clustering>
<clus scale="   82.131">  5  6 -1 -1</clus>
<clus scale="   84.122">  7  8 -1 -1</clus>
<clus scale="  100.076">  1  5  2 -1</clus>
<clus scale="   86.212">  7  9 -1 -1</clus>
<clus scale="  214.464">  2  5  1 -1</clus>
</clustering>
</event>
<event>
 9    2  0.2147756E-005  0.2708376E+03  0.7546771E-02  0.1121397E+00
          2   -1    0    0  502    0 -0.00000000000E+00  0.00000000000E+00  0.25668731862E+03  0.25668731862E+03  0.00000000000E+00 0. -1.
         21   -1    0    0  501  502  0.00000000000E+00 -0.00000000000E+00 -0.22939075099E+03  0.22939075099E+03  0.00000000000E+00 0.  1.
         24    2    1    2    0    0  0.13676697663E+03 -0.20610884746E+02 -0.97638854562E+02  0.18781329583E+03  0.81304819696E+02 0.  0.
         23    2    1    2    0    0 -0.65005392024E+02  0.89298740288E+02  0.66851954596E+01  0.14382752876E+03  0.91878725409E+02 0.  0.
        -11    1    3    3    0    0  0.12471521041E+03 -0.51041452769E+01 -0.46786118804E+02  0.13329995093E+03  0.00000000000E+00 0.  1.
         12    1    3    3    0    0  0.12051766218E+02 -0.15506739469E+02 -0.50852735759E+02  0.54513344899E+02  0.00000000000E+00 0. -1.
        -13    1    4    4    0    0  0.21833613323E+02  0.34985357611E+02  0.25788145648E+01  0.41319876603E+02  0.00000000000E+00 0.  1.
         13    1    4    4    0    0 -0.86839005347E+02  0.54313382677E+02  0.41063808948E+01  0.10250765216E+03  0.00000000000E+00 0. -1.
          1    1    1    2  501    0 -0.71761584603E+02 -0.68687855543E+02  0.11825022673E+03  0.15443724501E+03  0.00000000000E+00 0. -1.
<scales pt_clust_5="13000.00000" pt_clust_6="13000.00000" pt_clust_7="13000.00000" pt_clust_8="13000.00000" pt_clust_9="13000.00000"></scales>
<clustering>
<clus scale="   81.305">  5  6 -1 -1</clus>
<clus scale="   91.879">  7  8 -1 -1</clus>
<clus scale="   99.337">  7  9 -1 -1</clus>
<clus scale="  160.439">  1  5  2 -1</clus>
<clus scale="  270.838">  2  5  1 -1</clus>
</clustering>
</event>
<event>
 9    2  0.2147756E-005  0.6202047E+03  0.7546771E-02  0.1040920E+00
         -1   -1    0    0    0  501 -0.00000000000E+00  0.00000000000E+00  0.35045063106E+03  0.35045063106E+03  0.00000000000E+00 0.  1.
         21   -1    0    0  501  502  0.00000000000E+00 -0.00000000000E+00 -0.41365582675E+03  0.41365582675E+03  0.00000000000E+00 0.  1.
         24    2    1    2    0    0 -0.27317119409E+02 -0.79441240446E+02 -0.83786554060E+02  0.14356038901E+03  0.80822416159E+02 0.  0.
         23    2    1    2    0    0 -0.12593838971E+03  0.12910217359E+02  0.27490851812E+03  0.31625027143E+03  0.91719077245E+02 0.  0.
        -11    1    3    3    0    0 -0.31872322135E+02 -0.12176728346E+02 -0.65262697693E+02  0.73643311588E+02  0.00000000000E+00 0.  1.
         12    1    3    3    0    0  0.45552027259E+01 -0.67264512100E+02 -0.18523856367E+02  0.69917077418E+02  0.00000000000E+00 0. -1.
        -11    1    4    4    0    0 -0.79012544576E+02 -0.35828042189E+02  0.17855263195E+03  0.19851365994E+03  0.00000000000E+00 0.  1.
         11    1    4    4    0    0 -0.46925845130E+02  0.48738259548E+02  0.96355886170E+02  0.11773661149E+03  0.00000000000E+00 0. -1.
         -2    1    1    2    0  502  0.15325550912E+03  0.66531023087E+02 -0.25432715976E+03  0.30429579737E+03  0.00000000000E+00 0.  1.
<scales pt_clust_5="13000.00000" pt_clust_6="13000.00000" pt_clust_7="13000.00000" pt_clust_8="13000.00000" pt_clust_9="13000.00000"></scales>
<clustering>
<clus scale="   80.822">  5  6 -1 -1</clus>
<clus scale="   91.719">  7  8 -1 -1</clus>
<clus scale="  116.574">  1  5  2 -1</clus>
<clus scale="  162.727">  7  9 -1 -1</clus>
<clus scale="  620.205">  2  5  1 -1</clus>
</clustering>
</event>
<event>
 9    2  0.2147756E-005  0.3062635E+03  0.7546771E-02  0.1130734E+00
          2   -1    0    0  502    0 -0.00000000000E+00  0.00000000000E+00  0.51377818135E+03  0.51377818135E+03  0.00000000000E+00 0. -1.
         21   -1    0    0  501  502  0.00000000000E+00 -0.00000000000E+00 -0.56883285369E+03  0.56883285369E+03  0.00000000000E+00 0.  1.
         24    2    1    2    0    0  0.34063266527E+02 -0.12694667594E+02  0.46814827416E+03  0.47636138334E+03  0.80224062603E+02 0.  0.
         23    2    1    2    0    0 -0.14254001083E+03  0.37566608096E+02 -0.19965666530E+03  0.26409761889E+03  0.90309819929E+02 0.  0.
        -11    1    3    3    0    0  0.14828164591E+02  0.30538015295E+02  0.11051917737E+03  0.11561545489E+03  0.00000000000E+00 0.  1.
         12    1    3    3    0    0  0.19235101935E+02 -0.43232682890E+02  0.35762909679E+03  0.36074592844E+03  0.00000000000E+00 0. -1.
        -13    1    4    4    0    0 -0.55299189942E+02  0.15963528214E+02 -0.16176083038E+02  0.59787124899E+02  0.00000000000E+00 0. -1.
         13    1    4    4    0    0 -0.87240820892E+02  0.21603079881E+02 -0.18348058226E+03  0.20431049399E+03  0.00000000000E+00 0.  1.
          1    1    1    2  501    0  0.10847674431E+03 -0.24871940501E+02 -0.32354628120E+03  0.34215203281E+03  0.00000000000E+00 0. -1.
<scales pt_clust_5="13000.00000" pt_clust_6="13000.00000" pt_clust_7="13000.00000" pt_clust_8="13000.00000" pt_clust_9="13000.00000"></scales>
<clustering>
<clus scale="   80.224">  5  6 -1 -1</clus>
<clus scale="   88.076">  1  5  2 -1</clus>
<clus scale="   90.310">  7  8 -1 -1</clus>
<clus scale="  119.371">  7  9 -1 -1</clus>
<clus scale="  306.263">  2  5  1 -1</clus>
</clustering>
</event>
<event>
 9    2  0.2147756E-005  0.2170246E+03  0.7546771E-02  0.1161983E+00
         21   -1    0    0  501  502  0.00000000000E+00  0.00000000000E+00  0.10822339046E+03  0.10822339046E+03  0.00000000000E+00 0.  1.
          2   -1    0    0  502    0 -0.00000000000E+00 -0.00000000000E+00 -0.26992442978E+03  0.26992442978E+03  0.00000000000E+00 0. -1.
         24    2    1    2    0    0 -0.89264014192E+01 -0.84106900572E+02 -0.95098842221E+02  0.15113346985E+03  0.81510027302E+02 0.  0.
         23    2    1    2    0    0  0.50552342717E+02 -0.18190972906E+02 -0.21902134167E+02  0.10786876913E+03  0.90936884835E+02 0.  0.
        -13    1    3    3    0    0  0.11884469685E+02 -0.47507624467E+02 -0.97347377344E+02  0.10897122041E+03  0.00000000000E+00 0.  1.
         14    1    3    3    0    0 -0.20810871104E+02 -0.36599276105E+02  0.22485351225E+01  0.42162249438E+02  0.00000000000E+00 0. -1.
        -13    1    4    4    0    0  0.58764825665E+02  0.20082869470E+02  0.17622140074E+01  0.62126739652E+02  0.00000000000E+00 0. -1.
         13    1    4    4    0    0 -0.82124829479E+01 -0.38273842377E+02 -0.23664348175E+02  0.45742029480E+02  0.00000000000E+00 0.  1.
          1    1    1    2  501    0 -0.41625941298E+02  0.10229787348E+03 -0.44700062935E+02  0.11914558126E+03  0.00000000000E+00 0. -1.
<scales pt_clust_5="13000.00000" pt_clust_6="13000.00000" pt_clust_7="13000.00000" pt_clust_8="13000.00000" pt_clust_9="13000.00000"></scales>
<clustering>
<clus scale="   81.510">  5  6 -1 -1</clus>
<clus scale="   90.937">  7  8 -1 -1</clus>
<clus scale="  110.443">  7  9 -1 -1</clus>
<clus scale="  117.463">  2  5  1 -1</clus>
<clus scale="  217.025">  1  5  2 -1</clus>
</clustering>
</event>
<event>
 9    2  0.2147756E-005  0.3103573E+03  0.7546771E-02  0.1107515E+00
          2   -1    0    0  502    0 -0.00000000000E+00  0.00000000000E+00  0.76064063879E+02  0.76064063879E+02  0.00000000000E+00 0. -1.
         21   -1    0    0  501  502  0.00000000000E+00 -0.00000000000E+00 -0.93818394093E+03  0.93818394093E+03  0.00000000000E+00 0.  1.
         24    2    1    2    0    0 -0.11123788905E+03 -0.67281897060E+02 -0.56374491211E+03  0.58372588391E+03  0.77632853772E+02 0.  0.
         23    2    1    2    0    0  0.50121603537E+02  0.14466189038E+03 -0.27637062575E+03  0.32949215176E+03  0.93515333623E+02 0.  0.
        -13    1    3    3    0    0 -0.96674408833E+02 -0.78272086052E+02 -0.53786733308E+03  0.55206315651E+03  0.00000000000E+00 0.  1.
         14    1    3    3    0    0 -0.14563480221E+02  0.10990188991E+02 -0.25877579030E+02  0.31662727404E+02  0.00000000000E+00 0. -1.
        -13    1    4    4    0    0 -0.13918895194E+02  0.99981133347E+02 -0.16621420901E+03  0.19446625915E+03  0.00000000000E+00 0. -1.
         13    1    4    4    0    0  0.64040498731E+02  0.44680757029E+02 -0.11015641674E+03  0.13502589261E+03  0.00000000000E+00 0.  1.
          1    1    1    2  501    0  0.61116285517E+02 -0.77379993315E+02 -0.22004339186E+02  0.10102996914E+03  0.00000000000E+00 0. -1.
<scales pt_clust_5="13000.00000" pt_clust_6="13000.00000" pt_clust_7="13000.00000" pt_clust_8="13000.00000" pt_clust_9="13000.00000"></scales>
<clustering>
<clus scale="   77.633">  5  6 -1 -1</clus>
<clus scale="   93.515">  7  8 -1 -1</clus>
<clus scale="   98.605">  7  9 -1 -1</clus>
<clus scale="  151.419">  1  5  2 -1</clus>
<clus scale="  310.357">  2  5  1 -1</clus>
</clustering>
</event>
<event>
 9    2  0.2147756E-005  0.3251122E+03  0.7546771E-02  0.1113557E+00
         -1   -1    0    0    0  501 -0.00000000000E+00  0.00000000000E+00  0.12386809086E+03  0.12386809086E+03  0.00000000000E+00 0.  1.
         21   -1    0    0  501  502  0.00000000000E+00 -0.00000000000E+00 -0.39702060616E+03  0.39702060616E+03  0.00000000000E+00 0.  1.
         24    2    1    2    0    0 -0.83695409568E+00 -0.77733463703E+02 -0.36271803755E+02  0.11863200730E+03  0.81943380062E+02 0.  0.
         23    2    1    2    0    0  0.15563755272E+02 -0.86962124313E+02 -0.19331423392E+03  0.23126091973E+03  0.91140432368E+02 0.  0.
        -13    1    3    3    0    0  0.28178710597E+02 -0.79018488423E+02 -0.26117793615E+02  0.87864101810E+02  0.00000000000E+00 0.  1.
         14    1    3    3    0    0 -0.29015664693E+02  0.12850247198E+01 -0.10154010140E+02  0.30767905486E+02  0.00000000000E+00 0. -1.
        -11    1    4    4    0    0  0.51464335929E+02 -0.48825144843E+02 -0.13749111083E+03  0.15471353593E+03  0.00000000000E+00 0. -1.
         11    1    4    4    0    0 -0.35900580657E+02 -0.38136979470E+02 -0.55823123088E+02  0.76547383795E+02  0.00000000000E+00 0.  1.
         -2    1    1    2    0  502 -0.14726801177E+02  0.16469558802E+03 -0.43566477623E+02  0.17099577000E+03  0.00000000000E+00 0.  1.
<scales pt_clust_5="13000.00000" pt_clust_6="13000.00000" pt_clust_7="13000.00000" pt_clust_8="13000.00000" pt_clust_9="13000.00000"></scales>
<clustering>
<clus scale="   81.943">  5  6 -1 -1</clus>
<clus scale="   91.140">  7  8 -1 -1</clus>
<clus scale="  112.951">  1  5  2 -1</clus>
<clus scale="  105.920">  7  9 -1 -1</clus>
<clus scale="  325.112">  2  5  1 -1</clus>
</clustering>
</event>
<event>
 9    2  0.2147756E-005  0.1543597E+03  0.7546771E-02  0.1217796E+00
         21   -1    0    0  501  502  0.00000000000E+00  0.00000000000E+00  0.46529474606E+03  0.46529474606E+03  0.00000000000E+00 0. -1.
          2   -1    0    0  502    0 -0.00000000000E+00 -0.00000000000E+00 -0.66418073015E+03  0.66418073015E+03  0.00000000000E+00 0. -1.
         24    2    1    2    0    0 -0.37726399566E+02  0.41889288306E+02 -0.64781587271E+03  0.65474927946E+03  0.76506341750E+02 0.  0.
         23    2    1    2    0    0  0.52986890045E+02 -0.59381311137E+02  0.42309740776E+03  0.43999623130E+03  0.90837858158E+02 0.  0.
        -11    1    3    3    0    0 -0.53222895935E+02  0.25313432794E+02 -0.27504772057E+03  0.28129112165E+03  0.00000000000E+00 0.  1.
         12    1    3    3    0    0  0.15496496369E+02  0.16575855512E+02 -0.37276815214E+03  0.37345815781E+03  0.00000000000E+00 0. -1.
        -11    1    4    4    0    0  0.44442068796E+02  0.13576614972E+02  0.13930974883E+03  0.14685580708E+03  0.00000000000E+00 0.  1.
         11    1    4    4    0    0  0.85448212491E+01 -0.72957926109E+02  0.28378765893E+03  0.29314042422E+03  0.00000000000E+00 0. -1.
          1    1    1    2  501    0 -0.15260490479E+02  0.17492022832E+02  0.25832480855E+02  0.34729965441E+02  0.00000000000E+00 0. -1.
<scales pt_clust_5="13000.00000" pt_clust_6="13000.00000" pt_clust_7="13000.00000" pt_clust_8="13000.00000" pt_clust_9="13000.00000"></scales>
<clustering>
<clus scale="   76.506">  5  6 -1 -1</clus>
<clus scale="   90.838">  7  8 -1 -1</clus>
<clus scale="   23.213">  7  9 -1 -1</clus>
<clus scale="   95.033">  2  5  1 -1</clus>
<clus scale="  154.360">  1  5  2 -1</clus>
</clustering>
</event>
<event>
 9    2  0.2147756E-005  0.7189035E+03  0.7546771E-02  0.1020424E+00
          2   -1    0    0  502    0 -0.00000000000E+00  0.00000000000E+00  0.52930820501E+03  0.52930820501E+03  0.00000000000E+00 0. -1.
         21   -1    0    0  501  502  0.00000000000E+00 -0.00000000000E+00 -0.37503902258E+03  0.37503902258E+03  0.00000000000E+00 0. -1.
         24    2    1    2    0    0 -0.10481781834E+03  0.45644901280E+02  0.12355670319E+03  0.18478800113E+03  0.76224106449E+02 0.  0.
         23    2    1    2    0    0 -0.16662184750E+03 -0.19295693783E+03 -0.19762672085E+03  0.33547704957E+03  0.92159156190E+02 0.  0.
        -13    1    3    3    0    0 -0.11522473753E+03  0.32429835008E+02  0.11467048207E+03  0.16576415112E+03  0.00000000000E+00 0.  1.
         14    1    3    3    0    0  0.10406919188E+02  0.13215066272E+02  0.88862211216E+01  0.19023850014E+02  0.00000000000E+00 0. -1.
        -13    1    4    4    0    0 -0.47367204264E+02 -0.15465730388E+02 -0.71716515747E+02  0.87327541401E+02  0.00000000000E+00 0.  1.
         13    1    4    4    0    0 -0.11925464324E+03 -0.17749120745E+03 -0.12591020510E+03  0.24814950817E+03  0.00000000000E+00 0. -1.
          1    1    1    2  501    0  0.27143966585E+03  0.14731203655E+03  0.22833920009E+03  0.38408217689E+03  0.00000000000E+00 0. -1.
<scales pt_clust_5="13000.00000" pt_clust_6="13000.00000" pt_clust_7="13000.00000" pt_clust_8="13000.00000" pt_clust_9="13000.00000"></scales>
<clustering>
<clus scale="   76.224">  5  6 -1 -1</clus>
<clus scale="   92.159">  7  8 -1 -1</clus>
<clus scale="  137.406">  1  5  2 -1</clus>
<clus scale="  261.950">  7  9 -1 -1</clus>
<clus scale="  718.903">  2  5  1 -1</clus>
</clustering>
</event>
<event>
 9    2  0.2147756E-005  0.1666535E+03  0.7546771E-02  0.1214215E+00
         21   -1    0    0  501  502  0.00000000000E+00  0.00000000000E+00  0.49774562649E+02  0.49774562649E+02  0.00000000000E+00 0.  1.
         -1   -1    0    0    0  501 -0.00000000000E+00 -0.00000000000E+00 -0.41911652193E+03  0.41911652193E+03  0.00000000000E+00 0.  1.
         24    2    1    2    0    0  0.17526328290E+02 -0.12499062778E+02 -0.25262248710E+03  0.26542898788E+03  0.78555890087E+02 0.  0.
         23    2    1    2    0    0  0.43764224686E+02 -0.42614935683E+01 -0.85103670345E+02  0.13249022157E+03  0.91528992217E+02 0.  0.
        -11    1    3    3    0    0  0.39589038527E+02  0.10572383547E+02 -0.19771117465E+03  0.20191279268E+03  0.00000000000E+00 0.  1.
         12    1    3    3    0    0 -0.22062710238E+02 -0.23071446325E+02 -0.54911312445E+02  0.63516195203E+02  0.00000000000E+00 0. -1.
        -11    1    4    4    0    0  0.68202310038E+02 -0.18865250505E+02 -0.47096987669E+02  0.85003405924E+02  0.00000000000E+00 0.  1.
         11    1    4    4    0    0 -0.24438085353E+02  0.14603756936E+02 -0.38006682676E+02  0.47486815648E+02  0.00000000000E+00 0. -1.
         -2    1    1    2    0  502 -0.61290552975E+02  0.16760556346E+02 -0.31615801841E+02  0.70971875127E+02  0.00000000000E+00 0.  1.
<scales pt_clust_5="13000.00000" pt_clust_6="13000.00000" pt_clust_7="13000.00000" pt_clust_8="13000.00000" pt_clust_9="13000.00000"></scales>
<clustering>
<clus scale="   78.556">  5  6 -1 -1</clus>
<clus scale="   81.452">  2  5  1 -1</clus>
<clus scale="   91.529">  7  8 -1 -1</clus>
<clus scale="   57.118">  7  9 -1 -1</clus>
<clus scale="  166.654">  1  5  2 -1</clus>
</clustering>
</event>
<event>
 9    2  0.2147756E-005  0.2108244E+03  0.7546771E-02  0.1171811E+00
         21   -1    0    0  501  502  0.00000000000E+00  0.00000000000E+00  0.29554651679E+02  0.29554651679E+02  0.00000000000E+00 0. -1.
          2   -1    0    0  502    0 -0.00000000000E+00 -0.00000000000E+00 -0.85562836864E+03  0.85562836864E+03  0.00000000000E+00 0. -1.
         24    2    1    2    0    0  0.57637021503E+02  0.26762161712E+02 -0.34772920924E+03  0.36243986808E+03  0.80055077740E+02 0.  0.
         23    2    1    2    0    0 -0.84783006074E+02  0.35561737351E+02 -0.21340420058E+03  0.24922068658E+03  0.90093298909E+02 0.  0.
        -11    1    3    3    0    0 -0.15504506676E+02  0.20217840379E+02 -0.13525278609E+03  0.13763163497E+03  0.00000000000E+00 0.  1.
         12    1    3    3    0    0  0.73141528179E+02  0.65443213336E+01 -0.21247642314E+03  0.22480823312E+03  0.00000000000E+00 0. -1.
        -11    1    4    4    0    0  0.72204036458E+01  0.30790583533E+02 -0.88755240430E+02  0.94221478267E+02  0.00000000000E+00 0.  1.
         11    1    4    4    0    0 -0.92003409720E+02  0.47711538176E+01 -0.12464896015E+03  0.15499920831E+03  0.00000000000E+00 0. -1.
          1    1    1    2  501    0  0.27145984571E+02 -0.62323899063E+02 -0.26494030715E+03  0.27352246566E+03  0.00000000000E+00 0. -1.
<scales pt_clust_5="13000.00000" pt_clust_6="13000.00000" pt_clust_7="13000.00000" pt_clust_8="13000.00000" pt_clust_9="13000.00000"></scales>
<clustering>
<clus scale="   80.055">  5  6 -1 -1</clus>
<clus scale="   90.093">  7  8 -1 -1</clus>
<clus scale="   67.979">  7  9 -1 -1</clus>
<clus scale="  102.211">  2  5  1 -1</clus>
<clus scale="  210.824">  1  5  2 -1</clus>
</clustering>
</event>
<event>
 9    2  0.2147756E-005  0.3248148E+03  0.7546771E-02  0.1105826E+00
          2   -1    0    0  502    0 -0.00000000000E+00  0.00000000000E+00  0.53719155350E+03  0.53719155350E+03  0.00000000000E+00 0. -1.
         21   -1    0    0  501  502  0.00000000000E+00 -0.00000000000E+00 -0.12411129107E+03  0.12411129107E+03  0.00000000000E+00 0. -1.
         24    2    1    2    0    0 -0.81602041408E+02  0.96379948601E+02  0.27639878484E+03  0.30890182631E+03  0.55462260919E+02 0.  0.
         23    2    1    2    0    0 -0.75180291214E+02  0.89285493397E+01  0.10752221457E+03  0.16129674781E+03  0.93401386755E+02 0.  0.
        -11    1    3    3    0    0 -0.18028199198E+02  0.18733419438E+02  0.17785243016E+02  0.31500346654E+02  0.00000000000E+00 0.  1.
         12    1    3    3    0    0 -0.63573842210E+02  0.77646529163E+02  0.25861354182E+03  0.27740147966E+03  0.00000000000E+00 0. -1.
        -13    1    4    4    0    0 -0.92158837622E+02  0.24125135789E+02  0.73380352531E+02  0.12024953084E+03  0.00000000000E+00 0. -1.
         13    1    4    4    0    0  0.16978546408E+02 -0.15196586449E+02  0.34141862042E+02  0.41047216976E+02  0.00000000000E+00 0.  1.
          1    1    1    2  501    0  0.15678233262E+03 -0.10530849794E+03  0.29159263024E+02  0.19110427044E+03  0.00000000000E+00 0. -1.
<scales pt_clust_5="13000.00000" pt_clust_6="13000.00000" pt_clust_7="13000.00000" pt_clust_8="13000.00000" pt_clust_9="13000.00000"></scales>
<clustering>
<clus scale="   55.462">  5  6 -1 -1</clus>
<clus scale="   93.401">  7  8 -1 -1</clus>
<clus scale="  137.928">  1  5  2 -1</clus>
<clus scale="  135.054">  7  9 -1 -1</clus>
<clus scale="  324.815">  2  5  1 -1</clus>
</clustering>
</event>
<event>
 9    2  0.2147756E-005  0.2078094E+03  0.7546771E-02  0.1178451E+00
         21   -1    0    0  501  502  0.00000000000E+00  0.00000000000E+00  0.33851549016E+02  0.33851549016E+02  0.00000000000E+00 0. -1.
          2   -1    0    0  502    0 -0.00000000000E+00 -0.00000000000E+00 -0.90416723542E+03  0.90416723542E+03  0.00000000000E+00 0. -1.
         24    2    1    2    0    0 -0.42557324681E+01  0.41984881220E+02 -0.54015657164E+03  0.54790370545E+03  0.81538377832E+02 0.  0.
         23    2    1    2    0    0 -0.63884262776E+02 -0.27370508133E+02 -0.11497514807E+03  0.16392759397E+03  0.93928843519E+02 0.  0.
        -13    1    3    3    0    0 -0.20559543702E+02 -0.19383381081E+02 -0.15746685862E+03  0.15998194230E+03  0.00000000000E+00 0.  1.
         14    1    3    3    0    0  0.16303811234E+02  0.61368262300E+02 -0.38268971302E+03  0.38792176315E+03  0.00000000000E+00 0. -1.
        -13    1    4    4    0    0  0.21219000573E+02 -0.39050411978E+01 -0.49562380909E+02  0.54054832656E+02  0.00000000000E+00 0.  1.
         13    1    4    4    0    0 -0.85103263349E+02 -0.23465466936E+02 -0.65412767165E+02  0.10987276132E+03  0.00000000000E+00 0. -1.
          1    1    1    2  501    0  0.68139995244E+02 -0.14614373086E+02 -0.21518396670E+03  0.22618748501E+03  0.00000000000E+00 0. -1.
<scales pt_clust_5="13000.00000" pt_clust_6="13000.00000" pt_clust_7="13000.00000" pt_clust_8="13000.00000" pt_clust_9="13000.00000"></scales>
<clustering>
<clus scale="   81.538">  5  6 -1 -1</clus>
<clus scale="   91.811">  2  5  1 -1</clus>
<clus scale="   93.929">  7  8 -1 -1</clus>
<clus scale="   66.468">  7  9 -1 -1</clus>
<clus scale="  207.809">  1  5  2 -1</clus>
</clustering>
</event>
<event>
 9    2  0.2147756E-005  0.3920438E+03  0.7546771E-02  0.1081273E+00
         -3   -1    0    0    0  501 -0.00000000000E+00  0.00000000000E+00  0.13475974558E+03  0.13475974558E+03  0.00000000000E+00 0.  1.
         21   -1    0    0  501  502  0.00000000000E+00 -0.00000000000E+00 -0.64636985096E+03  0.64636985096E+03  0.00000000000E+00 0.  1.
         24    2    1    2    0    0  0.12158233912E+03  0.34772176847E+02 -0.30104190037E+03  0.33611575880E+03  0.79725830609E+02 0.  0.
         23    2    1    2    0    0 -0.84822968776E+02 -0.16375293469E+03 -0.15066470165E+02  0.20793111898E+03  0.94859854869E+02 0.  0.
        -11    1    3    3    0    0  0.56775658130E+02 -0.18231858155E+02 -0.17430024398E+03  0.18421848729E+03  0.00000000000E+00 0.  1.
         12    1    3    3    0    0  0.64806680990E+02  0.53004035002E+02 -0.12674165638E+03  0.15189727150E+03  0.00000000000E+00 0. -1.
        -11    1    4    4    0    0 -0.57137627477E+02 -0.65820528039E+02  0.35715090494E+02  0.94194575608E+02  0.00000000000E+00 0.  1.
         11    1    4    4    0    0 -0.27685341299E+02 -0.97932406654E+02 -0.50781560659E+02  0.11373654337E+03  0.00000000000E+00 0. -1.
         -4    1    1    2    0  502 -0.36759370344E+02  0.12898075785E+03 -0.19550173485E+03  0.23708271876E+03  0.00000000000E+00 0.  1.
<scales pt_clust_5="13000.00000" pt_clust_6="13000.00000" pt_clust_7="13000.00000" pt_clust_8="13000.00000" pt_clust_9="13000.00000"></scales>
<clustering>
<clus scale="   79.726">  5  6 -1 -1</clus>
<clus scale="   94.860">  7  8 -1 -1</clus>
<clus scale="  134.117">  7  9 -1 -1</clus>
<clus scale="  149.491">  1  5  2 -1</clus>
<clus scale="  392.044">  2  5  1 -1</clus>
</clustering>
</event>
<event>
 9    2  0.2147756E-005  0.2689745E+03  0.7546771E-02  0.1116319E+00
          2   -1    0    0  502    0 -0.00000000000E+00  0.00000000000E+00  0.74639778253E+03  0.74639778253E+03  0.00000000000E+00 0. -1.
         21   -1    0    0  501  502  0.00000000000E+00 -0.00000000000E+00 -0.76790200371E+02  0.76790200371E+02  0.00000000000E+00 0. -1.
         24    2    1    2    0    0 -0.16485943071E+03  0.30758327031E+02  0.40593681195E+03  0.44653225855E+03  0.80508732766E+02 0.  0.
         23    2    1    2    0    0  0.20210495359E+01  0.23488023392E+02  0.10036130789E+03  0.13974015838E+03  0.94335294878E+02 0.  0.
        -13    1    3    3    0    0 -0.18911350680E+02 -0.23115390257E+02  0.53168118509E+02  0.60982040611E+02  0.00000000000E+00 0.  1.
         14    1    3    3    0    0 -0.14594808002E+03  0.53873717288E+02  0.35276869344E+03  0.38555021794E+03  0.00000000000E+00 0. -1.
        -13    1    4    4    0    0 -0.33657129110E+02  0.14158987559E+02  0.42058512972E+01  0.36755522766E+02  0.00000000000E+00 0. -1.
         13    1    4    4    0    0  0.35678178646E+02  0.93290358335E+01  0.96155456590E+02  0.10298463562E+03  0.00000000000E+00 0.  1.
          1    1    1    2  501    0  0.16283838117E+03 -0.54246350423E+02  0.16330946232E+03  0.23691556597E+03  0.00000000000E+00 0. -1.
<scales pt_clust_5="13000.00000" pt_clust_6="13000.00000" pt_clust_7="13000.00000" pt_clust_8="13000.00000" pt_clust_9="13000.00000"></scales>
<clustering>
<clus scale="   80.509">  5  6 -1 -1</clus>
<clus scale="   94.335">  7  8 -1 -1</clus>
<clus scale="  171.636">  7  9 -1 -1</clus>
<clus scale="  186.028">  1  5  2 -1</clus>
<clus scale="  268.974">  2  5  1 -1</clus>
</clustering>
</event>
<event>
 9    2  0.2147756E-005  0.2445295E+03  0.7546771E-02  0.1159087E+00
         -1   -1    0    0    0  501 -0.00000000000E+00  0.00000000000E+00  0.64017308384E+03  0.64017308384E+03  0.00000000000E+00 0.  1.
         21   -1    0    0  501  502  0.00000000000E+00 -0.00000000000E+00 -0.43339341504E+02  0.43339341504E+02  0.00000000000E+00 0. -1.
         24    2    1    2    0    0  0.26643575121E+02  0.14587955370E+02  0.13790874048E+03  0.16350586002E+03  0.82417577151E+02 0.  0.
         23    2    1    2    0    0  0.26285237103E+02  0.26662478108E+02  0.60591315591E+02  0.11606005520E+03  0.91634204638E+02 0.  0.
        -13    1    3    3    0    0  0.56194111585E+02  0.13545763484E+02  0.98952620743E+02  0.11459880906E+03  0.00000000000E+00 0.  1.
         14    1    3    3    0    0 -0.29550536463E+02  0.10421918859E+01  0.38956119739E+02  0.48907050967E+02  0.00000000000E+00 0. -1.
        -11    1    4    4    0    0  0.11835900934E+02  0.50066509632E+02  0.70104504809E+02  0.86956227679E+02  0.00000000000E+00 0. -1.
         11    1    4    4    0    0  0.14449336169E+02 -0.23404031525E+02 -0.95131892175E+01  0.29103827522E+02  0.00000000000E+00 0.  1.
         -2    1    1    2    0  502 -0.52928812225E+02 -0.41250433478E+02  0.39833368626E+03  0.40394651012E+03  0.00000000000E+00 0.  1.
<scales pt_clust_5="13000.00000" pt_clust_6="13000.00000" pt_clust_7="13000.00000" pt_clust_8="13000.00000" pt_clust_9="13000.00000"></scales>
<clustering>
<clus scale="   82.418">  5  6 -1 -1</clus>
<clus scale="   87.837">  1  5  2 -1</clus>
<clus scale="   91.634">  7  8 -1 -1</clus>
<clus scale="   42.720">  7  9 -1 -1</clus>
<clus scale="  244.529">  2  5  1 -1</clus>
</clustering>
</event>
<event>
 9    2  0.2147756E-005  0.3484482E+03  0.7546771E-02  0.1066040E+00
          2   -1    0    0  502    0 -0.00000000000E+00  0.00000000000E+00  0.17580153921E+04  0.17580153921E+04  0.00000000000E+00 0. -1.
         21   -1    0    0  501  502  0.00000000000E+00 -0.00000000000E+00 -0.64369297068E+02  0.64369297068E+02  0.00000000000E+00 0. -1.
         24    2    1    2    0    0 -0.30932173020E+03 -0.47219475320E+02  0.88103382867E+03  0.93821566089E+03  0.78220249680E+02 0.  0.
         23    2    1    2    0    0  0.14802113337E+03  0.47208417149E+02  0.34437402039E+03  0.38892672632E+03  0.92366887730E+02 0.  0.
        -11    1    3    3    0    0 -0.18658502305E+03 -0.66914938725E+02  0.54420313926E+03  0.57917927848E+03  0.00000000000E+00 0.  1.
         12    1    3    3    0    0 -0.12273670715E+03  0.19695463405E+02  0.33683068941E+03  0.35903638241E+03  0.00000000000E+00 0. -1.
        -13    1    4    4    0    0  0.51590977177E+02  0.30677599196E+02  0.23334883017E+03  0.24094484962E+03  0.00000000000E+00 0.  1.
         13    1    4    4    0    0  0.96430156197E+02  0.16530817954E+02  0.11102519022E+03  0.14798187670E+03  0.00000000000E+00 0. -1.
          1    1    1    2  501    0  0.16130059682E+03  0.11058170315E-01  0.46823824594E+03  0.49524230193E+03  0.00000000000E+00 0. -1.
<scales pt_clust_5="13000.00000" pt_clust_6="13000.00000" pt_clust_7="13000.00000" pt_clust_8="13000.00000" pt_clust_9="13000.00000"></scales>
<clustering>
<clus scale="   78.220">  5  6 -1 -1</clus>
<clus scale="   92.367">  7  8 -1 -1</clus>
<clus scale="  161.301">  7  9 -1 -1</clus>
<clus scale="  322.534">  1  5  2 -1</clus>
<clus scale="  348.448">  2  5  1 -1</clus>
</clustering>
</event>
<event>
 9    2  0.2147756E-005  0.3446768E+03  0.7546771E-02  0.1116849E+00
         21   -1    0    0  501  502  0.00000000000E+00  0.00000000000E+00  0.48617611858E+03  0.48617611858E+03  0.00000000000E+00 0.  1.
          2   -1    0    0  502    0 -0.00000000000E+00 -0.00000000000E+00 -0.23020036839E+03  0.23020036839E+03  0.00000000000E+00 0. -1.
         24    2    1    2    0    0 -0.26920931100E+02  0.30469067296E+02  0.34869958827E+03  0.35944534972E+03  0.77178079662E+02 0.  0.
         23    2    1    2    0    0  0.49432798586E+02  0.42945534197E+02 -0.19716435618E+03  0.22729969928E+03  0.92214150010E+02 0.  0.
        -11    1    3    3    0    0 -0.25610453967E+02  0.55527253711E+02  0.27020035617E+03  0.27703321774E+03  0.00000000000E+00 0.  1.
         12    1    3    3    0    0 -0.13104771333E+01 -0.25058186414E+02  0.78499232101E+02  0.82412131977E+02  0.00000000000E+00 0. -1.
        -13    1    4    4    0    0 -0.24238418486E+02  0.24891464431E+02 -0.41385498044E+02  0.54035593645E+02  0.00000000000E+00 0.  1.
         13    1    4    4    0    0  0.73671217072E+02  0.18054069766E+02 -0.15577885813E+03  0.17326410564E+03  0.00000000000E+00 0. -1.
          1    1    1    2  501    0 -0.22511867486E+02 -0.73414601493E+02  0.10444051810E+03  0.12963143798E+03  0.00000000000E+00 0. -1.
<scales pt_clust_5="13000.00000" pt_clust_6="13000.00000" pt_clust_7="13000.00000" pt_clust_8="13000.00000" pt_clust_9="13000.00000"></scales>
<clustering>
<clus scale="   77.178">  5  6 -1 -1</clus>
<clus scale="   87.233">  2  5  1 -1</clus>
<clus scale="   92.214">  7  8 -1 -1</clus>
<clus scale="   75.624">  7  9 -1 -1</clus>
<clus scale="  344.677">  1  5  2 -1</clus>
</clustering>
</event>
<event>
 9    2  0.2147756E-005  0.2204752E+03  0.7546771E-02  0.1153487E+00
         21   -1    0    0  501  502  0.00000000000E+00  0.00000000000E+00  0.35939754787E+02  0.35939754787E+02  0.00000000000E+00 0. -1.
         -3   -1    0    0    0  501 -0.00000000000E+00 -0.00000000000E+00 -0.94954981285E+03  0.94954981285E+03  0.00000000000E+00 0.  1.
         24    2    1    2    0    0 -0.10603679581E+03 -0.27554660442E+02 -0.23357646939E+03  0.27060846385E+03  0.81657285545E+02 0.  0.
         23    2    1    2    0    0  0.84881356349E+02  0.91190491237E+02 -0.47720505978E+03  0.50125413050E+03  0.89501306773E+02 0.  0.
        -13    1    3    3    0    0 -0.62528194997E+02 -0.50035612325E+02 -0.18518767550E+03  0.20176177247E+03  0.00000000000E+00 0.  1.
         14    1    3    3    0    0 -0.43508600808E+02  0.22480951883E+02 -0.48388793882E+02  0.68846691389E+02  0.00000000000E+00 0. -1.
        -11    1    4    4    0    0 -0.82020637741E+01  0.19893057539E+02 -0.20433933260E+02  0.29674116952E+02  0.00000000000E+00 0. -1.
         11    1    4    4    0    0  0.93083420123E+02  0.71297433698E+02 -0.45677112652E+03  0.47158001355E+03  0.00000000000E+00 0.  1.
         -4    1    1    2    0  502  0.21155439457E+02 -0.63635830794E+02 -0.20282852890E+03  0.21362697328E+03  0.00000000000E+00 0.  1.
<scales pt_clust_5="13000.00000" pt_clust_6="13000.00000" pt_clust_7="13000.00000" pt_clust_8="13000.00000" pt_clust_9="13000.00000"></scales>
<clustering>
<clus scale="   81.657">  5  6 -1 -1</clus>
<clus scale="   89.501">  7  8 -1 -1</clus>
<clus scale="   67.060">  7  9 -1 -1</clus>
<clus scale="  136.642">  2  5  1 -1</clus>
<clus scale="  220.475">  1  5  2 -1</clus>
</clustering>
</event>
<event>
 9    2  0.2147756E-005  0.2777213E+03  0.7546771E-02  0.1128425E+00
          2   -1    0    0  502    0 -0.00000000000E+00  0.00000000000E+00  0.90438340492E+03  0.90438340492E+03  0.00000000000E+00 0. -1.
         21   -1    0    0  501  502  0.00000000000E+00 -0.00000000000E+00 -0.68581511016E+02  0.68581511016E+02  0.00000000000E+00 0. -1.
         24    2    1    2    0    0 -0.91840541876E+02  0.17507006020E+01  0.58677873073E+03  0.59994798210E+03  0.84797124402E+02 0.  0.
         23    2    1    2    0    0  0.67922740755E+02 -0.43558612950E+02  0.28785885930E+03  0.31114469419E+03  0.86240630630E+02 0.  0.
        -11    1    3    3    0    0 -0.58021979107E+02  0.37512688267E+02  0.24186780538E+03  0.25154281369E+03  0.00000000000E+00 0.  1.
         12    1    3    3    0    0 -0.33818562769E+02 -0.35761987665E+02  0.34491092535E+03  0.34840516841E+03  0.00000000000E+00 0. -1.
        -13    1    4    4    0    0  0.27631957476E+02 -0.43798117282E+02  0.57889290202E+02  0.77672196258E+02  0.00000000000E+00 0.  1.
         13    1    4    4    0    0  0.40290783279E+02  0.23950433243E+00  0.22996956910E+03  0.23347249793E+03  0.00000000000E+00 0. -1.
          1    1    1    2  501    0  0.23917801121E+02  0.41807912348E+02 -0.38835696123E+02  0.61872239645E+02  0.00000000000E+00 0. -1.
<scales pt_clust_5="13000.00000" pt_clust_6="13000.00000" pt_clust_7="13000.00000" pt_clust_8="13000.00000" pt_clust_9="13000.00000"></scales>
<clustering>
<clus scale="   84.797">  5  6 -1 -1</clus>
<clus scale="   86.241">  7  8 -1 -1</clus>
<clus scale="   48.166">  7  9 -1 -1</clus>
<clus scale="  125.013">  1  5  2 -1</clus>
<clus scale="  277.721">  2  5  1 -1</clus>
</clustering>
</event>
<event>
 9    2  0.2147756E-005  0.1537185E+03  0.7546771E-02  0.1223977E+00
          2   -1    0    0  502    0 -0.00000000000E+00  0.00000000000E+00  0.20252788075E+03  0.20252788075E+03  0.00000000000E+00 0. -1.
         21   -1    0    0  501  502  0.00000000000E+00 -0.00000000000E+00 -0.72455945987E+02  0.72455945987E+02  0.00000000000E+00 0. -1.
         24    2    1    2    0    0  0.24479917814E+02  0.63386294797E+01  0.70694629657E+02  0.11019594563E+03  0.80659600616E+02 0.  0.
         23    2    1    2    0    0 -0.28506627777E+02  0.47781452598E+02  0.47206275440E+02  0.10917015335E+03  0.81203416811E+02 0.  0.
        -11    1    3    3    0    0 -0.79039558712E+01 -0.26962353701E+02  0.32236298032E+01  0.28281315822E+02  0.00000000000E+00 0.  1.
         12    1    3    3    0    0  0.32383873685E+02  0.33300983181E+02  0.67470999854E+02  0.81914629810E+02  0.00000000000E+00 0. -1.
        -11    1    4    4    0    0  0.19623307204E+02 -0.70226086812E+01  0.25777689175E+02  0.33149366171E+02  0.00000000000E+00 0.  1.
         11    1    4    4    0    0 -0.48129934981E+02  0.54804061279E+02  0.21428586264E+02  0.76020787179E+02  0.00000000000E+00 0. -1.
          1    1    1    2  501    0  0.40267099640E+01 -0.54120082078E+02  0.12171029664E+02  0.55617727752E+02  0.00000000000E+00 0. -1.
<scales pt_clust_5="13000.00000" pt_clust_6="13000.00000" pt_clust_7="13000.00000" pt_clust_8="13000.00000" pt_clust_9="13000.00000"></scales>
<clustering>
<clus scale="   80.660">  5  6 -1 -1</clus>
<clus scale="   81.203">  7  8 -1 -1</clus>
<clus scale="   54.270">  7  9 -1 -1</clus>
<clus scale="   84.531">  1  5  2 -1</clus>
<clus scale="  153.719">  2  5  1 -1</clus>
</clustering>
</event>
<event>
 9    2  0.2147756E-005  0.2781200E+03  0.7546771E-02  0.1112602E+00
         21   -1    0    0  501  502  0.00000000000E+00  0.00000000000E+00  0.73236784497E+02  0.73236784497E+02  0.00000000000E+00 0. -1.
          2   -1    0    0  502    0 -0.00000000000E+00 -0.00000000000E+00 -0.74631901570E+03  0.74631901570E+03  0.00000000000E+00 0. -1.
         24    2    1    2    0    0  0.14656789052E+02 -0.16318706218E+03 -0.21375225154E+03  0.28258766948E+03  0.85562416831E+02 0.  0.
         23    2    1    2    0    0 -0.81026016296E+01 -0.19753571504E+02 -0.14574264998E+03  0.17386036963E+03  0.92361530760E+02 0.  0.
        -13    1    3    3    0    0  0.30355041882E+02 -0.32689064824E+02 -0.21047630436E+02  0.49325513416E+02  0.00000000000E+00 0.  1.
         14    1    3    3    0    0 -0.15698252830E+02 -0.13049799736E+03 -0.19270462110E+03  0.23326215606E+03  0.00000000000E+00 0. -1.
        -13    1    4    4    0    0  0.39720751512E+02 -0.17716130014E+02 -0.46456809130E+02  0.63638309829E+02  0.00000000000E+00 0.  1.
         13    1    4    4    0    0 -0.47823353142E+02 -0.20374414894E+01 -0.99285840846E+02  0.11022205980E+03  0.00000000000E+00 0. -1.
          1    1    1    2  501    0 -0.65541874227E+01  0.18294063368E+03 -0.31358732969E+03  0.36310776109E+03  0.00000000000E+00 0. -1.
<scales pt_clust_5="13000.00000" pt_clust_6="13000.00000" pt_clust_7="13000.00000" pt_clust_8="13000.00000" pt_clust_9="13000.00000"></scales>
<clustering>
<clus scale="   85.562">  5  6 -1 -1</clus>
<clus scale="   92.362">  7  8 -1 -1</clus>
<clus scale="  183.058">  7  9 -1 -1</clus>
<clus scale="  184.840">  2  5  1 -1</clus>
<clus scale="  278.120">  1  5  2 -1</clus>
</clustering>
</event>
<event>
 9    2  0.2147756E-005  0.3052255E+03  0.7546771E-02  0.1132567E+00
         -3   -1    0    0    0  501 -0.00000000000E+00  0.00000000000E+00  0.62978969804E+03  0.62978969804E+03  0.00000000000E+00 0.  1.
         21   -1    0    0  501  502  0.00000000000E+00 -0.00000000000E+00 -0.62464244966E+02  0.62464244966E+02  0.00000000000E+00 0.  1.
         24    2    1    2    0    0  0.89346172695E+01 -0.30733527969E+02  0.18022219142E+03  0.19929194971E+03  0.78821734392E+02 0.  0.
         23    2    1    2    0    0 -0.47088880220E+02 -0.59451421556E+02  0.29684510887E+02  0.12237160445E+03  0.91333483587E+02 0.  0.
        -11    1    3    3    0    0 -0.20351702842E+02  0.18084902487E+02  0.72659337563E+02  0.77592749930E+02  0.00000000000E+00 0.  1.
         12    1    3    3    0    0  0.29286320111E+02 -0.48818430456E+02  0.10756285385E+03  0.12169919978E+03  0.00000000000E+00 0. -1.
        -11    1    4    4    0    0 -0.63323366356E+02 -0.37583690786E+02 -0.99244787595E+01  0.74302609768E+02  0.00000000000E+00 0.  1.
         11    1    4    4    0    0  0.16234486136E+02 -0.21867730770E+02  0.39608989647E+02  0.48068994684E+02  0.00000000000E+00 0. -1.
         -4    1    1    2    0  502  0.38154262951E+02  0.90184949525E+02  0.35741875077E+03  0.37059038885E+03  0.00000000000E+00 0.  1.
<scales pt_clust_5="13000.00000" pt_clust_6="13000.00000" pt_clust_7="13000.00000" pt_clust_8="13000.00000" pt_clust_9="13000.00000"></scales>
<clustering>
<clus scale="   78.822">  5  6 -1 -1</clus>
<clus scale="   85.072">  1  5  2 -1</clus>
<clus scale="   91.333">  7  8 -1 -1</clus>
<clus scale="   79.173">  7  9 -1 -1</clus>
<clus scale="  305.225">  2  5  1 -1</clus>
</clustering>
</event>
<event>
 9    2  0.2147756E-005  0.3213234E+03  0.7546771E-02  0.1095980E+00
          2   -1    0    0  502    0 -0.00000000000E+00  0.00000000000E+00  0.13147206281E+04  0.13147206281E+04  0.00000000000E+00 0. -1.
         21   -1    0    0  501  502  0.00000000000E+00 -0.00000000000E+00 -0.51653205360E+02  0.51653205360E+02  0.00000000000E+00 0.  1.
         24    2    1    2    0    0 -0.11810017045E+03  0.11227259356E+03  0.30805530905E+03  0.35875442327E+03  0.85169696815E+02 0.  0.
         23    2    1    2    0    0 -0.11781610088E+02  0.41678420469E+02  0.18128369511E+03  0.20810339574E+03  0.92559970501E+02 0.  0.
        -13    1    3    3    0    0 -0.11694079365E+03  0.69472350976E+02  0.26588864691E+03  0.29866089353E+03  0.00000000000E+00 0.  1.
         14    1    3    3    0    0 -0.11593767958E+01  0.42800242588E+02  0.42166662141E+02  0.60093529737E+02  0.00000000000E+00 0. -1.
        -11    1    4    4    0    0  0.18101294931E+02  0.62644626607E+02  0.12565276722E+03  0.14156491101E+03  0.00000000000E+00 0.  1.
         11    1    4    4    0    0 -0.29882905019E+02 -0.20966206138E+02  0.55630927890E+02  0.66538484730E+02  0.00000000000E+00 0. -1.
          1    1    1    2  501    0  0.12988178053E+03 -0.15395101403E+03  0.77372841858E+03  0.79951601445E+03  0.00000000000E+00 0. -1.
<scales pt_clust_5="13000.00000" pt_clust_6="13000.00000" pt_clust_7="13000.00000" pt_clust_8="13000.00000" pt_clust_9="13000.00000"></scales>
<clustering>
<clus scale="   85.170">  5  6 -1 -1</clus>
<clus scale="   92.560">  7  8 -1 -1</clus>
<clus scale="  183.866">  1  5  2 -1</clus>
<clus scale="   73.007">  7  9 -1 -1</clus>
<clus scale="  321.323">  2  5  1 -1</clus>
</clustering>
</event>
<event>
 9    2  0.2147756E-005  0.2457079E+03  0.7546771E-02  0.1129476E+00
         21   -1    0    0  501  502  0.00000000000E+00  0.00000000000E+00  0.12031382324E+03  0.12031382324E+03  0.00000000000E+00 0. -1.
          2   -1    0    0  502    0 -0.00000000000E+00 -0.00000000000E+00 -0.37233255475E+03  0.37233255475E+03  0.00000000000E+00 0. -1.
         24    2    1    2    0    0  0.35431939623E+02 -0.15493643986E+03 -0.12696329966E+03  0.21694505419E+03  0.75397309868E+02 0.  0.
         23    2    1    2    0    0 -0.13365151105E+02  0.24761422471E+01 -0.43065408577E+02  0.10119215664E+03  0.90556416701E+02 0.  0.
        -11    1    3    3    0    0 -0.15228595991E+02 -0.99426503291E+02 -0.77439282651E+02  0.12694243652E+03  0.00000000000E+00 0.  1.
         12    1    3    3    0    0  0.50660535613E+02 -0.55509936567E+02 -0.49524017008E+02  0.90002617667E+02  0.00000000000E+00 0. -1.
        -13    1    4    4    0    0  0.20110070193E+02  0.14372856120E+02 -0.57698392939E+02  0.62770203631E+02  0.00000000000E+00 0.  1.
         13    1    4    4    0    0 -0.33475221298E+02 -0.11896713873E+02  0.14632984361E+02  0.38421953012E+02  0.00000000000E+00 0. -1.
          1    1    1    2  501    0 -0.22066788518E+02  0.15246029761E+03 -0.81990023277E+02  0.17450916715E+03  0.00000000000E+00 0. -1.
<scales pt_clust_5="13000.00000" pt_clust_6="13000.00000" pt_clust_7="13000.00000" pt_clust_8="13000.00000" pt_clust_9="13000.00000"></scales>
<clustering>
<clus scale="   75.397">  5  6 -1 -1</clus>
<clus scale="   90.556">  7  8 -1 -1</clus>
<clus scale="  154.049">  7  9 -1 -1</clus>
<clus scale="  175.913">  2  5  1 -1</clus>
<clus scale="  245.708">  1  5  2 -1</clus>
</clustering>
</event>
<event>
 9    2  0.2147756E-005  0.1423942E+03  0.7546771E-02  0.1234260E+00
         -1   -1    0    0    0  501 -0.00000000000E+00  0.00000000000E+00  0.30214174751E+03  0.30214174751E+03  0.00000000000E+00 0.  1.
         21   -1    0    0  501  502  0.00000000000E+00 -0.00000000000E+00 -0.84891774152E+02  0.84891774152E+02  0.00000000000E+00 0.  1.
         24    2    1    2    0    0 -0.78799402334E+01 -0.32145900651E+02  0.22855580994E+03  0.24419119387E+03  0.79348147547E+02 0.  0.
         23    2    1    2    0    0  0.47995690168E+01 -0.10583281813E+02 -0.13941892790E+02  0.99921231429E+02  0.98259016884E+02 0.  0.
        -11    1    3    3    0    0 -0.34168817754E+02 -0.29768102253E+02  0.20094980733E+03  0.20599629386E+03  0.00000000000E+00 0.  1.
         12    1    3    3    0    0  0.26288877521E+02 -0.23777983979E+01  0.27606002609E+02  0.38194900007E+02  0.00000000000E+00 0. -1.
        -11    1    4    4    0    0 -0.29437103994E+02 -0.40604305798E+02 -0.19984446499E+02  0.53987321130E+02  0.00000000000E+00 0.  1.
         11    1    4    4    0    0  0.34236673011E+02  0.30021023985E+02  0.60425537096E+01  0.45933910299E+02  0.00000000000E+00 0. -1.
         -2    1    1    2    0  502  0.30803712166E+01  0.42729182464E+02  0.26360562089E+01  0.42921096365E+02  0.00000000000E+00 0.  1.
<scales pt_clust_5="13000.00000" pt_clust_6="13000.00000" pt_clust_7="13000.00000" pt_clust_8="13000.00000" pt_clust_9="13000.00000"></scales>
<clustering>
<clus scale="   79.348">  5  6 -1 -1</clus>
<clus scale="   85.974">  1  5  2 -1</clus>
<clus scale="   98.259">  7  8 -1 -1</clus>
<clus scale="   31.598">  7  9 -1 -1</clus>
<clus scale="  142.394">  2  5  1 -1</clus>
</clustering>
</event>
<event>
 9    2  0.2147756E-005  0.4583797E+03  0.7546771E-02  0.1032427E+00
          4   -1    0    0  502    0 -0.00000000000E+00  0.00000000000E+00  0.10487712057E+04  0.10487712057E+04  0.00000000000E+00 0. -1.
         21   -1    0    0  501  502  0.00000000000E+00 -0.00000000000E+00 -0.16405113061E+03  0.16405113061E+03  0.00000000000E+00 0. -1.
         24    2    1    2    0    0 -0.34647665344E+03  0.10185856409E+03  0.36731068983E+03  0.52157390735E+03  0.81859388644E+02 0.  0.
         23    2    1    2    0    0 -0.87512252862E+00 -0.29598144575E+02  0.16795867176E+03  0.19326185720E+03  0.90902222335E+02 0.  0.
        -11    1    3    3    0    0 -0.51129168372E+02  0.34501635822E+02  0.10038684970E+03  0.11782221491E+03  0.00000000000E+00 0.  1.
         12    1    3    3    0    0 -0.29534748507E+03  0.67356928265E+02  0.26692384012E+03  0.40375169244E+03  0.00000000000E+00 0. -1.
        -11    1    4    4    0    0 -0.18222065722E+02  0.14459744934E+02  0.53091537731E+01  0.23860323059E+02  0.00000000000E+00 0. -1.
         11    1    4    4    0    0  0.17346943193E+02 -0.44057889509E+02  0.16264951799E+03  0.16940153414E+03  0.00000000000E+00 0.  1.
          3    1    1    2  501    0  0.34735177597E+03 -0.72260419511E+02  0.34945071353E+03  0.49798657179E+03  0.00000000000E+00 0. -1.
<scales pt_clust_5="13000.00000" pt_clust_6="13000.00000" pt_clust_7="13000.00000" pt_clust_8="13000.00000" pt_clust_9="13000.00000"></scales>
<clustering>
<clus scale="   81.859">  5  6 -1 -1</clus>
<clus scale="   90.902">  7  8 -1 -1</clus>
<clus scale="  354.789">  7  9 -1 -1</clus>
<clus scale="  370.300">  1  5  2 -1</clus>
<clus scale="  458.380">  2  5  1 -1</clus>
</clustering>
</event>
<event>
 9    2  0.2147756E-005  0.1281362E+03  0.7546771E-02  0.1244700E+00
         21   -1    0    0  501  502  0.00000000000E+00  0.00000000000E+00  0.14450258306E+03  0.14450258306E+03  0.00000000000E+00 0. -1.
          2   -1    0    0  502    0 -0.00000000000E+00 -0.00000000000E+00 -0.15271845784E+03  0.15271845784E+03  0.00000000000E+00 0. -1.
         24    2    1    2    0    0 -0.41193135986E+02  0.22456148739E+02 -0.10105369873E+03  0.13898786637E+03  0.83094066582E+02 0.  0.
         23    2    1    2    0    0  0.35113994548E+02  0.60666235187E+01  0.77474928829E+02  0.12527072552E+03  0.91763792109E+02 0.  0.
        -13    1    3    3    0    0 -0.28070246443E+02 -0.30135142396E+02 -0.45553663036E+02  0.61410111208E+02  0.00000000000E+00 0.  1.
         14    1    3    3    0    0 -0.13122889543E+02  0.52591291135E+02 -0.55500035697E+02  0.77577755159E+02  0.00000000000E+00 0. -1.
        -13    1    4    4    0    0  0.27721603313E+02  0.38672690870E+02  0.78529893637E+02  0.91820523327E+02  0.00000000000E+00 0. -1.
         13    1    4    4    0    0  0.73923912349E+01 -0.32606067351E+02 -0.10549648080E+01  0.33450202197E+02  0.00000000000E+00 0.  1.
          1    1    1    2  501    0  0.60791414376E+01 -0.28522772258E+02  0.15362895121E+02  0.32962449005E+02  0.00000000000E+00 0. -1.
<scales pt_clust_5="13000.00000" pt_clust_6="13000.00000" pt_clust_7="13000.00000" pt_clust_8="13000.00000" pt_clust_9="13000.00000"></scales>
<clustering>
<clus scale="   83.094">  5  6 -1 -1</clus>
<clus scale="   91.764">  7  8 -1 -1</clus>
<clus scale="   29.163">  7  9 -1 -1</clus>
<clus scale="   95.424">  2  5  1 -1</clus>
<clus scale="  128.136">  1  5  2 -1</clus>
</clustering>
</event>
<event>
 9    2  0.2147756E-005  0.2804197E+03  0.7546771E-02  0.1123933E+00
         21   -1    0    0  501  502  0.00000000000E+00  0.00000000000E+00  0.60346518360E+03  0.60346518360E+03  0.00000000000E+00 0.  1.
         -1   -1    0    0    0  501 -0.00000000000E+00 -0.00000000000E+00 -0.71838364404E+02  0.71838364404E+02  0.00000000000E+00 0.  1.
         24    2    1    2    0    0 -0.10954117820E+03  0.21811378218E+01  0.18541250719E+03  0.22977064167E+03  0.80079478449E+02 0.  0.
         23    2    1    2    0    0 -0.27245619923E+02 -0.24834165234E+02  0.32305593900E+02  0.10236753643E+03  0.89868801874E+02 0.  0.
        -13    1    3    3    0    0 -0.99620409832E+02 -0.11012274054E+02  0.95789998715E+02  0.13864061486E+03  0.00000000000E+00 0.  1.
         14    1    3    3    0    0 -0.99207683732E+01  0.13193411875E+02  0.89622508475E+02  0.91130026815E+02  0.00000000000E+00 0. -1.
        -11    1    4    4    0    0 -0.53644553921E+02 -0.31726328489E+02  0.39954950083E+02  0.74031723747E+02  0.00000000000E+00 0.  1.
         11    1    4    4    0    0  0.26398933997E+02  0.68921632556E+01 -0.76493561839E+01  0.28335812686E+02  0.00000000000E+00 0. -1.
         -2    1    1    2    0  502  0.13678679813E+03  0.22653027412E+02  0.31390871810E+03  0.34316536989E+03  0.00000000000E+00 0.  1.
<scales pt_clust_5="13000.00000" pt_clust_6="13000.00000" pt_clust_7="13000.00000" pt_clust_8="13000.00000" pt_clust_9="13000.00000"></scales>
<clustering>
<clus scale="   80.079">  5  6 -1 -1</clus>
<clus scale="   89.869">  7  8 -1 -1</clus>
<clus scale="  135.708">  2  5  1 -1</clus>
<clus scale="  107.084">  7  9 -1 -1</clus>
<clus scale="  280.420">  1  5  2 -1</clus>
</clustering>
</event>
<event>
 9    2  0.2147756E-005  0.1347799E+03  0.7546771E-02  0.1246730E+00
         -1   -1    0    0    0  501 -0.00000000000E+00  0.00000000000E+00  0.10108821801E+03  0.10108821801E+03  0.00000000000E+00 0.  1.
         21   -1    0    0  501  502  0.00000000000E+00 -0.00000000000E+00 -0.11273978240E+03  0.11273978240E+03  0.00000000000E+00 0.  1.
         24    2    1    2    0    0  0.62708686931E+01  0.27924511755E+01 -0.31297044218E+01  0.78778930281E+02  0.78416855514E+02 0.  0.
         23    2    1    2    0    0 -0.41001915406E+02 -0.11003712428E+02 -0.54293186621E+01  0.99226811283E+02  0.89522309075E+02 0.  0.
        -11    1    3    3    0    0 -0.28119103362E+02 -0.18709853458E+02 -0.14349637805E+02  0.36696794076E+02  0.00000000000E+00 0.  1.
         12    1    3    3    0    0  0.34389972055E+02  0.21502304633E+02  0.11219933383E+02  0.42082136205E+02  0.00000000000E+00 0. -1.
        -11    1    4    4    0    0 -0.37763739017E+02  0.35869849444E+02 -0.35167446241E+01  0.52202620398E+02  0.00000000000E+00 0.  1.
         11    1    4    4    0    0 -0.32381763890E+01 -0.46873561872E+02 -0.19125740380E+01  0.47024190885E+02  0.00000000000E+00 0. -1.
         -2    1    1    2    0  502  0.34731046713E+02  0.82112612526E+01 -0.30925412999E+01  0.35822258846E+02  0.00000000000E+00 0.  1.
<scales pt_clust_5="13000.00000" pt_clust_6="13000.00000" pt_clust_7="13000.00000" pt_clust_8="13000.00000" pt_clust_9="13000.00000"></scales>
<clustering>
<clus scale="   78.417">  5  6 -1 -1</clus>
<clus scale="   78.717">  1  5  2 -1</clus>
<clus scale="   89.522">  7  8 -1 -1</clus>
<clus scale="   37.435">  7  9 -1 -1</clus>
<clus scale="  134.780">  2  5  1 -1</clus>
</clustering>
</event>
<event>
 9    2  0.2147756E-005  0.1555755E+03  0.7546771E-02  0.1220329E+00
         21   -1    0    0  501  502  0.00000000000E+00  0.00000000000E+00  0.54356171071E+02  0.54356171071E+02  0.00000000000E+00 0.  1.
          2   -1    0    0  502    0 -0.00000000000E+00 -0.00000000000E+00 -0.76991834263E+03  0.76991834263E+03  0.00000000000E+00 0. -1.
         24    2    1    2    0    0 -0.48064225238E+01  0.34063921243E+02 -0.64919745317E+03  0.65513545113E+03  0.81004158564E+02 0.  0.
         23    2    1    2    0    0  0.11744800656E+02  0.22726500246E+02 -0.24728183711E+02  0.98379652706E+02  0.91720438513E+02 0.  0.
        -13    1    3    3    0    0 -0.75582116285E+01  0.22520292630E+02 -0.45556523118E+02  0.51377883781E+02  0.00000000000E+00 0.  1.
         14    1    3    3    0    0  0.27517891047E+01  0.11543628613E+02 -0.60364093005E+03  0.60375756735E+03  0.00000000000E+00 0. -1.
        -11    1    4    4    0    0  0.12384545200E+02  0.49811749224E+02 -0.41938306265E+02  0.66282794547E+02  0.00000000000E+00 0.  1.
         11    1    4    4    0    0 -0.63974454466E+00 -0.27085248978E+02  0.17210122554E+02  0.32096858158E+02  0.00000000000E+00 0. -1.
          1    1    1    2  501    0 -0.69383781318E+01 -0.56790421490E+02 -0.41636534685E+02  0.70759409867E+02  0.00000000000E+00 0. -1.
<scales pt_clust_5="13000.00000" pt_clust_6="13000.00000" pt_clust_7="13000.00000" pt_clust_8="13000.00000" pt_clust_9="13000.00000"></scales>
<clustering>
<clus scale="   81.004">  5  6 -1 -1</clus>
<clus scale="   88.006">  2  5  1 -1</clus>
<clus scale="   91.720">  7  8 -1 -1</clus>
<clus scale="   41.571">  7  9 -1 -1</clus>
<clus scale="  155.576">  1  5  2 -1</clus>
</clustering>
</event>
<event>
 9    2  0.2147756E-005  0.6208801E+03  0.7546771E-02  0.1053689E+00
          2   -1    0    0  502    0 -0.00000000000E+00  0.00000000000E+00  0.94875238013E+03  0.94875238013E+03  0.00000000000E+00 0. -1.
         21   -1    0    0  501  502  0.00000000000E+00 -0.00000000000E+00 -0.31237188360E+03  0.31237188360E+03  0.00000000000E+00 0. -1.
         24    2    1    2    0    0 -0.42776942184E+01 -0.13319118977E+01  0.63515426187E+03  0.64024295674E+03  0.80436525432E+02 0.  0.
         23    2    1    2    0    0 -0.52170479550E+02 -0.74050833501E+02  0.29006945915E+03  0.31707320478E+03  0.90497741303E+02 0.  0.
        -13    1    3    3    0    0  0.16490026482E+02 -0.26006909998E+02  0.11382245640E+03  0.11791451107E+03  0.00000000000E+00 0.  1.
         14    1    3    3    0    0 -0.20767720701E+02  0.24674998100E+02  0.52133180547E+03  0.52232844567E+03  0.00000000000E+00 0. -1.
        -13    1    4    4    0    0 -0.28598559233E+02 -0.92253657026E+02  0.24152611061E+03  0.26012204238E+03  0.00000000000E+00 0. -1.
         13    1    4    4    0    0 -0.23571920317E+02  0.18202823525E+02  0.48543348538E+02  0.56951162402E+02  0.00000000000E+00 0.  1.
          1    1    1    2  501    0  0.56448173768E+02  0.75382745398E+02 -0.28884322450E+03  0.30380810220E+03  0.00000000000E+00 0. -1.
<scales pt_clust_5="13000.00000" pt_clust_6="13000.00000" pt_clust_7="13000.00000" pt_clust_8="13000.00000" pt_clust_9="13000.00000"></scales>
<clustering>
<clus scale="   80.437">  5  6 -1 -1</clus>
<clus scale="   80.561">  1  5  2 -1</clus>
<clus scale="   90.498">  7  8 -1 -1</clus>
<clus scale="   94.088">  7  9 -1 -1</clus>
<clus scale="  620.880">  2  5  1 -1</clus>
</clustering>
</event>
<event>
 9    2  0.2147756E-005  0.2498114E+03  0.7546771E-02  0.1132736E+00
          2   -1    0    0  502    0 -0.00000000000E+00  0.00000000000E+00  0.12948536507E+03  0.12948536507E+03  0.00000000000E+00 0. -1.
         21   -1    0    0  501  502  0.00000000000E+00 -0.00000000000E+00 -0.47571231990E+03  0.47571231990E+03  0.00000000000E+00 0. -1.
         24    2    1    2    0    0  0.43969352657E+02  0.12482549545E+03 -0.31830243941E+03  0.35383041003E+03  0.79779745824E+02 0.  0.
         23    2    1    2    0    0 -0.63409595655E+01 -0.63092783814E+02 -0.99072757684E+02  0.14993307937E+03  0.92971016103E+02 0.  0.
        -13    1    3    3    0    0  0.50418584989E+02  0.37148679872E+02 -0.94375912616E+02  0.11326460617E+03  0.00000000000E+00 0.  1.
         14    1    3    3    0    0 -0.64492323323E+01  0.87676815582E+02 -0.22392652679E+03  0.24056580387E+03  0.00000000000E+00 0. -1.
        -11    1    4    4    0    0 -0.38924171939E+02  0.13861900071E+01 -0.24021951146E+02  0.45760974867E+02  0.00000000000E+00 0.  1.
         11    1    4    4    0    0  0.32583212374E+02 -0.64478973822E+02 -0.75050806538E+02  0.10417210450E+03  0.00000000000E+00 0. -1.
          1    1    1    2  501    0 -0.37628393091E+02 -0.61732711640E+02  0.71148242269E+02  0.10143419557E+03  0.00000000000E+00 0. -1.
<scales pt_clust_5="13000.00000" pt_clust_6="13000.00000" pt_clust_7="13000.00000" pt_clust_8="13000.00000" pt_clust_9="13000.00000"></scales>
<clustering>
<clus scale="   79.780">  5  6 -1 -1</clus>
<clus scale="   92.971">  7  8 -1 -1</clus>
<clus scale="   72.297">  7  9 -1 -1</clus>
<clus scale="  154.530">  1  5  2 -1</clus>
<clus scale="  249.811">  2  5  1 -1</clus>
</clustering>
</event>
<event>
 9    2  0.2961676E-005  0.3061066E+03  0.7546771E-02  0.1122063E+00
          4   -1    0    0  502    0 -0.00000000000E+00  0.00000000000E+00  0.17713870391E+03  0.17713870391E+03  0.00000000000E+00 0. -1.
         21   -1    0    0  501  502  0.00000000000E+00 -0.00000000000E+00 -0.41158560193E+03  0.41158560193E+03  0.00000000000E+00 0. -1.
         24    2    1    2    0    0  0.73060829189E+02  0.70271706368E+01  0.90793026362E+02  0.14208996659E+03  0.80987153803E+02 0.  0.
         23    2    1    2    0    0  0.34271214748E+02  0.21732308241E+02  0.27090590739E+01  0.10037170622E+03  0.91762361709E+02 0.  0.
        -11    1    3    3    0    0 -0.33105736629E+01  0.22315823605E+02  0.12337267153E+00  0.22560387895E+02  0.00000000000E+00 0.  1.
         12    1    3    3    0    0  0.76371402852E+02 -0.15288652968E+02  0.90669653690E+02  0.11952957870E+03  0.00000000000E+00 0. -1.
        -11    1    4    4    0    0  0.63226812329E+02  0.83603195650E+01 -0.12574137377E+02  0.65004874212E+02  0.00000000000E+00 0. -1.
         11    1    4    4    0    0 -0.28955597581E+02  0.13371988676E+02  0.15283196451E+02  0.35366832007E+02  0.00000000000E+00 0.  1.
          3    1    1    2  501    0 -0.10733204394E+03 -0.28759478878E+02 -0.32794898346E+03  0.34626263303E+03  0.00000000000E+00 0. -1.
<scales pt_clust_5="13000.00000" pt_clust_6="13000.00000" pt_clust_7="13000.00000" pt_clust_8="13000.00000" pt_clust_9="13000.00000"></scales>
<clustering>
<clus scale="   80.987">  5  6 -1 -1</clus>
<clus scale="   91.762">  7  8 -1 -1</clus>
<clus scale="  109.299">  1  5  2 -1</clus>
<clus scale="  100.214">  7  9 -1 -1</clus>
<clus scale="  306.107">  2  5  1 -1</clus>
</clustering>
</event>
<event>
 9    2  0.2147756E-005  0.6883521E+03  0.7546771E-02  0.1013109E+00
          2   -1    0    0  502    0 -0.00000000000E+00  0.00000000000E+00  0.40771741234E+04  0.40771741234E+04  0.00000000000E+00 0. -1.
         21   -1    0    0  501  502  0.00000000000E+00 -0.00000000000E+00 -0.49563329205E+02  0.49563329205E+02  0.00000000000E+00 0. -1.
         24    2    1    2    0    0  0.24119112315E+02 -0.17569329973E+03  0.61356977394E+03  0.64399359630E+03  0.82522829771E+02 0.  0.
         23    2    1    2    0    0 -0.21271880646E+03 -0.17484278857E+03  0.12932500841E+04  0.13249209747E+04  0.84264569292E+02 0.  0.
        -11    1    3    3    0    0  0.43632118466E+02 -0.14260127082E+03  0.54867812174E+03  0.56858294512E+03  0.00000000000E+00 0.  1.
         12    1    3    3    0    0 -0.19513006151E+02 -0.33092028915E+02  0.64891652195E+02  0.75410651179E+02  0.00000000000E+00 0. -1.
        -11    1    4    4    0    0 -0.61112698800E+02 -0.45951341418E+02  0.20867288218E+03  0.22224009425E+03  0.00000000000E+00 0.  1.
         11    1    4    4    0    0 -0.15160610766E+03 -0.12889144715E+03  0.10845772020E+04  0.11026808804E+04  0.00000000000E+00 0. -1.
          1    1    1    2  501    0  0.18859969414E+03  0.35053608830E+03  0.21207909361E+04  0.21578228817E+04  0.00000000000E+00 0. -1.
<scales pt_clust_5="13000.00000" pt_clust_6="13000.00000" pt_clust_7="13000.00000" pt_clust_8="13000.00000" pt_clust_9="13000.00000"></scales>
<clustering>
<clus scale="   82.523">  5  6 -1 -1</clus>
<clus scale="   84.265">  7  8 -1 -1</clus>
<clus scale="  195.601">  1  5  2 -1</clus>
<clus scale="  315.879">  7  9 -1 -1</clus>
<clus scale="  688.352">  2  5  1 -1</clus>
</clustering>
</event>
<event>
 9    2  0.2147756E-005  0.5514426E+03  0.7546771E-02  0.1048580E+00
         21   -1    0    0  501  502  0.00000000000E+00  0.00000000000E+00  0.54789657039E+02  0.54789657039E+02  0.00000000000E+00 0. -1.
          2   -1    0    0  502    0 -0.00000000000E+00 -0.00000000000E+00 -0.21538335754E+04  0.21538335754E+04  0.00000000000E+00 0. -1.
         24    2    1    2    0    0  0.95928780408E+02 -0.46764171381E+02 -0.33636737223E+03  0.36170212050E+03  0.79348574277E+02 0.  0.
         23    2    1    2    0    0 -0.22952017973E+02 -0.23227195568E+03 -0.62767877810E+03  0.67585036194E+03  0.91192141861E+02 0.  0.
        -11    1    3    3    0    0  0.83851832190E+02 -0.49197444137E+02 -0.33555619550E+03  0.34935580517E+03  0.00000000000E+00 0.  1.
         12    1    3    3    0    0  0.12076948217E+02  0.24332727560E+01 -0.81117673311E+00  0.12346315330E+02  0.00000000000E+00 0. -1.
        -11    1    4    4    0    0 -0.16333448534E+02 -0.12647938803E+03 -0.21688099623E+03  0.25159726481E+03  0.00000000000E+00 0.  1.
         11    1    4    4    0    0 -0.66185694389E+01 -0.10579256764E+03 -0.41079778187E+03  0.42425309713E+03  0.00000000000E+00 0. -1.
          1    1    1    2  501    0 -0.72976762435E+02  0.27903612706E+03 -0.11349977680E+04  0.11710707500E+04  0.00000000000E+00 0. -1.
<scales pt_clust_5="13000.00000" pt_clust_6="13000.00000" pt_clust_7="13000.00000" pt_clust_8="13000.00000" pt_clust_9="13000.00000"></scales>
<clustering>
<clus scale="   79.349">  5  6 -1 -1</clus>
<clus scale="   91.192">  7  8 -1 -1</clus>
<clus scale="  132.987">  2  5  1 -1</clus>
<clus scale="  249.434">  7  9 -1 -1</clus>
<clus scale="  551.443">  1  5  2 -1</clus>
</clustering>
</event>
<event>
 9    2  0.2147756E-005  0.5638866E+03  0.7546771E-02  0.1061487E+00
          4   -1    0    0  502    0 -0.00000000000E+00  0.00000000000E+00  0.43373635752E+03  0.43373635752E+03  0.00000000000E+00 0. -1.
         21   -1    0    0  501  502  0.00000000000E+00 -0.00000000000E+00 -0.24372762609E+03  0.24372762609E+03  0.00000000000E+00 0. -1.
         24    2    1    2    0    0 -0.13602061459E+02  0.28832022437E+02  0.26986475529E+02  0.90485010643E+02  0.80268086410E+02 0.  0.
         23    2    1    2    0    0  0.21370316303E+03 -0.87378763862E+02  0.25764557905E+03  0.35802101817E+03  0.92161351894E+02 0.  0.
        -11    1    3    3    0    0 -0.18514750781E+02  0.33767193101E+02  0.51894204112E+02  0.64622192371E+02  0.00000000000E+00 0.  1.
         12    1    3    3    0    0  0.49126893217E+01 -0.49351706642E+01 -0.24907728583E+02  0.25862818273E+02  0.00000000000E+00 0. -1.
        -13    1    4    4    0    0  0.41854757243E+02  0.12965581659E+01  0.10038909104E+03  0.10877256716E+03  0.00000000000E+00 0.  1.
         13    1    4    4    0    0  0.17184840579E+03 -0.88675322028E+02  0.15725648801E+03  0.24924845101E+03  0.00000000000E+00 0. -1.
          3    1    1    2  501    0 -0.20010110157E+03  0.58546741425E+02 -0.94623323144E+02  0.22895795480E+03  0.00000000000E+00 0. -1.
<scales pt_clust_5="13000.00000" pt_clust_6="13000.00000" pt_clust_7="13000.00000" pt_clust_8="13000.00000" pt_clust_9="13000.00000"></scales>
<clustering>
<clus scale="   80.268">  5  6 -1 -1</clus>
<clus scale="   86.367">  1  5  2 -1</clus>
<clus scale="   92.161">  7  8 -1 -1</clus>
<clus scale="  212.322">  7  9 -1 -1</clus>
<clus scale="  563.887">  2  5  1 -1</clus>
</clustering>
</event>
<event>
 9    2  0.2147756E-005  0.2713303E+03  0.7546771E-02  0.1115855E+00
         -1   -1    0    0    0  501 -0.00000000000E+00  0.00000000000E+00  0.79370153251E+02  0.79370153251E+02  0.00000000000E+00 0.  1.
         21   -1    0    0  501  502  0.00000000000E+00 -0.00000000000E+00 -0.68911595193E+03  0.68911595193E+03  0.00000000000E+00 0.  1.
         24    2    1    2    0    0  0.16390775363E+03 -0.14873233265E+02 -0.33766974876E+03  0.38423940024E+03  0.80821362906E+02 0.  0.
         23    2    1    2    0    0 -0.92872341019E+02 -0.58365349576E+02 -0.70404764181E+02  0.15823514029E+03  0.89720360270E+02 0.  0.
        -11    1    3    3    0    0  0.10449496188E+03 -0.28974743723E+02 -0.13838941186E+03  0.17581342994E+03  0.00000000000E+00 0.  1.
         12    1    3    3    0    0  0.59412791751E+02  0.14101510458E+02 -0.19928033690E+03  0.20842597030E+03  0.00000000000E+00 0. -1.
        -11    1    4    4    0    0 -0.19424272565E+02 -0.37852468344E+02 -0.70070655282E+02  0.81975657704E+02  0.00000000000E+00 0. -1.
         11    1    4    4    0    0 -0.73448068454E+02 -0.20512881232E+02 -0.33410889913E+00  0.76259482589E+02  0.00000000000E+00 0.  1.
         -2    1    1    2    0  502 -0.71035412614E+02  0.73238582840E+02 -0.20167128573E+03  0.22601156464E+03  0.00000000000E+00 0.  1.
<scales pt_clust_5="13000.00000" pt_clust_6="13000.00000" pt_clust_7="13000.00000" pt_clust_8="13000.00000" pt_clust_9="13000.00000"></scales>
<clustering>
<clus scale="   80.821">  5  6 -1 -1</clus>
<clus scale="   89.720">  7  8 -1 -1</clus>
<clus scale="  102.029">  7  9 -1 -1</clus>
<clus scale="  183.355">  1  5  2 -1</clus>
<clus scale="  271.330">  2  5  1 -1</clus>
</clustering>
</event>
<event>
 9    2  0.2147756E-005  0.2917956E+03  0.7546771E-02  0.1137007E+00
          2   -1    0    0  502    0 -0.00000000000E+00  0.00000000000E+00  0.62566999109E+03  0.62566999109E+03  0.00000000000E+00 0. -1.
         21   -1    0    0  501  502  0.00000000000E+00 -0.00000000000E+00 -0.60051711533E+02  0.60051711533E+02  0.00000000000E+00 0. -1.
         24    2    1    2    0    0 -0.53754476485E+02  0.92875392986E+01  0.76331743066E+02  0.11603232240E+03  0.68272708413E+02 0.  0.
         23    2    1    2    0    0 -0.68959590189E+02  0.79666045488E+02  0.24920075277E+03  0.28576568281E+03  0.91972313269E+02 0.  0.
        -11    1    3    3    0    0 -0.53253257721E+02 -0.20810599967E+02  0.47178232699E+02  0.74126757446E+02  0.00000000000E+00 0.  1.
         12    1    3    3    0    0 -0.50121876350E+00  0.30098139265E+02  0.29153510367E+02  0.41905564955E+02  0.00000000000E+00 0. -1.
        -13    1    4    4    0    0 -0.48837123629E+02  0.85787749539E+00  0.14845858058E+03  0.15628739791E+03  0.00000000000E+00 0. -1.
         13    1    4    4    0    0 -0.20122466560E+02  0.78808167993E+02  0.10074217219E+03  0.12947828490E+03  0.00000000000E+00 0.  1.
          1    1    1    2  501    0  0.12271406667E+03 -0.88953584787E+02  0.24008578371E+03  0.28392369740E+03  0.00000000000E+00 0. -1.
<scales pt_clust_5="13000.00000" pt_clust_6="13000.00000" pt_clust_7="13000.00000" pt_clust_8="13000.00000" pt_clust_9="13000.00000"></scales>
<clustering>
<clus scale="   68.273">  5  6 -1 -1</clus>
<clus scale="   87.390">  1  5  2 -1</clus>
<clus scale="   91.972">  7  8 -1 -1</clus>
<clus scale="  127.884">  7  9 -1 -1</clus>
<clus scale="  291.796">  2  5  1 -1</clus>
</clustering>
</event>
<event>
 9    2  0.2147756E-005  0.1895324E+03  0.7546771E-02  0.1191903E+00
         21   -1    0    0  501  502  0.00000000000E+00  0.00000000000E+00  0.57919476190E+02  0.57919476190E+02  0.00000000000E+00 0.  1.
          2   -1    0    0  502    0 -0.00000000000E+00 -0.00000000000E+00 -0.35437319396E+03  0.35437319396E+03  0.00000000000E+00 0. -1.
         24    2    1    2    0    0  0.42247198691E+02  0.47200907321E+00 -0.54484468015E+02  0.10493026107E+03  0.79099645029E+02 0.  0.
         23    2    1    2    0    0 -0.37256698699E+02  0.69608926185E+02 -0.15941388968E+03  0.19895747351E+03  0.89094465839E+02 0.  0.
        -13    1    3    3    0    0  0.51609245339E+02 -0.23521597698E+02 -0.16556010101E+02  0.59083679922E+02  0.00000000000E+00 0.  1.
         14    1    3    3    0    0 -0.93620466474E+01  0.23993606771E+02 -0.37928457914E+02  0.45846581149E+02  0.00000000000E+00 0. -1.
        -11    1    4    4    0    0 -0.11342415734E+02  0.78216556904E+02 -0.15091685774E+03  0.17035955541E+03  0.00000000000E+00 0.  1.
         11    1    4    4    0    0 -0.25914282965E+02 -0.86076307187E+01 -0.84970319309E+01  0.28597918103E+02  0.00000000000E+00 0. -1.
          1    1    1    2  501    0 -0.49904999917E+01 -0.70080935258E+02 -0.82555360079E+02  0.10840493556E+03  0.00000000000E+00 0. -1.
<scales pt_clust_5="13000.00000" pt_clust_6="13000.00000" pt_clust_7="13000.00000" pt_clust_8="13000.00000" pt_clust_9="13000.00000"></scales>
<clustering>
<clus scale="   79.100">  5  6 -1 -1</clus>
<clus scale="   89.094">  7  8 -1 -1</clus>
<clus scale="   70.258">  7  9 -1 -1</clus>
<clus scale="   89.676">  2  5  1 -1</clus>
<clus scale="  189.532">  1  5  2 -1</clus>
</clustering>
</event>
<event>
 9    2  0.2147756E-005  0.4611911E+03  0.7546771E-02  0.1061019E+00
          2   -1    0    0  502    0 -0.00000000000E+00  0.00000000000E+00  0.21940353534E+03  0.21940353534E+03  0.00000000000E+00 0. -1.
         21   -1    0    0  501  502  0.00000000000E+00 -0.00000000000E+00 -0.49187525522E+03  0.49187525522E+03  0.00000000000E+00 0. -1.
         24    2    1    2    0    0 -0.37735853837E+02  0.13010531346E+03  0.25844580999E+02  0.16201580316E+03  0.85028176804E+02 0.  0.
         23    2    1    2    0    0 -0.64070664607E+02  0.13531800414E+03 -0.13902996894E+03  0.22340068479E+03  0.90346673389E+02 0.  0.
        -13    1    3    3    0    0 -0.53326519937E+02  0.52380983454E+02 -0.92549766929E+01  0.75320247940E+02  0.00000000000E+00 0.  1.
         14    1    3    3    0    0  0.15590666100E+02  0.77724330010E+02  0.35099557691E+02  0.86695555221E+02  0.00000000000E+00 0. -1.
        -13    1    4    4    0    0 -0.76757637854E+02  0.64804635816E+02 -0.61269438098E+02  0.11766613717E+03  0.00000000000E+00 0. -1.
         13    1    4    4    0    0  0.12686973247E+02  0.70513368320E+02 -0.77760530843E+02  0.10573454761E+03  0.00000000000E+00 0.  1.
          1    1    1    2  501    0  0.10180651844E+03 -0.26542331760E+03 -0.15928633193E+03  0.32586230261E+03  0.00000000000E+00 0. -1.
<scales pt_clust_5="13000.00000" pt_clust_6="13000.00000" pt_clust_7="13000.00000" pt_clust_8="13000.00000" pt_clust_9="13000.00000"></scales>
<clustering>
<clus scale="   85.028">  5  6 -1 -1</clus>
<clus scale="   90.347">  7  8 -1 -1</clus>
<clus scale="  159.941">  1  5  2 -1</clus>
<clus scale="  194.819">  7  9 -1 -1</clus>
<clus scale="  461.191">  2  5  1 -1</clus>
</clustering>
</event>
<event>
 9    2  0.2147756E-005  0.2753011E+03  0.7546771E-02  0.1144407E+00
          4   -1    0    0  502    0 -0.00000000000E+00  0.00000000000E+00  0.56795720358E+02  0.56795720358E+02  0.00000000000E+00 0. -1.
         21   -1    0    0  501  502  0.00000000000E+00 -0.00000000000E+00 -0.57836336993E+03  0.57836336993E+03  0.00000000000E+00 0. -1.
         24    2    1    2    0    0 -0.27155984252E+02 -0.18863318568E+02 -0.11856515536E+03  0.14709998196E+03  0.80544623402E+02 0.  0.
         23    2    1    2    0    0  0.35596220940E+02 -0.50548183577E+02 -0.40396997150E+03  0.41812964217E+03  0.88421999379E+02 0.  0.
        -13    1    3    3    0    0 -0.17938382891E+02 -0.47316388467E+02 -0.45114627826E+02  0.67793479349E+02  0.00000000000E+00 0.  1.
         14    1    3    3    0    0 -0.92176013611E+01  0.28453069898E+02 -0.73450527535E+02  0.79306502613E+02  0.00000000000E+00 0. -1.
        -11    1    4    4    0    0  0.45421625125E+02 -0.71361372720E+02 -0.32943483597E+03  0.34012186154E+03  0.00000000000E+00 0. -1.
         11    1    4    4    0    0 -0.98254041852E+01  0.20813189143E+02 -0.74535135533E+02  0.78007780629E+02  0.00000000000E+00 0.  1.
          3    1    1    2  501    0 -0.84402366879E+01  0.69411502145E+02  0.96747729067E+00  0.69929466162E+02  0.00000000000E+00 0. -1.
<scales pt_clust_5="13000.00000" pt_clust_6="13000.00000" pt_clust_7="13000.00000" pt_clust_8="13000.00000" pt_clust_9="13000.00000"></scales>
<clustering>
<clus scale="   80.545">  5  6 -1 -1</clus>
<clus scale="   87.067">  1  5  2 -1</clus>
<clus scale="   88.422">  7  8 -1 -1</clus>
<clus scale="   62.033">  7  9 -1 -1</clus>
<clus scale="  275.301">  2  5  1 -1</clus>
</clustering>
</event>
<event>
 9    2  0.2147756E-005  0.1466315E+03  0.7546771E-02  0.1227029E+00
         21   -1    0    0  501  502  0.00000000000E+00  0.00000000000E+00  0.16530145124E+02  0.16530145124E+02  0.00000000000E+00 0.  1.
          2   -1    0    0  502    0 -0.00000000000E+00 -0.00000000000E+00 -0.14681903567E+04  0.14681903567E+04  0.00000000000E+00 0. -1.
         24    2    1    2    0    0 -0.20235226092E+02  0.38547646289E+02 -0.10989609969E+04  0.11027551562E+04  0.80363402940E+02 0.  0.
         23    2    1    2    0    0  0.45135982147E+02 -0.35808558340E+01 -0.25945426403E+03  0.27931377516E+03  0.93003174442E+02 0.  0.
        -13    1    3    3    0    0 -0.14504516304E+02  0.39682833902E+02 -0.23458748847E+03  0.23836190561E+03  0.00000000000E+00 0.  1.
         14    1    3    3    0    0 -0.57307097875E+01 -0.11351876129E+01 -0.86437350839E+03  0.86439325060E+03  0.00000000000E+00 0. -1.
        -11    1    4    4    0    0  0.23992681487E+02 -0.46920028645E+02 -0.10460059901E+03  0.11712567253E+03  0.00000000000E+00 0. -1.
         11    1    4    4    0    0  0.21143300661E+02  0.43339172811E+02 -0.15485366502E+03  0.16218810263E+03  0.00000000000E+00 0.  1.
          1    1    1    2  501    0 -0.24900756055E+02 -0.34966790455E+02 -0.93244950645E+02  0.10265157041E+03  0.00000000000E+00 0. -1.
<scales pt_clust_5="13000.00000" pt_clust_6="13000.00000" pt_clust_7="13000.00000" pt_clust_8="13000.00000" pt_clust_9="13000.00000"></scales>
<clustering>
<clus scale="   80.363">  5  6 -1 -1</clus>
<clus scale="   91.398">  2  5  1 -1</clus>
<clus scale="   93.003">  7  8 -1 -1</clus>
<clus scale="   39.082">  7  9 -1 -1</clus>
<clus scale="  146.631">  1  5  2 -1</clus>
</clustering>
</event>
<event>
 9    2  0.2147756E-005  0.2702346E+03  0.7546771E-02  0.1137556E+00
         21   -1    0    0  501  502  0.00000000000E+00  0.00000000000E+00  0.10138603137E+03  0.10138603137E+03  0.00000000000E+00 0. -1.
          2   -1    0    0  502    0 -0.00000000000E+00 -0.00000000000E+00 -0.40563724010E+03  0.40563724010E+03  0.00000000000E+00 0. -1.
         24    2    1    2    0    0 -0.36722534947E+02  0.63444785119E+02 -0.17859004983E+03  0.20900064446E+03  0.80081696739E+02 0.  0.
         23    2    1    2    0    0  0.52587977650E+02  0.76738557238E+02 -0.51051918522E+02  0.13843058304E+03  0.88895592558E+02 0.  0.
        -11    1    3    3    0    0 -0.17397747297E+02 -0.17323648181E+02 -0.29885166251E+02  0.38677041758E+02  0.00000000000E+00 0.  1.
         12    1    3    3    0    0 -0.19324787649E+02  0.80768433300E+02 -0.14870488358E+03  0.17032360270E+03  0.00000000000E+00 0. -1.
        -13    1    4    4    0    0  0.83027196642E+01  0.78172639443E+02 -0.51749789027E+02  0.94116615832E+02  0.00000000000E+00 0.  1.
         13    1    4    4    0    0  0.44285257986E+02 -0.14340822048E+01  0.69787050493E+00  0.44313967210E+02  0.00000000000E+00 0. -1.
          1    1    1    2  501    0 -0.15865442704E+02 -0.14018334236E+03 -0.74609240376E+02  0.15959204396E+03  0.00000000000E+00 0. -1.
<scales pt_clust_5="13000.00000" pt_clust_6="13000.00000" pt_clust_7="13000.00000" pt_clust_8="13000.00000" pt_clust_9="13000.00000"></scales>
<clustering>
<clus scale="   80.082">  5  6 -1 -1</clus>
<clus scale="   88.896">  7  8 -1 -1</clus>
<clus scale="  108.567">  2  5  1 -1</clus>
<clus scale="  111.160">  7  9 -1 -1</clus>
<clus scale="  270.235">  1  5  2 -1</clus>
</clustering>
</event>
<event>
 9    2  0.2147756E-005  0.3521584E+03  0.7546771E-02  0.1096595E+00
          2   -1    0    0  502    0 -0.00000000000E+00  0.00000000000E+00  0.90053633495E+03  0.90053633495E+03  0.00000000000E+00 0. -1.
         21   -1    0    0  501  502  0.00000000000E+00 -0.00000000000E+00 -0.14238328976E+03  0.14238328976E+03  0.00000000000E+00 0. -1.
         24    2    1    2    0    0  0.97337051212E+01  0.11184893581E+03  0.66443777599E+03  0.67850488909E+03  0.79286801486E+02 0.  0.
         23    2    1    2    0    0  0.51883951292E+02 -0.10585375886E+03 -0.88575471007E+02  0.17189826439E+03  0.88354041049E+02 0.  0.
        -11    1    3    3    0    0 -0.33394713342E+02  0.61361529731E+02  0.29607166780E+03  0.30420203268E+03  0.00000000000E+00 0.  1.
         12    1    3    3    0    0  0.43128418463E+02  0.50487406078E+02  0.36836610819E+03  0.37430285641E+03  0.00000000000E+00 0. -1.
        -11    1    4    4    0    0  0.17319111404E+02 -0.34334792527E+02  0.15080108788E+02  0.41306649328E+02  0.00000000000E+00 0.  1.
         11    1    4    4    0    0  0.34564839888E+02 -0.71518966337E+02 -0.10365557980E+03  0.13059161506E+03  0.00000000000E+00 0. -1.
          1    1    1    2  501    0 -0.61617656413E+02 -0.59951769458E+01  0.18229074021E+03  0.19251647123E+03  0.00000000000E+00 0. -1.
<scales pt_clust_5="13000.00000" pt_clust_6="13000.00000" pt_clust_7="13000.00000" pt_clust_8="13000.00000" pt_clust_9="13000.00000"></scales>
<clustering>
<clus scale="   79.287">  5  6 -1 -1</clus>
<clus scale="   88.354">  7  8 -1 -1</clus>
<clus scale="   61.909">  7  9 -1 -1</clus>
<clus scale="  137.446">  1  5  2 -1</clus>
<clus scale="  352.158">  2  5  1 -1</clus>
</clustering>
</event>
<event>
 9    2  0.2147756E-005  0.2937551E+03  0.7546771E-02  0.1106643E+00
         21   -1    0    0  501  502  0.00000000000E+00  0.00000000000E+00  0.13881480200E+04  0.13881480200E+04  0.00000000000E+00 0. -1.
          4   -1    0    0  502    0 -0.00000000000E+00 -0.00000000000E+00 -0.42638901763E+02  0.42638901763E+02  0.00000000000E+00 0. -1.
         24    2    1    2    0    0 -0.16481557067E+03  0.50214096426E+00  0.38030699754E+03  0.42187306409E+03  0.78606903936E+02 0.  0.
         23    2    1    2    0    0  0.20042091377E+02 -0.18247183083E+02  0.14366889957E+03  0.17453320100E+03  0.95322822182E+02 0.  0.
        -11    1    3    3    0    0 -0.97852759011E+02 -0.25399009529E+02  0.15205414255E+03  0.18259445336E+03  0.00000000000E+00 0.  1.
         12    1    3    3    0    0 -0.66962811654E+02  0.25901150493E+02  0.22825285499E+03  0.23927861073E+03  0.00000000000E+00 0. -1.
        -11    1    4    4    0    0  0.41161160992E+01  0.33839300096E+02  0.20298845517E+02  0.39674724600E+02  0.00000000000E+00 0. -1.
         11    1    4    4    0    0  0.15925975277E+02 -0.52086483179E+02  0.12337005405E+03  0.13485847640E+03  0.00000000000E+00 0.  1.
          3    1    1    2  501    0  0.14477347929E+03  0.17745042119E+02  0.82153322115E+03  0.83438065671E+03  0.00000000000E+00 0. -1.
<scales pt_clust_5="13000.00000" pt_clust_6="13000.00000" pt_clust_7="13000.00000" pt_clust_8="13000.00000" pt_clust_9="13000.00000"></scales>
<clustering>
<clus scale="   78.607">  5  6 -1 -1</clus>
<clus scale="   95.323">  7  8 -1 -1</clus>
<clus scale="  145.857">  7  9 -1 -1</clus>
<clus scale="  182.602">  2  5  1 -1</clus>
<clus scale="  293.755">  1  5  2 -1</clus>
</clustering>
</event>
<event>
 9    2  0.2147756E-005  0.1868528E+03  0.7546771E-02  0.1194947E+00
         -1   -1    0    0    0  501 -0.00000000000E+00  0.00000000000E+00  0.14714682498E+03  0.14714682498E+03  0.00000000000E+00 0.  1.
         21   -1    0    0  501  502  0.00000000000E+00 -0.00000000000E+00 -0.19078341890E+03  0.19078341890E+03  0.00000000000E+00 0.  1.
         24    2    1    2    0    0  0.39759247235E+02 -0.11704036570E+02  0.76110755107E+02  0.11599918993E+03  0.77105011562E+02 0.  0.
         23    2    1    2    0    0  0.37222015411E+02 -0.23733035820E+02 -0.65624218591E+02  0.12137652076E+03  0.92070550694E+02 0.  0.
        -13    1    3    3    0    0  0.25093828034E+02  0.21263601698E+02  0.72653005807E+02  0.79751490365E+02  0.00000000000E+00 0.  1.
         14    1    3    3    0    0  0.14665419201E+02 -0.32967638268E+02  0.34577493001E+01  0.36247699562E+02  0.00000000000E+00 0. -1.
        -11    1    4    4    0    0  0.57824260483E+02  0.87700609374E+01 -0.57557850623E+02  0.82057694566E+02  0.00000000000E+00 0.  1.
         11    1    4    4    0    0 -0.20602245072E+02 -0.32503096757E+02 -0.80663679683E+01  0.39318826191E+02  0.00000000000E+00 0. -1.
         -2    1    1    2    0  502 -0.76981262646E+02  0.35437072389E+02 -0.54123130431E+02  0.10055453319E+03  0.00000000000E+00 0.  1.
<scales pt_clust_5="13000.00000" pt_clust_6="13000.00000" pt_clust_7="13000.00000" pt_clust_8="13000.00000" pt_clust_9="13000.00000"></scales>
<clustering>
<clus scale="   77.105">  5  6 -1 -1</clus>
<clus scale="   87.538">  1  5  2 -1</clus>
<clus scale="   92.071">  7  8 -1 -1</clus>
<clus scale="   66.167">  7  9 -1 -1</clus>
<clus scale="  186.853">  2  5  1 -1</clus>
</clustering>
</event>
<event>
 9    2  0.2147756E-005  0.3090681E+03  0.7546771E-02  0.1116635E+00
         21   -1    0    0  501  502  0.00000000000E+00  0.00000000000E+00  0.69318725794E+02  0.69318725794E+02  0.00000000000E+00 0.  1.
          2   -1    0    0  502    0 -0.00000000000E+00 -0.00000000000E+00 -0.73531994029E+03  0.73531994029E+03  0.00000000000E+00 0. -1.
         24    2    1    2    0    0  0.91559079543E+02  0.82057313556E+01 -0.31103025929E+03  0.33397163683E+03  0.79667012863E+02 0.  0.
         23    2    1    2    0    0  0.10327677149E+02  0.12067490475E+02  0.11815254464E+02  0.89453128254E+02  0.87235180259E+02 0.  0.
        -13    1    3    3    0    0  0.85976646537E+02  0.19629477016E+02 -0.30869393665E+03  0.32104399487E+03  0.00000000000E+00 0.  1.
         14    1    3    3    0    0  0.55824330062E+01 -0.11423745660E+02 -0.23363226415E+01  0.12927641960E+02  0.00000000000E+00 0. -1.
        -11    1    4    4    0    0  0.15874032211E+02 -0.21759806571E+02  0.37816880297E+02  0.46428337425E+02  0.00000000000E+00 0.  1.
         11    1    4    4    0    0 -0.55463550615E+01  0.33827297046E+02 -0.26001625833E+02  0.43024790830E+02  0.00000000000E+00 0. -1.
          1    1    1    2  501    0 -0.10188675669E+03 -0.20273221831E+02 -0.36678620967E+03  0.38121390100E+03  0.00000000000E+00 0. -1.
<scales pt_clust_5="13000.00000" pt_clust_6="13000.00000" pt_clust_7="13000.00000" pt_clust_8="13000.00000" pt_clust_9="13000.00000"></scales>
<clustering>
<clus scale="   79.667">  5  6 -1 -1</clus>
<clus scale="   87.235">  7  8 -1 -1</clus>
<clus scale="  103.884">  7  9 -1 -1</clus>
<clus scale="  121.644">  2  5  1 -1</clus>
<clus scale="  309.068">  1  5  2 -1</clus>
</clustering>
</event>
<event>
 9    2  0.2147756E-005  0.3010510E+03  0.7546771E-02  0.1116741E+00
          2   -1    0    0  502    0 -0.00000000000E+00  0.00000000000E+00  0.48479194468E+03  0.48479194468E+03  0.00000000000E+00 0. -1.
         21   -1    0    0  501  502  0.00000000000E+00 -0.00000000000E+00 -0.99920200669E+02  0.99920200669E+02  0.00000000000E+00 0. -1.
         24    2    1    2    0    0  0.26534321147E+02 -0.10060745454E+03  0.68796141206E+02  0.14820843255E+03  0.80043115430E+02 0.  0.
         23    2    1    2    0    0 -0.42682306239E+02 -0.13945546942E+02  0.30380395997E+03  0.32016910579E+03  0.90527082476E+02 0.  0.
        -11    1    3    3    0    0  0.52298076589E+02 -0.51002819360E+02  0.25041122639E+02  0.77223275123E+02  0.00000000000E+00 0.  1.
         12    1    3    3    0    0 -0.25763755443E+02 -0.49604635178E+02  0.43755018567E+02  0.70985157430E+02  0.00000000000E+00 0. -1.
        -11    1    4    4    0    0  0.11912225949E+02  0.25126002596E+02  0.14685361442E+03  0.14946304293E+03  0.00000000000E+00 0.  1.
         11    1    4    4    0    0 -0.54594532188E+02 -0.39071549538E+02  0.15695034555E+03  0.17070606286E+03  0.00000000000E+00 0. -1.
          1    1    1    2  501    0  0.16147985093E+02  0.11455300148E+03  0.12271642839E+02  0.11633460701E+03  0.00000000000E+00 0. -1.
<scales pt_clust_5="13000.00000" pt_clust_6="13000.00000" pt_clust_7="13000.00000" pt_clust_8="13000.00000" pt_clust_9="13000.00000"></scales>
<clustering>
<clus scale="   80.043">  5  6 -1 -1</clus>
<clus scale="   90.527">  7  8 -1 -1</clus>
<clus scale="  115.686">  7  9 -1 -1</clus>
<clus scale="  131.274">  1  5  2 -1</clus>
<clus scale="  301.051">  2  5  1 -1</clus>
</clustering>
</event>
<event>
 9    2  0.2147756E-005  0.1483365E+04  0.7546771E-02  0.9491038E-01
         21   -1    0    0  501  502  0.00000000000E+00  0.00000000000E+00  0.28726999157E+03  0.28726999157E+03  0.00000000000E+00 0. -1.
          2   -1    0    0  502    0 -0.00000000000E+00 -0.00000000000E+00 -0.29367007083E+04  0.29367007083E+04  0.00000000000E+00 0. -1.
         24    2    1    2    0    0 -0.68929960710E+02  0.11794835623E+03 -0.97088828851E+03  0.98390876799E+03  0.82396849089E+02 0.  0.
         23    2    1    2    0    0 -0.43321870563E+03  0.23125751407E+03 -0.15307667958E+04  0.16108277462E+04  0.10178683551E+03 0.  0.
        -11    1    3    3    0    0 -0.18285776207E+02  0.79873471135E+02 -0.33516461325E+03  0.34503544598E+03  0.00000000000E+00 0.  1.
         12    1    3    3    0    0 -0.50644184504E+02  0.38074885100E+02 -0.63572367526E+03  0.63887332202E+03  0.00000000000E+00 0. -1.
        -13    1    4    4    0    0 -0.10788752536E+03  0.10846513832E+02 -0.31671268182E+03  0.33476004513E+03  0.00000000000E+00 0.  1.
         13    1    4    4    0    0 -0.32533118027E+03  0.22041100024E+03 -0.12140541140E+04  0.12760677010E+04  0.00000000000E+00 0. -1.
          1    1    1    2  501    0  0.50214866634E+03 -0.34920587031E+03 -0.14777563242E+03  0.62923418573E+03  0.00000000000E+00 0. -1.
<scales pt_clust_5="13000.00000" pt_clust_6="13000.00000" pt_clust_7="13000.00000" pt_clust_8="13000.00000" pt_clust_9="13000.00000"></scales>
<clustering>
<clus scale="   82.397">  5  6 -1 -1</clus>
<clus scale="  101.787">  7  8 -1 -1</clus>
<clus scale="  159.538">  2  5  1 -1</clus>
<clus scale="  587.172">  7  9 -1 -1</clus>
<clus scale=" 1483.365">  1  5  2 -1</clus>
</clustering>
</event>
<event>
 9    2  0.2147756E-005  0.2196376E+03  0.7546771E-02  0.1148713E+00
          2   -1    0    0  502    0 -0.00000000000E+00  0.00000000000E+00  0.14434798467E+03  0.14434798467E+03  0.00000000000E+00 0. -1.
         21   -1    0    0  501  502  0.00000000000E+00 -0.00000000000E+00 -0.24429441263E+03  0.24429441263E+03  0.00000000000E+00 0.  1.
         24    2    1    2    0    0  0.89661064866E+02  0.97302287434E+02 -0.26056750891E+02  0.15690899509E+03  0.80216187766E+02 0.  0.
         23    2    1    2    0    0 -0.60115200627E+02 -0.81928875101E+01 -0.82186043860E+02  0.13748759089E+03  0.92018101981E+02 0.  0.
        -11    1    3    3    0    0  0.75353367516E+02  0.55654599346E+02  0.17128175730E+02  0.95230976202E+02  0.00000000000E+00 0.  1.
         12    1    3    3    0    0  0.14307697349E+02  0.41647688088E+02 -0.43184926621E+02  0.61678018886E+02  0.00000000000E+00 0. -1.
        -13    1    4    4    0    0 -0.20755306666E+02  0.39864807099E+02 -0.18739405005E+02  0.48694464776E+02  0.00000000000E+00 0. -1.
         13    1    4    4    0    0 -0.39359893961E+02 -0.48057694609E+02 -0.63446638855E+02  0.88793126118E+02  0.00000000000E+00 0.  1.
          1    1    1    2  501    0 -0.29545864238E+02 -0.89109399924E+02  0.82963667955E+01  0.94245811315E+02  0.00000000000E+00 0. -1.
<scales pt_clust_5="13000.00000" pt_clust_6="13000.00000" pt_clust_7="13000.00000" pt_clust_8="13000.00000" pt_clust_9="13000.00000"></scales>
<clustering>
<clus scale="   80.216">  5  6 -1 -1</clus>
<clus scale="   92.018">  7  8 -1 -1</clus>
<clus scale="   93.880">  7  9 -1 -1</clus>
<clus scale="  154.730">  1  5  2 -1</clus>
<clus scale="  219.638">  2  5  1 -1</clus>
</clustering>
</event>
<event>
 9    2  0.2147756E-005  0.3215033E+03  0.7546771E-02  0.1122994E+00
         -1   -1    0    0    0  501 -0.00000000000E+00  0.00000000000E+00  0.31411090075E+03  0.31411090075E+03  0.00000000000E+00 0.  1.
         21   -1    0    0  501  502  0.00000000000E+00 -0.00000000000E+00 -0.21874501578E+03  0.21874501578E+03  0.00000000000E+00 0.  1.
         24    2    1    2    0    0  0.42729258195E+02  0.37368135433E+01  0.17839845203E+03  0.20080349776E+03  0.81586051181E+02 0.  0.
         23    2    1    2    0    0  0.10702360404E+03 -0.21046938245E+02  0.28735216263E+02  0.14438889660E+03  0.90141085958E+02 0.  0.
        -13    1    3    3    0    0  0.54522599299E+02  0.16574799412E+02  0.17361246236E+03  0.18272581891E+03  0.00000000000E+00 0.  1.
         14    1    3    3    0    0 -0.11793341104E+02 -0.12837985869E+02  0.47859896649E+01  0.18077678851E+02  0.00000000000E+00 0. -1.
        -11    1    4    4    0    0  0.96893312544E+02  0.19019874128E+02  0.29497587517E+02  0.10305424444E+03  0.00000000000E+00 0.  1.
         11    1    4    4    0    0  0.10130291491E+02 -0.40066812373E+02 -0.76237125326E+00  0.41334652162E+02  0.00000000000E+00 0. -1.
         -2    1    1    2    0  502 -0.14975286223E+03  0.17310124702E+02 -0.11176778332E+03  0.18766352217E+03  0.00000000000E+00 0.  1.
<scales pt_clust_5="13000.00000" pt_clust_6="13000.00000" pt_clust_7="13000.00000" pt_clust_8="13000.00000" pt_clust_9="13000.00000"></scales>
<clustering>
<clus scale="   81.586">  5  6 -1 -1</clus>
<clus scale="   90.141">  7  8 -1 -1</clus>
<clus scale="   92.174">  1  5  2 -1</clus>
<clus scale="  137.969">  7  9 -1 -1</clus>
<clus scale="  321.503">  2  5  1 -1</clus>
</clustering>
</event>
<event>
 9    2  0.2147756E-005  0.4366986E+03  0.7546771E-02  0.1051035E+00
          4   -1    0    0  502    0 -0.00000000000E+00  0.00000000000E+00  0.97006600863E+03  0.97006600863E+03  0.00000000000E+00 0. -1.
         21   -1    0    0  501  502  0.00000000000E+00 -0.00000000000E+00 -0.12204684301E+03  0.12204684301E+03  0.00000000000E+00 0.  1.
         24    2    1    2    0    0 -0.17165458412E+03  0.16382852404E+03  0.34718428445E+03  0.42762715203E+03  0.77607810455E+02 0.  0.
         23    2    1    2    0    0  0.84748228638E+02 -0.60473682928E+02 -0.76096186138E+01  0.13841465197E+03  0.90892139382E+02 0.  0.
        -13    1    3    3    0    0 -0.12968385052E+03  0.15501268759E+03  0.25055159074E+03  0.32190516309E+03  0.00000000000E+00 0.  1.
         14    1    3    3    0    0 -0.41970733596E+02  0.88158364406E+01  0.96632693710E+02  0.10572198894E+03  0.00000000000E+00 0. -1.
        -13    1    4    4    0    0  0.90856562325E+02 -0.15140605958E+02 -0.42058909475E+00  0.92110421568E+02  0.00000000000E+00 0. -1.
         13    1    4    4    0    0 -0.61083336870E+01 -0.45333076970E+02 -0.71890295190E+01  0.46304230406E+02  0.00000000000E+00 0.  1.
          3    1    1    2  501    0  0.86906355483E+02 -0.10335484111E+03  0.50844449979E+03  0.52607104765E+03  0.00000000000E+00 0. -1.
<scales pt_clust_5="13000.00000" pt_clust_6="13000.00000" pt_clust_7="13000.00000" pt_clust_8="13000.00000" pt_clust_9="13000.00000"></scales>
<clustering>
<clus scale="   77.608">  5  6 -1 -1</clus>
<clus scale="   90.892">  7  8 -1 -1</clus>
<clus scale="  135.037">  7  9 -1 -1</clus>
<clus scale="  249.656">  1  5  2 -1</clus>
<clus scale="  436.699">  2  5  1 -1</clus>
</clustering>
</event>
<event>
 9    2  0.2147756E-005  0.1602298E+03  0.7546771E-02  0.1203985E+00
         -1   -1    0    0    0  501 -0.00000000000E+00  0.00000000000E+00  0.37358986649E+03  0.37358986649E+03  0.00000000000E+00 0.  1.
         21   -1    0    0  501  502  0.00000000000E+00 -0.00000000000E+00 -0.52232140225E+02  0.52232140225E+02  0.00000000000E+00 0.  1.
         24    2    1    2    0    0 -0.11012082169E+01  0.73828579636E+02  0.17451590764E+03  0.20848328020E+03  0.86934482645E+02 0.  0.
         23    2    1    2    0    0  0.23775033409E+02 -0.16079479808E+02  0.75771989052E+02  0.12299901295E+03  0.92539510359E+02 0.  0.
        -13    1    3    3    0    0 -0.18559477841E+02  0.84930148776E+02  0.16317886167E+03  0.18489165823E+03  0.00000000000E+00 0.  1.
         14    1    3    3    0    0  0.17458269624E+02 -0.11101569140E+02  0.11337045971E+02  0.23591621966E+02  0.00000000000E+00 0. -1.
        -13    1    4    4    0    0  0.50943494159E+02 -0.28379421094E+02  0.23609575200E+02  0.62912981013E+02  0.00000000000E+00 0.  1.
         13    1    4    4    0    0 -0.27168460751E+02  0.12299941286E+02  0.52162413852E+02  0.60086031938E+02  0.00000000000E+00 0. -1.
         -2    1    1    2    0  502 -0.22673825192E+02 -0.57749099827E+02  0.71069829572E+02  0.94339713562E+02  0.00000000000E+00 0.  1.
<scales pt_clust_5="13000.00000" pt_clust_6="13000.00000" pt_clust_7="13000.00000" pt_clust_8="13000.00000" pt_clust_9="13000.00000"></scales>
<clustering>
<clus scale="   86.934">  5  6 -1 -1</clus>
<clus scale="   92.540">  7  8 -1 -1</clus>
<clus scale="   62.041">  7  9 -1 -1</clus>
<clus scale="  114.059">  1  5  2 -1</clus>
<clus scale="  160.230">  2  5  1 -1</clus>
</clustering>
</event>
<event>
 9    2  0.2147756E-005  0.3141064E+03  0.7546771E-02  0.1089486E+00
         21   -1    0    0  501  502  0.00000000000E+00  0.00000000000E+00  0.10388116820E+03  0.10388116820E+03  0.00000000000E+00 0. -1.
          2   -1    0    0  502    0 -0.00000000000E+00 -0.00000000000E+00 -0.10158769804E+04  0.10158769804E+04  0.00000000000E+00 0. -1.
         24    2    1    2    0    0 -0.86154145383E+02 -0.20296645520E+03 -0.10932745208E+03  0.25781885249E+03  0.76812435314E+02 0.  0.
         23    2    1    2    0    0  0.16263541606E+02  0.20265528778E+03 -0.44775763141E+03  0.50021230143E+03  0.91606667723E+02 0.  0.
        -13    1    3    3    0    0 -0.21018535932E+02 -0.46199450541E+02 -0.64808233191E+02  0.82318133922E+02  0.00000000000E+00 0.  1.
         14    1    3    3    0    0 -0.65135609451E+02 -0.15676700466E+03 -0.44519218890E+02  0.17550071857E+03  0.00000000000E+00 0. -1.
        -11    1    4    4    0    0  0.24271750266E+02  0.17116388441E+03 -0.42939500165E+03  0.46288903706E+03  0.00000000000E+00 0. -1.
         11    1    4    4    0    0 -0.80082086602E+01  0.31491403366E+02 -0.18362629758E+02  0.37323264374E+02  0.00000000000E+00 0.  1.
          1    1    1    2  501    0  0.69890603777E+02  0.31116741973E+00 -0.35491072869E+03  0.36172699466E+03  0.00000000000E+00 0. -1.
<scales pt_clust_5="13000.00000" pt_clust_6="13000.00000" pt_clust_7="13000.00000" pt_clust_8="13000.00000" pt_clust_9="13000.00000"></scales>
<clustering>
<clus scale="   76.812">  5  6 -1 -1</clus>
<clus scale="   91.607">  7  8 -1 -1</clus>
<clus scale="   69.891">  7  9 -1 -1</clus>
<clus scale="  233.491">  2  5  1 -1</clus>
<clus scale="  314.106">  1  5  2 -1</clus>
</clustering>
</event>
<event>
 9    2  0.2147756E-005  0.2327117E+03  0.7546771E-02  0.1155628E+00
         21   -1    0    0  501  502  0.00000000000E+00  0.00000000000E+00  0.28856543914E+03  0.28856543914E+03  0.00000000000E+00 0.  1.
         -1   -1    0    0    0  501 -0.00000000000E+00 -0.00000000000E+00 -0.28245183857E+03  0.28245183857E+03  0.00000000000E+00 0.  1.
         24    2    1    2    0    0  0.58122259043E+02  0.50385114112E+02 -0.22022270949E+03  0.24638999730E+03  0.79329264905E+02 0.  0.
         23    2    1    2    0    0  0.32604135405E+02  0.20628897206E+02  0.42593647891E+02  0.10775027759E+03  0.91144514011E+02 0.  0.
        -13    1    3    3    0    0  0.27349487050E+02  0.60587252565E+02 -0.19276585324E+03  0.20390557568E+03  0.00000000000E+00 0.  1.
         14    1    3    3    0    0  0.30772771993E+02 -0.10202138453E+02 -0.27456856249E+02  0.42484421618E+02  0.00000000000E+00 0. -1.
        -13    1    4    4    0    0  0.25110874703E+02  0.52491815387E+02  0.46899298800E+02  0.74736142120E+02  0.00000000000E+00 0. -1.
         13    1    4    4    0    0  0.74932607020E+01 -0.31862918182E+02 -0.43056509089E+01  0.33014135469E+02  0.00000000000E+00 0.  1.
         -2    1    1    2    0  502 -0.90726394448E+02 -0.71014011318E+02  0.18374266217E+03  0.21687700282E+03  0.00000000000E+00 0.  1.
<scales pt_clust_5="13000.00000" pt_clust_6="13000.00000" pt_clust_7="13000.00000" pt_clust_8="13000.00000" pt_clust_9="13000.00000"></scales>
<clustering>
<clus scale="   79.329">  5  6 -1 -1</clus>
<clus scale="   91.145">  7  8 -1 -1</clus>
<clus scale="  110.499">  2  5  1 -1</clus>
<clus scale="   89.326">  7  9 -1 -1</clus>
<clus scale="  232.712">  1  5  2 -1</clus>
</clustering>
</event>
<event>
 9    2  0.2147756E-005  0.3692876E+03  0.7546771E-02  0.1098277E+00
         21   -1    0    0  501  502  0.00000000000E+00  0.00000000000E+00  0.23718288336E+02  0.23718288336E+02  0.00000000000E+00 0.  1.
          2   -1    0    0  502    0 -0.00000000000E+00 -0.00000000000E+00 -0.27566472531E+04  0.27566472531E+04  0.00000000000E+00 0. -1.
         24    2    1    2    0    0  0.56212240241E+02  0.59839923179E+02 -0.11153200362E+04  0.11211392291E+04  0.79207042439E+02 0.  0.
         23    2    1    2    0    0  0.12975391029E+03  0.10410840916E+02 -0.47082998021E+03  0.49534464505E+03  0.82103497324E+02 0.  0.
        -11    1    3    3    0    0  0.10140047828E+02  0.38998684630E+02 -0.18008446666E+03  0.18453761975E+03  0.00000000000E+00 0.  1.
         12    1    3    3    0    0  0.46072192413E+02  0.20841238549E+02 -0.93523556954E+03  0.93660160937E+03  0.00000000000E+00 0. -1.
        -13    1    4    4    0    0  0.10260801590E+03  0.13909399043E+02 -0.44767383509E+03  0.45949291499E+03  0.00000000000E+00 0.  1.
         13    1    4    4    0    0  0.27145894386E+02 -0.34985581264E+01 -0.23156145120E+02  0.35851730053E+02  0.00000000000E+00 0. -1.
          1    1    1    2  501    0 -0.18596615053E+03 -0.70250764096E+02 -0.11467789484E+04  0.11638816673E+04  0.00000000000E+00 0. -1.
<scales pt_clust_5="13000.00000" pt_clust_6="13000.00000" pt_clust_7="13000.00000" pt_clust_8="13000.00000" pt_clust_9="13000.00000"></scales>
<clustering>
<clus scale="   79.207">  5  6 -1 -1</clus>
<clus scale="   82.103">  7  8 -1 -1</clus>
<clus scale="  114.081">  2  5  1 -1</clus>
<clus scale="  148.993">  7  9 -1 -1</clus>
<clus scale="  369.288">  1  5  2 -1</clus>
</clustering>
</event>
<event>
 9    2  0.2147756E-005  0.4751340E+03  0.7546771E-02  0.1055945E+00
          2   -1    0    0  502    0 -0.00000000000E+00  0.00000000000E+00  0.13489718964E+04  0.13489718964E+04  0.00000000000E+00 0. -1.
         21   -1    0    0  501  502  0.00000000000E+00 -0.00000000000E+00 -0.80056408097E+02  0.80056408097E+02  0.00000000000E+00 0. -1.
         24    2    1    2    0    0 -0.13508222089E+03  0.65058080323E+02  0.21740412291E+03  0.27515289688E+03  0.77232142191E+02 0.  0.
         23    2    1    2    0    0 -0.54132797544E+02  0.13449736822E+03  0.22671833873E+03  0.28444557314E+03  0.92131303770E+02 0.  0.
        -13    1    3    3    0    0 -0.44550952085E+02 -0.13065681656E+02  0.40412452433E+02  0.61552137903E+02  0.00000000000E+00 0.  1.
         14    1    3    3    0    0 -0.90531268806E+02  0.78123761980E+02  0.17699167048E+03  0.21360075898E+03  0.00000000000E+00 0. -1.
        -11    1    4    4    0    0 -0.33589883643E+02  0.46513267295E+02  0.16587820616E+03  0.17552020852E+03  0.00000000000E+00 0.  1.
         11    1    4    4    0    0 -0.20542913901E+02  0.87984100928E+02  0.60840132562E+02  0.10892536462E+03  0.00000000000E+00 0. -1.
          1    1    1    2  501    0  0.18921501843E+03 -0.19955544855E+03  0.82479302671E+03  0.86942983452E+03  0.00000000000E+00 0. -1.
<scales pt_clust_5="13000.00000" pt_clust_6="13000.00000" pt_clust_7="13000.00000" pt_clust_8="13000.00000" pt_clust_9="13000.00000"></scales>
<clustering>
<clus scale="   77.232">  5  6 -1 -1</clus>
<clus scale="   92.131">  7  8 -1 -1</clus>
<clus scale="  168.655">  1  5  2 -1</clus>
<clus scale="  172.260">  7  9 -1 -1</clus>
<clus scale="  475.134">  2  5  1 -1</clus>
</clustering>
</event>
<event>
 9    2  0.2147756E-005  0.2876185E+03  0.7546771E-02  0.1134066E+00
         21   -1    0    0  501  502  0.00000000000E+00  0.00000000000E+00  0.32085600771E+02  0.32085600771E+02  0.00000000000E+00 0. -1.
          2   -1    0    0  502    0 -0.00000000000E+00 -0.00000000000E+00 -0.12229054085E+04  0.12229054085E+04  0.00000000000E+00 0. -1.
         24    2    1    2    0    0 -0.32726795585E+02 -0.47489480113E+02 -0.44423586363E+03  0.45492101750E+03  0.79254878444E+02 0.  0.
         23    2    1    2    0    0 -0.49201506917E+02  0.13301963594E+03 -0.42728967987E+03  0.45951679258E+03  0.92001088637E+02 0.  0.
        -13    1    3    3    0    0  0.19480533686E+01 -0.33922043020E+02 -0.60544514004E+02  0.69427214337E+02  0.00000000000E+00 0.  1.
         14    1    3    3    0    0 -0.34674848953E+02 -0.13567437093E+02 -0.38369134963E+03  0.38549380316E+03  0.00000000000E+00 0. -1.
        -11    1    4    4    0    0 -0.51252481674E+02  0.76220195482E+02 -0.35952542435E+03  0.37107258836E+03  0.00000000000E+00 0.  1.
         11    1    4    4    0    0  0.20509747578E+01  0.56799440462E+02 -0.67764255519E+02  0.88444204221E+02  0.00000000000E+00 0. -1.
          1    1    1    2  501    0  0.81928302502E+02 -0.85530155831E+02 -0.31929426419E+03  0.34055319915E+03  0.00000000000E+00 0. -1.
<scales pt_clust_5="13000.00000" pt_clust_6="13000.00000" pt_clust_7="13000.00000" pt_clust_8="13000.00000" pt_clust_9="13000.00000"></scales>
<clustering>
<clus scale="   79.255">  5  6 -1 -1</clus>
<clus scale="   92.001">  7  8 -1 -1</clus>
<clus scale="   98.019">  2  5  1 -1</clus>
<clus scale="  125.742">  7  9 -1 -1</clus>
<clus scale="  287.619">  1  5  2 -1</clus>
</clustering>
</event>
<event>
 9    2  0.2147756E-005  0.1742220E+03  0.7546771E-02  0.1196824E+00
         21   -1    0    0  501  502  0.00000000000E+00  0.00000000000E+00  0.13844559127E+03  0.13844559127E+03  0.00000000000E+00 0. -1.
         -3   -1    0    0    0  501 -0.00000000000E+00 -0.00000000000E+00 -0.18396492092E+03  0.18396492092E+03  0.00000000000E+00 0.  1.
         24    2    1    2    0    0 -0.34474527061E+02  0.41466106839E+02  0.58979096870E+02  0.11925238839E+03  0.88513655650E+02 0.  0.
         23    2    1    2    0    0 -0.23315436701E+02 -0.48204292454E+02 -0.99695960641E+02  0.14477878897E+03  0.90301438348E+02 0.  0.
        -13    1    3    3    0    0  0.19776458498E+02  0.43664800348E+02  0.17899146407E+02  0.51167397259E+02  0.00000000000E+00 0.  1.
         14    1    3    3    0    0 -0.54250985558E+02 -0.21986935089E+01  0.41079950464E+02  0.68084991131E+02  0.00000000000E+00 0. -1.
        -13    1    4    4    0    0  0.27208875982E+02 -0.39351846425E+02 -0.72109710910E+02  0.86537281889E+02  0.00000000000E+00 0.  1.
         13    1    4    4    0    0 -0.50524312682E+02 -0.88524460293E+01 -0.27586249731E+02  0.58241507080E+02  0.00000000000E+00 0. -1.
         -4    1    1    2    0  502  0.57789963762E+02  0.67381856153E+01 -0.48024658772E+01  0.58379334832E+02  0.00000000000E+00 0.  1.
<scales pt_clust_5="13000.00000" pt_clust_6="13000.00000" pt_clust_7="13000.00000" pt_clust_8="13000.00000" pt_clust_9="13000.00000"></scales>
<clustering>
<clus scale="   88.514">  5  6 -1 -1</clus>
<clus scale="   90.301">  7  8 -1 -1</clus>
<clus scale="   58.181">  7  9 -1 -1</clus>
<clus scale="  103.647">  2  5  1 -1</clus>
<clus scale="  174.222">  1  5  2 -1</clus>
</clustering>
</event>
<event>
 9    2  0.2147756E-005  0.1445711E+03  0.7546771E-02  0.1229756E+00
          2   -1    0    0  502    0 -0.00000000000E+00  0.00000000000E+00  0.54832507522E+03  0.54832507522E+03  0.00000000000E+00 0. -1.
         21   -1    0    0  501  502  0.00000000000E+00 -0.00000000000E+00 -0.27737124261E+02  0.27737124261E+02  0.00000000000E+00 0. -1.
         24    2    1    2    0    0  0.30549532917E+02 -0.22779645904E+02  0.11923219887E+03  0.14946258675E+03  0.81673504652E+02 0.  0.
         23    2    1    2    0    0 -0.34434132585E+01 -0.20298965934E+02  0.29472947597E+03  0.30844855992E+03  0.88606687102E+02 0.  0.
        -13    1    3    3    0    0 -0.16660785049E+02 -0.36979197364E+02  0.48123743912E+02  0.62935979568E+02  0.00000000000E+00 0.  1.
         14    1    3    3    0    0  0.47210317966E+02  0.14199551460E+02  0.71108454957E+02  0.86526607183E+02  0.00000000000E+00 0. -1.
        -13    1    4    4    0    0 -0.37458907896E+02 -0.24138229381E+02  0.23843343031E+03  0.24256200154E+03  0.00000000000E+00 0. -1.
         13    1    4    4    0    0  0.34015494637E+02  0.38392634470E+01  0.56296045655E+02  0.65886558384E+02  0.00000000000E+00 0.  1.
          1    1    1    2  501    0 -0.27106119658E+02  0.43078611837E+02  0.10662627612E+03  0.11815105281E+03  0.00000000000E+00 0. -1.
<scales pt_clust_5="13000.00000" pt_clust_6="13000.00000" pt_clust_7="13000.00000" pt_clust_8="13000.00000" pt_clust_9="13000.00000"></scales>
<clustering>
<clus scale="   81.674">  5  6 -1 -1</clus>
<clus scale="   88.607">  7  8 -1 -1</clus>
<clus scale="   50.897">  7  9 -1 -1</clus>
<clus scale="   90.126">  1  5  2 -1</clus>
<clus scale="  144.571">  2  5  1 -1</clus>
</clustering>
</event>
<event>
 9    2  0.2147756E-005  0.3543707E+03  0.7546771E-02  0.1101467E+00
         21   -1    0    0  501  502  0.00000000000E+00  0.00000000000E+00  0.10104686157E+03  0.10104686157E+03  0.00000000000E+00 0. -1.
          2   -1    0    0  502    0 -0.00000000000E+00 -0.00000000000E+00 -0.13369498695E+04  0.13369498695E+04  0.00000000000E+00 0. -1.
         24    2    1    2    0    0  0.63284624123E+02  0.61204800209E+02  0.30708043680E+02  0.12274688007E+03  0.79830078302E+02 0.  0.
         23    2    1    2    0    0  0.11250698188E+03  0.26630469664E+02 -0.38966423394E+03  0.41655443852E+03  0.91172266364E+02 0.  0.
        -11    1    3    3    0    0  0.77559060834E+02  0.44604174398E+02  0.59076397124E+01  0.89665157660E+02  0.00000000000E+00 0.  1.
         12    1    3    3    0    0 -0.14274436712E+02  0.16600625812E+02  0.24800403967E+02  0.33081722412E+02  0.00000000000E+00 0. -1.
        -11    1    4    4    0    0  0.74529216276E+02  0.45901254114E+02 -0.15455945823E+03  0.17762363395E+03  0.00000000000E+00 0.  1.
         11    1    4    4    0    0  0.37977765606E+02 -0.19270784450E+02 -0.23510477571E+03  0.23893080457E+03  0.00000000000E+00 0. -1.
          1    1    1    2  501    0 -0.17579160601E+03 -0.87835269873E+02 -0.87694681768E+03  0.89869541248E+03  0.00000000000E+00 0. -1.
<scales pt_clust_5="13000.00000" pt_clust_6="13000.00000" pt_clust_7="13000.00000" pt_clust_8="13000.00000" pt_clust_9="13000.00000"></scales>
<clustering>
<clus scale="   79.830">  5  6 -1 -1</clus>
<clus scale="   91.172">  7  8 -1 -1</clus>
<clus scale="  118.844">  2  5  1 -1</clus>
<clus scale="  139.955">  7  9 -1 -1</clus>
<clus scale="  354.371">  1  5  2 -1</clus>
</clustering>
</event>
<event>
 9    2  0.2147756E-005  0.1673481E+03  0.7546771E-02  0.1210597E+00
         21   -1    0    0  501  502  0.00000000000E+00  0.00000000000E+00  0.76404686431E+02  0.76404686431E+02  0.00000000000E+00 0. -1.
          2   -1    0    0  502    0 -0.00000000000E+00 -0.00000000000E+00 -0.46997839679E+03  0.46997839679E+03  0.00000000000E+00 0. -1.
         24    2    1    2    0    0 -0.28005428949E+02 -0.20904118308E+02 -0.36674946007E+03  0.37689877862E+03  0.79537643003E+02 0.  0.
         23    2    1    2    0    0 -0.28022835803E+02  0.26360781113E+02 -0.42099220660E+02  0.11115535519E+03  0.95409635258E+02 0.  0.
        -13    1    3    3    0    0 -0.24192318396E+02  0.28466220902E+02 -0.15878999811E+03  0.16312528161E+03  0.00000000000E+00 0.  1.
         14    1    3    3    0    0 -0.38131105538E+01 -0.49370339209E+02 -0.20795946196E+03  0.21377349701E+03  0.00000000000E+00 0. -1.
        -11    1    4    4    0    0  0.12697300221E+02 -0.22973533383E+02  0.10566583989E+02  0.28295889564E+02  0.00000000000E+00 0.  1.
         11    1    4    4    0    0 -0.40720136024E+02  0.49334314497E+02 -0.52665804649E+02  0.82859465627E+02  0.00000000000E+00 0. -1.
          1    1    1    2  501    0  0.56028264752E+02 -0.54566628055E+01  0.15274970363E+02  0.58328949414E+02  0.00000000000E+00 0. -1.
<scales pt_clust_5="13000.00000" pt_clust_6="13000.00000" pt_clust_7="13000.00000" pt_clust_8="13000.00000" pt_clust_9="13000.00000"></scales>
<clustering>
<clus scale="   79.538">  5  6 -1 -1</clus>
<clus scale="   86.876">  2  5  1 -1</clus>
<clus scale="   95.410">  7  8 -1 -1</clus>
<clus scale="   50.887">  7  9 -1 -1</clus>
<clus scale="  167.348">  1  5  2 -1</clus>
</clustering>
</event>
<event>
 9    2  0.2147756E-005  0.2045938E+03  0.7546771E-02  0.1169175E+00
         21   -1    0    0  501  502  0.00000000000E+00  0.00000000000E+00  0.35293858328E+02  0.35293858328E+02  0.00000000000E+00 0.  1.
          2   -1    0    0  502    0 -0.00000000000E+00 -0.00000000000E+00 -0.11207718689E+04  0.11207718689E+04  0.00000000000E+00 0. -1.
         24    2    1    2    0    0 -0.67780713938E+02  0.53906428897E+02 -0.77622855355E+03  0.78526408568E+03  0.81294456447E+02 0.  0.
         23    2    1    2    0    0  0.95447832836E+02 -0.11044180972E+02 -0.13153054264E+03  0.18590530763E+03  0.89600429874E+02 0.  0.
        -11    1    3    3    0    0 -0.16991856373E+02  0.22101268648E+02 -0.56085650328E+02  0.62632175689E+02  0.00000000000E+00 0.  1.
         12    1    3    3    0    0 -0.50788857565E+02  0.31805160249E+02 -0.72014290322E+03  0.72263190999E+03  0.00000000000E+00 0. -1.
        -11    1    4    4    0    0  0.90112704565E+02  0.16383577310E+02 -0.61006882990E+02  0.11004799363E+03  0.00000000000E+00 0.  1.
         11    1    4    4    0    0  0.53351282706E+01 -0.27427758282E+02 -0.70523659648E+02  0.75857314005E+02  0.00000000000E+00 0. -1.
          1    1    1    2  501    0 -0.27667118898E+02 -0.42862247925E+02 -0.17771891435E+03  0.18489633388E+03  0.00000000000E+00 0. -1.
<scales pt_clust_5="13000.00000" pt_clust_6="13000.00000" pt_clust_7="13000.00000" pt_clust_8="13000.00000" pt_clust_9="13000.00000"></scales>
<clustering>
<clus scale="   81.294">  5  6 -1 -1</clus>
<clus scale="   89.600">  7  8 -1 -1</clus>
<clus scale="   51.016">  7  9 -1 -1</clus>
<clus scale="  118.781">  2  5  1 -1</clus>
<clus scale="  204.594">  1  5  2 -1</clus>
</clustering>
</event>
<event>
 9    2  0.2147756E-005  0.6237950E+03  0.7546771E-02  0.1036647E+00
          2   -1    0    0  502    0 -0.00000000000E+00  0.00000000000E+00  0.17233550394E+04  0.17233550394E+04  0.00000000000E+00 0. -1.
         21   -1    0    0  501  502  0.00000000000E+00 -0.00000000000E+00 -0.84908414155E+02  0.84908414155E+02  0.00000000000E+00 0.  1.
         24    2    1    2    0    0  0.10250933290E+03 -0.73582826494E+00  0.41732811615E+03  0.43704115709E+03  0.79583363100E+02 0.  0.
         23    2    1    2    0    0 -0.33232626863E+03 -0.99548760151E+02  0.57009729393E+03  0.67358238561E+03  0.91387095352E+02 0.  0.
        -11    1    3    3    0    0  0.99786526822E+02 -0.23852181277E+02  0.37446637742E+03  0.38826710562E+03  0.00000000000E+00 0.  1.
         12    1    3    3    0    0  0.27228060726E+01  0.23116353012E+02  0.42861738734E+02  0.48774051470E+02  0.00000000000E+00 0. -1.
        -13    1    4    4    0    0 -0.29970714562E+03 -0.57462714562E+02  0.49543019356E+03  0.58187405286E+03  0.00000000000E+00 0.  1.
         13    1    4    4    0    0 -0.32619123008E+02 -0.42086045589E+02  0.74667100366E+02  0.91708332752E+02  0.00000000000E+00 0. -1.
          1    1    1    2  501    0  0.22981693573E+03  0.10028458842E+03  0.65102121517E+03  0.69763991086E+03  0.00000000000E+00 0. -1.
<scales pt_clust_5="13000.00000" pt_clust_6="13000.00000" pt_clust_7="13000.00000" pt_clust_8="13000.00000" pt_clust_9="13000.00000"></scales>
<clustering>
<clus scale="   79.583">  5  6 -1 -1</clus>
<clus scale="   91.387">  7  8 -1 -1</clus>
<clus scale="  129.778">  1  5  2 -1</clus>
<clus scale="  300.255">  7  9 -1 -1</clus>
<clus scale="  623.795">  2  5  1 -1</clus>
</clustering>
</event>
<event>
 9    2  0.2147756E-005  0.2030623E+03  0.7546771E-02  0.1185411E+00
         21   -1    0    0  501  502  0.00000000000E+00  0.00000000000E+00  0.75108702922E+03  0.75108702922E+03  0.00000000000E+00 0. -1.
          2   -1    0    0  502    0 -0.00000000000E+00 -0.00000000000E+00 -0.64719481448E+03  0.64719481448E+03  0.00000000000E+00 0. -1.
         24    2    1    2    0    0 -0.37105226588E+01 -0.20148722642E+02 -0.63062087733E+03  0.63621636652E+03  0.81662935974E+02 0.  0.
         23    2    1    2    0    0 -0.72244201831E+02  0.28862255877E+02  0.35833411199E+03  0.37819613627E+03  0.92610621211E+02 0.  0.
        -11    1    3    3    0    0  0.26061099974E+02 -0.14175469863E+02 -0.90414828437E+02  0.95157585504E+02  0.00000000000E+00 0.  1.
         12    1    3    3    0    0 -0.29771622633E+02 -0.59732527787E+01 -0.54020604889E+03  0.54105878102E+03  0.00000000000E+00 0. -1.
        -11    1    4    4    0    0 -0.70038317403E+02  0.52908628977E+02  0.32734825044E+03  0.33891232788E+03  0.00000000000E+00 0.  1.
         11    1    4    4    0    0 -0.22058844275E+01 -0.24046373100E+02  0.30985861552E+02  0.39283808389E+02  0.00000000000E+00 0. -1.
          1    1    1    2  501    0  0.75954724489E+02 -0.87135332346E+01  0.37617898008E+03  0.38386934090E+03  0.00000000000E+00 0. -1.
<scales pt_clust_5="13000.00000" pt_clust_6="13000.00000" pt_clust_7="13000.00000" pt_clust_8="13000.00000" pt_clust_9="13000.00000"></scales>
<clustering>
<clus scale="   81.663">  5  6 -1 -1</clus>
<clus scale="   84.194">  2  5  1 -1</clus>
<clus scale="   92.611">  7  8 -1 -1</clus>
<clus scale="   76.279">  7  9 -1 -1</clus>
<clus scale="  203.062">  1  5  2 -1</clus>
</clustering>
</event>
<event>
 9    2  0.2147756E-005  0.2047778E+03  0.7546771E-02  0.1185084E+00
         21   -1    0    0  501  502  0.00000000000E+00  0.00000000000E+00  0.57332613295E+02  0.57332613295E+02  0.00000000000E+00 0. -1.
          4   -1    0    0  502    0 -0.00000000000E+00 -0.00000000000E+00 -0.39468522973E+03  0.39468522973E+03  0.00000000000E+00 0. -1.
         24    2    1    2    0    0  0.21491584636E+02 -0.86764459260E+01 -0.16419281866E+03  0.18384205592E+03  0.79381678630E+02 0.  0.
         23    2    1    2    0    0  0.35183076383E+02  0.26984812043E+02 -0.22499859651E+02  0.10617075500E+03  0.93808083809E+02 0.  0.
        -13    1    3    3    0    0 -0.46620880702E+01  0.28149840772E+02 -0.26540677436E+02  0.38968656116E+02  0.00000000000E+00 0.  1.
         14    1    3    3    0    0  0.26153672706E+02 -0.36826286698E+02 -0.13765214123E+03  0.14487339981E+03  0.00000000000E+00 0. -1.
        -11    1    4    4    0    0  0.39769433259E+02  0.56428833066E+02 -0.34083770224E+00  0.69035767492E+02  0.00000000000E+00 0. -1.
         11    1    4    4    0    0 -0.45863568758E+01 -0.29444021023E+02 -0.22159021949E+02  0.37134987507E+02  0.00000000000E+00 0.  1.
          3    1    1    2  501    0 -0.56674661019E+02 -0.18308366117E+02 -0.15065993812E+03  0.16200503210E+03  0.00000000000E+00 0. -1.
<scales pt_clust_5="13000.00000" pt_clust_6="13000.00000" pt_clust_7="13000.00000" pt_clust_8="13000.00000" pt_clust_9="13000.00000"></scales>
<clustering>
<clus scale="   79.382">  5  6 -1 -1</clus>
<clus scale="   82.696">  2  5  1 -1</clus>
<clus scale="   93.808">  7  8 -1 -1</clus>
<clus scale="   48.126">  7  9 -1 -1</clus>
<clus scale="  204.778">  1  5  2 -1</clus>
</clustering>
</event>
<event>
 9    2  0.2147756E-005  0.1912305E+03  0.7546771E-02  0.1187200E+00
         21   -1    0    0  501  502  0.00000000000E+00  0.00000000000E+00  0.37575569683E+03  0.37575569683E+03  0.00000000000E+00 0.  1.
         -1   -1    0    0    0  501 -0.00000000000E+00 -0.00000000000E+00 -0.66288561345E+02  0.66288561345E+02  0.00000000000E+00 0.  1.
         24    2    1    2    0    0  0.22418420496E+01 -0.56779005442E+02  0.26352431905E+02  0.10039669645E+03  0.78461230402E+02 0.  0.
         23    2    1    2    0    0  0.45564704725E+01 -0.19537183251E+02  0.72971930103E+02  0.11797288065E+03  0.90499917309E+02 0.  0.
        -11    1    3    3    0    0 -0.11695141573E+02 -0.71865338160E+02  0.87265891819E+01  0.73331824770E+02  0.00000000000E+00 0.  1.
         12    1    3    3    0    0  0.13936983623E+02  0.15086332719E+02  0.17625842723E+02  0.27064871681E+02  0.00000000000E+00 0. -1.
        -13    1    4    4    0    0  0.76657318173E+01  0.23395500748E+02 -0.83204608824E+01  0.25987361714E+02  0.00000000000E+00 0. -1.
         13    1    4    4    0    0 -0.31092613448E+01 -0.42932683999E+02  0.81292390986E+02  0.91985518935E+02  0.00000000000E+00 0.  1.
         -2    1    1    2    0  502 -0.67983125221E+01  0.76316188693E+02  0.21014277348E+03  0.22367468108E+03  0.00000000000E+00 0.  1.
<scales pt_clust_5="13000.00000" pt_clust_6="13000.00000" pt_clust_7="13000.00000" pt_clust_8="13000.00000" pt_clust_9="13000.00000"></scales>
<clustering>
<clus scale="   78.461">  5  6 -1 -1</clus>
<clus scale="   90.500">  7  8 -1 -1</clus>
<clus scale="   76.618">  7  9 -1 -1</clus>
<clus scale="   96.876">  2  5  1 -1</clus>
<clus scale="  191.231">  1  5  2 -1</clus>
</clustering>
</event>
<event>
 9    2  0.2147756E-005  0.1483255E+03  0.7546771E-02  0.1228841E+00
         -3   -1    0    0    0  501 -0.00000000000E+00  0.00000000000E+00  0.13148650497E+03  0.13148650497E+03  0.00000000000E+00 0.  1.
         21   -1    0    0  501  502  0.00000000000E+00 -0.00000000000E+00 -0.12243433424E+03  0.12243433424E+03  0.00000000000E+00 0.  1.
         24    2    1    2    0    0  0.14526188912E+02 -0.21460045589E+02  0.51771868979E+02  0.99565999833E+02  0.81003198605E+02 0.  0.
         23    2    1    2    0    0  0.17999728517E+02 -0.56974950018E+01 -0.58580364942E+02  0.10911074514E+03  0.90094638415E+02 0.  0.
        -11    1    3    3    0    0  0.15409448653E+02 -0.50964454207E+02  0.43924380275E+02  0.69023024296E+02  0.00000000000E+00 0.  1.
         12    1    3    3    0    0 -0.88325974144E+00  0.29504408618E+02  0.78474887035E+01  0.30542975537E+02  0.00000000000E+00 0. -1.
        -11    1    4    4    0    0 -0.27377669960E+02 -0.23564957441E+02 -0.46475226220E+02  0.58862472627E+02  0.00000000000E+00 0.  1.
         11    1    4    4    0    0  0.45377398477E+02  0.17867462439E+02 -0.12105138722E+02  0.50248272508E+02  0.00000000000E+00 0. -1.
         -4    1    1    2    0  502 -0.32525917428E+02  0.27157540590E+02  0.15860666699E+02  0.45244094240E+02  0.00000000000E+00 0.  1.
<scales pt_clust_5="13000.00000" pt_clust_6="13000.00000" pt_clust_7="13000.00000" pt_clust_8="13000.00000" pt_clust_9="13000.00000"></scales>
<clustering>
<clus scale="   81.003">  5  6 -1 -1</clus>
<clus scale="   85.047">  1  5  2 -1</clus>
<clus scale="   90.095">  7  8 -1 -1</clus>
<clus scale="   29.007">  7  9 -1 -1</clus>
<clus scale="  148.325">  2  5  1 -1</clus>
</clustering>
</event>
<event>
 9    2  0.2147756E-005  0.2385875E+03  0.7546771E-02  0.1134134E+00
         21   -1    0    0  501  502  0.00000000000E+00  0.00000000000E+00  0.67400561221E+02  0.67400561221E+02  0.00000000000E+00 0.  1.
         -1   -1    0    0    0  501 -0.00000000000E+00 -0.00000000000E+00 -0.10464168221E+04  0.10464168221E+04  0.00000000000E+00 0.  1.
         24    2    1    2    0    0  0.40752384008E+02 -0.14351804157E+03 -0.79290676180E+03  0.81122733431E+03  0.84442110146E+02 0.  0.
         23    2    1    2    0    0 -0.41757491907E+02  0.13170563780E+02 -0.44186418406E+02  0.10988915116E+03  0.90587162941E+02 0.  0.
        -11    1    3    3    0    0  0.16769849966E+02 -0.14445394856E+03 -0.71764962770E+03  0.73223572656E+03  0.00000000000E+00 0.  1.
         12    1    3    3    0    0  0.23982534043E+02  0.93590699143E+00 -0.75257134106E+02  0.78991607749E+02  0.00000000000E+00 0. -1.
        -13    1    4    4    0    0 -0.28256796115E+01 -0.22761853269E+02  0.17297764464E+02  0.28728019161E+02  0.00000000000E+00 0.  1.
         13    1    4    4    0    0 -0.38931812296E+02  0.35932417049E+02 -0.61484182870E+02  0.81161131995E+02  0.00000000000E+00 0. -1.
         -2    1    1    2    0  502  0.10051078986E+01  0.13034747779E+03 -0.14192308069E+03  0.19270089787E+03  0.00000000000E+00 0.  1.
<scales pt_clust_5="13000.00000" pt_clust_6="13000.00000" pt_clust_7="13000.00000" pt_clust_8="13000.00000" pt_clust_9="13000.00000"></scales>
<clustering>
<clus scale="   84.442">  5  6 -1 -1</clus>
<clus scale="   90.587">  7  8 -1 -1</clus>
<clus scale="  130.351">  7  9 -1 -1</clus>
<clus scale="  171.431">  2  5  1 -1</clus>
<clus scale="  238.587">  1  5  2 -1</clus>
</clustering>
</event>
<event>
 9    2  0.2147756E-005  0.1588842E+03  0.7546771E-02  0.1211053E+00
          2   -1    0    0  502    0 -0.00000000000E+00  0.00000000000E+00  0.10569176468E+03  0.10569176468E+03  0.00000000000E+00 0. -1.
         21   -1    0    0  501  502  0.00000000000E+00 -0.00000000000E+00 -0.24522060144E+03  0.24522060144E+03  0.00000000000E+00 0.  1.
         24    2    1    2    0    0  0.54456810540E+02  0.23762181918E+02  0.42631018530E+02  0.10919682146E+03  0.81094738256E+02 0.  0.
         23    2    1    2    0    0 -0.70163866727E+02  0.12011582828E+02 -0.15794772142E+03  0.19575141425E+03  0.91125666869E+02 0.  0.
        -13    1    3    3    0    0  0.65426953091E+01 -0.23978883301E+02 -0.63882050929E+01  0.25663259158E+02  0.00000000000E+00 0.  1.
         14    1    3    3    0    0  0.47914115231E+02  0.47741065219E+02  0.49019223623E+02  0.83533562304E+02  0.00000000000E+00 0. -1.
        -11    1    4    4    0    0 -0.60834343318E+02 -0.31824998625E+02 -0.11337194205E+03  0.13253997552E+03  0.00000000000E+00 0.  1.
         11    1    4    4    0    0 -0.93295234089E+01  0.43836581454E+02 -0.44575779365E+02  0.63211438732E+02  0.00000000000E+00 0. -1.
          1    1    1    2  501    0  0.15707056187E+02 -0.35773764746E+02 -0.24212133873E+02  0.45964130416E+02  0.00000000000E+00 0. -1.
<scales pt_clust_5="13000.00000" pt_clust_6="13000.00000" pt_clust_7="13000.00000" pt_clust_8="13000.00000" pt_clust_9="13000.00000"></scales>
<clustering>
<clus scale="   81.095">  5  6 -1 -1</clus>
<clus scale="   91.126">  7  8 -1 -1</clus>
<clus scale="   39.070">  7  9 -1 -1</clus>
<clus scale="  100.531">  1  5  2 -1</clus>
<clus scale="  158.884">  2  5  1 -1</clus>
</clustering>
</event>
<event>
 9    2  0.2147756E-005  0.2008470E+03  0.7546771E-02  0.1183317E+00
         21   -1    0    0  501  502  0.00000000000E+00  0.00000000000E+00  0.16359889326E+03  0.16359889326E+03  0.00000000000E+00 0.  1.
          2   -1    0    0  502    0 -0.00000000000E+00 -0.00000000000E+00 -0.30965259777E+03  0.30965259777E+03  0.00000000000E+00 0. -1.
         24    2    1    2    0    0  0.10234341726E+02  0.46168255040E+02 -0.23613766634E+03  0.25312738872E+03  0.77950163124E+02 0.  0.
         23    2    1    2    0    0  0.33353918239E+02 -0.94359808510E+02  0.58468147459E+02  0.14786123528E+03  0.91805028776E+02 0.  0.
        -11    1    3    3    0    0  0.30330566264E+01 -0.20959654935E+02 -0.84957071472E+02  0.87556898989E+02  0.00000000000E+00 0.  1.
         12    1    3    3    0    0  0.72012850992E+01  0.67127909975E+02 -0.15118059486E+03  0.16557048973E+03  0.00000000000E+00 0. -1.
        -13    1    4    4    0    0  0.32425342720E+02 -0.65192139678E+02  0.82516130844E+02  0.11004694351E+03  0.00000000000E+00 0.  1.
         13    1    4    4    0    0  0.92857551951E+00 -0.29167668832E+02 -0.24047983385E+02  0.37814291775E+02  0.00000000000E+00 0. -1.
          1    1    1    2  501    0 -0.43588259965E+02  0.48191553470E+02  0.31615814364E+02  0.72262867024E+02  0.00000000000E+00 0. -1.
<scales pt_clust_5="13000.00000" pt_clust_6="13000.00000" pt_clust_7="13000.00000" pt_clust_8="13000.00000" pt_clust_9="13000.00000"></scales>
<clustering>
<clus scale="   77.950">  5  6 -1 -1</clus>
<clus scale="   91.173">  2  5  1 -1</clus>
<clus scale="   91.805">  7  8 -1 -1</clus>
<clus scale="   74.518">  7  9 -1 -1</clus>
<clus scale="  200.847">  1  5  2 -1</clus>
</clustering>
</event>
<event>
 9    2  0.2147756E-005  0.4931923E+03  0.7546771E-02  0.1033656E+00
         21   -1    0    0  501  502  0.00000000000E+00  0.00000000000E+00  0.99491877888E+02  0.99491877888E+02  0.00000000000E+00 0. -1.
          2   -1    0    0  502    0 -0.00000000000E+00 -0.00000000000E+00 -0.18130360374E+04  0.18130360374E+04  0.00000000000E+00 0. -1.
         24    2    1    2    0    0 -0.26435853225E+03 -0.71801575895E+02 -0.10331048144E+04  0.10721492084E+04  0.84601817788E+02 0.  0.
         23    2    1    2    0    0 -0.64215409396E+02  0.94361531588E+02 -0.11550587201E+03  0.18645239934E+03  0.91625178323E+02 0.  0.
        -11    1    3    3    0    0 -0.11815422098E+03 -0.12718838648E+02 -0.30879286963E+03  0.33087040533E+03  0.00000000000E+00 0.  1.
         12    1    3    3    0    0 -0.14620431127E+03 -0.59082737247E+02 -0.72431194481E+03  0.74127880306E+03  0.00000000000E+00 0. -1.
        -13    1    4    4    0    0 -0.71042547622E+01  0.61606032565E+02 -0.10180247853E+03  0.11920368416E+03  0.00000000000E+00 0.  1.
         13    1    4    4    0    0 -0.57111154633E+02  0.32755499023E+02 -0.13703393487E+02  0.67248715176E+02  0.00000000000E+00 0. -1.
          1    1    1    2  501    0  0.32857394165E+03 -0.22559955693E+02 -0.56493347311E+03  0.65392630760E+03  0.00000000000E+00 0. -1.
<scales pt_clust_5="13000.00000" pt_clust_6="13000.00000" pt_clust_7="13000.00000" pt_clust_8="13000.00000" pt_clust_9="13000.00000"></scales>
<clustering>
<clus scale="   84.602">  5  6 -1 -1</clus>
<clus scale="   91.625">  7  8 -1 -1</clus>
<clus scale="  286.703">  2  5  1 -1</clus>
<clus scale="  141.551">  7  9 -1 -1</clus>
<clus scale="  493.192">  1  5  2 -1</clus>
</clustering>
</event>
<event>
 9    2  0.2147756E-005  0.6686289E+03  0.7546771E-02  0.1022874E+00
          2   -1    0    0  502    0 -0.00000000000E+00  0.00000000000E+00  0.65484680889E+03  0.65484680889E+03  0.00000000000E+00 0. -1.
         21   -1    0    0  501  502  0.00000000000E+00 -0.00000000000E+00 -0.34487772827E+03  0.34487772827E+03  0.00000000000E+00 0. -1.
         24    2    1    2    0    0  0.13408253109E+03 -0.30322529790E+02  0.29029766296E+03  0.33080636425E+03  0.79136189897E+02 0.  0.
         23    2    1    2    0    0  0.11064729936E+03  0.72388280784E+02  0.27112993309E+03  0.31551528341E+03  0.92496299350E+02 0.  0.
        -13    1    3    3    0    0  0.84472027964E+02 -0.18613031287E+02  0.92904488764E+02  0.12693782917E+03  0.00000000000E+00 0.  1.
         14    1    3    3    0    0  0.49610503121E+02 -0.11709498503E+02  0.19739317420E+03  0.20386853508E+03  0.00000000000E+00 0. -1.
        -11    1    4    4    0    0 -0.97467014795E+01  0.18058594632E+02  0.83965604221E+02  0.86436877096E+02  0.00000000000E+00 0.  1.
         11    1    4    4    0    0  0.12039400084E+03  0.54329686152E+02  0.18716432887E+03  0.22907840631E+03  0.00000000000E+00 0. -1.
          1    1    1    2  501    0 -0.24472983045E+03 -0.42065750994E+02 -0.25145851544E+03  0.35340288950E+03  0.00000000000E+00 0. -1.
<scales pt_clust_5="13000.00000" pt_clust_6="13000.00000" pt_clust_7="13000.00000" pt_clust_8="13000.00000" pt_clust_9="13000.00000"></scales>
<clustering>
<clus scale="   79.136">  5  6 -1 -1</clus>
<clus scale="   92.496">  7  8 -1 -1</clus>
<clus scale="  158.619">  1  5  2 -1</clus>
<clus scale="  229.648">  7  9 -1 -1</clus>
<clus scale="  668.629">  2  5  1 -1</clus>
</clustering>
</event>
<event>
 9    2  0.2147756E-005  0.2072007E+03  0.7546771E-02  0.1174360E+00
          2   -1    0    0  502    0 -0.00000000000E+00  0.00000000000E+00  0.10244134305E+04  0.10244134305E+04  0.00000000000E+00 0. -1.
         21   -1    0    0  501  502  0.00000000000E+00 -0.00000000000E+00 -0.60816779506E+02  0.60816779506E+02  0.00000000000E+00 0. -1.
         24    2    1    2    0    0 -0.53274927561E+02  0.28685305763E+02  0.83544711892E+03  0.84160253230E+03  0.81620274361E+02 0.  0.
         23    2    1    2    0    0  0.43524943238E+02 -0.74378414165E+02  0.21330988265E+02  0.12703812564E+03  0.90868614642E+02 0.  0.
        -11    1    3    3    0    0 -0.11423047204E+02 -0.23879373168E+02  0.11398357066E+03  0.11701694258E+03  0.00000000000E+00 0.  1.
         12    1    3    3    0    0 -0.41851880357E+02  0.52564678931E+02  0.72146354826E+03  0.72458558972E+03  0.00000000000E+00 0. -1.
        -13    1    4    4    0    0 -0.17454045343E+02 -0.21348906999E+02  0.35543210122E+02  0.44985990204E+02  0.00000000000E+00 0. -1.
         13    1    4    4    0    0  0.60978988581E+02 -0.53029507167E+02 -0.14212221858E+02  0.82052135431E+02  0.00000000000E+00 0.  1.
          1    1    1    2  501    0  0.97499843222E+01  0.45693108402E+02  0.10681854376E+03  0.11658955202E+03  0.00000000000E+00 0. -1.
<scales pt_clust_5="13000.00000" pt_clust_6="13000.00000" pt_clust_7="13000.00000" pt_clust_8="13000.00000" pt_clust_9="13000.00000"></scales>
<clustering>
<clus scale="   81.620">  5  6 -1 -1</clus>
<clus scale="   90.869">  7  8 -1 -1</clus>
<clus scale="   46.722">  7  9 -1 -1</clus>
<clus scale="  101.602">  1  5  2 -1</clus>
<clus scale="  207.201">  2  5  1 -1</clus>
</clustering>
</event>
<event>
 9    2  0.2147756E-005  0.4190277E+03  0.7546771E-02  0.1078007E+00
         -1   -1    0    0    0  501 -0.00000000000E+00  0.00000000000E+00  0.99216327569E+03  0.99216327569E+03  0.00000000000E+00 0.  1.
         21   -1    0    0  501  502  0.00000000000E+00 -0.00000000000E+00 -0.78365221461E+02  0.78365221461E+02  0.00000000000E+00 0.  1.
         24    2    1    2    0    0  0.61206559109E+02 -0.87647500871E+02  0.28635727255E+03  0.31603123903E+03  0.80292771846E+02 0.  0.
         23    2    1    2    0    0 -0.12825225178E+03 -0.11273899214E+03  0.39680514393E+03  0.44169913012E+03  0.92114487764E+02 0.  0.
        -13    1    3    3    0    0  0.42994781586E+02 -0.31587854553E+02  0.52464595201E+02  0.74825647665E+02  0.00000000000E+00 0.  1.
         14    1    3    3    0    0  0.18211777523E+02 -0.56059646317E+02  0.23389267735E+03  0.24120559136E+03  0.00000000000E+00 0. -1.
        -11    1    4    4    0    0 -0.18835266232E+02 -0.18428995912E+02  0.89701100415E+01  0.27836271635E+02  0.00000000000E+00 0. -1.
         11    1    4    4    0    0 -0.10941698555E+03 -0.94309996232E+02  0.38783503389E+03  0.41386285848E+03  0.00000000000E+00 0.  1.
         -2    1    1    2    0  502  0.67045692674E+02  0.20038649301E+03  0.23063563775E+03  0.31279812801E+03  0.00000000000E+00 0.  1.
<scales pt_clust_5="13000.00000" pt_clust_6="13000.00000" pt_clust_7="13000.00000" pt_clust_8="13000.00000" pt_clust_9="13000.00000"></scales>
<clustering>
<clus scale="   80.293">  5  6 -1 -1</clus>
<clus scale="   92.114">  7  8 -1 -1</clus>
<clus scale="  133.698">  1  5  2 -1</clus>
<clus scale="  189.292">  7  9 -1 -1</clus>
<clus scale="  419.028">  2  5  1 -1</clus>
</clustering>
</event>
<event>
 9    2  0.2147756E-005  0.3185870E+03  0.7546771E-02  0.1116911E+00
         21   -1    0    0  501  502  0.00000000000E+00  0.00000000000E+00  0.35541312058E+02  0.35541312058E+02  0.00000000000E+00 0.  1.
          2   -1    0    0  502    0 -0.00000000000E+00 -0.00000000000E+00 -0.13948117343E+04  0.13948117343E+04  0.00000000000E+00 0. -1.
         24    2    1    2    0    0 -0.48849077383E+02 -0.58872309291E+02 -0.20338699096E+03  0.23136838837E+03  0.79453646122E+02 0.  0.
         23    2    1    2    0    0  0.66331801149E+02 -0.98229200009E+02 -0.40430149176E+03  0.43095995678E+03  0.90652658703E+02 0.  0.
        -13    1    3    3    0    0 -0.65063255884E+02 -0.21822208264E+02 -0.11075032525E+03  0.13028841308E+03  0.00000000000E+00 0.  1.
         14    1    3    3    0    0  0.16214178501E+02 -0.37050101027E+02 -0.92636665710E+02  0.10107997529E+03  0.00000000000E+00 0. -1.
        -11    1    4    4    0    0  0.70151965242E+02 -0.26324231253E+02 -0.16848411064E+03  0.18439403167E+03  0.00000000000E+00 0. -1.
         11    1    4    4    0    0 -0.38201640929E+01 -0.71904968756E+02 -0.23581738112E+03  0.24656592511E+03  0.00000000000E+00 0.  1.
          1    1    1    2  501    0 -0.17482723766E+02  0.15710150930E+03 -0.75158193957E+03  0.76802470126E+03  0.00000000000E+00 0. -1.
<scales pt_clust_5="13000.00000" pt_clust_6="13000.00000" pt_clust_7="13000.00000" pt_clust_8="13000.00000" pt_clust_9="13000.00000"></scales>
<clustering>
<clus scale="   79.454">  5  6 -1 -1</clus>
<clus scale="   90.653">  7  8 -1 -1</clus>
<clus scale="  110.295">  2  5  1 -1</clus>
<clus scale="  128.798">  7  9 -1 -1</clus>
<clus scale="  318.587">  1  5  2 -1</clus>
</clustering>
</event>
<event>
 9    2  0.2147756E-005  0.2128276E+03  0.7546771E-02  0.1169700E+00
          4   -1    0    0  502    0 -0.00000000000E+00  0.00000000000E+00  0.38264469265E+02  0.38264469265E+02  0.00000000000E+00 0. -1.
         21   -1    0    0  501  502  0.00000000000E+00 -0.00000000000E+00 -0.69378823456E+03  0.69378823456E+03  0.00000000000E+00 0. -1.
         24    2    1    2    0    0  0.37686024240E+02  0.54219460429E+02 -0.30107544332E+03  0.31861685577E+03  0.80686379873E+02 0.  0.
         23    2    1    2    0    0  0.58469243759E+02 -0.33931954283E+02 -0.23264275167E+03  0.25693020781E+03  0.85559638831E+02 0.  0.
        -11    1    3    3    0    0 -0.23334434317E+02  0.31373006396E+02 -0.11427972860E+03  0.12078335036E+03  0.00000000000E+00 0.  1.
         12    1    3    3    0    0  0.61020458557E+02  0.22846454032E+02 -0.18679571473E+03  0.19783350541E+03  0.00000000000E+00 0. -1.
        -13    1    4    4    0    0  0.37375620958E+02 -0.57460482488E+01 -0.22803523265E+02  0.44158292379E+02  0.00000000000E+00 0.  1.
         13    1    4    4    0    0  0.21093622801E+02 -0.28185906034E+02 -0.20983922840E+03  0.21277191544E+03  0.00000000000E+00 0. -1.
          3    1    1    2  501    0 -0.96155268000E+02 -0.20287506146E+02 -0.12180557031E+03  0.15650564024E+03  0.00000000000E+00 0. -1.
<scales pt_clust_5="13000.00000" pt_clust_6="13000.00000" pt_clust_7="13000.00000" pt_clust_8="13000.00000" pt_clust_9="13000.00000"></scales>
<clustering>
<clus scale="   80.686">  5  6 -1 -1</clus>
<clus scale="   85.560">  7  8 -1 -1</clus>
<clus scale="   98.272">  7  9 -1 -1</clus>
<clus scale="  104.261">  1  5  2 -1</clus>
<clus scale="  212.828">  2  5  1 -1</clus>
</clustering>
</event>
<event>
 9    2  0.2147756E-005  0.1338744E+03  0.7546771E-02  0.1242544E+00
          2   -1    0    0  502    0 -0.00000000000E+00  0.00000000000E+00  0.59605398880E+03  0.59605398880E+03  0.00000000000E+00 0. -1.
         21   -1    0    0  501  502  0.00000000000E+00 -0.00000000000E+00 -0.24085154318E+02  0.24085154318E+02  0.00000000000E+00 0.  1.
         24    2    1    2    0    0 -0.26346098833E+02  0.53204837337E+01  0.35154595771E+03  0.36224651042E+03  0.83159782711E+02 0.  0.
         23    2    1    2    0    0 -0.75654254583E+01 -0.24045157231E+02  0.15785267315E+03  0.18430163285E+03  0.91729058650E+02 0.  0.
        -11    1    3    3    0    0  0.12839385397E+02 -0.30871707523E+02  0.15695907891E+03  0.16048072967E+03  0.00000000000E+00 0.  1.
         12    1    3    3    0    0 -0.39185484229E+02  0.36192191257E+02  0.19458687880E+03  0.20176578075E+03  0.00000000000E+00 0. -1.
        -11    1    4    4    0    0 -0.30770360875E+02  0.25794717206E+02  0.66355608207E+02  0.77558038169E+02  0.00000000000E+00 0. -1.
         11    1    4    4    0    0  0.23204935417E+02 -0.49839874436E+02  0.91497064943E+02  0.10674359468E+03  0.00000000000E+00 0.  1.
          1    1    1    2  501    0  0.33911524291E+02  0.18724673497E+02  0.62570203621E+02  0.73590999847E+02  0.00000000000E+00 0. -1.
<scales pt_clust_5="13000.00000" pt_clust_6="13000.00000" pt_clust_7="13000.00000" pt_clust_8="13000.00000" pt_clust_9="13000.00000"></scales>
<clustering>
<clus scale="   83.160">  5  6 -1 -1</clus>
<clus scale="   87.396">  1  5  2 -1</clus>
<clus scale="   91.729">  7  8 -1 -1</clus>
<clus scale="   33.275">  7  9 -1 -1</clus>
<clus scale="  133.874">  2  5  1 -1</clus>
</clustering>
</event>
<event>
 9    2  0.2147756E-005  0.3598247E+03  0.7546771E-02  0.1097047E+00
         21   -1    0    0  501  502  0.00000000000E+00  0.00000000000E+00  0.95013055029E+02  0.95013055029E+02  0.00000000000E+00 0. -1.
          2   -1    0    0  502    0 -0.00000000000E+00 -0.00000000000E+00 -0.81206690760E+03  0.81206690760E+03  0.00000000000E+00 0. -1.
         24    2    1    2    0    0  0.30231966842E+02  0.94438323298E+02 -0.42494501107E+03  0.44361321588E+03  0.79886507888E+02 0.  0.
         23    2    1    2    0    0 -0.95053133637E+02  0.83651209961E+02 -0.19671724915E+03  0.25129412502E+03  0.91752046360E+02 0.  0.
        -11    1    3    3    0    0  0.41902624797E+01  0.35996280734E+02 -0.42498429923E+02  0.55851652368E+02  0.00000000000E+00 0.  1.
         12    1    3    3    0    0  0.26041704363E+02  0.58442042565E+02 -0.38244658115E+03  0.38776156351E+03  0.00000000000E+00 0. -1.
        -11    1    4    4    0    0  0.11551675914E+02  0.16517953713E+02 -0.69055066088E+02  0.71936681628E+02  0.00000000000E+00 0.  1.
         11    1    4    4    0    0 -0.10660480955E+03  0.67133256248E+02 -0.12766218306E+03  0.17935744339E+03  0.00000000000E+00 0. -1.
          1    1    1    2  501    0  0.64821166794E+02 -0.17808953326E+03 -0.95391592344E+02  0.21217262173E+03  0.00000000000E+00 0. -1.
<scales pt_clust_5="13000.00000" pt_clust_6="13000.00000" pt_clust_7="13000.00000" pt_clust_8="13000.00000" pt_clust_9="13000.00000"></scales>
<clustering>
<clus scale="   79.887">  5  6 -1 -1</clus>
<clus scale="   91.752">  7  8 -1 -1</clus>
<clus scale="  127.336">  2  5  1 -1</clus>
<clus scale="  159.531">  7  9 -1 -1</clus>
<clus scale="  359.825">  1  5  2 -1</clus>
</clustering>
</event>
<event>
 9    2  0.2147756E-005  0.2402266E+03  0.7546771E-02  0.1137031E+00
         21   -1    0    0  501  502  0.00000000000E+00  0.00000000000E+00  0.16888673798E+03  0.16888673798E+03  0.00000000000E+00 0. -1.
         -1   -1    0    0    0  501 -0.00000000000E+00 -0.00000000000E+00 -0.23311533289E+03  0.23311533289E+03  0.00000000000E+00 0.  1.
         24    2    1    2    0    0  0.88497847985E+02  0.98949573549E+02 -0.21196294265E+02  0.15795171727E+03  0.82925116184E+02 0.  0.
         23    2    1    2    0    0 -0.93068006734E+00  0.17688251689E+02 -0.54704344791E+01  0.93440642886E+02  0.91583228139E+02 0.  0.
        -13    1    3    3    0    0  0.20025337620E+02  0.50254175978E+02 -0.45279767537E+02  0.70546110440E+02  0.00000000000E+00 0.  1.
         14    1    3    3    0    0  0.68472510365E+02  0.48695397572E+02  0.24083473272E+02  0.87405606829E+02  0.00000000000E+00 0. -1.
        -13    1    4    4    0    0  0.37264367679E+02  0.88812029644E+00 -0.27438108442E+02  0.46284680522E+02  0.00000000000E+00 0.  1.
         13    1    4    4    0    0 -0.38195047746E+02  0.16800131392E+02  0.21967673963E+02  0.47155962364E+02  0.00000000000E+00 0. -1.
         -2    1    1    2    0  502 -0.87567167917E+02 -0.11663782524E+03 -0.37561866168E+02  0.15060971072E+03  0.00000000000E+00 0.  1.
<scales pt_clust_5="13000.00000" pt_clust_6="13000.00000" pt_clust_7="13000.00000" pt_clust_8="13000.00000" pt_clust_9="13000.00000"></scales>
<clustering>
<clus scale="   82.925">  5  6 -1 -1</clus>
<clus scale="   91.583">  7  8 -1 -1</clus>
<clus scale="  145.851">  7  9 -1 -1</clus>
<clus scale="  156.523">  2  5  1 -1</clus>
<clus scale="  240.227">  1  5  2 -1</clus>
</clustering>
</event>
<event>
 9    2  0.2147756E-005  0.1496296E+03  0.7546771E-02  0.1219368E+00
         21   -1    0    0  501  502  0.00000000000E+00  0.00000000000E+00  0.10504935535E+03  0.10504935535E+03  0.00000000000E+00 0.  1.
          4   -1    0    0  502    0 -0.00000000000E+00 -0.00000000000E+00 -0.44186818760E+03  0.44186818760E+03  0.00000000000E+00 0. -1.
         24    2    1    2    0    0 -0.14508101271E+01  0.58817988881E+02 -0.37838943810E+03  0.39162064204E+03  0.82015240904E+02 0.  0.
         23    2    1    2    0    0  0.32481802823E+02 -0.16378345965E+02  0.33530178638E+02  0.10211143045E+03  0.89326108266E+02 0.  0.
        -11    1    3    3    0    0  0.22864630725E+02 -0.11120003311E+02 -0.70240155960E+02  0.74700236419E+02  0.00000000000E+00 0.  1.
         12    1    3    3    0    0 -0.24315440852E+02  0.69937992192E+02 -0.30814928214E+03  0.31692040562E+03  0.00000000000E+00 0. -1.
        -11    1    4    4    0    0 -0.33276173445E+01 -0.28301013993E+02 -0.21279083706E+02  0.35564305611E+02  0.00000000000E+00 0. -1.
         11    1    4    4    0    0  0.35809420168E+02  0.11922668028E+02  0.54809262345E+02  0.66547124840E+02  0.00000000000E+00 0.  1.
          3    1    1    2  501    0 -0.31030992696E+02 -0.42439642916E+02  0.80404272121E+01  0.53185470462E+02  0.00000000000E+00 0. -1.
<scales pt_clust_5="13000.00000" pt_clust_6="13000.00000" pt_clust_7="13000.00000" pt_clust_8="13000.00000" pt_clust_9="13000.00000"></scales>
<clustering>
<clus scale="   82.015">  5  6 -1 -1</clus>
<clus scale="   89.326">  7  8 -1 -1</clus>
<clus scale="   52.574">  7  9 -1 -1</clus>
<clus scale="  100.936">  2  5  1 -1</clus>
<clus scale="  149.630">  1  5  2 -1</clus>
</clustering>
</event>
<event>
 9    2  0.2147756E-005  0.2730959E+03  0.7546771E-02  0.1141684E+00
          4   -1    0    0  502    0 -0.00000000000E+00  0.00000000000E+00  0.74195088858E+02  0.74195088858E+02  0.00000000000E+00 0. -1.
         21   -1    0    0  501  502  0.00000000000E+00 -0.00000000000E+00 -0.84734610925E+03  0.84734610925E+03  0.00000000000E+00 0. -1.
         24    2    1    2    0    0 -0.49181969221E+02  0.11931728620E+02 -0.57823422794E+03  0.58602083825E+03  0.80649663724E+02 0.  0.
         23    2    1    2    0    0 -0.52972226841E+02 -0.20037382403E+02  0.82296757278E+01  0.10799086961E+03  0.91579183483E+02 0.  0.
        -11    1    3    3    0    0 -0.10072990325E+02 -0.30257706608E+02 -0.11906093869E+03  0.12325786411E+03  0.00000000000E+00 0.  1.
         12    1    3    3    0    0 -0.39108978895E+02  0.42189435228E+02 -0.45917328925E+03  0.46276297414E+03  0.00000000000E+00 0. -1.
        -13    1    4    4    0    0 -0.32269371937E+02  0.11934651537E+02 -0.35880765249E+02  0.49710940319E+02  0.00000000000E+00 0.  1.
         13    1    4    4    0    0 -0.20702854904E+02 -0.31972033940E+02  0.44110440977E+02  0.58279929295E+02  0.00000000000E+00 0. -1.
          3    1    1    2  501    0  0.10215419606E+03  0.81056537831E+01 -0.20314646818E+03  0.22752949025E+03  0.00000000000E+00 0. -1.
<scales pt_clust_5="13000.00000" pt_clust_6="13000.00000" pt_clust_7="13000.00000" pt_clust_8="13000.00000" pt_clust_9="13000.00000"></scales>
<clustering>
<clus scale="   80.650">  5  6 -1 -1</clus>
<clus scale="   91.579">  7  8 -1 -1</clus>
<clus scale="   95.213">  1  5  2 -1</clus>
<clus scale="   94.177">  7  9 -1 -1</clus>
<clus scale="  273.096">  2  5  1 -1</clus>
</clustering>
</event>
<event>
 9    2  0.2147756E-005  0.5845905E+03  0.7546771E-02  0.1021582E+00
          2   -1    0    0  502    0 -0.00000000000E+00  0.00000000000E+00  0.10108752723E+04  0.10108752723E+04  0.00000000000E+00 0. -1.
         21   -1    0    0  501  502  0.00000000000E+00 -0.00000000000E+00 -0.24787594631E+03  0.24787594631E+03  0.00000000000E+00 0. -1.
         24    2    1    2    0    0  0.23316924852E+03  0.72138679358E+01  0.60469984175E+03  0.65310711303E+03  0.80418058452E+02 0.  0.
         23    2    1    2    0    0  0.16102508803E+03 -0.25586598873E+02  0.86204782090E+02  0.20449029676E+03  0.88324764350E+02 0.  0.
        -13    1    3    3    0    0  0.70768446299E+02 -0.21482470716E+02  0.11835804607E+03  0.13956466820E+03  0.00000000000E+00 0.  1.
         14    1    3    3    0    0  0.16240080223E+03  0.28696338652E+02  0.48634179568E+03  0.51354244483E+03  0.00000000000E+00 0. -1.
        -11    1    4    4    0    0  0.39618877919E+02 -0.39646786471E+02  0.20219290457E+01  0.56085750080E+02  0.00000000000E+00 0.  1.
         11    1    4    4    0    0  0.12140621011E+03  0.14060187598E+02  0.84182853045E+02  0.14840454668E+03  0.00000000000E+00 0. -1.
          1    1    1    2  501    0 -0.39419433656E+03  0.18372730937E+02  0.72094702101E+02  0.40115380876E+03  0.00000000000E+00 0. -1.
<scales pt_clust_5="13000.00000" pt_clust_6="13000.00000" pt_clust_7="13000.00000" pt_clust_8="13000.00000" pt_clust_9="13000.00000"></scales>
<clustering>
<clus scale="   80.418">  5  6 -1 -1</clus>
<clus scale="   88.325">  7  8 -1 -1</clus>
<clus scale="  246.753">  1  5  2 -1</clus>
<clus scale="  250.793">  7  9 -1 -1</clus>
<clus scale="  584.591">  2  5  1 -1</clus>
</clustering>
</event>
<event>
 9    2  0.2147756E-005  0.2388194E+03  0.7546771E-02  0.1159047E+00
          2   -1    0    0  502    0 -0.00000000000E+00  0.00000000000E+00  0.94470765105E+03  0.94470765105E+03  0.00000000000E+00 0. -1.
         21   -1    0    0  501  502  0.00000000000E+00 -0.00000000000E+00 -0.33048470756E+02  0.33048470756E+02  0.00000000000E+00 0. -1.
         24    2    1    2    0    0  0.33167406932E+02 -0.51697869694E+02  0.42882276679E+03  0.43908582043E+03  0.71656442640E+02 0.  0.
         23    2    1    2    0    0 -0.10997535632E+02 -0.47529438637E+02  0.37518077448E+03  0.39059161106E+03  0.97062865008E+02 0.  0.
        -13    1    3    3    0    0  0.52744907899E+02 -0.19071164566E+02  0.23984745710E+03  0.24631795977E+03  0.00000000000E+00 0.  1.
         14    1    3    3    0    0 -0.19577500967E+02 -0.32626705128E+02  0.18897530969E+03  0.19276786066E+03  0.00000000000E+00 0. -1.
        -11    1    4    4    0    0  0.37489640903E+02  0.39226525575E+01  0.14308903344E+03  0.14797071288E+03  0.00000000000E+00 0. -1.
         11    1    4    4    0    0 -0.48487176535E+02 -0.51452091195E+02  0.23209174104E+03  0.24262089819E+03  0.00000000000E+00 0.  1.
          1    1    1    2  501    0 -0.22169871300E+02  0.99227308331E+02  0.10765563902E+03  0.14807869031E+03  0.00000000000E+00 0. -1.
<scales pt_clust_5="13000.00000" pt_clust_6="13000.00000" pt_clust_7="13000.00000" pt_clust_8="13000.00000" pt_clust_9="13000.00000"></scales>
<clustering>
<clus scale="   71.656">  5  6 -1 -1</clus>
<clus scale="   94.379">  1  5  2 -1</clus>
<clus scale="   97.063">  7  8 -1 -1</clus>
<clus scale="   87.392">  7  9 -1 -1</clus>
<clus scale="  238.819">  2  5  1 -1</clus>
</clustering>
</event>
<event>
 9    2  0.2147756E-005  0.4639261E+03  0.7546771E-02  0.1066653E+00
         -3   -1    0    0    0  501 -0.00000000000E+00  0.00000000000E+00  0.38981459114E+03  0.38981459114E+03  0.00000000000E+00 0.  1.
         21   -1    0    0  501  502  0.00000000000E+00 -0.00000000000E+00 -0.25119811704E+03  0.25119811704E+03  0.00000000000E+00 0.  1.
         24    2    1    2    0    0 -0.85007314800E+01  0.10711202030E+03 -0.45541267393E+02  0.14187191225E+03  0.80674563037E+02 0.  0.
         23    2    1    2    0    0 -0.17057961671E+03 -0.14213933704E+03  0.22666419432E+01  0.24149558227E+03  0.94941991873E+02 0.  0.
        -13    1    3    3    0    0  0.32778090583E+02  0.71832602629E+02 -0.35840438809E+02  0.86711378012E+02  0.00000000000E+00 0.  1.
         14    1    3    3    0    0 -0.41278822063E+02  0.35279417669E+02 -0.97008285841E+01  0.55160534236E+02  0.00000000000E+00 0. -1.
        -13    1    4    4    0    0 -0.12026054227E+03 -0.90226845066E+02 -0.42780254200E+02  0.15631260905E+03  0.00000000000E+00 0.  1.
         13    1    4    4    0    0 -0.50319074436E+02 -0.51912491972E+02  0.45046896144E+02  0.85182973222E+02  0.00000000000E+00 0. -1.
         -4    1    1    2    0  502  0.17908034819E+03  0.35027316740E+02  0.18189109955E+03  0.25764521366E+03  0.00000000000E+00 0.  1.
<scales pt_clust_5="13000.00000" pt_clust_6="13000.00000" pt_clust_7="13000.00000" pt_clust_8="13000.00000" pt_clust_9="13000.00000"></scales>
<clustering>
<clus scale="   80.675">  5  6 -1 -1</clus>
<clus scale="   94.942">  7  8 -1 -1</clus>
<clus scale="  134.364">  1  5  2 -1</clus>
<clus scale="  202.342">  7  9 -1 -1</clus>
<clus scale="  463.926">  2  5  1 -1</clus>
</clustering>
</event>
<event>
 9    2  0.2147756E-005  0.1291022E+03  0.7546771E-02  0.1250021E+00
         21   -1    0    0  501  502  0.00000000000E+00  0.00000000000E+00  0.24792564256E+03  0.24792564256E+03  0.00000000000E+00 0. -1.
          2   -1    0    0  502    0 -0.00000000000E+00 -0.00000000000E+00 -0.89004803890E+02  0.89004803890E+02  0.00000000000E+00 0. -1.
         24    2    1    2    0    0  0.11566101838E+02  0.79291536989E+01 -0.45314103579E+02  0.95312379385E+02  0.82670644673E+02 0.  0.
         23    2    1    2    0    0 -0.13972333016E+02  0.18853480321E+02  0.11612908376E+03  0.14949998126E+03  0.91178947626E+02 0.  0.
        -13    1    3    3    0    0 -0.19818304823E+02 -0.35127023702E+01  0.15851150034E+02  0.25619587065E+02  0.00000000000E+00 0.  1.
         14    1    3    3    0    0  0.31384406661E+02  0.11441856069E+02 -0.61165253613E+02  0.69692792320E+02  0.00000000000E+00 0. -1.
        -11    1    4    4    0    0  0.19974085525E+02  0.35513070063E+02  0.10075206769E+03  0.10867898316E+03  0.00000000000E+00 0. -1.
         11    1    4    4    0    0 -0.33946418541E+02 -0.16659589743E+02  0.15377016077E+02  0.40820998096E+02  0.00000000000E+00 0.  1.
          1    1    1    2  501    0  0.24062311775E+01 -0.26782634019E+02  0.88105858483E+02  0.92118085805E+02  0.00000000000E+00 0. -1.
<scales pt_clust_5="13000.00000" pt_clust_6="13000.00000" pt_clust_7="13000.00000" pt_clust_8="13000.00000" pt_clust_9="13000.00000"></scales>
<clustering>
<clus scale="   82.671">  5  6 -1 -1</clus>
<clus scale="   83.852">  2  5  1 -1</clus>
<clus scale="   91.179">  7  8 -1 -1</clus>
<clus scale="   26.187">  7  9 -1 -1</clus>
<clus scale="  129.102">  1  5  2 -1</clus>
</clustering>
</event>
<event>
 9    2  0.2147756E-005  0.2371523E+03  0.7546771E-02  0.1159059E+00
          2   -1    0    0  502    0 -0.00000000000E+00  0.00000000000E+00  0.47455177977E+03  0.47455177977E+03  0.00000000000E+00 0. -1.
         21   -1    0    0  501  502  0.00000000000E+00 -0.00000000000E+00 -0.59013372762E+02  0.59013372762E+02  0.00000000000E+00 0. -1.
         24    2    1    2    0    0  0.18560970464E+02 -0.49532083150E+02  0.14102088547E+03  0.17079653348E+03  0.80539610273E+02 0.  0.
         23    2    1    2    0    0  0.52420612283E+02  0.50633774815E+01  0.37627231676E+02  0.11150608642E+03  0.90797799326E+02 0.  0.
        -13    1    3    3    0    0  0.16438784102E+02 -0.70546269865E+02  0.12426576381E+03  0.14383667776E+03  0.00000000000E+00 0.  1.
         14    1    3    3    0    0  0.21221863614E+01  0.21014186715E+02  0.16755121663E+02  0.26959855716E+02  0.00000000000E+00 0. -1.
        -13    1    4    4    0    0  0.24863223039E+02 -0.30113203566E+02 -0.15561829954E+02  0.42037547983E+02  0.00000000000E+00 0.  1.
         13    1    4    4    0    0  0.27557389244E+02  0.35176581048E+02  0.53189061630E+02  0.69468538442E+02  0.00000000000E+00 0. -1.
          1    1    1    2  501    0 -0.70981582747E+02  0.44468705668E+02  0.23689028986E+03  0.25126253263E+03  0.00000000000E+00 0. -1.
<scales pt_clust_5="13000.00000" pt_clust_6="13000.00000" pt_clust_7="13000.00000" pt_clust_8="13000.00000" pt_clust_9="13000.00000"></scales>
<clustering>
<clus scale="   80.540">  5  6 -1 -1</clus>
<clus scale="   90.798">  7  8 -1 -1</clus>
<clus scale="   83.761">  7  9 -1 -1</clus>
<clus scale="   96.356">  1  5  2 -1</clus>
<clus scale="  237.152">  2  5  1 -1</clus>
</clustering>
</event>
<event>
 9    2  0.2147756E-005  0.7075000E+03  0.7546771E-02  0.1036040E+00
         -1   -1    0    0    0  501 -0.00000000000E+00  0.00000000000E+00  0.75360731358E+03  0.75360731358E+03  0.00000000000E+00 0.  1.
         21   -1    0    0  501  502  0.00000000000E+00 -0.00000000000E+00 -0.28177768972E+03  0.28177768972E+03  0.00000000000E+00 0. -1.
         24    2    1    2    0    0 -0.40191390175E+02 -0.23473400415E+01  0.29153604072E+03  0.30527400562E+03  0.81105472178E+02 0.  0.
         23    2    1    2    0    0 -0.96343728230E+02 -0.13825945026E+03 -0.21543502929E+03  0.28850796018E+03  0.91797612642E+02 0.  0.
        -11    1    3    3    0    0 -0.34376574604E+02  0.32127971078E+02  0.99290897702E+02  0.10987555585E+03  0.00000000000E+00 0.  1.
         12    1    3    3    0    0 -0.58148155707E+01 -0.34475311120E+02  0.19224514302E+03  0.19539844977E+03  0.00000000000E+00 0. -1.
        -11    1    4    4    0    0 -0.84095559871E+02 -0.64907865600E+02 -0.17264188328E+03  0.20270745933E+03  0.00000000000E+00 0. -1.
         11    1    4    4    0    0 -0.12248168359E+02 -0.73351584659E+02 -0.42793146009E+02  0.85800500846E+02  0.00000000000E+00 0.  1.
         -2    1    1    2    0  502  0.13653511841E+03  0.14060679030E+03  0.39572861243E+03  0.44160303750E+03  0.00000000000E+00 0.  1.
<scales pt_clust_5="13000.00000" pt_clust_6="13000.00000" pt_clust_7="13000.00000" pt_clust_8="13000.00000" pt_clust_9="13000.00000"></scales>
<clustering>
<clus scale="   81.105">  5  6 -1 -1</clus>
<clus scale="   90.548">  1  5  2 -1</clus>
<clus scale="   91.798">  7  8 -1 -1</clus>
<clus scale="  170.534">  7  9 -1 -1</clus>
<clus scale="  707.500">  2  5  1 -1</clus>
</clustering>
</event>
<event>
 9    2  0.2147756E-005  0.2678641E+03  0.7546771E-02  0.1143709E+00
         -1   -1    0    0    0  501 -0.00000000000E+00  0.00000000000E+00  0.62342599675E+02  0.62342599675E+02  0.00000000000E+00 0.  1.
         21   -1    0    0  501  502  0.00000000000E+00 -0.00000000000E+00 -0.53704563345E+03  0.53704563345E+03  0.00000000000E+00 0. -1.
         24    2    1    2    0    0  0.53096279165E+02  0.67367464951E+01 -0.99094474574E+02  0.13804997914E+03  0.79834098204E+02 0.  0.
         23    2    1    2    0    0  0.71486903907E+02  0.13372425516E+02 -0.82277244934E+02  0.14201301503E+03  0.90049720760E+02 0.  0.
        -11    1    3    3    0    0  0.50469444694E+02  0.14034274919E+02 -0.16255306489E+02  0.54848525133E+02  0.00000000000E+00 0.  1.
         12    1    3    3    0    0  0.26268344707E+01 -0.72975284241E+01 -0.82839168086E+02  0.83201454011E+02  0.00000000000E+00 0. -1.
        -11    1    4    4    0    0  0.81837036227E+02 -0.17046350699E+02 -0.58091057050E+02  0.10179611721E+03  0.00000000000E+00 0. -1.
         11    1    4    4    0    0 -0.10350132319E+02  0.30418776215E+02 -0.24186187884E+02  0.40216897815E+02  0.00000000000E+00 0.  1.
         -2    1    1    2    0  502 -0.12458318307E+03 -0.20109172011E+02 -0.29333131427E+03  0.31932523896E+03  0.00000000000E+00 0.  1.
<scales pt_clust_5="13000.00000" pt_clust_6="13000.00000" pt_clust_7="13000.00000" pt_clust_8="13000.00000" pt_clust_9="13000.00000"></scales>
<clustering>
<clus scale="   79.834">  5  6 -1 -1</clus>
<clus scale="   90.050">  7  8 -1 -1</clus>
<clus scale="   96.115">  1  5  2 -1</clus>
<clus scale="  109.978">  7  9 -1 -1</clus>
<clus scale="  267.864">  2  5  1 -1</clus>
</clustering>
</event>
<event>
 9    2  0.2147756E-005  0.2135243E+03  0.7546771E-02  0.1172531E+00
         21   -1    0    0  501  502  0.00000000000E+00  0.00000000000E+00  0.35035179038E+02  0.35035179038E+02  0.00000000000E+00 0. -1.
          2   -1    0    0  502    0 -0.00000000000E+00 -0.00000000000E+00 -0.70626680286E+03  0.70626680286E+03  0.00000000000E+00 0. -1.
         24    2    1    2    0    0  0.62722207060E+02 -0.16483366916E+02 -0.15607726192E+03  0.18364918653E+03  0.71841042455E+02 0.  0.
         23    2    1    2    0    0  0.68978723952E+00 -0.31093328125E+02 -0.11909894760E+03  0.15374127766E+03  0.92111618590E+02 0.  0.
        -11    1    3    3    0    0  0.23740224615E+01 -0.33165588140E+02 -0.66630515569E+02  0.74466219350E+02  0.00000000000E+00 0.  1.
         12    1    3    3    0    0  0.60348184599E+02  0.16682221223E+02 -0.89446746350E+02  0.10918296718E+03  0.00000000000E+00 0. -1.
        -11    1    4    4    0    0 -0.22648700379E+02 -0.32100754288E+02 -0.78459491991E+01  0.40062213788E+02  0.00000000000E+00 0. -1.
         11    1    4    4    0    0  0.23338487619E+02  0.10074261629E+01 -0.11125299840E+03  0.11367906388E+03  0.00000000000E+00 0.  1.
          1    1    1    2  501    0 -0.63411994300E+02  0.47576695041E+02 -0.39605541431E+03  0.40391151770E+03  0.00000000000E+00 0. -1.
<scales pt_clust_5="13000.00000" pt_clust_6="13000.00000" pt_clust_7="13000.00000" pt_clust_8="13000.00000" pt_clust_9="13000.00000"></scales>
<clustering>
<clus scale="   71.841">  5  6 -1 -1</clus>
<clus scale="   92.112">  7  8 -1 -1</clus>
<clus scale="   79.276">  7  9 -1 -1</clus>
<clus scale="   96.783">  2  5  1 -1</clus>
<clus scale="  213.524">  1  5  2 -1</clus>
</clustering>
</event>
<event>
 9    2  0.2147756E-005  0.2449230E+03  0.7546771E-02  0.1139514E+00
         21   -1    0    0  501  502  0.00000000000E+00  0.00000000000E+00  0.10203739878E+03  0.10203739878E+03  0.00000000000E+00 0. -1.
          2   -1    0    0  502    0 -0.00000000000E+00 -0.00000000000E+00 -0.49748658439E+03  0.49748658439E+03  0.00000000000E+00 0. -1.
         24    2    1    2    0    0 -0.79172797596E+02  0.79135089709E+02 -0.31060515197E+03  0.34032180712E+03  0.82538946373E+02 0.  0.
         23    2    1    2    0    0  0.10757738391E+03 -0.39075238697E+02 -0.12381031791E+03  0.19651259560E+03  0.10093779074E+03 0.  0.
        -13    1    3    3    0    0 -0.68225270434E+02  0.51425351954E+02 -0.11945148535E+03  0.14686017739E+03  0.00000000000E+00 0.  1.
         14    1    3    3    0    0 -0.10947527163E+02  0.27709737756E+02 -0.19115366662E+03  0.19346162973E+03  0.00000000000E+00 0. -1.
        -11    1    4    4    0    0  0.98512407435E+02  0.82261276964E+00 -0.46271747334E+02  0.10884137867E+03  0.00000000000E+00 0. -1.
         11    1    4    4    0    0  0.90649764762E+01 -0.39897851466E+02 -0.77538570575E+02  0.87671216924E+02  0.00000000000E+00 0.  1.
          1    1    1    2  501    0 -0.28404586315E+02 -0.40059851013E+02  0.38966284269E+02  0.62689580447E+02  0.00000000000E+00 0. -1.
<scales pt_clust_5="13000.00000" pt_clust_6="13000.00000" pt_clust_7="13000.00000" pt_clust_8="13000.00000" pt_clust_9="13000.00000"></scales>
<clustering>
<clus scale="   82.539">  5  6 -1 -1</clus>
<clus scale="  100.938">  7  8 -1 -1</clus>
<clus scale="   49.108">  7  9 -1 -1</clus>
<clus scale="  139.080">  2  5  1 -1</clus>
<clus scale="  244.923">  1  5  2 -1</clus>
</clustering>
</event>
<event>
 9    2  0.2147756E-005  0.2038448E+03  0.7546771E-02  0.1159479E+00
         21   -1    0    0  501  502  0.00000000000E+00  0.00000000000E+00  0.32357272135E+03  0.32357272135E+03  0.00000000000E+00 0. -1.
          2   -1    0    0  502    0 -0.00000000000E+00 -0.00000000000E+00 -0.13617063434E+03  0.13617063434E+03  0.00000000000E+00 0. -1.
         24    2    1    2    0    0  0.12247262570E+03 -0.20626473453E+02 -0.38865936091E+02  0.15519465948E+03  0.84556643076E+02 0.  0.
         23    2    1    2    0    0 -0.28375021213E+02 -0.22904068360E+02  0.12744253300E+03  0.16131551313E+03  0.91931264447E+02 0.  0.
        -13    1    3    3    0    0  0.20802464165E+02 -0.36789190189E+02  0.63825540127E+01  0.42742531813E+02  0.00000000000E+00 0.  1.
         14    1    3    3    0    0  0.10167016154E+03  0.16162716736E+02 -0.45248490103E+02  0.11245212766E+03  0.00000000000E+00 0. -1.
        -11    1    4    4    0    0 -0.29351309659E+02  0.27710862057E+02  0.26204403965E+02  0.48125482250E+02  0.00000000000E+00 0.  1.
         11    1    4    4    0    0  0.97628844674E+00 -0.50614930416E+02  0.10123812903E+03  0.11319003088E+03  0.00000000000E+00 0. -1.
          1    1    1    2  501    0 -0.94097604488E+02  0.43530541812E+02  0.98825490101E+02  0.14323318308E+03  0.00000000000E+00 0. -1.
<scales pt_clust_5="13000.00000" pt_clust_6="13000.00000" pt_clust_7="13000.00000" pt_clust_8="13000.00000" pt_clust_9="13000.00000"></scales>
<clustering>
<clus scale="   84.557">  5  6 -1 -1</clus>
<clus scale="   91.931">  7  8 -1 -1</clus>
<clus scale="  103.679">  7  9 -1 -1</clus>
<clus scale="  150.249">  2  5  1 -1</clus>
<clus scale="  203.845">  1  5  2 -1</clus>
</clustering>
</event>
<event>
 9    2  0.2147756E-005  0.3488304E+03  0.7546771E-02  0.1117845E+00
          2   -1    0    0  502    0 -0.00000000000E+00  0.00000000000E+00  0.13893365850E+04  0.13893365850E+04  0.00000000000E+00 0. -1.
         21   -1    0    0  501  502  0.00000000000E+00 -0.00000000000E+00 -0.34146473783E+02  0.34146473783E+02  0.00000000000E+00 0. -1.
         24    2    1    2    0    0  0.12051805934E+02  0.19600842559E+02  0.18458099735E+03  0.20200512949E+03  0.78781271275E+02 0.  0.
         23    2    1    2    0    0  0.10074357625E+03 -0.91258386964E+02  0.31061395503E+03  0.35116231117E+03  0.91414322635E+02 0.  0.
        -13    1    3    3    0    0 -0.87950177330E+01 -0.25532372218E+02  0.33940216542E+02  0.43372718003E+02  0.00000000000E+00 0.  1.
         14    1    3    3    0    0  0.20846823667E+02  0.45133214777E+02  0.15064078080E+03  0.15863241149E+03  0.00000000000E+00 0. -1.
        -13    1    4    4    0    0  0.70536751988E+02 -0.10759885823E+03  0.23003334746E+03  0.26356837560E+03  0.00000000000E+00 0. -1.
         13    1    4    4    0    0  0.30206824263E+02  0.16340471262E+02  0.80580607568E+02  0.87593935573E+02  0.00000000000E+00 0.  1.
          1    1    1    2  501    0 -0.11279538219E+03  0.71657544405E+02  0.85999515882E+03  0.87031561810E+03  0.00000000000E+00 0. -1.
<scales pt_clust_5="13000.00000" pt_clust_6="13000.00000" pt_clust_7="13000.00000" pt_clust_8="13000.00000" pt_clust_9="13000.00000"></scales>
<clustering>
<clus scale="   78.781">  5  6 -1 -1</clus>
<clus scale="   82.073">  1  5  2 -1</clus>
<clus scale="   91.414">  7  8 -1 -1</clus>
<clus scale="  134.907">  7  9 -1 -1</clus>
<clus scale="  348.830">  2  5  1 -1</clus>
</clustering>
</event>
<event>
 9    2  0.2147756E-005  0.3527124E+03  0.7546771E-02  0.1082764E+00
          2   -1    0    0  502    0 -0.00000000000E+00  0.00000000000E+00  0.21142102891E+03  0.21142102891E+03  0.00000000000E+00 0. -1.
         21   -1    0    0  501  502  0.00000000000E+00 -0.00000000000E+00 -0.48622029656E+03  0.48622029656E+03  0.00000000000E+00 0.  1.
         24    2    1    2    0    0  0.15883013780E+03 -0.83712018338E+02 -0.28286269023E+03  0.34483681069E+03  0.81648085053E+02 0.  0.
         23    2    1    2    0    0  0.56735154623E+02  0.21733280521E+02  0.55614054722E+02  0.12352123616E+03  0.92050852514E+02 0.  0.
        -11    1    3    3    0    0  0.86181482873E+02 -0.46276330743E+02 -0.22306167207E+03  0.24356776536E+03  0.00000000000E+00 0.  1.
         12    1    3    3    0    0  0.72648654923E+02 -0.37435687595E+02 -0.59801018167E+02  0.10126904533E+03  0.00000000000E+00 0. -1.
        -13    1    4    4    0    0 -0.10656335185E+02 -0.20957319227E+02  0.33154463666E+02  0.40644620428E+02  0.00000000000E+00 0.  1.
         13    1    4    4    0    0  0.67391489808E+02  0.42690599749E+02  0.22459591056E+02  0.82876615736E+02  0.00000000000E+00 0. -1.
          1    1    1    2  501    0 -0.21556529242E+03  0.61978737816E+02 -0.47550632144E+02  0.22928327862E+03  0.00000000000E+00 0. -1.
<scales pt_clust_5="13000.00000" pt_clust_6="13000.00000" pt_clust_7="13000.00000" pt_clust_8="13000.00000" pt_clust_9="13000.00000"></scales>
<clustering>
<clus scale="   81.648">  5  6 -1 -1</clus>
<clus scale="   92.051">  7  8 -1 -1</clus>
<clus scale="  197.234">  1  5  2 -1</clus>
<clus scale="  137.020">  7  9 -1 -1</clus>
<clus scale="  352.712">  2  5  1 -1</clus>
</clustering>
</event>
<event>
 9    2  0.2147756E-005  0.2866643E+03  0.7546771E-02  0.1139200E+00
          2   -1    0    0  502    0 -0.00000000000E+00  0.00000000000E+00  0.20059466719E+03  0.20059466719E+03  0.00000000000E+00 0. -1.
         21   -1    0    0  501  502  0.00000000000E+00 -0.00000000000E+00 -0.46312819665E+03  0.46312819665E+03  0.00000000000E+00 0. -1.
         24    2    1    2    0    0 -0.15905265423E+02 -0.30354300970E+02  0.14270376260E+03  0.16734230678E+03  0.80403499444E+02 0.  0.
         23    2    1    2    0    0  0.12538844030E+03  0.18591638986E+02 -0.14416396747E+03  0.21303587895E+03  0.92374921919E+02 0.  0.
        -13    1    3    3    0    0 -0.48856365477E+02 -0.15548524845E+02  0.84713279980E+02  0.99020406369E+02  0.00000000000E+00 0.  1.
         14    1    3    3    0    0  0.32951100054E+02 -0.14805776125E+02  0.57990482622E+02  0.68321900414E+02  0.00000000000E+00 0. -1.
        -11    1    4    4    0    0  0.61813955154E+02 -0.17604928794E+02 -0.11975889290E+03  0.13591574963E+03  0.00000000000E+00 0.  1.
         11    1    4    4    0    0  0.63574485144E+02  0.36196567780E+02 -0.24405074576E+02  0.77120129314E+02  0.00000000000E+00 0. -1.
          1    1    1    2  501    0 -0.10948317488E+03  0.11762661984E+02 -0.26107332459E+03  0.28334467810E+03  0.00000000000E+00 0. -1.
<scales pt_clust_5="13000.00000" pt_clust_6="13000.00000" pt_clust_7="13000.00000" pt_clust_8="13000.00000" pt_clust_9="13000.00000"></scales>
<clustering>
<clus scale="   80.403">  5  6 -1 -1</clus>
<clus scale="   87.402">  1  5  2 -1</clus>
<clus scale="   92.375">  7  8 -1 -1</clus>
<clus scale="  113.453">  7  9 -1 -1</clus>
<clus scale="  286.664">  2  5  1 -1</clus>
</clustering>
</event>
<event>
 9    2  0.2147756E-005  0.4715348E+03  0.7546771E-02  0.1061006E+00
         21   -1    0    0  501  502  0.00000000000E+00  0.00000000000E+00  0.27627638813E+03  0.27627638813E+03  0.00000000000E+00 0.  1.
         -3   -1    0    0    0  501 -0.00000000000E+00 -0.00000000000E+00 -0.35974309244E+03  0.35974309244E+03  0.00000000000E+00 0.  1.
         24    2    1    2    0    0 -0.86793723744E+02 -0.91640314893E+02 -0.67505075597E+02  0.16421463493E+03  0.80488591118E+02 0.  0.
         23    2    1    2    0    0  0.67533329330E+02 -0.29685493446E+02 -0.21078980820E+03  0.24148130345E+03  0.91863472507E+02 0.  0.
        -11    1    3    3    0    0 -0.47411558639E+02 -0.71434270204E+02 -0.80991794378E+02  0.11794228084E+03  0.00000000000E+00 0.  1.
         12    1    3    3    0    0 -0.39382165105E+02 -0.20206044689E+02  0.13486718781E+02  0.46272354099E+02  0.00000000000E+00 0. -1.
        -11    1    4    4    0    0 -0.63314511316E+01 -0.41026304739E+02 -0.57198965571E+02  0.70675077760E+02  0.00000000000E+00 0. -1.
         11    1    4    4    0    0  0.73864780462E+02  0.11340811292E+02 -0.15359084263E+03  0.17080622569E+03  0.00000000000E+00 0.  1.
         -4    1    1    2    0  502  0.19260394414E+02  0.12132580834E+03  0.19482817949E+03  0.23032354219E+03  0.00000000000E+00 0.  1.
<scales pt_clust_5="13000.00000" pt_clust_6="13000.00000" pt_clust_7="13000.00000" pt_clust_8="13000.00000" pt_clust_9="13000.00000"></scales>
<clustering>
<clus scale="   80.489">  5  6 -1 -1</clus>
<clus scale="   91.863">  7  8 -1 -1</clus>
<clus scale="  122.845">  7  9 -1 -1</clus>
<clus scale="  149.698">  2  5  1 -1</clus>
<clus scale="  471.535">  1  5  2 -1</clus>
</clustering>
</event>
<event>
 9    2  0.2147756E-005  0.4101481E+03  0.7546771E-02  0.1054053E+00
         21   -1    0    0  501  502  0.00000000000E+00  0.00000000000E+00  0.11166258021E+03  0.11166258021E+03  0.00000000000E+00 0.  1.
          2   -1    0    0  502    0 -0.00000000000E+00 -0.00000000000E+00 -0.12477732259E+04  0.12477732259E+04  0.00000000000E+00 0. -1.
         24    2    1    2    0    0 -0.64645292284E+02 -0.25633500418E+03 -0.21232344043E+03  0.34869139661E+03  0.81349852691E+02 0.  0.
         23    2    1    2    0    0 -0.49633253441E+01  0.31343436575E+02 -0.55003137223E+02  0.11060424151E+03  0.90558862188E+02 0.  0.
        -13    1    3    3    0    0 -0.61788516693E+02 -0.21572391809E+03 -0.13656599583E+03  0.26268783917E+03  0.00000000000E+00 0.  1.
         14    1    3    3    0    0 -0.28567755910E+01 -0.40611086091E+02 -0.75757444601E+02  0.86003557442E+02  0.00000000000E+00 0. -1.
        -13    1    4    4    0    0 -0.15902798091E+02 -0.20136756641E+02 -0.51884146265E+02  0.57882230337E+02  0.00000000000E+00 0.  1.
         13    1    4    4    0    0  0.10939472747E+02  0.51480193215E+02 -0.31189909579E+01  0.52722011173E+02  0.00000000000E+00 0. -1.
          1    1    1    2  501    0  0.69608617628E+02  0.22499156760E+03 -0.86878406805E+03  0.90014016800E+03  0.00000000000E+00 0. -1.
<scales pt_clust_5="13000.00000" pt_clust_6="13000.00000" pt_clust_7="13000.00000" pt_clust_8="13000.00000" pt_clust_9="13000.00000"></scales>
<clustering>
<clus scale="   81.350">  5  6 -1 -1</clus>
<clus scale="   90.559">  7  8 -1 -1</clus>
<clus scale="  235.514">  7  9 -1 -1</clus>
<clus scale="  276.595">  2  5  1 -1</clus>
<clus scale="  410.148">  1  5  2 -1</clus>
</clustering>
</event>
<event>
 9    2  0.2147756E-005  0.2064088E+03  0.7546771E-02  0.1176671E+00
         -1   -1    0    0    0  501 -0.00000000000E+00  0.00000000000E+00  0.34663081307E+03  0.34663081307E+03  0.00000000000E+00 0.  1.
         21   -1    0    0  501  502  0.00000000000E+00 -0.00000000000E+00 -0.67053800836E+02  0.67053800836E+02  0.00000000000E+00 0.  1.
         24    2    1    2    0    0 -0.36385440436E+02  0.41667325363E+02  0.74628849825E+02  0.12280945150E+03  0.80328263229E+02 0.  0.
         23    2    1    2    0    0 -0.42257545111E+02 -0.30138930820E+02  0.17141154129E+03  0.20460623398E+03  0.98933003712E+02 0.  0.
        -11    1    3    3    0    0 -0.58026688090E+02  0.20152981670E+02  0.29028177013E+02  0.67940225652E+02  0.00000000000E+00 0.  1.
         12    1    3    3    0    0  0.21641247654E+02  0.21514343693E+02  0.45600672811E+02  0.54869225850E+02  0.00000000000E+00 0. -1.
        -13    1    4    4    0    0 -0.60711712756E+02  0.34615702218E+01  0.54814174469E+02  0.81868725756E+02  0.00000000000E+00 0.  1.
         13    1    4    4    0    0  0.18454167645E+02 -0.33600501042E+02  0.11659736683E+03  0.12273750822E+03  0.00000000000E+00 0. -1.
         -2    1    1    2    0  502  0.78642985547E+02 -0.11528394543E+02  0.33536621116E+02  0.86268928429E+02  0.00000000000E+00 0.  1.
<scales pt_clust_5="13000.00000" pt_clust_6="13000.00000" pt_clust_7="13000.00000" pt_clust_8="13000.00000" pt_clust_9="13000.00000"></scales>
<clustering>
<clus scale="   80.328">  5  6 -1 -1</clus>
<clus scale="   97.533">  1  5  2 -1</clus>
<clus scale="   98.933">  7  8 -1 -1</clus>
<clus scale="   69.866">  7  9 -1 -1</clus>
<clus scale="  206.409">  2  5  1 -1</clus>
</clustering>
</event>
<event>
 9    2  0.2147756E-005  0.2649826E+03  0.7546771E-02  0.1117877E+00
         21   -1    0    0  501  502  0.00000000000E+00  0.00000000000E+00  0.45153621689E+02  0.45153621689E+02  0.00000000000E+00 0.  1.
          4   -1    0    0  502    0 -0.00000000000E+00 -0.00000000000E+00 -0.11336672233E+04  0.11336672233E+04  0.00000000000E+00 0. -1.
         24    2    1    2    0    0 -0.15783430247E+03 -0.61015812993E+02 -0.47601523826E+03  0.51146037109E+03  0.79791025001E+02 0.  0.
         23    2    1    2    0    0  0.10931570243E+02  0.51215959317E+02 -0.36470799058E+03  0.37913049852E+03  0.89361304840E+02 0.  0.
        -11    1    3    3    0    0 -0.10370133879E+03 -0.33919396586E+01 -0.32253578663E+03  0.33881382289E+03  0.00000000000E+00 0.  1.
         12    1    3    3    0    0 -0.54132963677E+02 -0.57623873334E+02 -0.15347945162E+03  0.17264654820E+03  0.00000000000E+00 0. -1.
        -11    1    4    4    0    0 -0.13633871874E+02  0.67089432494E+02 -0.18926439396E+03  0.20126570805E+03  0.00000000000E+00 0. -1.
         11    1    4    4    0    0  0.24565442117E+02 -0.15873473177E+02 -0.17544359662E+03  0.17786479048E+03  0.00000000000E+00 0.  1.
          3    1    1    2  501    0  0.14690273223E+03  0.97998536759E+01 -0.24779037281E+03  0.28822997541E+03  0.00000000000E+00 0. -1.
<scales pt_clust_5="13000.00000" pt_clust_6="13000.00000" pt_clust_7="13000.00000" pt_clust_8="13000.00000" pt_clust_9="13000.00000"></scales>
<clustering>
<clus scale="   79.791">  5  6 -1 -1</clus>
<clus scale="   89.361">  7  8 -1 -1</clus>
<clus scale="  147.229">  7  9 -1 -1</clus>
<clus scale="  187.086">  2  5  1 -1</clus>
<clus scale="  264.983">  1  5  2 -1</clus>
</clustering>
</event>
<event>
 9    2  0.2147756E-005  0.3055919E+03  0.7546771E-02  0.1133750E+00
          2   -1    0    0  502    0 -0.00000000000E+00  0.00000000000E+00  0.13405060788E+04  0.13405060788E+04  0.00000000000E+00 0. -1.
         21   -1    0    0  501  502  0.00000000000E+00 -0.00000000000E+00 -0.28256555429E+02  0.28256555429E+02  0.00000000000E+00 0.  1.
         24    2    1    2    0    0 -0.14762946195E+02  0.38686951537E+01  0.23527664074E+03  0.24927302374E+03  0.80926085453E+02 0.  0.
         23    2    1    2    0    0 -0.12189097019E+03 -0.49407078994E+02  0.60191481753E+03  0.62307425770E+03  0.92852651944E+02 0.  0.
        -11    1    3    3    0    0 -0.35776161047E+00  0.37975472378E+02  0.67407491515E+02  0.77369466898E+02  0.00000000000E+00 0.  1.
         12    1    3    3    0    0 -0.14405184585E+02 -0.34106777224E+02  0.16786914922E+03  0.17190355684E+03  0.00000000000E+00 0. -1.
        -13    1    4    4    0    0 -0.85743264687E+02 -0.74513392820E+02  0.48564034696E+03  0.49874913508E+03  0.00000000000E+00 0.  1.
         13    1    4    4    0    0 -0.36147705500E+02  0.25106313826E+02  0.11627447057E+03  0.12432512262E+03  0.00000000000E+00 0. -1.
          1    1    1    2  501    0  0.13665391638E+03  0.45538383840E+02  0.47505806511E+03  0.49641535280E+03  0.00000000000E+00 0. -1.
<scales pt_clust_5="13000.00000" pt_clust_6="13000.00000" pt_clust_7="13000.00000" pt_clust_8="13000.00000" pt_clust_9="13000.00000"></scales>
<clustering>
<clus scale="   80.926">  5  6 -1 -1</clus>
<clus scale="   82.353">  1  5  2 -1</clus>
<clus scale="   92.853">  7  8 -1 -1</clus>
<clus scale="  138.437">  7  9 -1 -1</clus>
<clus scale="  305.592">  2  5  1 -1</clus>
</clustering>
</event>
<event>
 9    2  0.2147756E-005  0.4202180E+03  0.7546771E-02  0.1078937E+00
         21   -1    0    0  501  502  0.00000000000E+00  0.00000000000E+00  0.21518771783E+03  0.21518771783E+03  0.00000000000E+00 0.  1.
          4   -1    0    0  502    0 -0.00000000000E+00 -0.00000000000E+00 -0.35114051838E+03  0.35114051838E+03  0.00000000000E+00 0. -1.
         24    2    1    2    0    0 -0.93400883818E+02  0.38106544813E+02 -0.24408085283E+02  0.13155775573E+03  0.80844632538E+02 0.  0.
         23    2    1    2    0    0  0.54077690082E+02 -0.50770025999E+02  0.13824343980E+03  0.18158912308E+03  0.91440520940E+02 0.  0.
        -11    1    3    3    0    0 -0.85491363274E+02 -0.38099327162E+01 -0.83638056309E+01  0.85983963775E+02  0.00000000000E+00 0.  1.
         12    1    3    3    0    0 -0.79095205438E+01  0.41916477530E+02 -0.16044279652E+02  0.45573791957E+02  0.00000000000E+00 0. -1.
        -11    1    4    4    0    0  0.30775153511E+02  0.14394840357E+02  0.92730418874E+02  0.98758554500E+02  0.00000000000E+00 0.  1.
         11    1    4    4    0    0  0.23302536571E+02 -0.65164866356E+02  0.45513020925E+02  0.82830568581E+02  0.00000000000E+00 0. -1.
          3    1    1    2  501    0  0.39323193736E+02  0.12663481185E+02 -0.24978815506E+03  0.25318135739E+03  0.00000000000E+00 0. -1.
<scales pt_clust_5="13000.00000" pt_clust_6="13000.00000" pt_clust_7="13000.00000" pt_clust_8="13000.00000" pt_clust_9="13000.00000"></scales>
<clustering>
<clus scale="   80.845">  5  6 -1 -1</clus>
<clus scale="   91.441">  7  8 -1 -1</clus>
<clus scale="   41.312">  7  9 -1 -1</clus>
<clus scale="  129.274">  2  5  1 -1</clus>
<clus scale="  420.218">  1  5  2 -1</clus>
</clustering>
</event>
<event>
 9    2  0.2147756E-005  0.6083805E+03  0.7546771E-02  0.1052127E+00
          2   -1    0    0  502    0 -0.00000000000E+00  0.00000000000E+00  0.19943661627E+04  0.19943661627E+04  0.00000000000E+00 0. -1.
         21   -1    0    0  501  502  0.00000000000E+00 -0.00000000000E+00 -0.63434363064E+02  0.63434363064E+02  0.00000000000E+00 0. -1.
         24    2    1    2    0    0 -0.39230549531E+02  0.33076258720E+02  0.41097249041E+03  0.42060685413E+03  0.73339368459E+02 0.  0.
         23    2    1    2    0    0  0.49428008238E+02  0.14253105886E+03  0.93308947929E+02  0.19973996053E+03  0.91821900068E+02 0.  0.
        -11    1    3    3    0    0 -0.27352772833E+00  0.47509876870E+02  0.24019122400E+03  0.24484502711E+03  0.00000000000E+00 0.  1.
         12    1    3    3    0    0 -0.38957021803E+02 -0.14433618150E+02  0.17078126641E+03  0.17576182702E+03  0.00000000000E+00 0. -1.
        -13    1    4    4    0    0 -0.75104214386E+01  0.95793950981E+02  0.79677885830E+02  0.12482569032E+03  0.00000000000E+00 0. -1.
         13    1    4    4    0    0  0.56938429676E+02  0.46737107878E+02  0.13631062099E+02  0.74914270208E+02  0.00000000000E+00 0.  1.
          1    1    1    2  501    0 -0.10197458707E+02 -0.17560731758E+03  0.14266503613E+04  0.14374537111E+04  0.00000000000E+00 0. -1.
<scales pt_clust_5="13000.00000" pt_clust_6="13000.00000" pt_clust_7="13000.00000" pt_clust_8="13000.00000" pt_clust_9="13000.00000"></scales>
<clustering>
<clus scale="   73.339">  5  6 -1 -1</clus>
<clus scale="   89.508">  1  5  2 -1</clus>
<clus scale="   91.822">  7  8 -1 -1</clus>
<clus scale="  152.631">  7  9 -1 -1</clus>
<clus scale="  608.380">  2  5  1 -1</clus>
</clustering>
</event>
<event>
 9    2  0.3249606E-005  0.3602133E+03  0.7546771E-02  0.1099180E+00
          2   -1    0    0  502    0 -0.00000000000E+00  0.00000000000E+00  0.90986936239E+03  0.90986936239E+03  0.00000000000E+00 0. -1.
         21   -1    0    0  501  502  0.00000000000E+00 -0.00000000000E+00 -0.10242977191E+03  0.10242977191E+03  0.00000000000E+00 0. -1.
         24    2    1    2    0    0 -0.68362659568E+02 -0.57593961586E+02  0.56614398218E+03  0.57873578930E+03  0.80159763120E+02 0.  0.
         23    2    1    2    0    0 -0.61073214217E+02 -0.85175568333E+01  0.26367420234E+03  0.28650832210E+03  0.93597261611E+02 0.  0.
        -13    1    3    3    0    0 -0.17675905296E+02 -0.46150627353E+02  0.12301782707E+03  0.13257339028E+03  0.00000000000E+00 0.  1.
         14    1    3    3    0    0 -0.50686754272E+02 -0.11443334232E+02  0.44312615511E+03  0.44616239902E+03  0.00000000000E+00 0. -1.
        -13    1    4    4    0    0  0.19865553423E+02  0.16703585784E+02  0.82368947435E+02  0.86361412056E+02  0.00000000000E+00 0.  1.
         13    1    4    4    0    0 -0.80938767640E+02 -0.25221142617E+02  0.18130525491E+03  0.20014691004E+03  0.00000000000E+00 0. -1.
          1    1    1    2  501    0  0.12943587379E+03  0.66111518419E+02 -0.22378594046E+02  0.14705502291E+03  0.00000000000E+00 0. -1.
<scales pt_clust_5="13000.00000" pt_clust_6="13000.00000" pt_clust_7="13000.00000" pt_clust_8="13000.00000" pt_clust_9="13000.00000"></scales>
<clustering>
<clus scale="   80.160">  5  6 -1 -1</clus>
<clus scale="   93.597">  7  8 -1 -1</clus>
<clus scale="  120.067">  1  5  2 -1</clus>
<clus scale="  129.309">  7  9 -1 -1</clus>
<clus scale="  360.213">  2  5  1 -1</clus>
</clustering>
</event>
<event>
 9    2  0.2147756E-005  0.5767613E+03  0.7546771E-02  0.1048952E+00
          2   -1    0    0  502    0 -0.00000000000E+00  0.00000000000E+00  0.67903318066E+03  0.67903318066E+03  0.00000000000E+00 0. -1.
         21   -1    0    0  501  502  0.00000000000E+00 -0.00000000000E+00 -0.23585420527E+03  0.23585420527E+03  0.00000000000E+00 0.  1.
         24    2    1    2    0    0  0.80576881121E+02  0.14726146298E+02 -0.76839571667E+02  0.13830974718E+03  0.80720339658E+02 0.  0.
         23    2    1    2    0    0 -0.16531217993E+03  0.15975427029E+03  0.30995179031E+02  0.25049081976E+03  0.94527276212E+02 0.  0.
        -13    1    3    3    0    0  0.87619715474E+02  0.20640634454E+02 -0.86591393871E+02  0.12490524338E+03  0.00000000000E+00 0.  1.
         14    1    3    3    0    0 -0.70428343527E+01 -0.59144881557E+01  0.97518222041E+01  0.13404503801E+02  0.00000000000E+00 0. -1.
        -13    1    4    4    0    0 -0.13316544091E+03  0.67303683327E+02  0.53332735466E+01  0.14930259290E+03  0.00000000000E+00 0.  1.
         13    1    4    4    0    0 -0.32146739027E+02  0.92450586965E+02  0.25661905485E+02  0.10118822685E+03  0.00000000000E+00 0. -1.
          1    1    1    2  501    0  0.84735298813E+02 -0.17448041659E+03  0.48902336803E+03  0.52608681899E+03  0.00000000000E+00 0. -1.
<scales pt_clust_5="13000.00000" pt_clust_6="13000.00000" pt_clust_7="13000.00000" pt_clust_8="13000.00000" pt_clust_9="13000.00000"></scales>
<clustering>
<clus scale="   80.720">  5  6 -1 -1</clus>
<clus scale="   94.527">  7  8 -1 -1</clus>
<clus scale="  115.001">  1  5  2 -1</clus>
<clus scale="  220.008">  7  9 -1 -1</clus>
<clus scale="  576.761">  2  5  1 -1</clus>
</clustering>
</event>
<event>
 9    2  0.2147756E-005  0.1512554E+03  0.7546771E-02  0.1223551E+00
         21   -1    0    0  501  502  0.00000000000E+00  0.00000000000E+00  0.38466738807E+02  0.38466738807E+02  0.00000000000E+00 0. -1.
          2   -1    0    0  502    0 -0.00000000000E+00 -0.00000000000E+00 -0.50443199492E+03  0.50443199492E+03  0.00000000000E+00 0. -1.
         24    2    1    2    0    0  0.39061335732E+02  0.26234665211E+01 -0.32152526642E+03  0.33375499740E+03  0.80506091808E+02 0.  0.
         23    2    1    2    0    0 -0.68814099294E+02  0.11394217298E+02 -0.13006310389E+03  0.17324920688E+03  0.90739562706E+02 0.  0.
        -11    1    3    3    0    0  0.38709407830E+02 -0.11561415425E+02 -0.62998475344E+02  0.74839110610E+02  0.00000000000E+00 0.  1.
         12    1    3    3    0    0  0.35192790153E+00  0.14184881946E+02 -0.25852679107E+03  0.25891588679E+03  0.00000000000E+00 0. -1.
        -11    1    4    4    0    0  0.15811343565E+02  0.21326166505E+02 -0.48535954518E+02  0.55322173169E+02  0.00000000000E+00 0.  1.
         11    1    4    4    0    0 -0.84625442859E+02 -0.99319492067E+01 -0.81527149373E+02  0.11792703371E+03  0.00000000000E+00 0. -1.
          1    1    1    2  501    0  0.29752763562E+02 -0.14017683819E+02 -0.14376885807E+02  0.35894529454E+02  0.00000000000E+00 0. -1.
<scales pt_clust_5="13000.00000" pt_clust_6="13000.00000" pt_clust_7="13000.00000" pt_clust_8="13000.00000" pt_clust_9="13000.00000"></scales>
<clustering>
<clus scale="   80.506">  5  6 -1 -1</clus>
<clus scale="   89.520">  2  5  1 -1</clus>
<clus scale="   90.740">  7  8 -1 -1</clus>
<clus scale="   37.851">  7  9 -1 -1</clus>
<clus scale="  151.255">  1  5  2 -1</clus>
</clustering>
</event>
<event>
 9    2  0.2147756E-005  0.1534067E+03  0.7546771E-02  0.1223307E+00
         21   -1    0    0  501  502  0.00000000000E+00  0.00000000000E+00  0.25843577726E+03  0.25843577726E+03  0.00000000000E+00 0.  1.
          2   -1    0    0  502    0 -0.00000000000E+00 -0.00000000000E+00 -0.48576050966E+03  0.48576050966E+03  0.00000000000E+00 0. -1.
         24    2    1    2    0    0 -0.25201286961E+02  0.89585170302E+01 -0.45861594962E+03  0.46665487845E+03  0.81992843889E+02 0.  0.
         23    2    1    2    0    0  0.54512194216E+02 -0.31061041263E+02  0.14372504191E+03  0.18259149578E+03  0.93522184849E+02 0.  0.
        -13    1    3    3    0    0 -0.13532136232E+02 -0.36699304798E+02 -0.21046660402E+03  0.21407043021E+03  0.00000000000E+00 0.  1.
         14    1    3    3    0    0 -0.11669150729E+02  0.45657821828E+02 -0.24814934560E+03  0.25258444824E+03  0.00000000000E+00 0. -1.
        -11    1    4    4    0    0  0.41216730389E+02  0.27891001085E+02  0.46468998792E+02  0.68088873204E+02  0.00000000000E+00 0. -1.
         11    1    4    4    0    0  0.13295463826E+02 -0.58952042348E+02  0.97256043113E+02  0.11450262258E+03  0.00000000000E+00 0.  1.
          1    1    1    2  501    0 -0.29310907254E+02  0.22102524233E+02  0.87566175308E+02  0.94949912689E+02  0.00000000000E+00 0. -1.
<scales pt_clust_5="13000.00000" pt_clust_6="13000.00000" pt_clust_7="13000.00000" pt_clust_8="13000.00000" pt_clust_9="13000.00000"></scales>
<clustering>
<clus scale="   81.993">  5  6 -1 -1</clus>
<clus scale="   86.245">  2  5  1 -1</clus>
<clus scale="   93.522">  7  8 -1 -1</clus>
<clus scale="   40.804">  7  9 -1 -1</clus>
<clus scale="  153.407">  1  5  2 -1</clus>
</clustering>
</event>
<event>
 9    2  0.2147756E-005  0.1945095E+03  0.7546771E-02  0.1190136E+00
          2   -1    0    0  502    0 -0.00000000000E+00  0.00000000000E+00  0.69702640984E+02  0.69702640984E+02  0.00000000000E+00 0. -1.
         21   -1    0    0  501  502  0.00000000000E+00 -0.00000000000E+00 -0.30943415597E+03  0.30943415597E+03  0.00000000000E+00 0.  1.
         24    2    1    2    0    0  0.29985512561E+02 -0.68356819057E+01 -0.25889966836E+02  0.90065618855E+02  0.80595705881E+02 0.  0.
         23    2    1    2    0    0  0.11932395685E+02 -0.49588081916E+00 -0.22568009176E+03  0.24490089444E+03  0.94352086980E+02 0.  0.
        -13    1    3    3    0    0  0.22998584768E+01  0.35298689976E+02 -0.60556681467E+01  0.35888131461E+02  0.00000000000E+00 0.  1.
         14    1    3    3    0    0  0.27685654084E+02 -0.42134371882E+02 -0.19834298689E+02  0.54177487395E+02  0.00000000000E+00 0. -1.
        -11    1    4    4    0    0  0.51724175548E+02 -0.12629598539E+02 -0.11762730773E+03  0.12911653891E+03  0.00000000000E+00 0. -1.
         11    1    4    4    0    0 -0.39791779863E+02  0.12133717719E+02 -0.10805278403E+03  0.11578435554E+03  0.00000000000E+00 0.  1.
          1    1    1    2  501    0 -0.41917908246E+02  0.73315627248E+01  0.11838543607E+02  0.44170283658E+02  0.00000000000E+00 0. -1.
<scales pt_clust_5="13000.00000" pt_clust_6="13000.00000" pt_clust_7="13000.00000" pt_clust_8="13000.00000" pt_clust_9="13000.00000"></scales>
<clustering>
<clus scale="   80.596">  5  6 -1 -1</clus>
<clus scale="   86.264">  1  5  2 -1</clus>
<clus scale="   94.352">  7  8 -1 -1</clus>
<clus scale="   19.721">  7  9 -1 -1</clus>
<clus scale="  194.509">  2  5  1 -1</clus>
</clustering>
</event>
<event>
 9    2  0.2147756E-005  0.2138056E+03  0.7546771E-02  0.1153813E+00
          2   -1    0    0  502    0 -0.00000000000E+00  0.00000000000E+00  0.10350104594E+03  0.10350104594E+03  0.00000000000E+00 0. -1.
         21   -1    0    0  501  502  0.00000000000E+00 -0.00000000000E+00 -0.32257344989E+03  0.32257344989E+03  0.00000000000E+00 0. -1.
         24    2    1    2    0    0 -0.14069042946E+02  0.12618951185E+03 -0.63608885133E+02  0.16172297891E+03  0.77372480703E+02 0.  0.
         23    2    1    2    0    0 -0.19341207811E+02 -0.22844768002E+02 -0.10967535417E+03  0.14648321347E+03  0.92372521730E+02 0.  0.
        -11    1    3    3    0    0  0.80287251367E+01  0.65179779473E+02 -0.70644038178E+02  0.96454363352E+02  0.00000000000E+00 0.  1.
         12    1    3    3    0    0 -0.22097768083E+02  0.61009732375E+02  0.70351530449E+01  0.65268615559E+02  0.00000000000E+00 0. -1.
        -11    1    4    4    0    0 -0.40222903546E+02  0.68620903691E+01 -0.12392469201E+02  0.42644384704E+02  0.00000000000E+00 0.  1.
         11    1    4    4    0    0  0.20881695734E+02 -0.29706858371E+02 -0.97282884970E+02  0.10383882876E+03  0.00000000000E+00 0. -1.
          1    1    1    2  501    0  0.33410250757E+02 -0.10334474385E+03 -0.45788164648E+02  0.11786830345E+03  0.00000000000E+00 0. -1.
<scales pt_clust_5="13000.00000" pt_clust_6="13000.00000" pt_clust_7="13000.00000" pt_clust_8="13000.00000" pt_clust_9="13000.00000"></scales>
<clustering>
<clus scale="   77.372">  5  6 -1 -1</clus>
<clus scale="   92.373">  7  8 -1 -1</clus>
<clus scale="  108.611">  7  9 -1 -1</clus>
<clus scale="  148.688">  1  5  2 -1</clus>
<clus scale="  213.806">  2  5  1 -1</clus>
</clustering>
</event>
<event>
 9    2  0.2147756E-005  0.3239176E+03  0.7546771E-02  0.1117425E+00
          2   -1    0    0  502    0 -0.00000000000E+00  0.00000000000E+00  0.11089537762E+04  0.11089537762E+04  0.00000000000E+00 0. -1.
         21   -1    0    0  501  502  0.00000000000E+00 -0.00000000000E+00 -0.43101252408E+02  0.43101252408E+02  0.00000000000E+00 0. -1.
         24    2    1    2    0    0 -0.66479311909E+02 -0.52227834143E+01  0.37482542113E+03  0.38887675553E+03  0.79273313853E+02 0.  0.
         23    2    1    2    0    0 -0.68939137306E+02  0.91034834816E+02  0.20635913822E+03  0.25268351276E+03  0.90691333061E+02 0.  0.
        -13    1    3    3    0    0  0.39662785049E+01 -0.28977408654E+02  0.10620410028E+03  0.11015776184E+03  0.00000000000E+00 0.  1.
         14    1    3    3    0    0 -0.70445590414E+02  0.23754625239E+02  0.26862132085E+03  0.27871899369E+03  0.00000000000E+00 0. -1.
        -13    1    4    4    0    0  0.16549129491E+02  0.45862970914E+02  0.60762139082E+02  0.77905861999E+02  0.00000000000E+00 0.  1.
         13    1    4    4    0    0 -0.85488266797E+02  0.45171863903E+02  0.14559699914E+03  0.17477765077E+03  0.00000000000E+00 0. -1.
          1    1    1    2  501    0  0.13541844922E+03 -0.85812051402E+02  0.48466796448E+03  0.51049476035E+03  0.00000000000E+00 0. -1.
<scales pt_clust_5="13000.00000" pt_clust_6="13000.00000" pt_clust_7="13000.00000" pt_clust_8="13000.00000" pt_clust_9="13000.00000"></scales>
<clustering>
<clus scale="   79.273">  5  6 -1 -1</clus>
<clus scale="   90.691">  7  8 -1 -1</clus>
<clus scale="  103.591">  1  5  2 -1</clus>
<clus scale="  126.792">  7  9 -1 -1</clus>
<clus scale="  323.918">  2  5  1 -1</clus>
</clustering>
</event>
<event>
 9    2  0.2147756E-005  0.3316428E+03  0.7546771E-02  0.1122950E+00
          2   -1    0    0  502    0 -0.00000000000E+00  0.00000000000E+00  0.21078855505E+03  0.21078855505E+03  0.00000000000E+00 0. -1.
         21   -1    0    0  501  502  0.00000000000E+00 -0.00000000000E+00 -0.58710877476E+03  0.58710877476E+03  0.00000000000E+00 0. -1.
         24    2    1    2    0    0 -0.24119984653E+02  0.23787022257E+02  0.15223948265E+03  0.17390827684E+03  0.76939148619E+02 0.  0.
         23    2    1    2    0    0 -0.57697117139E+01  0.11139671411E+03 -0.10320069526E+03  0.17666554426E+03  0.90098909759E+02 0.  0.
        -11    1    3    3    0    0 -0.38004816408E+02 -0.16505805254E+02  0.76654853958E+02  0.87136526856E+02  0.00000000000E+00 0.  1.
         12    1    3    3    0    0  0.13884831755E+02  0.40292827510E+02  0.75584628690E+02  0.86771749987E+02  0.00000000000E+00 0. -1.
        -11    1    4    4    0    0  0.18550886017E+02  0.11292612118E+03 -0.10021123897E+03  0.15211422232E+03  0.00000000000E+00 0. -1.
         11    1    4    4    0    0 -0.24320597731E+02 -0.15294070772E+01 -0.29894562942E+01  0.24551321938E+02  0.00000000000E+00 0.  1.
          1    1    1    2  501    0  0.29889696367E+02 -0.13518373636E+03 -0.42535900710E+03  0.44732350871E+03  0.00000000000E+00 0. -1.
<scales pt_clust_5="13000.00000" pt_clust_6="13000.00000" pt_clust_7="13000.00000" pt_clust_8="13000.00000" pt_clust_9="13000.00000"></scales>
<clustering>
<clus scale="   76.939">  5  6 -1 -1</clus>
<clus scale="   84.067">  1  5  2 -1</clus>
<clus scale="   90.099">  7  8 -1 -1</clus>
<clus scale="  131.972">  7  9 -1 -1</clus>
<clus scale="  331.643">  2  5  1 -1</clus>
</clustering>
</event>
<event>
 9    2  0.2147756E-005  0.3622724E+03  0.7546771E-02  0.1101284E+00
          2   -1    0    0  502    0 -0.00000000000E+00  0.00000000000E+00  0.63607528607E+02  0.63607528607E+02  0.00000000000E+00 0. -1.
         21   -1    0    0  501  502  0.00000000000E+00 -0.00000000000E+00 -0.93807476944E+03  0.93807476944E+03  0.00000000000E+00 0. -1.
         24    2    1    2    0    0 -0.17594327017E+02  0.75759394067E+02 -0.32369564216E+03  0.34244742746E+03  0.80264099619E+02 0.  0.
         23    2    1    2    0    0  0.10441521421E+03 -0.15607267985E+03 -0.19878804249E+03  0.28791221554E+03  0.90086290133E+02 0.  0.
        -13    1    3    3    0    0  0.55953272950E+01  0.76812291548E+02 -0.16531416742E+03  0.18237381876E+03  0.00000000000E+00 0.  1.
         14    1    3    3    0    0 -0.23189654312E+02 -0.10528974814E+01 -0.15838147474E+03  0.16007360870E+03  0.00000000000E+00 0. -1.
        -13    1    4    4    0    0  0.71903062609E+02 -0.77025678520E+02 -0.50712792498E+02  0.11693927008E+03  0.00000000000E+00 0. -1.
         13    1    4    4    0    0  0.32512151598E+02 -0.79047001326E+02 -0.14807524999E+03  0.17097294546E+03  0.00000000000E+00 0.  1.
          1    1    1    2  501    0 -0.86820887190E+02  0.80313285779E+02 -0.35198355619E+03  0.37132265505E+03  0.00000000000E+00 0. -1.
<scales pt_clust_5="13000.00000" pt_clust_6="13000.00000" pt_clust_7="13000.00000" pt_clust_8="13000.00000" pt_clust_9="13000.00000"></scales>
<clustering>
<clus scale="   80.264">  5  6 -1 -1</clus>
<clus scale="   90.086">  7  8 -1 -1</clus>
<clus scale="  111.765">  1  5  2 -1</clus>
<clus scale="  129.980">  7  9 -1 -1</clus>
<clus scale="  362.272">  2  5  1 -1</clus>
</clustering>
</event>
<event>
 9    2  0.2147756E-005  0.2007325E+03  0.7546771E-02  0.1186680E+00
         21   -1    0    0  501  502  0.00000000000E+00  0.00000000000E+00  0.43361670325E+03  0.43361670325E+03  0.00000000000E+00 0.  1.
         -3   -1    0    0    0  501 -0.00000000000E+00 -0.00000000000E+00 -0.50500162220E+02  0.50500162220E+02  0.00000000000E+00 0.  1.
         24    2    1    2    0    0  0.13786417431E+02  0.23674317884E+02  0.60369710941E+02  0.10403915830E+03  0.80181705076E+02 0.  0.
         23    2    1    2    0    0  0.21906544298E+02 -0.42051823151E+02  0.32396627187E+03  0.33991295576E+03  0.91314947680E+02 0.  0.
        -11    1    3    3    0    0 -0.30428162556E+01  0.51390474604E+02  0.29842798713E+02  0.59504892621E+02  0.00000000000E+00 0.  1.
         12    1    3    3    0    0  0.16829233686E+02 -0.27716156721E+02  0.30526912228E+02  0.44534265684E+02  0.00000000000E+00 0. -1.
        -11    1    4    4    0    0  0.55842058897E+02 -0.25909867668E+02  0.24258738039E+03  0.25027643499E+03  0.00000000000E+00 0.  1.
         11    1    4    4    0    0 -0.33935514598E+02 -0.16141955483E+02  0.81378891478E+02  0.89636520772E+02  0.00000000000E+00 0. -1.
         -4    1    1    2    0  502 -0.35692961729E+02  0.18377505267E+02 -0.12194417859E+01  0.40164751401E+02  0.00000000000E+00 0.  1.
<scales pt_clust_5="13000.00000" pt_clust_6="13000.00000" pt_clust_7="13000.00000" pt_clust_8="13000.00000" pt_clust_9="13000.00000"></scales>
<clustering>
<clus scale="   80.182">  5  6 -1 -1</clus>
<clus scale="   84.733">  2  5  1 -1</clus>
<clus scale="   91.315">  7  8 -1 -1</clus>
<clus scale="   43.824">  7  9 -1 -1</clus>
<clus scale="  200.733">  1  5  2 -1</clus>
</clustering>
</event>
<event>
 9    2  0.2147756E-005  0.1587032E+03  0.7546771E-02  0.1211729E+00
          2   -1    0    0  502    0 -0.00000000000E+00  0.00000000000E+00  0.13254304432E+04  0.13254304432E+04  0.00000000000E+00 0. -1.
         21   -1    0    0  501  502  0.00000000000E+00 -0.00000000000E+00 -0.22472109962E+02  0.22472109962E+02  0.00000000000E+00 0. -1.
         24    2    1    2    0    0  0.19982163248E+02 -0.42707097601E+02  0.10085823892E+04  0.10134718236E+04  0.87541524468E+02 0.  0.
         23    2    1    2    0    0  0.27104272435E+02  0.52180633654E+01  0.20863659713E+03  0.22967484317E+03  0.91975182273E+02 0.  0.
        -11    1    3    3    0    0  0.21989221859E+02  0.47022528716E+01  0.66573408743E+02  0.70268455310E+02  0.00000000000E+00 0.  1.
         12    1    3    3    0    0 -0.20070586117E+01 -0.47409350473E+02  0.94200898043E+03  0.94320336831E+03  0.00000000000E+00 0. -1.
        -13    1    4    4    0    0 -0.27318121906E+02  0.25823576457E+02  0.89974103255E+02  0.97511415445E+02  0.00000000000E+00 0.  1.
         13    1    4    4    0    0  0.54422394342E+02 -0.20605513092E+02  0.11866249388E+03  0.13216342773E+03  0.00000000000E+00 0. -1.
          1    1    1    2  501    0 -0.47086435683E+02  0.37489034236E+02  0.85739346897E+02  0.10475588632E+03  0.00000000000E+00 0. -1.
<scales pt_clust_5="13000.00000" pt_clust_6="13000.00000" pt_clust_7="13000.00000" pt_clust_8="13000.00000" pt_clust_9="13000.00000"></scales>
<clustering>
<clus scale="   87.542">  5  6 -1 -1</clus>
<clus scale="   91.975">  7  8 -1 -1</clus>
<clus scale="   60.188">  7  9 -1 -1</clus>
<clus scale="   99.432">  1  5  2 -1</clus>
<clus scale="  158.703">  2  5  1 -1</clus>
</clustering>
</event>
<event>
 9    2  0.2649995E-005  0.4884342E+03  0.7546771E-02  0.1031196E+00
         21   -1    0    0  501  502  0.00000000000E+00  0.00000000000E+00  0.12030769353E+03  0.12030769353E+03  0.00000000000E+00 0. -1.
          2   -1    0    0  502    0 -0.00000000000E+00 -0.00000000000E+00 -0.16499616395E+04  0.16499616395E+04  0.00000000000E+00 0. -1.
         24    2    1    2    0    0 -0.30231273142E+03 -0.60299631910E+02 -0.26131720029E+03  0.41113504183E+03  0.75606284564E+02 0.  0.
         23    2    1    2    0    0 -0.53731807219E+02  0.75685213948E+02 -0.37099802481E+03  0.39361825840E+03  0.93168880078E+02 0.  0.
        -11    1    3    3    0    0 -0.40766287594E+02  0.17638151032E+02 -0.39700239349E+02  0.59574353378E+02  0.00000000000E+00 0.  1.
         12    1    3    3    0    0 -0.26154644383E+03 -0.77937782942E+02 -0.22161696094E+03  0.35156068845E+03  0.00000000000E+00 0. -1.
        -11    1    4    4    0    0 -0.15979452577E+02  0.85782776611E+02 -0.30164943899E+03  0.31401657872E+03  0.00000000000E+00 0.  1.
         11    1    4    4    0    0 -0.37752354641E+02 -0.10097562663E+02 -0.69348585828E+02  0.79601679687E+02  0.00000000000E+00 0. -1.
          1    1    1    2  501    0  0.35604453864E+03 -0.15385582037E+02 -0.89733872089E+03  0.96551603283E+03  0.00000000000E+00 0. -1.
<scales pt_clust_5="13000.00000" pt_clust_6="13000.00000" pt_clust_7="13000.00000" pt_clust_8="13000.00000" pt_clust_9="13000.00000"></scales>
<clustering>
<clus scale="   75.606">  5  6 -1 -1</clus>
<clus scale="   93.169">  7  8 -1 -1</clus>
<clus scale="  317.404">  2  5  1 -1</clus>
<clus scale="  153.170">  7  9 -1 -1</clus>
<clus scale="  488.434">  1  5  2 -1</clus>
</clustering>
</event>
<event>
 9    2  0.2147756E-005  0.2413642E+03  0.7546771E-02  0.1153460E+00
         21   -1    0    0  501  502  0.00000000000E+00  0.00000000000E+00  0.43077337111E+02  0.43077337111E+02  0.00000000000E+00 0.  1.
          2   -1    0    0  502    0 -0.00000000000E+00 -0.00000000000E+00 -0.69333777842E+03  0.69333777842E+03  0.00000000000E+00 0. -1.
         24    2    1    2    0    0  0.65402919584E+02  0.84613104249E+01 -0.18951715665E+03  0.21627948838E+03  0.80690326351E+02 0.  0.
         23    2    1    2    0    0 -0.61654031180E+02 -0.72209142651E+02 -0.13614147832E+03  0.18931215011E+03  0.91045088930E+02 0.  0.
        -13    1    3    3    0    0  0.77033742722E+02  0.26636595376E+02 -0.16162653638E+03  0.18101614014E+03  0.00000000000E+00 0.  1.
         14    1    3    3    0    0 -0.11630823138E+02 -0.18175284951E+02 -0.27890620269E+02  0.35263348237E+02  0.00000000000E+00 0. -1.
        -13    1    4    4    0    0 -0.77347395914E+02 -0.24462647039E+02 -0.88613282238E+02  0.12013889688E+03  0.00000000000E+00 0.  1.
         13    1    4    4    0    0  0.15693364734E+02 -0.47746495611E+02 -0.47528196079E+02  0.69173253230E+02  0.00000000000E+00 0. -1.
          1    1    1    2  501    0 -0.37488884045E+01  0.63747832226E+02 -0.32460180635E+03  0.33082347704E+03  0.00000000000E+00 0. -1.
<scales pt_clust_5="13000.00000" pt_clust_6="13000.00000" pt_clust_7="13000.00000" pt_clust_8="13000.00000" pt_clust_9="13000.00000"></scales>
<clustering>
<clus scale="   80.690">  5  6 -1 -1</clus>
<clus scale="   91.045">  7  8 -1 -1</clus>
<clus scale="   63.858">  7  9 -1 -1</clus>
<clus scale="  104.212">  2  5  1 -1</clus>
<clus scale="  241.364">  1  5  2 -1</clus>
</clustering>
</event>
<event>
 9    2  0.2147756E-005  0.1872079E+03  0.7546771E-02  0.1163745E+00
         21   -1    0    0  501  502  0.00000000000E+00  0.00000000000E+00  0.39708361949E+02  0.39708361949E+02  0.00000000000E+00 0.  1.
          2   -1    0    0  502    0 -0.00000000000E+00 -0.00000000000E+00 -0.11634410500E+04  0.11634410500E+04  0.00000000000E+00 0. -1.
         24    2    1    2    0    0 -0.11178258747E+03 -0.10961908352E+03 -0.87151991405E+03  0.88905058367E+03  0.79701250946E+02 0.  0.
         23    2    1    2    0    0  0.10119755772E+03  0.86830937391E+02 -0.20342269655E+03  0.25921883086E+03  0.89627291726E+02 0.  0.
        -11    1    3    3    0    0 -0.14537504737E+02 -0.17069612786E+02 -0.33275829660E+02  0.40124700176E+02  0.00000000000E+00 0.  1.
         12    1    3    3    0    0 -0.97245082733E+02 -0.92549470738E+02 -0.83824408439E+03  0.84892588350E+03  0.00000000000E+00 0. -1.
        -13    1    4    4    0    0  0.14846006154E+02 -0.18454177266E+02 -0.40169044897E+02  0.46631670839E+02  0.00000000000E+00 0. -1.
         13    1    4    4    0    0  0.86351551565E+02  0.10528511466E+03 -0.16325365165E+03  0.21258716002E+03  0.00000000000E+00 0.  1.
          1    1    1    2  501    0  0.10585029751E+02  0.22788146133E+02 -0.48790077402E+02  0.54879997376E+02  0.00000000000E+00 0. -1.
<scales pt_clust_5="13000.00000" pt_clust_6="13000.00000" pt_clust_7="13000.00000" pt_clust_8="13000.00000" pt_clust_9="13000.00000"></scales>
<clustering>
<clus scale="   79.701">  5  6 -1 -1</clus>
<clus scale="   89.627">  7  8 -1 -1</clus>
<clus scale="   25.127">  7  9 -1 -1</clus>
<clus scale="  175.681">  2  5  1 -1</clus>
<clus scale="  187.208">  1  5  2 -1</clus>
</clustering>
</event>
<event>
 9    2  0.2147756E-005  0.2003630E+03  0.7546771E-02  0.1181062E+00
         21   -1    0    0  501  502  0.00000000000E+00  0.00000000000E+00  0.24392865948E+03  0.24392865948E+03  0.00000000000E+00 0. -1.
         -3   -1    0    0    0  501 -0.00000000000E+00 -0.00000000000E+00 -0.15297782194E+03  0.15297782194E+03  0.00000000000E+00 0.  1.
         24    2    1    2    0    0  0.17068019952E+02 -0.51058898915E+02 -0.86198312120E+02  0.12946085873E+03  0.80197484171E+02 0.  0.
         23    2    1    2    0    0  0.40163456828E+02  0.67621964020E+01  0.24725403822E+02  0.98713177441E+02  0.86452965488E+02 0.  0.
        -13    1    3    3    0    0  0.12849785313E+02 -0.54633436724E+02 -0.99955400405E+02  0.11463425082E+03  0.00000000000E+00 0.  1.
         14    1    3    3    0    0  0.42182346389E+01  0.35745378098E+01  0.13757088285E+02  0.14826607910E+02  0.00000000000E+00 0. -1.
        -11    1    4    4    0    0  0.63094919410E+02  0.21639411862E+02  0.93605494994E+01  0.67356164440E+02  0.00000000000E+00 0.  1.
         11    1    4    4    0    0 -0.22931462582E+02 -0.14877215460E+02  0.15364854323E+02  0.31357013001E+02  0.00000000000E+00 0. -1.
         -4    1    1    2    0  502 -0.57231476780E+02  0.44296702513E+02  0.15242374583E+03  0.16873244525E+03  0.00000000000E+00 0.  1.
<scales pt_clust_5="13000.00000" pt_clust_6="13000.00000" pt_clust_7="13000.00000" pt_clust_8="13000.00000" pt_clust_9="13000.00000"></scales>
<clustering>
<clus scale="   80.197">  5  6 -1 -1</clus>
<clus scale="   86.453">  7  8 -1 -1</clus>
<clus scale="   72.372">  7  9 -1 -1</clus>
<clus scale="   96.592">  2  5  1 -1</clus>
<clus scale="  200.363">  1  5  2 -1</clus>
</clustering>
</event>
<event>
 9    2  0.2147756E-005  0.2661563E+03  0.7546771E-02  0.1126848E+00
          2   -1    0    0  502    0 -0.00000000000E+00  0.00000000000E+00  0.38053023445E+03  0.38053023445E+03  0.00000000000E+00 0. -1.
         21   -1    0    0  501  502  0.00000000000E+00 -0.00000000000E+00 -0.11303594611E+03  0.11303594611E+03  0.00000000000E+00 0. -1.
         24    2    1    2    0    0 -0.79849215961E+02 -0.94435961086E+02  0.11183748094E+03  0.18523483800E+03  0.80686275345E+02 0.  0.
         23    2    1    2    0    0  0.10519011430E+03 -0.25905551453E+02  0.65477525716E+02  0.15583037991E+03  0.90883129267E+02 0.  0.
        -13    1    3    3    0    0  0.14736550343E+02 -0.25056424122E+02  0.12997857529E+02  0.31842339834E+02  0.00000000000E+00 0.  1.
         14    1    3    3    0    0 -0.94585766304E+02 -0.69379536964E+02  0.98839623413E+02  0.15339249816E+03  0.00000000000E+00 0. -1.
        -11    1    4    4    0    0  0.10814309519E+03 -0.40363916555E+01  0.75132972605E+02  0.13174287483E+03  0.00000000000E+00 0. -1.
         11    1    4    4    0    0 -0.29529808899E+01 -0.21869159798E+02 -0.96554468889E+01  0.24087505081E+02  0.00000000000E+00 0.  1.
          1    1    1    2  501    0 -0.25340898339E+02  0.12034151254E+03  0.90179281682E+02  0.15250096266E+03  0.00000000000E+00 0. -1.
<scales pt_clust_5="13000.00000" pt_clust_6="13000.00000" pt_clust_7="13000.00000" pt_clust_8="13000.00000" pt_clust_9="13000.00000"></scales>
<clustering>
<clus scale="   80.686">  5  6 -1 -1</clus>
<clus scale="   90.883">  7  8 -1 -1</clus>
<clus scale="  122.981">  7  9 -1 -1</clus>
<clus scale="  147.663">  1  5  2 -1</clus>
<clus scale="  266.156">  2  5  1 -1</clus>
</clustering>
</event>
<event>
 9    2  0.2147756E-005  0.1983202E+03  0.7546771E-02  0.1190705E+00
         21   -1    0    0  501  502  0.00000000000E+00  0.00000000000E+00  0.66431827748E+02  0.66431827748E+02  0.00000000000E+00 0. -1.
          4   -1    0    0  502    0 -0.00000000000E+00 -0.00000000000E+00 -0.29720136148E+03  0.29720136148E+03  0.00000000000E+00 0. -1.
         24    2    1    2    0    0 -0.31729015899E+01 -0.23675738260E+02 -0.88578091590E+02  0.11960593442E+03  0.76739125305E+02 0.  0.
         23    2    1    2    0    0  0.20764486201E+02 -0.62437855809E+02 -0.54075877272E+02  0.11957096648E+03  0.83924762710E+02 0.  0.
        -13    1    3    3    0    0  0.27934863857E+02  0.13287120932E+02 -0.44587887929E+02  0.54267706340E+02  0.00000000000E+00 0.  1.
         14    1    3    3    0    0 -0.31107765447E+02 -0.36962859192E+02 -0.43990203661E+02  0.65338228082E+02  0.00000000000E+00 0. -1.
        -13    1    4    4    0    0 -0.28160317531E+02 -0.47401624065E+02 -0.32702267209E+02  0.64104256708E+02  0.00000000000E+00 0.  1.
         13    1    4    4    0    0  0.48924803733E+02 -0.15036231744E+02 -0.21373610064E+02  0.55466709768E+02  0.00000000000E+00 0. -1.
          3    1    1    2  501    0 -0.17591584611E+02  0.86113594069E+02 -0.88115564872E+02  0.12445628833E+03  0.00000000000E+00 0. -1.
<scales pt_clust_5="13000.00000" pt_clust_6="13000.00000" pt_clust_7="13000.00000" pt_clust_8="13000.00000" pt_clust_9="13000.00000"></scales>
<clustering>
<clus scale="   76.739">  5  6 -1 -1</clus>
<clus scale="   80.371">  2  5  1 -1</clus>
<clus scale="   83.925">  7  8 -1 -1</clus>
<clus scale="   75.598">  7  9 -1 -1</clus>
<clus scale="  198.320">  1  5  2 -1</clus>
</clustering>
</event>
<event>
 9    2  0.2147756E-005  0.2031954E+03  0.7546771E-02  0.1186741E+00
         21   -1    0    0  501  502  0.00000000000E+00  0.00000000000E+00  0.10718883965E+04  0.10718883965E+04  0.00000000000E+00 0. -1.
          2   -1    0    0  502    0 -0.00000000000E+00 -0.00000000000E+00 -0.27125056725E+02  0.27125056725E+02  0.00000000000E+00 0. -1.
         24    2    1    2    0    0  0.92075174491E+01 -0.83270974645E+01  0.64927075003E+03  0.65437567573E+03  0.80628153923E+02 0.  0.
         23    2    1    2    0    0 -0.54732257735E+02 -0.17762891256E+02  0.11190922125E+03  0.15624097381E+03  0.92609004720E+02 0.  0.
        -11    1    3    3    0    0 -0.38086322028E-01  0.33220931716E+02  0.16979588084E+03  0.17301523894E+03  0.00000000000E+00 0.  1.
         12    1    3    3    0    0  0.92456037711E+01 -0.41548029180E+02  0.47947486919E+03  0.48136043679E+03  0.00000000000E+00 0. -1.
        -13    1    4    4    0    0 -0.34573841821E+02  0.34781769352E+02  0.72525962424E+02  0.87550769518E+02  0.00000000000E+00 0.  1.
         13    1    4    4    0    0 -0.20158415914E+02 -0.52544660608E+02  0.39383258822E+02  0.68690204294E+02  0.00000000000E+00 0. -1.
          1    1    1    2  501    0  0.45524740286E+02  0.26089988720E+02  0.28358336849E+03  0.28839680368E+03  0.00000000000E+00 0. -1.
<scales pt_clust_5="13000.00000" pt_clust_6="13000.00000" pt_clust_7="13000.00000" pt_clust_8="13000.00000" pt_clust_9="13000.00000"></scales>
<clustering>
<clus scale="   80.628">  5  6 -1 -1</clus>
<clus scale="   81.578">  2  5  1 -1</clus>
<clus scale="   92.609">  7  8 -1 -1</clus>
<clus scale="   52.860">  7  9 -1 -1</clus>
<clus scale="  203.195">  1  5  2 -1</clus>
</clustering>
</event>
<event>
 9    2  0.2147756E-005  0.1590450E+03  0.7546771E-02  0.1217371E+00
         -1   -1    0    0    0  501 -0.00000000000E+00  0.00000000000E+00  0.14593370049E+03  0.14593370049E+03  0.00000000000E+00 0.  1.
         21   -1    0    0  501  502  0.00000000000E+00 -0.00000000000E+00 -0.14768975574E+03  0.14768975574E+03  0.00000000000E+00 0. -1.
         24    2    1    2    0    0  0.24937928281E+02  0.91592456393E+01  0.76520087860E+02  0.11635960237E+03  0.83537064653E+02 0.  0.
         23    2    1    2    0    0 -0.40732601391E+02 -0.38047599790E+02 -0.13935561856E+02  0.10498855309E+03  0.87872815644E+02 0.  0.
        -11    1    3    3    0    0  0.33695702465E+02 -0.29416934150E+02  0.56384412500E+02  0.71971927530E+02  0.00000000000E+00 0.  1.
         12    1    3    3    0    0 -0.87577741838E+01  0.38576179790E+02  0.20135675360E+02  0.44387674844E+02  0.00000000000E+00 0. -1.
        -13    1    4    4    0    0  0.28025309912E+02 -0.10542657927E+02 -0.23790664369E+01  0.30037070246E+02  0.00000000000E+00 0.  1.
         13    1    4    4    0    0 -0.68757911304E+02 -0.27504941863E+02 -0.11556495419E+02  0.74951482841E+02  0.00000000000E+00 0. -1.
         -2    1    1    2    0  502  0.15794673111E+02  0.28888354150E+02 -0.64340581262E+02  0.72275300770E+02  0.00000000000E+00 0.  1.
<scales pt_clust_5="13000.00000" pt_clust_6="13000.00000" pt_clust_7="13000.00000" pt_clust_8="13000.00000" pt_clust_9="13000.00000"></scales>
<clustering>
<clus scale="   83.537">  5  6 -1 -1</clus>
<clus scale="   87.660">  1  5  2 -1</clus>
<clus scale="   87.873">  7  8 -1 -1</clus>
<clus scale="   34.556">  7  9 -1 -1</clus>
<clus scale="  159.045">  2  5  1 -1</clus>
</clustering>
</event>
<event>
 9    2  0.2147756E-005  0.2821959E+03  0.7546771E-02  0.1144263E+00
         21   -1    0    0  501  502  0.00000000000E+00  0.00000000000E+00  0.21509152896E+03  0.21509152896E+03  0.00000000000E+00 0. -1.
          2   -1    0    0  502    0 -0.00000000000E+00 -0.00000000000E+00 -0.68189804086E+03  0.68189804086E+03  0.00000000000E+00 0. -1.
         24    2    1    2    0    0  0.35533240180E+01 -0.82049504831E+01 -0.58532256973E+03  0.59091674746E+03  0.80623473413E+02 0.  0.
         23    2    1    2    0    0 -0.25304517207E+02  0.32419588191E+02 -0.64664725948E+02  0.12002266076E+03  0.92371878972E+02 0.  0.
        -11    1    3    3    0    0 -0.50630534174E+01  0.19791168382E+02 -0.41008568334E+02  0.45815145232E+02  0.00000000000E+00 0.  1.
         12    1    3    3    0    0  0.86163774354E+01 -0.27996118865E+02 -0.54431400140E+03  0.54510160223E+03  0.00000000000E+00 0. -1.
        -13    1    4    4    0    0  0.28823386444E+01  0.59382926104E+02 -0.52075388542E+02  0.79034713137E+02  0.00000000000E+00 0.  1.
         13    1    4    4    0    0 -0.28186855851E+02 -0.26963337913E+02 -0.12589337406E+02  0.40987947625E+02  0.00000000000E+00 0. -1.
          1    1    1    2  501    0  0.21751193189E+02 -0.24214637708E+02  0.18318078378E+03  0.18605016160E+03  0.00000000000E+00 0. -1.
<scales pt_clust_5="13000.00000" pt_clust_6="13000.00000" pt_clust_7="13000.00000" pt_clust_8="13000.00000" pt_clust_9="13000.00000"></scales>
<clustering>
<clus scale="   80.623">  5  6 -1 -1</clus>
<clus scale="   81.118">  2  5  1 -1</clus>
<clus scale="   92.372">  7  8 -1 -1</clus>
<clus scale="   32.679">  7  9 -1 -1</clus>
<clus scale="  282.196">  1  5  2 -1</clus>
</clustering>
</event>
<event>
 9    2  0.2147756E-005  0.2670490E+03  0.7546771E-02  0.1148629E+00
         21   -1    0    0  501  502  0.00000000000E+00  0.00000000000E+00  0.20972611882E+02  0.20972611882E+02  0.00000000000E+00 0. -1.
          2   -1    0    0  502    0 -0.00000000000E+00 -0.00000000000E+00 -0.14897458680E+04  0.14897458680E+04  0.00000000000E+00 0. -1.
         24    2    1    2    0    0 -0.27684878986E+02 -0.18098119351E+02 -0.38160861384E+03  0.39123551403E+03  0.79662405396E+02 0.  0.
         23    2    1    2    0    0 -0.67475598854E+02  0.92689731451E+02 -0.54998568290E+03  0.56886453214E+03  0.89321116088E+02 0.  0.
        -11    1    3    3    0    0 -0.59509201526E+01 -0.24452167842E+02 -0.31147243610E+02  0.40043385813E+02  0.00000000000E+00 0.  1.
         12    1    3    3    0    0 -0.21733958834E+02  0.63540484918E+01 -0.35046137022E+03  0.35119212821E+03  0.00000000000E+00 0. -1.
        -11    1    4    4    0    0 -0.57925254686E+02  0.20068732572E+02 -0.14690390121E+03  0.15918179968E+03  0.00000000000E+00 0. -1.
         11    1    4    4    0    0 -0.95503441683E+01  0.72620998880E+02 -0.40308178168E+03  0.40968273246E+03  0.00000000000E+00 0.  1.
          1    1    1    2  501    0  0.95160477841E+02 -0.74591612101E+02 -0.53717895934E+03  0.55061843367E+03  0.00000000000E+00 0. -1.
<scales pt_clust_5="13000.00000" pt_clust_6="13000.00000" pt_clust_7="13000.00000" pt_clust_8="13000.00000" pt_clust_9="13000.00000"></scales>
<clustering>
<clus scale="   79.662">  5  6 -1 -1</clus>
<clus scale="   86.256">  2  5  1 -1</clus>
<clus scale="   89.321">  7  8 -1 -1</clus>
<clus scale="  116.700">  7  9 -1 -1</clus>
<clus scale="  267.049">  1  5  2 -1</clus>
</clustering>
</event>
<event>
 9    2  0.2147756E-005  0.3039451E+03  0.7546771E-02  0.1112214E+00
          2   -1    0    0  502    0 -0.00000000000E+00  0.00000000000E+00  0.15566675508E+04  0.15566675508E+04  0.00000000000E+00 0. -1.
         21   -1    0    0  501  502  0.00000000000E+00 -0.00000000000E+00 -0.32135859707E+02  0.32135859707E+02  0.00000000000E+00 0.  1.
         24    2    1    2    0    0  0.95008005719E+02 -0.71412741591E+02  0.45835691869E+03  0.48015049805E+03  0.79543290431E+02 0.  0.
         23    2    1    2    0    0  0.72424282062E+02  0.23946330392E+02  0.29571350171E+03  0.31878127680E+03  0.91412931095E+02 0.  0.
        -11    1    3    3    0    0  0.13193786582E+02 -0.55602882861E+02  0.14367726067E+03  0.15462506854E+03  0.00000000000E+00 0.  1.
         12    1    3    3    0    0  0.81814219137E+02 -0.15809858730E+02  0.31467965802E+03  0.32552542951E+03  0.00000000000E+00 0. -1.
        -11    1    4    4    0    0  0.18008321871E+02 -0.24829897233E+02  0.28906045889E+02  0.42147158174E+02  0.00000000000E+00 0. -1.
         11    1    4    4    0    0  0.54415960191E+02  0.48776227624E+02  0.26680745582E+03  0.27663411863E+03  0.00000000000E+00 0.  1.
          1    1    1    2  501    0 -0.16743228778E+03  0.47466411199E+02  0.77046127067E+03  0.78987163564E+03  0.00000000000E+00 0. -1.
<scales pt_clust_5="13000.00000" pt_clust_6="13000.00000" pt_clust_7="13000.00000" pt_clust_8="13000.00000" pt_clust_9="13000.00000"></scales>
<clustering>
<clus scale="   79.543">  5  6 -1 -1</clus>
<clus scale="   91.413">  7  8 -1 -1</clus>
<clus scale="  143.016">  1  5  2 -1</clus>
<clus scale="   99.340">  7  9 -1 -1</clus>
<clus scale="  303.945">  2  5  1 -1</clus>
</clustering>
</event>
<event>
 9    2  0.2147756E-005  0.2253526E+03  0.7546771E-02  0.1163055E+00
         21   -1    0    0  501  502  0.00000000000E+00  0.00000000000E+00  0.18882624716E+03  0.18882624716E+03  0.00000000000E+00 0. -1.
          2   -1    0    0  502    0 -0.00000000000E+00 -0.00000000000E+00 -0.14666310465E+03  0.14666310465E+03  0.00000000000E+00 0. -1.
         24    2    1    2    0    0  0.38294737428E+02  0.53210151530E+02 -0.13864159534E+02  0.10327637137E+03  0.78587446978E+02 0.  0.
         23    2    1    2    0    0 -0.70062613443E+02  0.43345486456E+02  0.25247259613E+02  0.12600751832E+03  0.91939488557E+02 0.  0.
        -11    1    3    3    0    0  0.25271237196E+02  0.54114772505E+02 -0.41489591838E+02  0.72721594204E+02  0.00000000000E+00 0.  1.
         12    1    3    3    0    0  0.13023500232E+02 -0.90462097531E+00  0.27625432304E+02  0.30554777162E+02  0.00000000000E+00 0. -1.
        -13    1    4    4    0    0 -0.62611907432E+01 -0.20535776565E+02  0.28478569839E+02  0.35664401981E+02  0.00000000000E+00 0.  1.
         13    1    4    4    0    0 -0.63801422699E+02  0.63881263021E+02 -0.32313102260E+01  0.90343116337E+02  0.00000000000E+00 0. -1.
          1    1    1    2  501    0  0.31767876015E+02 -0.96555637987E+02  0.30780042427E+02  0.10620546213E+03  0.00000000000E+00 0. -1.
<scales pt_clust_5="13000.00000" pt_clust_6="13000.00000" pt_clust_7="13000.00000" pt_clust_8="13000.00000" pt_clust_9="13000.00000"></scales>
<clustering>
<clus scale="   78.587">  5  6 -1 -1</clus>
<clus scale="   91.939">  7  8 -1 -1</clus>
<clus scale="  101.647">  7  9 -1 -1</clus>
<clus scale="  102.342">  2  5  1 -1</clus>
<clus scale="  225.353">  1  5  2 -1</clus>
</clustering>
</event>
<event>
 9    2  0.2147756E-005  0.2713842E+03  0.7546771E-02  0.1142312E+00
          2   -1    0    0  502    0 -0.00000000000E+00  0.00000000000E+00  0.28956529007E+03  0.28956529007E+03  0.00000000000E+00 0. -1.
         21   -1    0    0  501  502  0.00000000000E+00 -0.00000000000E+00 -0.17783231853E+03  0.17783231853E+03  0.00000000000E+00 0. -1.
         24    2    1    2    0    0  0.49373461306E+02 -0.13849683454E+02  0.16514568180E+03  0.19080711892E+03  0.80651769988E+02 0.  0.
         23    2    1    2    0    0  0.61871681805E+02  0.26945631124E+02  0.48729512658E+02  0.12499886915E+03  0.93252237714E+02 0.  0.
        -13    1    3    3    0    0 -0.18743357904E+02 -0.75476598870E+01  0.13099022018E+02  0.24080386482E+02  0.00000000000E+00 0.  1.
         14    1    3    3    0    0  0.68116819210E+02 -0.63020235672E+01  0.15204665978E+03  0.16672673244E+03  0.00000000000E+00 0. -1.
        -13    1    4    4    0    0  0.58342013712E+02  0.57150799070E+02  0.47681239732E+02  0.94570106380E+02  0.00000000000E+00 0.  1.
         13    1    4    4    0    0  0.35296680936E+01 -0.30205167947E+02  0.10482729257E+01  0.30428762769E+02  0.00000000000E+00 0. -1.
          1    1    1    2  501    0 -0.11124514311E+03 -0.13095947670E+02 -0.10214222291E+03  0.15159162052E+03  0.00000000000E+00 0. -1.
<scales pt_clust_5="13000.00000" pt_clust_6="13000.00000" pt_clust_7="13000.00000" pt_clust_8="13000.00000" pt_clust_9="13000.00000"></scales>
<clustering>
<clus scale="   80.652">  5  6 -1 -1</clus>
<clus scale="   93.252">  7  8 -1 -1</clus>
<clus scale="   95.573">  1  5  2 -1</clus>
<clus scale="  101.600">  7  9 -1 -1</clus>
<clus scale="  271.384">  2  5  1 -1</clus>
</clustering>
</event>
<event>
 9    2  0.2147756E-005  0.2936964E+03  0.7546771E-02  0.1120175E+00
          2   -1    0    0  502    0 -0.00000000000E+00  0.00000000000E+00  0.51861779379E+03  0.51861779379E+03  0.00000000000E+00 0. -1.
         21   -1    0    0  501  502  0.00000000000E+00 -0.00000000000E+00 -0.23659543018E+03  0.23659543018E+03  0.00000000000E+00 0.  1.
         24    2    1    2    0    0 -0.22602548569E+02  0.96621207731E+02  0.41354525917E+03  0.43341228978E+03  0.83546385679E+02 0.  0.
         23    2    1    2    0    0  0.17472314524E+02 -0.28096182727E+02 -0.19829443975E+03  0.22598633475E+03  0.10322045050E+03 0.  0.
        -11    1    3    3    0    0 -0.26783297227E+02  0.63762116155E+01  0.36640311748E+02  0.45831359678E+02  0.00000000000E+00 0.  1.
         12    1    3    3    0    0  0.41807486580E+01  0.90244996116E+02  0.37690494742E+03  0.38758093010E+03  0.00000000000E+00 0. -1.
        -11    1    4    4    0    0 -0.18450151871E+02 -0.17275995461E+02 -0.11479347854E+01  0.25301894741E+02  0.00000000000E+00 0. -1.
         11    1    4    4    0    0  0.35922466396E+02 -0.10820187266E+02 -0.19714650496E+03  0.20068444001E+03  0.00000000000E+00 0.  1.
          1    1    1    2  501    0  0.51302340445E+01 -0.68525025004E+02  0.66771544180E+02  0.95814599437E+02  0.00000000000E+00 0. -1.
<scales pt_clust_5="13000.00000" pt_clust_6="13000.00000" pt_clust_7="13000.00000" pt_clust_8="13000.00000" pt_clust_9="13000.00000"></scales>
<clustering>
<clus scale="   83.546">  5  6 -1 -1</clus>
<clus scale="  103.220">  7  8 -1 -1</clus>
<clus scale="   68.717">  7  9 -1 -1</clus>
<clus scale="  129.717">  1  5  2 -1</clus>
<clus scale="  293.696">  2  5  1 -1</clus>
</clustering>
</event>
<event>
 9    2  0.2147756E-005  0.2918665E+03  0.7546771E-02  0.1127633E+00
          2   -1    0    0  502    0 -0.00000000000E+00  0.00000000000E+00  0.86902472095E+03  0.86902472095E+03  0.00000000000E+00 0. -1.
         21   -1    0    0  501  502  0.00000000000E+00 -0.00000000000E+00 -0.64107615485E+02  0.64107615485E+02  0.00000000000E+00 0. -1.
         24    2    1    2    0    0 -0.47253774591E+02  0.59377395917E+02  0.49651737109E+03  0.50851901885E+03  0.79394574015E+02 0.  0.
         23    2    1    2    0    0 -0.87978699085E+02  0.27529771277E+02  0.15136576410E+03  0.19989049838E+03  0.92447157903E+02 0.  0.
        -13    1    3    3    0    0 -0.62387415134E+02  0.40333287388E+02  0.44933955746E+03  0.45543935001E+03  0.00000000000E+00 0.  1.
         14    1    3    3    0    0  0.15133640543E+02  0.19044108530E+02  0.47177813633E+02  0.53079668848E+02  0.00000000000E+00 0. -1.
        -13    1    4    4    0    0 -0.59739462988E+02  0.47699984046E+02  0.46607987506E+02  0.89534330932E+02  0.00000000000E+00 0. -1.
         13    1    4    4    0    0 -0.28239236097E+02 -0.20170212769E+02  0.10475777659E+03  0.11035616745E+03  0.00000000000E+00 0.  1.
          1    1    1    2  501    0  0.13523247368E+03 -0.86907167194E+02  0.15703397028E+03  0.22472281920E+03  0.00000000000E+00 0. -1.
<scales pt_clust_5="13000.00000" pt_clust_6="13000.00000" pt_clust_7="13000.00000" pt_clust_8="13000.00000" pt_clust_9="13000.00000"></scales>
<clustering>
<clus scale="   79.395">  5  6 -1 -1</clus>
<clus scale="   92.447">  7  8 -1 -1</clus>
<clus scale="  109.828">  1  5  2 -1</clus>
<clus scale="  123.982">  7  9 -1 -1</clus>
<clus scale="  291.867">  2  5  1 -1</clus>
</clustering>
</event>
<event>
 9    2  0.2147756E-005  0.5071844E+03  0.7546771E-02  0.1036780E+00
         21   -1    0    0  501  502  0.00000000000E+00  0.00000000000E+00  0.11052028979E+04  0.11052028979E+04  0.00000000000E+00 0.  1.
          2   -1    0    0  502    0 -0.00000000000E+00 -0.00000000000E+00 -0.16574275110E+03  0.16574275110E+03  0.00000000000E+00 0. -1.
         24    2    1    2    0    0 -0.22574723347E+02 -0.22481153757E+03  0.47923841069E+02  0.24523957457E+03  0.82437302453E+02 0.  0.
         23    2    1    2    0    0 -0.73525911318E+02 -0.10968517779E+03  0.28743051471E+03  0.32852088288E+03  0.88728641596E+02 0.  0.
        -13    1    3    3    0    0  0.25936426435E+02 -0.45245137301E+02 -0.34667415687E+01  0.52266996878E+02  0.00000000000E+00 0.  1.
         14    1    3    3    0    0 -0.48511149782E+02 -0.17956640027E+03  0.51390582637E+02  0.19297257769E+03  0.00000000000E+00 0. -1.
        -13    1    4    4    0    0 -0.94357592172E+02 -0.88565277232E+02  0.23553205886E+03  0.26874246832E+03  0.00000000000E+00 0.  1.
         13    1    4    4    0    0  0.20831680854E+02 -0.21119900561E+02  0.51898455857E+02  0.59778414560E+02  0.00000000000E+00 0. -1.
          1    1    1    2  501    0  0.96100634665E+02  0.33449671536E+03  0.60410579100E+03  0.69718519153E+03  0.00000000000E+00 0. -1.
<scales pt_clust_5="13000.00000" pt_clust_6="13000.00000" pt_clust_7="13000.00000" pt_clust_8="13000.00000" pt_clust_9="13000.00000"></scales>
<clustering>
<clus scale="   82.437">  5  6 -1 -1</clus>
<clus scale="   88.729">  7  8 -1 -1</clus>
<clus scale="  240.511">  2  5  1 -1</clus>
<clus scale="  195.820">  7  9 -1 -1</clus>
<clus scale="  507.184">  1  5  2 -1</clus>
</clustering>
</event>
<event>
 9    2  0.2147756E-005  0.4279005E+03  0.7546771E-02  0.1088845E+00
          2   -1    0    0  502    0 -0.00000000000E+00  0.00000000000E+00  0.87964605349E+03  0.87964605349E+03  0.00000000000E+00 0. -1.
         21   -1    0    0  501  502  0.00000000000E+00 -0.00000000000E+00 -0.91481262952E+02  0.91481262952E+02  0.00000000000E+00 0. -1.
         24    2    1    2    0    0  0.39133765299E+01  0.47902992932E+02  0.33475373625E+03  0.34768489560E+03  0.80713762459E+02 0.  0.
         23    2    1    2    0    0  0.17468126404E+03  0.62488501718E+02  0.29502124606E+03  0.36044116783E+03  0.91988819922E+02 0.  0.
        -11    1    3    3    0    0  0.28557689552E+02 -0.10018840178E+02  0.89329264748E+02  0.94316681088E+02  0.00000000000E+00 0.  1.
         12    1    3    3    0    0 -0.24644313022E+02  0.57921833110E+02  0.24542447150E+03  0.25336821451E+03  0.00000000000E+00 0. -1.
        -11    1    4    4    0    0 -0.40200082744E+01  0.22050227088E+02  0.47136784474E+02  0.52194342909E+02  0.00000000000E+00 0.  1.
         11    1    4    4    0    0  0.17870127231E+03  0.40438274630E+02  0.24788446158E+03  0.30824682493E+03  0.00000000000E+00 0. -1.
          1    1    1    2  501    0 -0.17859464057E+03 -0.11039149465E+03  0.15838980823E+03  0.26300125301E+03  0.00000000000E+00 0. -1.
<scales pt_clust_5="13000.00000" pt_clust_6="13000.00000" pt_clust_7="13000.00000" pt_clust_8="13000.00000" pt_clust_9="13000.00000"></scales>
<clustering>
<clus scale="   80.714">  5  6 -1 -1</clus>
<clus scale="   91.989">  7  8 -1 -1</clus>
<clus scale="   93.940">  1  5  2 -1</clus>
<clus scale="  199.375">  7  9 -1 -1</clus>
<clus scale="  427.901">  2  5  1 -1</clus>
</clustering>
</event>
<event>
 9    2  0.2147756E-005  0.3838798E+03  0.7546771E-02  0.1084682E+00
          2   -1    0    0  502    0 -0.00000000000E+00  0.00000000000E+00  0.26964855109E+03  0.26964855109E+03  0.00000000000E+00 0. -1.
         21   -1    0    0  501  502  0.00000000000E+00 -0.00000000000E+00 -0.35264749033E+03  0.35264749033E+03  0.00000000000E+00 0. -1.
         24    2    1    2    0    0  0.16530397357E+02  0.12020208872E+03  0.11961127208E+03  0.18822850268E+03  0.80008228582E+02 0.  0.
         23    2    1    2    0    0 -0.83882085139E+02  0.34276835690E+02  0.42558712838E+02  0.13656495169E+03  0.92885070485E+02 0.  0.
        -11    1    3    3    0    0 -0.53945094545E+01  0.25487740401E+02 -0.85015007861E+01  0.27404400352E+02  0.00000000000E+00 0.  1.
         12    1    3    3    0    0  0.21924906812E+02  0.94714348321E+02  0.12811277287E+03  0.16082410233E+03  0.00000000000E+00 0. -1.
        -11    1    4    4    0    0 -0.20004953745E+02  0.28404898203E+02  0.60667638732E+02  0.69911363923E+02  0.00000000000E+00 0.  1.
         11    1    4    4    0    0 -0.63877131394E+02  0.58719374871E+01 -0.18108925894E+02  0.66653587765E+02  0.00000000000E+00 0. -1.
          1    1    1    2  501    0  0.67351687782E+02 -0.15447892441E+03 -0.24516892416E+03  0.29750258706E+03  0.00000000000E+00 0. -1.
<scales pt_clust_5="13000.00000" pt_clust_6="13000.00000" pt_clust_7="13000.00000" pt_clust_8="13000.00000" pt_clust_9="13000.00000"></scales>
<clustering>
<clus scale="   80.008">  5  6 -1 -1</clus>
<clus scale="   92.885">  7  8 -1 -1</clus>
<clus scale="  145.338">  1  5  2 -1</clus>
<clus scale="  145.805">  7  9 -1 -1</clus>
<clus scale="  383.880">  2  5  1 -1</clus>
</clustering>
</event>
<event>
 9    2  0.2147756E-005  0.3475413E+03  0.7546771E-02  0.1102369E+00
         -1   -1    0    0    0  501 -0.00000000000E+00  0.00000000000E+00  0.39642651925E+02  0.39642651925E+02  0.00000000000E+00 0.  1.
         21   -1    0    0  501  502  0.00000000000E+00 -0.00000000000E+00 -0.14315008889E+04  0.14315008889E+04  0.00000000000E+00 0.  1.
         24    2    1    2    0    0 -0.84081033967E+02  0.48649848132E+02 -0.27103075643E+03  0.29767039538E+03  0.75588129752E+02 0.  0.
         23    2    1    2    0    0 -0.85616884368E+02  0.48429582373E+02 -0.27485055028E+03  0.30519970588E+03  0.89041339509E+02 0.  0.
        -11    1    3    3    0    0 -0.78558494383E+02  0.57649295000E+02 -0.16887865532E+03  0.19497404565E+03  0.00000000000E+00 0.  1.
         12    1    3    3    0    0 -0.55225395836E+01 -0.89994468687E+01 -0.10215210111E+03  0.10269634973E+03  0.00000000000E+00 0. -1.
        -11    1    4    4    0    0 -0.69836476542E+02 -0.11437353781E+02 -0.14586065450E+03  0.16212118013E+03  0.00000000000E+00 0.  1.
         11    1    4    4    0    0 -0.15780407826E+02  0.59866936154E+02 -0.12898989578E+03  0.14307852575E+03  0.00000000000E+00 0. -1.
         -2    1    1    2    0  502  0.16969791833E+03 -0.97079430505E+02 -0.84597693028E+03  0.86827343958E+03  0.00000000000E+00 0.  1.
<scales pt_clust_5="13000.00000" pt_clust_6="13000.00000" pt_clust_7="13000.00000" pt_clust_8="13000.00000" pt_clust_9="13000.00000"></scales>
<clustering>
<clus scale="   75.588">  5  6 -1 -1</clus>
<clus scale="   89.041">  7  8 -1 -1</clus>
<clus scale="  123.085">  1  5  2 -1</clus>
<clus scale="  154.363">  7  9 -1 -1</clus>
<clus scale="  347.541">  2  5  1 -1</clus>
</clustering>
</event>
<event>
 9    2  0.2147756E-005  0.1768176E+03  0.7546771E-02  0.1200159E+00
          2   -1    0    0  502    0 -0.00000000000E+00  0.00000000000E+00  0.30641184549E+03  0.30641184549E+03  0.00000000000E+00 0. -1.
         21   -1    0    0  501  502  0.00000000000E+00 -0.00000000000E+00 -0.59112355300E+02  0.59112355300E+02  0.00000000000E+00 0. -1.
         24    2    1    2    0    0  0.42632185345E+01 -0.44279343072E+02  0.90501007048E+02  0.12919768311E+03  0.80763691027E+02 0.  0.
         23    2    1    2    0    0 -0.41455236428E+02  0.51293159603E+02  0.61206859641E+02  0.13351504799E+03  0.98643111888E+02 0.  0.
        -11    1    3    3    0    0  0.32647839475E+02 -0.38408731658E+02  0.22356017194E+02  0.55144388606E+02  0.00000000000E+00 0.  1.
         12    1    3    3    0    0 -0.28384620940E+02 -0.58706114140E+01  0.68144989853E+02  0.74053294501E+02  0.00000000000E+00 0. -1.
        -13    1    4    4    0    0 -0.70284515276E+02  0.15300318591E+02  0.43843369941E+02  0.84239265929E+02  0.00000000000E+00 0.  1.
         13    1    4    4    0    0  0.28829278848E+02  0.35992841012E+02  0.17363489700E+02  0.49275782059E+02  0.00000000000E+00 0. -1.
          1    1    1    2  501    0  0.37192017893E+02 -0.70138165313E+01  0.95591623504E+02  0.10281146970E+03  0.00000000000E+00 0. -1.
<scales pt_clust_5="13000.00000" pt_clust_6="13000.00000" pt_clust_7="13000.00000" pt_clust_8="13000.00000" pt_clust_9="13000.00000"></scales>
<clustering>
<clus scale="   80.764">  5  6 -1 -1</clus>
<clus scale="   92.204">  1  5  2 -1</clus>
<clus scale="   98.643">  7  8 -1 -1</clus>
<clus scale="   49.092">  7  9 -1 -1</clus>
<clus scale="  176.818">  2  5  1 -1</clus>
</clustering>
</event>
<event>
 9    2  0.2147756E-005  0.2772009E+03  0.7546771E-02  0.1140517E+00
         21   -1    0    0  501  502  0.00000000000E+00  0.00000000000E+00  0.39407316791E+02  0.39407316791E+02  0.00000000000E+00 0.  1.
          2   -1    0    0  502    0 -0.00000000000E+00 -0.00000000000E+00 -0.99487220588E+03  0.99487220588E+03  0.00000000000E+00 0. -1.
         24    2    1    2    0    0  0.36653065641E+02  0.31933268314E+02 -0.43110391151E+03  0.44115662540E+03  0.80033772675E+02 0.  0.
         23    2    1    2    0    0  0.27261206625E+01  0.97961240933E+02 -0.32217597574E+03  0.34960271573E+03  0.93919449785E+02 0.  0.
        -11    1    3    3    0    0 -0.23751936109E+01  0.47943288678E+02 -0.28769275543E+03  0.29166988531E+03  0.00000000000E+00 0.  1.
         12    1    3    3    0    0  0.39028259252E+02 -0.16010020365E+02 -0.14341115608E+03  0.14948674009E+03  0.00000000000E+00 0. -1.
        -11    1    4    4    0    0  0.31347197930E+02  0.19910651191E+02 -0.18896680150E+03  0.19258123719E+03  0.00000000000E+00 0. -1.
         11    1    4    4    0    0 -0.28621077267E+02  0.78050589742E+02 -0.13320917423E+03  0.15702147854E+03  0.00000000000E+00 0.  1.
          1    1    1    2  501    0 -0.39379186303E+02 -0.12989450925E+03 -0.20218500185E+03  0.24352018154E+03  0.00000000000E+00 0. -1.
<scales pt_clust_5="13000.00000" pt_clust_6="13000.00000" pt_clust_7="13000.00000" pt_clust_8="13000.00000" pt_clust_9="13000.00000"></scales>
<clustering>
<clus scale="   80.034">  5  6 -1 -1</clus>
<clus scale="   93.641">  2  5  1 -1</clus>
<clus scale="   93.919">  7  8 -1 -1</clus>
<clus scale="  119.746">  7  9 -1 -1</clus>
<clus scale="  277.201">  1  5  2 -1</clus>
</clustering>
</event>
<event>
 9    2  0.2147756E-005  0.8150760E+03  0.7546771E-02  0.1018613E+00
          2   -1    0    0  502    0 -0.00000000000E+00  0.00000000000E+00  0.86681775167E+03  0.86681775167E+03  0.00000000000E+00 0. -1.
         21   -1    0    0  501  502  0.00000000000E+00 -0.00000000000E+00 -0.24285155084E+03  0.24285155084E+03  0.00000000000E+00 0. -1.
         24    2    1    2    0    0  0.27970727844E+02 -0.51959570977E+02  0.41678243835E+02  0.10796663812E+03  0.80234408489E+02 0.  0.
         23    2    1    2    0    0  0.25132458095E+03  0.57696243974E+02 -0.78654766563E+02  0.28414844153E+03  0.89782308758E+02 0.  0.
        -11    1    3    3    0    0  0.36538288202E+02  0.84617246144E+01  0.83135316138E+01  0.38415649104E+02  0.00000000000E+00 0.  1.
         12    1    3    3    0    0 -0.85675603585E+01 -0.60421295592E+02  0.33364712222E+02  0.69550989016E+02  0.00000000000E+00 0. -1.
        -11    1    4    4    0    0  0.14586250796E+03  0.77116810243E+02 -0.36890889188E+02  0.16906747574E+03  0.00000000000E+00 0. -1.
         11    1    4    4    0    0  0.10546207299E+03 -0.19420566269E+02 -0.41763877375E+02  0.11508096579E+03  0.00000000000E+00 0.  1.
          1    1    1    2  501    0 -0.27929530879E+03 -0.57366729963E+01  0.66094272356E+03  0.71755422287E+03  0.00000000000E+00 0. -1.
<scales pt_clust_5="13000.00000" pt_clust_6="13000.00000" pt_clust_7="13000.00000" pt_clust_8="13000.00000" pt_clust_9="13000.00000"></scales>
<clustering>
<clus scale="   80.234">  5  6 -1 -1</clus>
<clus scale="   89.782">  7  8 -1 -1</clus>
<clus scale="   99.598">  1  5  2 -1</clus>
<clus scale="  259.996">  7  9 -1 -1</clus>
<clus scale="  815.076">  2  5  1 -1</clus>
</clustering>
</event>
<event>
 9    2  0.2147756E-005  0.2606670E+03  0.7546771E-02  0.1133744E+00
          2   -1    0    0  502    0 -0.00000000000E+00  0.00000000000E+00  0.40310498676E+03  0.40310498676E+03  0.00000000000E+00 0. -1.
         21   -1    0    0  501  502  0.00000000000E+00 -0.00000000000E+00 -0.96186179312E+02  0.96186179312E+02  0.00000000000E+00 0.  1.
         24    2    1    2    0    0  0.13280180347E+02 -0.10432646214E+03  0.92478028543E+02  0.16175286164E+03  0.80940895678E+02 0.  0.
         23    2    1    2    0    0 -0.13962081882E+02 -0.49287167828E+02  0.69874194765E+02  0.12659492447E+03  0.92302259805E+02 0.  0.
        -13    1    3    3    0    0  0.10135146206E+02 -0.11544464077E+03  0.67208611158E+02  0.13396709926E+03  0.00000000000E+00 0.  1.
         14    1    3    3    0    0  0.31450341409E+01  0.11118178633E+02  0.25269417385E+02  0.27785762377E+02  0.00000000000E+00 0. -1.
        -13    1    4    4    0    0  0.27591090880E+02 -0.14645313863E+02 -0.75558204540E+01  0.32137889427E+02  0.00000000000E+00 0. -1.
         13    1    4    4    0    0 -0.41553172762E+02 -0.34641853965E+02  0.77430015219E+02  0.94457035045E+02  0.00000000000E+00 0.  1.
          1    1    1    2  501    0  0.68190153467E+00  0.15361362996E+03  0.14456658414E+03  0.21094337996E+03  0.00000000000E+00 0. -1.
<scales pt_clust_5="13000.00000" pt_clust_6="13000.00000" pt_clust_7="13000.00000" pt_clust_8="13000.00000" pt_clust_9="13000.00000"></scales>
<clustering>
<clus scale="   80.941">  5  6 -1 -1</clus>
<clus scale="   92.302">  7  8 -1 -1</clus>
<clus scale="  132.710">  1  5  2 -1</clus>
<clus scale="   86.913">  7  9 -1 -1</clus>
<clus scale="  260.667">  2  5  1 -1</clus>
</clustering>
</event>
<event>
 9    2  0.2147756E-005  0.2653285E+03  0.7546771E-02  0.1134268E+00
         21   -1    0    0  501  502  0.00000000000E+00  0.00000000000E+00  0.16156673638E+03  0.16156673638E+03  0.00000000000E+00 0.  1.
         -1   -1    0    0    0  501 -0.00000000000E+00 -0.00000000000E+00 -0.24575090197E+03  0.24575090197E+03  0.00000000000E+00 0.  1.
         24    2    1    2    0    0 -0.40110457850E+02  0.88176978208E+02 -0.67670640696E+02  0.14147578556E+03  0.77794948253E+02 0.  0.
         23    2    1    2    0    0 -0.21637677674E+02  0.38042881591E+02 -0.59177450970E+02  0.11899330551E+03  0.93498588857E+02 0.  0.
        -11    1    3    3    0    0  0.15939999827E+02  0.55278609051E+02 -0.43537166606E+02  0.72147717145E+02  0.00000000000E+00 0.  1.
         12    1    3    3    0    0 -0.56050457677E+02  0.32898369157E+02 -0.24133474089E+02  0.69328068418E+02  0.00000000000E+00 0. -1.
        -11    1    4    4    0    0 -0.39071037116E+01  0.64900934301E+02 -0.19448522041E+02  0.67864878561E+02  0.00000000000E+00 0. -1.
         11    1    4    4    0    0 -0.17730573963E+02 -0.26858052711E+02 -0.39728928929E+02  0.51128426949E+02  0.00000000000E+00 0.  1.
         -2    1    1    2    0  502  0.61748135524E+02 -0.12621985980E+03  0.42663926081E+02  0.14684854728E+03  0.00000000000E+00 0.  1.
<scales pt_clust_5="13000.00000" pt_clust_6="13000.00000" pt_clust_7="13000.00000" pt_clust_8="13000.00000" pt_clust_9="13000.00000"></scales>
<clustering>
<clus scale="   77.795">  5  6 -1 -1</clus>
<clus scale="   93.499">  7  8 -1 -1</clus>
<clus scale="  124.242">  2  5  1 -1</clus>
<clus scale="  104.789">  7  9 -1 -1</clus>
<clus scale="  265.328">  1  5  2 -1</clus>
</clustering>
</event>
<event>
 9    2  0.2147756E-005  0.2601987E+03  0.7546771E-02  0.1155166E+00
         21   -1    0    0  501  502  0.00000000000E+00  0.00000000000E+00  0.41630287315E+02  0.41630287315E+02  0.00000000000E+00 0. -1.
          2   -1    0    0  502    0 -0.00000000000E+00 -0.00000000000E+00 -0.75942904936E+03  0.75942904936E+03  0.00000000000E+00 0. -1.
         24    2    1    2    0    0 -0.27641512810E+02 -0.17156097263E+02 -0.28570907199E+03  0.29667372907E+03  0.72987963384E+02 0.  0.
         23    2    1    2    0    0 -0.49034869019E+02 -0.81508653097E+02 -0.28175026727E+03  0.30889662444E+03  0.83581293216E+02 0.  0.
        -11    1    3    3    0    0 -0.10391359623E+02  0.23033992031E+02 -0.41567580722E+02  0.48645749154E+02  0.00000000000E+00 0.  1.
         12    1    3    3    0    0 -0.17250153188E+02 -0.40190089294E+02 -0.24414149127E+03  0.24802797992E+03  0.00000000000E+00 0. -1.
        -11    1    4    4    0    0 -0.68970591202E+02 -0.37980679676E+02 -0.17311964845E+03  0.19018382465E+03  0.00000000000E+00 0.  1.
         11    1    4    4    0    0  0.19935722183E+02 -0.43527973421E+02 -0.10863061882E+03  0.11871279979E+03  0.00000000000E+00 0. -1.
          1    1    1    2  501    0  0.76676381830E+02  0.98664750361E+02 -0.15033942278E+03  0.19548898316E+03  0.00000000000E+00 0. -1.
<scales pt_clust_5="13000.00000" pt_clust_6="13000.00000" pt_clust_7="13000.00000" pt_clust_8="13000.00000" pt_clust_9="13000.00000"></scales>
<clustering>
<clus scale="   72.988">  5  6 -1 -1</clus>
<clus scale="   79.910">  2  5  1 -1</clus>
<clus scale="   83.581">  7  8 -1 -1</clus>
<clus scale="  113.766">  7  9 -1 -1</clus>
<clus scale="  260.199">  1  5  2 -1</clus>
</clustering>
</event>
<event>
 9    2  0.2147756E-005  0.2240500E+03  0.7546771E-02  0.1151486E+00
         21   -1    0    0  501  502  0.00000000000E+00  0.00000000000E+00  0.96774365544E+03  0.96774365544E+03  0.00000000000E+00 0. -1.
          2   -1    0    0  502    0 -0.00000000000E+00 -0.00000000000E+00 -0.38054793738E+02  0.38054793738E+02  0.00000000000E+00 0. -1.
         24    2    1    2    0    0 -0.78218338503E+02  0.76991874035E+02  0.19736385348E+03  0.23996667535E+03  0.81152063883E+02 0.  0.
         23    2    1    2    0    0  0.66720418788E+01  0.21431292739E+02  0.42495610786E+03  0.43525404737E+03  0.91403368080E+02 0.  0.
        -11    1    3    3    0    0 -0.36850931652E+02  0.16295954006E+02  0.14304420420E+03  0.14861087993E+03  0.00000000000E+00 0.  1.
         12    1    3    3    0    0 -0.41367406851E+02  0.60695920028E+02  0.54319649280E+02  0.91355795413E+02  0.00000000000E+00 0. -1.
        -11    1    4    4    0    0  0.13158743398E+02  0.54117722204E+02  0.32888887717E+03  0.33357124264E+03  0.00000000000E+00 0. -1.
         11    1    4    4    0    0 -0.64867015196E+01 -0.32686429465E+02  0.96067230681E+02  0.10168280473E+03  0.00000000000E+00 0.  1.
          1    1    1    2  501    0  0.71546296624E+02 -0.98423166773E+02  0.30736890037E+03  0.33057772646E+03  0.00000000000E+00 0. -1.
<scales pt_clust_5="13000.00000" pt_clust_6="13000.00000" pt_clust_7="13000.00000" pt_clust_8="13000.00000" pt_clust_9="13000.00000"></scales>
<clustering>
<clus scale="   81.152">  5  6 -1 -1</clus>
<clus scale="   91.403">  7  8 -1 -1</clus>
<clus scale="  121.680">  7  9 -1 -1</clus>
<clus scale="  136.497">  2  5  1 -1</clus>
<clus scale="  224.050">  1  5  2 -1</clus>
</clustering>
</event>
<event>
 9    2  0.2147756E-005  0.2288384E+03  0.7546771E-02  0.1159928E+00
          2   -1    0    0  502    0 -0.00000000000E+00  0.00000000000E+00  0.49096991358E+03  0.49096991358E+03  0.00000000000E+00 0. -1.
         21   -1    0    0  501  502  0.00000000000E+00 -0.00000000000E+00 -0.13876867741E+03  0.13876867741E+03  0.00000000000E+00 0. -1.
         24    2    1    2    0    0 -0.67829930229E+02  0.31815358162E+01  0.38452551524E+03  0.39862847347E+03  0.80210762281E+02 0.  0.
         23    2    1    2    0    0  0.27108271382E+01 -0.34901727702E+02  0.61712847254E+02  0.11241028901E+03  0.87190127762E+02 0.  0.
        -13    1    3    3    0    0 -0.65448425754E+02 -0.28423912825E+02  0.22716974401E+03  0.23811238491E+03  0.00000000000E+00 0.  1.
         14    1    3    3    0    0 -0.23815044753E+01  0.31605448641E+02  0.15735577123E+03  0.16051608856E+03  0.00000000000E+00 0. -1.
        -11    1    4    4    0    0  0.21230511398E+02 -0.56119966098E+02  0.22391730467E+02  0.64043538334E+02  0.00000000000E+00 0.  1.
         11    1    4    4    0    0 -0.18519684260E+02  0.21218238396E+02  0.39321116787E+02  0.48366750678E+02  0.00000000000E+00 0. -1.
          1    1    1    2  501    0  0.65119103091E+02  0.31720191886E+02 -0.94037126319E+02  0.11869982850E+03  0.00000000000E+00 0. -1.
<scales pt_clust_5="13000.00000" pt_clust_6="13000.00000" pt_clust_7="13000.00000" pt_clust_8="13000.00000" pt_clust_9="13000.00000"></scales>
<clustering>
<clus scale="   80.211">  5  6 -1 -1</clus>
<clus scale="   87.190">  7  8 -1 -1</clus>
<clus scale="   72.434">  7  9 -1 -1</clus>
<clus scale="  105.094">  1  5  2 -1</clus>
<clus scale="  228.838">  2  5  1 -1</clus>
</clustering>
</event>
<event>
 9    2  0.2147756E-005  0.1907044E+03  0.7546771E-02  0.1182319E+00
         21   -1    0    0  501  502  0.00000000000E+00  0.00000000000E+00  0.12269517650E+03  0.12269517650E+03  0.00000000000E+00 0.  1.
          2   -1    0    0  502    0 -0.00000000000E+00 -0.00000000000E+00 -0.23968329089E+03  0.23968329089E+03  0.00000000000E+00 0. -1.
         24    2    1    2    0    0  0.13341666136E+01 -0.73106110923E+02 -0.13194640352E+03  0.17108832108E+03  0.80716025365E+02 0.  0.
         23    2    1    2    0    0  0.20582000166E+02 -0.19454152793E+02  0.20277766890E+01  0.95295777009E+02  0.90967524127E+02 0.  0.
        -11    1    3    3    0    0 -0.31757198830E+02 -0.66937584588E+02 -0.10176227560E+03  0.12587581437E+03  0.00000000000E+00 0.  1.
         12    1    3    3    0    0  0.33091365444E+02 -0.61685263348E+01 -0.30184127926E+02  0.45212506707E+02  0.00000000000E+00 0. -1.
        -13    1    4    4    0    0 -0.61262080978E+01  0.33736902320E+02 -0.72788548781E+01  0.35052685092E+02  0.00000000000E+00 0. -1.
         13    1    4    4    0    0  0.26708208264E+02 -0.53191055113E+02  0.93066315671E+01  0.60243091918E+02  0.00000000000E+00 0.  1.
          1    1    1    2  501    0 -0.21916166779E+02  0.92560263717E+02  0.12930512447E+02  0.95994369302E+02  0.00000000000E+00 0. -1.
<scales pt_clust_5="13000.00000" pt_clust_6="13000.00000" pt_clust_7="13000.00000" pt_clust_8="13000.00000" pt_clust_9="13000.00000"></scales>
<clustering>
<clus scale="   80.716">  5  6 -1 -1</clus>
<clus scale="   90.968">  7  8 -1 -1</clus>
<clus scale="   95.120">  7  9 -1 -1</clus>
<clus scale="  108.910">  2  5  1 -1</clus>
<clus scale="  190.704">  1  5  2 -1</clus>
</clustering>
</event>
<event>
 9    2  0.2147756E-005  0.4470713E+03  0.7546771E-02  0.1057526E+00
         -1   -1    0    0    0  501 -0.00000000000E+00  0.00000000000E+00  0.22027724525E+04  0.22027724525E+04  0.00000000000E+00 0.  1.
         21   -1    0    0  501  502  0.00000000000E+00 -0.00000000000E+00 -0.51250793479E+02  0.51250793479E+02  0.00000000000E+00 0.  1.
         24    2    1    2    0    0 -0.23428080699E+02  0.17406678036E+03  0.37414224263E+03  0.42127930551E+03  0.81521264331E+02 0.  0.
         23    2    1    2    0    0  0.14966875161E+02  0.10526103441E+03  0.40418120316E+03  0.43139853233E+03  0.10695025007E+03 0.  0.
        -11    1    3    3    0    0 -0.48536191368E+02  0.15127452157E+03  0.32234949364E+03  0.35937298007E+03  0.00000000000E+00 0.  1.
         12    1    3    3    0    0  0.25108110669E+02  0.22792258791E+02  0.51792748985E+02  0.61906325440E+02  0.00000000000E+00 0. -1.
        -13    1    4    4    0    0 -0.43937106800E+02  0.43713463282E+02  0.12522444384E+03  0.13972293141E+03  0.00000000000E+00 0. -1.
         13    1    4    4    0    0  0.58903981961E+02  0.61547571124E+02  0.27895675932E+03  0.29167560092E+03  0.00000000000E+00 0.  1.
         -2    1    1    2    0  502  0.84612055379E+01 -0.27932781477E+03  0.13731982132E+04  0.14013454081E+04  0.00000000000E+00 0.  1.
<scales pt_clust_5="13000.00000" pt_clust_6="13000.00000" pt_clust_7="13000.00000" pt_clust_8="13000.00000" pt_clust_9="13000.00000"></scales>
<clustering>
<clus scale="   81.521">  5  6 -1 -1</clus>
<clus scale="  106.950">  7  8 -1 -1</clus>
<clus scale="  193.633">  1  5  2 -1</clus>
<clus scale="  145.862">  7  9 -1 -1</clus>
<clus scale="  447.071">  2  5  1 -1</clus>
</clustering>
</event>
<event>
 9    2  0.2147756E-005  0.3973541E+03  0.7546771E-02  0.1050565E+00
         21   -1    0    0  501  502  0.00000000000E+00  0.00000000000E+00  0.18837522818E+03  0.18837522818E+03  0.00000000000E+00 0. -1.
          2   -1    0    0  502    0 -0.00000000000E+00 -0.00000000000E+00 -0.73295158122E+03  0.73295158122E+03  0.00000000000E+00 0. -1.
         24    2    1    2    0    0  0.77480195231E+02  0.31156655446E+03 -0.17522591676E+03  0.37882333918E+03  0.98621001281E+02 0.  0.
         23    2    1    2    0    0 -0.10330725954E+02 -0.19935765155E+02 -0.56298466893E+02  0.10942252625E+03  0.91102213169E+02 0.  0.
        -11    1    3    3    0    0  0.45870124582E+02  0.36205956475E+02 -0.24996873267E+02  0.63559289538E+02  0.00000000000E+00 0.  1.
         12    1    3    3    0    0  0.31610070649E+02  0.27536059799E+03 -0.15022904349E+03  0.31526404965E+03  0.00000000000E+00 0. -1.
        -11    1    4    4    0    0 -0.12279657623E+02  0.30286130495E+02 -0.48615394464E+02  0.58578974646E+02  0.00000000000E+00 0.  1.
         11    1    4    4    0    0  0.19489316692E+01 -0.50221895649E+02 -0.76830724293E+01  0.50843551599E+02  0.00000000000E+00 0. -1.
          1    1    1    2  501    0 -0.67149469277E+02 -0.29163078931E+03 -0.31305196938E+03  0.43308094397E+03  0.00000000000E+00 0. -1.
<scales pt_clust_5="13000.00000" pt_clust_6="13000.00000" pt_clust_7="13000.00000" pt_clust_8="13000.00000" pt_clust_9="13000.00000"></scales>
<clustering>
<clus scale="   91.102">  7  8 -1 -1</clus>
<clus scale="   98.621">  5  6 -1 -1</clus>
<clus scale="  299.262">  7  9 -1 -1</clus>
<clus scale="  335.862">  2  5  1 -1</clus>
<clus scale="  397.354">  1  5  2 -1</clus>
</clustering>
</event>
<event>
 9    2  0.2147756E-005  0.2366929E+03  0.7546771E-02  0.1160600E+00
          2   -1    0    0  502    0 -0.00000000000E+00  0.00000000000E+00  0.21823552322E+03  0.21823552322E+03  0.00000000000E+00 0. -1.
         21   -1    0    0  501  502  0.00000000000E+00 -0.00000000000E+00 -0.31998511775E+03  0.31998511775E+03  0.00000000000E+00 0. -1.
         24    2    1    2    0    0  0.18370779246E+02  0.43423767139E+02  0.16000397011E+03  0.18532055328E+03  0.80742355262E+02 0.  0.
         23    2    1    2    0    0 -0.34006042395E+02  0.61312740666E+02 -0.73377832420E+02  0.13679915291E+03  0.91728070187E+02 0.  0.
        -13    1    3    3    0    0 -0.95540892786E+01  0.41590105854E+02  0.29567648431E+02  0.51915925886E+02  0.00000000000E+00 0.  1.
         14    1    3    3    0    0  0.27924868525E+02  0.18336612847E+01  0.13043632168E+03  0.13340462739E+03  0.00000000000E+00 0. -1.
        -13    1    4    4    0    0 -0.35360739193E+02  0.10868403966E+01 -0.67579725406E+02  0.76279632827E+02  0.00000000000E+00 0.  1.
         13    1    4    4    0    0  0.13546967977E+01  0.60225900269E+02 -0.57981070138E+01  0.60519520087E+02  0.00000000000E+00 0. -1.
          1    1    1    2  501    0  0.15635263149E+02 -0.10473650781E+03 -0.18837573222E+03  0.21610093477E+03  0.00000000000E+00 0. -1.
<scales pt_clust_5="13000.00000" pt_clust_6="13000.00000" pt_clust_7="13000.00000" pt_clust_8="13000.00000" pt_clust_9="13000.00000"></scales>
<clustering>
<clus scale="   80.742">  5  6 -1 -1</clus>
<clus scale="   91.728">  7  8 -1 -1</clus>
<clus scale="   93.501">  1  5  2 -1</clus>
<clus scale="   93.956">  7  9 -1 -1</clus>
<clus scale="  236.693">  2  5  1 -1</clus>
</clustering>
</event>
<event>
 9    2  0.2147756E-005  0.6440880E+03  0.7546771E-02  0.1043862E+00
         21   -1    0    0  501  502  0.00000000000E+00  0.00000000000E+00  0.47523181713E+03  0.47523181713E+03  0.00000000000E+00 0. -1.
          4   -1    0    0  502    0 -0.00000000000E+00 -0.00000000000E+00 -0.31344733046E+03  0.31344733046E+03  0.00000000000E+00 0. -1.
         24    2    1    2    0    0  0.49464132131E+02  0.12987570670E+02  0.10516151717E+03  0.14210706554E+03  0.80747111540E+02 0.  0.
         23    2    1    2    0    0  0.21231983125E+03  0.33914963042E+02 -0.17671108107E+03  0.29277062599E+03  0.90872976252E+02 0.  0.
        -11    1    3    3    0    0 -0.17868464881E+02 -0.11643339067E+02  0.11740358198E+02  0.24345130775E+02  0.00000000000E+00 0.  1.
         12    1    3    3    0    0  0.67332597012E+02  0.24630909737E+02  0.93421158974E+02  0.11776193476E+03  0.00000000000E+00 0. -1.
        -13    1    4    4    0    0  0.62521836117E+02 -0.30720771750E+02 -0.62807541016E+02  0.93795165211E+02  0.00000000000E+00 0.  1.
         13    1    4    4    0    0  0.14979799513E+03  0.64635734792E+02 -0.11390354005E+03  0.19897546078E+03  0.00000000000E+00 0. -1.
          3    1    1    2  501    0 -0.26178396338E+03 -0.46902533712E+02  0.23333405057E+03  0.35380145605E+03  0.00000000000E+00 0. -1.
<scales pt_clust_5="13000.00000" pt_clust_6="13000.00000" pt_clust_7="13000.00000" pt_clust_8="13000.00000" pt_clust_9="13000.00000"></scales>
<clustering>
<clus scale="   80.747">  5  6 -1 -1</clus>
<clus scale="   90.873">  7  8 -1 -1</clus>
<clus scale="   95.580">  2  5  1 -1</clus>
<clus scale="  255.544">  7  9 -1 -1</clus>
<clus scale="  644.088">  1  5  2 -1</clus>
</clustering>
</event>
<event>
 9    2  0.2147756E-005  0.1612022E+03  0.7546771E-02  0.1201733E+00
         21   -1    0    0  501  502  0.00000000000E+00  0.00000000000E+00  0.55026947407E+02  0.55026947407E+02  0.00000000000E+00 0. -1.
         -1   -1    0    0    0  501 -0.00000000000E+00 -0.00000000000E+00 -0.49354728065E+03  0.49354728065E+03  0.00000000000E+00 0.  1.
         24    2    1    2    0    0  0.36592433465E+02 -0.33082837498E+02 -0.33973578320E+03  0.35951194170E+03  0.10674714758E+03 0.  0.
         23    2    1    2    0    0 -0.32559687377E+02 -0.23589084170E+02 -0.56925090161E+02  0.11849186671E+03  0.95829423735E+02 0.  0.
        -13    1    3    3    0    0  0.68288973281E+02  0.10326192243E+01 -0.16268237969E+03  0.17643697695E+03  0.00000000000E+00 0.  1.
         14    1    3    3    0    0 -0.31696539816E+02 -0.34115456723E+02 -0.17705340351E+03  0.18307496475E+03  0.00000000000E+00 0. -1.
        -11    1    4    4    0    0 -0.62165085635E+02  0.37273960151E+01 -0.25059220761E+02  0.67129396677E+02  0.00000000000E+00 0.  1.
         11    1    4    4    0    0  0.29605398258E+02 -0.27316480185E+02 -0.31865869400E+02  0.51362470037E+02  0.00000000000E+00 0. -1.
         -2    1    1    2    0  502 -0.40327460880E+01  0.56671921668E+02 -0.41859459880E+02  0.70570419639E+02  0.00000000000E+00 0.  1.
<scales pt_clust_5="13000.00000" pt_clust_6="13000.00000" pt_clust_7="13000.00000" pt_clust_8="13000.00000" pt_clust_9="13000.00000"></scales>
<clustering>
<clus scale="   95.829">  7  8 -1 -1</clus>
<clus scale="   56.815">  7  9 -1 -1</clus>
<clus scale="  106.747">  5  6 -1 -1</clus>
<clus scale="  117.594">  2  5  1 -1</clus>
<clus scale="  161.202">  1  5  2 -1</clus>
</clustering>
</event>
<event>
 9    2  0.2147756E-005  0.4021818E+03  0.7546771E-02  0.1089706E+00
         21   -1    0    0  501  502  0.00000000000E+00  0.00000000000E+00  0.59762860812E+03  0.59762860812E+03  0.00000000000E+00 0. -1.
         -3   -1    0    0    0  501 -0.00000000000E+00 -0.00000000000E+00 -0.11355739496E+03  0.11355739496E+03  0.00000000000E+00 0.  1.
         24    2    1    2    0    0 -0.75058788157E+02 -0.29629328227E+01  0.56493045760E+02  0.12418236894E+03  0.81161541914E+02 0.  0.
         23    2    1    2    0    0  0.46514879002E+02 -0.11098717894E+03  0.44335886446E+03  0.46847763226E+03  0.91773751035E+02 0.  0.
        -13    1    3    3    0    0 -0.58104284738E+02  0.34586749755E+02  0.45628661624E+02  0.81574051788E+02  0.00000000000E+00 0.  1.
         14    1    3    3    0    0 -0.16954503419E+02 -0.37549682578E+02  0.10864384136E+02  0.42608317152E+02  0.00000000000E+00 0. -1.
        -11    1    4    4    0    0  0.58684507945E+02 -0.93559234370E+02  0.42859859989E+03  0.44259909810E+03  0.00000000000E+00 0. -1.
         11    1    4    4    0    0 -0.12169628942E+02 -0.17427944568E+02  0.14760264571E+02  0.25878534168E+02  0.00000000000E+00 0.  1.
         -4    1    1    2    0  502  0.28543909155E+02  0.11395011176E+03 -0.15780697054E+02  0.11852600187E+03  0.00000000000E+00 0.  1.
<scales pt_clust_5="13000.00000" pt_clust_6="13000.00000" pt_clust_7="13000.00000" pt_clust_8="13000.00000" pt_clust_9="13000.00000"></scales>
<clustering>
<clus scale="   81.162">  5  6 -1 -1</clus>
<clus scale="   91.774">  7  8 -1 -1</clus>
<clus scale="  110.588">  2  5  1 -1</clus>
<clus scale="  116.728">  7  9 -1 -1</clus>
<clus scale="  402.182">  1  5  2 -1</clus>
</clustering>
</event>
<event>
 9    2  0.2147756E-005  0.3340977E+03  0.7546771E-02  0.1123983E+00
         21   -1    0    0  501  502  0.00000000000E+00  0.00000000000E+00  0.11145327423E+03  0.11145327423E+03  0.00000000000E+00 0. -1.
          2   -1    0    0  502    0 -0.00000000000E+00 -0.00000000000E+00 -0.38490573742E+03  0.38490573742E+03  0.00000000000E+00 0. -1.
         24    2    1    2    0    0  0.17402984915E+01 -0.24132228095E+01 -0.53048028454E+02  0.96109855304E+02  0.80088442865E+02 0.  0.
         23    2    1    2    0    0 -0.89904154789E+02 -0.28624097593E+02  0.29795782455E+02  0.13316053903E+03  0.89117026940E+02 0.  0.
        -11    1    3    3    0    0  0.95825934116E+01  0.36336282157E+02 -0.12816282158E+02  0.39704012213E+02  0.00000000000E+00 0.  1.
         12    1    3    3    0    0 -0.78422949201E+01 -0.38749504966E+02 -0.40231746296E+02  0.56405843091E+02  0.00000000000E+00 0. -1.
        -13    1    4    4    0    0 -0.90368430302E+01  0.26725753056E+02 -0.59794632324E+01  0.28838938762E+02  0.00000000000E+00 0.  1.
         13    1    4    4    0    0 -0.80867311759E+02 -0.55349850649E+02  0.35775245688E+02  0.10432160027E+03  0.00000000000E+00 0. -1.
          1    1    1    2  501    0  0.88163856298E+02  0.31037320402E+02 -0.25020021719E+03  0.26708861731E+03  0.00000000000E+00 0. -1.
<scales pt_clust_5="13000.00000" pt_clust_6="13000.00000" pt_clust_7="13000.00000" pt_clust_8="13000.00000" pt_clust_9="13000.00000"></scales>
<clustering>
<clus scale="   80.088">  5  6 -1 -1</clus>
<clus scale="   80.144">  2  5  1 -1</clus>
<clus scale="   89.117">  7  8 -1 -1</clus>
<clus scale="   94.198">  7  9 -1 -1</clus>
<clus scale="  334.098">  1  5  2 -1</clus>
</clustering>
</event>
<event>
 9    2  0.2147756E-005  0.3909213E+03  0.7546771E-02  0.1064742E+00
         21   -1    0    0  501  502  0.00000000000E+00  0.00000000000E+00  0.26396071580E+03  0.26396071580E+03  0.00000000000E+00 0.  1.
         -1   -1    0    0    0  501 -0.00000000000E+00 -0.00000000000E+00 -0.37395363386E+03  0.37395363386E+03  0.00000000000E+00 0.  1.
         24    2    1    2    0    0  0.18904332171E+03  0.11353907075E+03 -0.27303053695E+02  0.23834320580E+03  0.86217915435E+02 0.  0.
         23    2    1    2    0    0 -0.17744813210E+03  0.55997330523E+02  0.96470232506E+01  0.20617222816E+03  0.88263140654E+02 0.  0.
        -13    1    3    3    0    0  0.65582074095E+02  0.63387326299E+02 -0.48671435775E+02  0.10338215629E+03  0.00000000000E+00 0.  1.
         14    1    3    3    0    0  0.12346124762E+03  0.50151744450E+02  0.21368382081E+02  0.13496104952E+03  0.00000000000E+00 0. -1.
        -13    1    4    4    0    0 -0.52792429438E+02  0.48636036979E+02 -0.25945225464E+02  0.76326007516E+02  0.00000000000E+00 0. -1.
         13    1    4    4    0    0 -0.12465570266E+03  0.73612935445E+01  0.35592248714E+02  0.12984622065E+03  0.00000000000E+00 0.  1.
         -2    1    1    2    0  502 -0.11595189614E+02 -0.16953640127E+03 -0.92336887610E+02  0.19339891570E+03  0.00000000000E+00 0.  1.
<scales pt_clust_5="13000.00000" pt_clust_6="13000.00000" pt_clust_7="13000.00000" pt_clust_8="13000.00000" pt_clust_9="13000.00000"></scales>
<clustering>
<clus scale="   86.218">  5  6 -1 -1</clus>
<clus scale="   88.263">  7  8 -1 -1</clus>
<clus scale="  169.933">  7  9 -1 -1</clus>
<clus scale="  236.774">  2  5  1 -1</clus>
<clus scale="  390.921">  1  5  2 -1</clus>
</clustering>
</event>
<event>
 9    2  0.3792635E-005  0.6145777E+03  0.7546771E-02  0.1016458E+00
          2   -1    0    0  502    0 -0.00000000000E+00  0.00000000000E+00  0.39496184475E+03  0.39496184475E+03  0.00000000000E+00 0. -1.
         21   -1    0    0  501  502  0.00000000000E+00 -0.00000000000E+00 -0.47895055970E+03  0.47895055970E+03  0.00000000000E+00 0. -1.
         24    2    1    2    0    0  0.83620098006E+02  0.21937865870E+03  0.26483603734E+02  0.24948473806E+03  0.80136986317E+02 0.  0.
         23    2    1    2    0    0  0.24588859576E+02  0.65537275887E+02  0.17340318575E+03  0.20792848235E+03  0.90916678315E+02 0.  0.
        -13    1    3    3    0    0 -0.15784102447E+02  0.38438603462E+02  0.67284172484E+01  0.42094366901E+02  0.00000000000E+00 0.  1.
         14    1    3    3    0    0  0.99404200453E+02  0.18094005524E+03  0.19755186486E+02  0.20739037116E+03  0.00000000000E+00 0. -1.
        -13    1    4    4    0    0  0.38690061598E+02  0.80225695625E+01  0.21706079010E+02  0.45082550448E+02  0.00000000000E+00 0.  1.
         13    1    4    4    0    0 -0.14101202022E+02  0.57514706325E+02  0.15169710674E+03  0.16284593190E+03  0.00000000000E+00 0. -1.
          1    1    1    2  501    0 -0.10820895758E+03 -0.28491593459E+03 -0.28387550444E+03  0.41649918404E+03  0.00000000000E+00 0. -1.
<scales pt_clust_5="13000.00000" pt_clust_6="13000.00000" pt_clust_7="13000.00000" pt_clust_8="13000.00000" pt_clust_9="13000.00000"></scales>
<clustering>
<clus scale="   80.137">  5  6 -1 -1</clus>
<clus scale="   90.917">  7  8 -1 -1</clus>
<clus scale="  248.075">  1  5  2 -1</clus>
<clus scale="  244.190">  7  9 -1 -1</clus>
<clus scale="  614.578">  2  5  1 -1</clus>
</clustering>
</event>
<event>
 9    2  0.2147756E-005  0.3802431E+03  0.7546771E-02  0.1099868E+00
          2   -1    0    0  502    0 -0.00000000000E+00  0.00000000000E+00  0.55397119209E+03  0.55397119209E+03  0.00000000000E+00 0. -1.
         21   -1    0    0  501  502  0.00000000000E+00 -0.00000000000E+00 -0.10847650961E+03  0.10847650961E+03  0.00000000000E+00 0. -1.
         24    2    1    2    0    0 -0.89896329134E+01  0.58110952389E+02  0.15208136714E+03  0.18216012844E+03  0.81214985523E+02 0.  0.
         23    2    1    2    0    0  0.11132394304E+03  0.10012832127E+03  0.21073442480E+03  0.27450181647E+03  0.92323065576E+02 0.  0.
        -11    1    3    3    0    0 -0.97112941767E+01  0.28376810948E+02  0.30016630127E+01  0.30142372418E+02  0.00000000000E+00 0.  1.
         12    1    3    3    0    0  0.72166126326E+00  0.29734141440E+02  0.14907970413E+03  0.15201775602E+03  0.00000000000E+00 0. -1.
        -11    1    4    4    0    0 -0.26356344301E+01  0.51544479950E+02  0.53653141472E+02  0.74447562566E+02  0.00000000000E+00 0.  1.
         11    1    4    4    0    0  0.11395957747E+03  0.48583841317E+02  0.15708128333E+03  0.20005425391E+03  0.00000000000E+00 0. -1.
          1    1    1    2  501    0 -0.10233431013E+03 -0.15823927366E+03  0.82678890541E+02  0.20578575679E+03  0.00000000000E+00 0. -1.
<scales pt_clust_5="13000.00000" pt_clust_6="13000.00000" pt_clust_7="13000.00000" pt_clust_8="13000.00000" pt_clust_9="13000.00000"></scales>
<clustering>
<clus scale="   81.215">  5  6 -1 -1</clus>
<clus scale="   92.323">  7  8 -1 -1</clus>
<clus scale="  100.267">  1  5  2 -1</clus>
<clus scale="  172.690">  7  9 -1 -1</clus>
<clus scale="  380.243">  2  5  1 -1</clus>
</clustering>
</event>
<event>
 9    2  0.2147756E-005  0.1615638E+03  0.7546771E-02  0.1214413E+00
         21   -1    0    0  501  502  0.00000000000E+00  0.00000000000E+00  0.31382891129E+02  0.31382891129E+02  0.00000000000E+00 0.  1.
          2   -1    0    0  502    0 -0.00000000000E+00 -0.00000000000E+00 -0.10973872910E+04  0.10973872910E+04  0.00000000000E+00 0. -1.
         24    2    1    2    0    0 -0.13631473543E+02  0.36339345968E+02 -0.87097624803E+03  0.87551370128E+03  0.80113989832E+02 0.  0.
         23    2    1    2    0    0  0.39758385578E+02  0.97334741775E+01 -0.16172470113E+03  0.19069099423E+03  0.92372650604E+02 0.  0.
        -13    1    3    3    0    0  0.25478021932E+02  0.45500351406E+01 -0.11577403230E+03  0.11863161036E+03  0.00000000000E+00 0.  1.
         14    1    3    3    0    0 -0.39109495476E+02  0.31789310828E+02 -0.75520221573E+03  0.75688209092E+03  0.00000000000E+00 0. -1.
        -11    1    4    4    0    0  0.63120593611E+02 -0.94917434048E+00 -0.14941861992E+03  0.16220676388E+03  0.00000000000E+00 0.  1.
         11    1    4    4    0    0 -0.23362208033E+02  0.10682648518E+02 -0.12306081207E+02  0.28484230342E+02  0.00000000000E+00 0. -1.
          1    1    1    2  501    0 -0.26126912034E+02 -0.46072820146E+02 -0.33303450743E+02  0.62565486652E+02  0.00000000000E+00 0. -1.
<scales pt_clust_5="13000.00000" pt_clust_6="13000.00000" pt_clust_7="13000.00000" pt_clust_8="13000.00000" pt_clust_9="13000.00000"></scales>
<clustering>
<clus scale="   80.114">  5  6 -1 -1</clus>
<clus scale="   89.020">  2  5  1 -1</clus>
<clus scale="   92.373">  7  8 -1 -1</clus>
<clus scale="   48.067">  7  9 -1 -1</clus>
<clus scale="  161.564">  1  5  2 -1</clus>
</clustering>
</event>
<event>
 9    2  0.2147756E-005  0.2840407E+03  0.7546771E-02  0.1137536E+00
         21   -1    0    0  501  502  0.00000000000E+00  0.00000000000E+00  0.64775838660E+02  0.64775838660E+02  0.00000000000E+00 0. -1.
          2   -1    0    0  502    0 -0.00000000000E+00 -0.00000000000E+00 -0.55067210646E+03  0.55067210646E+03  0.00000000000E+00 0. -1.
         24    2    1    2    0    0  0.40118628265E+02 -0.26674706307E+02 -0.11288928531E+03  0.14660541343E+03  0.80175508835E+02 0.  0.
         23    2    1    2    0    0 -0.82747884801E+02  0.11611973663E+03 -0.14767430809E+03  0.22268713137E+03  0.86318315157E+02 0.  0.
        -11    1    3    3    0    0  0.22333004320E+02  0.28091703989E+02 -0.40654280776E+02  0.54228013613E+02  0.00000000000E+00 0.  1.
         12    1    3    3    0    0  0.17785623945E+02 -0.54766410296E+02 -0.72235004535E+02  0.92377399812E+02  0.00000000000E+00 0. -1.
        -13    1    4    4    0    0 -0.94287311829E+02  0.72353541086E+02 -0.88464587333E+02  0.14815908778E+03  0.00000000000E+00 0. -1.
         13    1    4    4    0    0  0.11539427028E+02  0.43766195540E+02 -0.59209720761E+02  0.74528043587E+02  0.00000000000E+00 0.  1.
          1    1    1    2  501    0  0.42629256536E+02 -0.89445030319E+02 -0.22533267439E+03  0.24615540032E+03  0.00000000000E+00 0. -1.
<scales pt_clust_5="13000.00000" pt_clust_6="13000.00000" pt_clust_7="13000.00000" pt_clust_8="13000.00000" pt_clust_9="13000.00000"></scales>
<clustering>
<clus scale="   80.176">  5  6 -1 -1</clus>
<clus scale="   86.318">  7  8 -1 -1</clus>
<clus scale="   93.537">  2  5  1 -1</clus>
<clus scale="  123.020">  7  9 -1 -1</clus>
<clus scale="  284.041">  1  5  2 -1</clus>
</clustering>
</event>
<event>
 9    2  0.2147756E-005  0.2171872E+03  0.7546771E-02  0.1163021E+00
          2   -1    0    0  502    0 -0.00000000000E+00  0.00000000000E+00  0.98850768991E+02  0.98850768991E+02  0.00000000000E+00 0. -1.
         21   -1    0    0  501  502  0.00000000000E+00 -0.00000000000E+00 -0.28004389016E+03  0.28004389016E+03  0.00000000000E+00 0. -1.
         24    2    1    2    0    0 -0.78432113607E+02  0.96622177953E+01 -0.77751975968E+02  0.13833212298E+03  0.82737244230E+02 0.  0.
         23    2    1    2    0    0  0.28037728721E+02 -0.81914131492E+01  0.27931203583E+02  0.99848459695E+02  0.91303610491E+02 0.  0.
        -11    1    3    3    0    0 -0.21675739243E+02  0.33498013086E+02 -0.95793271537E+00  0.39910802893E+02  0.00000000000E+00 0.  1.
         12    1    3    3    0    0 -0.56756374364E+02 -0.23835795291E+02 -0.76794043252E+02  0.98421320084E+02  0.00000000000E+00 0. -1.
        -13    1    4    4    0    0  0.17236263699E+02 -0.49531249388E+02  0.21319274070E+02  0.56612232769E+02  0.00000000000E+00 0. -1.
         13    1    4    4    0    0  0.10801465022E+02  0.41339836239E+02  0.66119295132E+01  0.43236226926E+02  0.00000000000E+00 0.  1.
          1    1    1    2  501    0  0.50394384886E+02 -0.14708046461E+01 -0.13137234879E+03  0.14071407648E+03  0.00000000000E+00 0. -1.
<scales pt_clust_5="13000.00000" pt_clust_6="13000.00000" pt_clust_7="13000.00000" pt_clust_8="13000.00000" pt_clust_9="13000.00000"></scales>
<clustering>
<clus scale="   82.737">  5  6 -1 -1</clus>
<clus scale="   91.304">  7  8 -1 -1</clus>
<clus scale="   50.416">  7  9 -1 -1</clus>
<clus scale="  114.413">  1  5  2 -1</clus>
<clus scale="  217.187">  2  5  1 -1</clus>
</clustering>
</event>
<event>
 9    2  0.2147756E-005  0.2316413E+03  0.7546771E-02  0.1148481E+00
         21   -1    0    0  501  502  0.00000000000E+00  0.00000000000E+00  0.32116586866E+03  0.32116586866E+03  0.00000000000E+00 0.  1.
         -3   -1    0    0    0  501 -0.00000000000E+00 -0.00000000000E+00 -0.13151777449E+03  0.13151777449E+03  0.00000000000E+00 0.  1.
         24    2    1    2    0    0 -0.49538269088E+02  0.88119076789E+02 -0.27189399069E+02  0.13538854261E+03  0.85859083683E+02 0.  0.
         23    2    1    2    0    0  0.78140877968E+02  0.67306225786E+01  0.16766480374E+03  0.20669434061E+03  0.91976985904E+02 0.  0.
        -13    1    3    3    0    0 -0.69298053605E+02  0.50864808548E+02 -0.34431098662E+02  0.92601023413E+02  0.00000000000E+00 0.  1.
         14    1    3    3    0    0  0.19759784517E+02  0.37254268241E+02  0.72416995921E+01  0.42787519200E+02  0.00000000000E+00 0. -1.
        -11    1    4    4    0    0  0.49130441835E+02 -0.10980615630E+02  0.16510385558E+03  0.17260839308E+03  0.00000000000E+00 0.  1.
         11    1    4    4    0    0  0.29010436133E+02  0.17711238209E+02  0.25609481638E+01  0.34085947530E+02  0.00000000000E+00 0. -1.
         -4    1    1    2    0  502 -0.28602608881E+02 -0.94849699368E+02  0.49172689490E+02  0.11060075993E+03  0.00000000000E+00 0.  1.
<scales pt_clust_5="13000.00000" pt_clust_6="13000.00000" pt_clust_7="13000.00000" pt_clust_8="13000.00000" pt_clust_9="13000.00000"></scales>
<clustering>
<clus scale="   85.859">  5  6 -1 -1</clus>
<clus scale="   91.977">  7  8 -1 -1</clus>
<clus scale="   99.069">  7  9 -1 -1</clus>
<clus scale="  132.630">  2  5  1 -1</clus>
<clus scale="  231.641">  1  5  2 -1</clus>
</clustering>
</event>
<event>
 9    2  0.2147756E-005  0.4345557E+03  0.7546771E-02  0.1086730E+00
         -1   -1    0    0    0  501 -0.00000000000E+00  0.00000000000E+00  0.19419064497E+03  0.19419064497E+03  0.00000000000E+00 0.  1.
         21   -1    0    0  501  502  0.00000000000E+00 -0.00000000000E+00 -0.36814930082E+03  0.36814930082E+03  0.00000000000E+00 0.  1.
         24    2    1    2    0    0  0.47282512482E+02 -0.21414501917E+02 -0.62870406417E+02  0.11380982664E+03  0.79408889660E+02 0.  0.
         23    2    1    2    0    0  0.33979031553E+02 -0.18207849191E+03 -0.89833044073E+01  0.20679005860E+03  0.91511074599E+02 0.  0.
        -13    1    3    3    0    0  0.50217588271E+02  0.16929429801E+02 -0.51036723956E+02  0.73574173168E+02  0.00000000000E+00 0.  1.
         14    1    3    3    0    0 -0.29350757894E+01 -0.38343931718E+02 -0.11833682461E+02  0.40235653469E+02  0.00000000000E+00 0. -1.
        -13    1    4    4    0    0  0.63443095757E+02 -0.10460275997E+03 -0.16999407620E+02  0.12351414353E+03  0.00000000000E+00 0. -1.
         13    1    4    4    0    0 -0.29464064205E+02 -0.77475731947E+02  0.80161032131E+01  0.83275915071E+02  0.00000000000E+00 0.  1.
         -2    1    1    2    0  502 -0.81261544034E+02  0.20349299383E+03 -0.10210494503E+03  0.24174006055E+03  0.00000000000E+00 0.  1.
<scales pt_clust_5="13000.00000" pt_clust_6="13000.00000" pt_clust_7="13000.00000" pt_clust_8="13000.00000" pt_clust_9="13000.00000"></scales>
<clustering>
<clus scale="   79.409">  5  6 -1 -1</clus>
<clus scale="   91.511">  7  8 -1 -1</clus>
<clus scale="   94.868">  1  5  2 -1</clus>
<clus scale="  204.176">  7  9 -1 -1</clus>
<clus scale="  434.556">  2  5  1 -1</clus>
</clustering>
</event>
<event>
 9    2  0.2147756E-005  0.3401284E+03  0.7546771E-02  0.1102658E+00
          2   -1    0    0  502    0 -0.00000000000E+00  0.00000000000E+00  0.89654903167E+03  0.89654903167E+03  0.00000000000E+00 0. -1.
         21   -1    0    0  501  502  0.00000000000E+00 -0.00000000000E+00 -0.64793395164E+02  0.64793395164E+02  0.00000000000E+00 0.  1.
         24    2    1    2    0    0  0.69279396534E+02 -0.71775484458E+02  0.33351068677E+03  0.35807190061E+03  0.83873433606E+02 0.  0.
         23    2    1    2    0    0  0.99143174098E+02  0.94738480720E+02  0.16383382141E+03  0.22813819724E+03  0.80004795511E+02 0.  0.
        -13    1    3    3    0    0  0.77993921282E+02 -0.29277661691E+02  0.17641236661E+03  0.19509371165E+03  0.00000000000E+00 0.  1.
         14    1    3    3    0    0 -0.87145247479E+01 -0.42497822766E+02  0.15709832016E+03  0.16297818896E+03  0.00000000000E+00 0. -1.
        -13    1    4    4    0    0  0.70183558611E+02  0.99763075231E+02  0.15541154960E+03  0.19756303508E+03  0.00000000000E+00 0. -1.
         13    1    4    4    0    0  0.28959615487E+02 -0.50245945117E+01  0.84222718075E+01  0.30575162167E+02  0.00000000000E+00 0.  1.
          1    1    1    2  501    0 -0.16842257063E+03 -0.22962996262E+02  0.33441112833E+03  0.37513232898E+03  0.00000000000E+00 0. -1.
<scales pt_clust_5="13000.00000" pt_clust_6="13000.00000" pt_clust_7="13000.00000" pt_clust_8="13000.00000" pt_clust_9="13000.00000"></scales>
<clustering>
<clus scale="   80.005">  7  8 -1 -1</clus>
<clus scale="   83.873">  5  6 -1 -1</clus>
<clus scale="  130.331">  1  5  2 -1</clus>
<clus scale="  141.823">  7  9 -1 -1</clus>
<clus scale="  340.128">  2  5  1 -1</clus>
</clustering>
</event>
<event>
 9    2  0.2147756E-005  0.2461034E+03  0.7546771E-02  0.1139929E+00
          2   -1    0    0  502    0 -0.00000000000E+00  0.00000000000E+00  0.71313285293E+03  0.71313285293E+03  0.00000000000E+00 0. -1.
         21   -1    0    0  501  502  0.00000000000E+00 -0.00000000000E+00 -0.51124137111E+02  0.51124137111E+02  0.00000000000E+00 0. -1.
         24    2    1    2    0    0  0.47209106135E+02 -0.95321853994E+02  0.22914072573E+03  0.26631965875E+03  0.84295509349E+02 0.  0.
         23    2    1    2    0    0 -0.41961587017E+02 -0.44473256894E+02  0.17381976488E+03  0.20352912409E+03  0.86441589101E+02 0.  0.
        -11    1    3    3    0    0  0.62627233772E+02 -0.32848889915E+02  0.10686004057E+03  0.12814167257E+03  0.00000000000E+00 0.  1.
         12    1    3    3    0    0 -0.15418127637E+02 -0.62472964080E+02  0.12228068517E+03  0.13817798618E+03  0.00000000000E+00 0. -1.
        -13    1    4    4    0    0 -0.13469939741E+02 -0.33076430569E+02  0.16867484692E+03  0.17241430776E+03  0.00000000000E+00 0. -1.
         13    1    4    4    0    0 -0.28491647277E+02 -0.11396826325E+02  0.51449179635E+01  0.31114816337E+02  0.00000000000E+00 0.  1.
          1    1    1    2  501    0 -0.52475191172E+01  0.13979511089E+03  0.25904822521E+03  0.29440820720E+03  0.00000000000E+00 0. -1.
<scales pt_clust_5="13000.00000" pt_clust_6="13000.00000" pt_clust_7="13000.00000" pt_clust_8="13000.00000" pt_clust_9="13000.00000"></scales>
<clustering>
<clus scale="   84.296">  5  6 -1 -1</clus>
<clus scale="   86.442">  7  8 -1 -1</clus>
<clus scale="  135.723">  1  5  2 -1</clus>
<clus scale="   86.193">  7  9 -1 -1</clus>
<clus scale="  246.103">  2  5  1 -1</clus>
</clustering>
</event>
<event>
 9    2  0.2147756E-005  0.3974842E+03  0.7546771E-02  0.1100650E+00
         21   -1    0    0  501  502  0.00000000000E+00  0.00000000000E+00  0.39025612329E+03  0.39025612329E+03  0.00000000000E+00 0.  1.
         -3   -1    0    0    0  501 -0.00000000000E+00 -0.00000000000E+00 -0.15024859268E+03  0.15024859268E+03  0.00000000000E+00 0.  1.
         24    2    1    2    0    0  0.99096926937E+01  0.25702179559E+02  0.31094239660E+02  0.91463013936E+02  0.81485134440E+02 0.  0.
         23    2    1    2    0    0  0.16972846968E+03  0.51478593650E+02  0.13129693502E+03  0.23868239075E+03  0.90953831619E+02 0.  0.
        -13    1    3    3    0    0  0.22357650881E+02 -0.24500886933E+02  0.50437967193E+01  0.33549931427E+02  0.00000000000E+00 0.  1.
         14    1    3    3    0    0 -0.12447958188E+02  0.50203066492E+02  0.26050442941E+02  0.57913082509E+02  0.00000000000E+00 0. -1.
        -11    1    4    4    0    0  0.51627589308E+02  0.59839322723E+02  0.36710036586E+02  0.87142293451E+02  0.00000000000E+00 0. -1.
         11    1    4    4    0    0  0.11810088037E+03 -0.83607290729E+01  0.94586898430E+02  0.15154009730E+03  0.00000000000E+00 0.  1.
         -4    1    1    2    0  502 -0.17963816237E+03 -0.77180773210E+02  0.77616355930E+02  0.21035931128E+03  0.00000000000E+00 0.  1.
<scales pt_clust_5="13000.00000" pt_clust_6="13000.00000" pt_clust_7="13000.00000" pt_clust_8="13000.00000" pt_clust_9="13000.00000"></scales>
<clustering>
<clus scale="   81.485">  5  6 -1 -1</clus>
<clus scale="   86.015">  2  5  1 -1</clus>
<clus scale="   90.954">  7  8 -1 -1</clus>
<clus scale="  185.195">  7  9 -1 -1</clus>
<clus scale="  397.484">  1  5  2 -1</clus>
</clustering>
</event>
<event>
 9    2  0.2147756E-005  0.1779354E+03  0.7546771E-02  0.1203989E+00
         21   -1    0    0  501  502  0.00000000000E+00  0.00000000000E+00  0.29042947775E+03  0.29042947775E+03  0.00000000000E+00 0. -1.
          4   -1    0    0  502    0 -0.00000000000E+00 -0.00000000000E+00 -0.58734853397E+02  0.58734853397E+02  0.00000000000E+00 0. -1.
         24    2    1    2    0    0 -0.24804319741E+01 -0.27775330894E+02  0.74198637836E+02  0.11153856898E+03  0.78471606107E+02 0.  0.
         23    2    1    2    0    0 -0.36324888461E+02 -0.23280784946E+02  0.13372047649E+03  0.16923091780E+03  0.94320969230E+02 0.  0.
        -11    1    3    3    0    0  0.27909530788E+02 -0.30129865248E+02  0.12847436590E+02  0.43032630824E+02  0.00000000000E+00 0.  1.
         12    1    3    3    0    0 -0.30389962763E+02  0.23545343546E+01  0.61351201245E+02  0.68505938159E+02  0.00000000000E+00 0. -1.
        -13    1    4    4    0    0 -0.27221686664E+01 -0.56422252255E+02  0.70621149716E+02  0.90433553170E+02  0.00000000000E+00 0. -1.
         13    1    4    4    0    0 -0.33602719794E+02  0.33141467308E+02  0.63099326775E+02  0.78797364628E+02  0.00000000000E+00 0.  1.
          3    1    1    2  501    0  0.38805320435E+02  0.51056115840E+02  0.23775510026E+02  0.68394844365E+02  0.00000000000E+00 0. -1.
<scales pt_clust_5="13000.00000" pt_clust_6="13000.00000" pt_clust_7="13000.00000" pt_clust_8="13000.00000" pt_clust_9="13000.00000"></scales>
<clustering>
<clus scale="   78.472">  5  6 -1 -1</clus>
<clus scale="   83.279">  2  5  1 -1</clus>
<clus scale="   94.321">  7  8 -1 -1</clus>
<clus scale="   51.645">  7  9 -1 -1</clus>
<clus scale="  177.935">  1  5  2 -1</clus>
</clustering>
</event>
<event>
 9    2  0.2147756E-005  0.2755674E+03  0.7546771E-02  0.1138697E+00
         21   -1    0    0  501  502  0.00000000000E+00  0.00000000000E+00  0.54392228983E+03  0.54392228983E+03  0.00000000000E+00 0.  1.
          2   -1    0    0  502    0 -0.00000000000E+00 -0.00000000000E+00 -0.73383068948E+02  0.73383068948E+02  0.00000000000E+00 0. -1.
         24    2    1    2    0    0 -0.57266405213E+02 -0.46538056419E+01  0.42616516500E+02  0.10833066769E+03  0.81352732042E+02 0.  0.
         23    2    1    2    0    0 -0.85111114060E+01  0.68256478575E+02  0.39546467055E+03  0.41188964766E+03  0.92354698371E+02 0.  0.
        -13    1    3    3    0    0 -0.75207077690E+02  0.71823250246E+01  0.42812198208E+02  0.86836482211E+02  0.00000000000E+00 0.  1.
         14    1    3    3    0    0  0.17940672477E+02 -0.11836130667E+02 -0.19568170790E+00  0.21494185479E+02  0.00000000000E+00 0. -1.
        -13    1    4    4    0    0 -0.15541287959E+02 -0.13422360017E+02  0.24468990371E+02  0.31944058440E+02  0.00000000000E+00 0. -1.
         13    1    4    4    0    0  0.70301765527E+01  0.81678838592E+02  0.37099568018E+03  0.37994558922E+03  0.00000000000E+00 0.  1.
          1    1    1    2  501    0  0.65777516619E+02 -0.63602672933E+02  0.32458033828E+02  0.97085043425E+02  0.00000000000E+00 0. -1.
<scales pt_clust_5="13000.00000" pt_clust_6="13000.00000" pt_clust_7="13000.00000" pt_clust_8="13000.00000" pt_clust_9="13000.00000"></scales>
<clustering>
<clus scale="   81.353">  5  6 -1 -1</clus>
<clus scale="   92.355">  7  8 -1 -1</clus>
<clus scale="   91.499">  7  9 -1 -1</clus>
<clus scale="   99.596">  2  5  1 -1</clus>
<clus scale="  275.567">  1  5  2 -1</clus>
</clustering>
</event>
<event>
 9    2  0.2147756E-005  0.4001978E+03  0.7546771E-02  0.1057103E+00
         -3   -1    0    0    0  501 -0.00000000000E+00  0.00000000000E+00  0.35134332557E+03  0.35134332557E+03  0.00000000000E+00 0.  1.
         21   -1    0    0  501  502  0.00000000000E+00 -0.00000000000E+00 -0.40570096321E+03  0.40570096321E+03  0.00000000000E+00 0.  1.
         24    2    1    2    0    0  0.25495297633E+03 -0.34828942603E+02 -0.19192474102E+03  0.33386228620E+03  0.91732461825E+02 0.  0.
         23    2    1    2    0    0 -0.26540942078E+03 -0.54472831209E+02  0.37405039571E+02  0.28858414574E+03  0.92044675046E+02 0.  0.
        -11    1    3    3    0    0  0.23956983431E+03 -0.60329920771E+01 -0.17722415455E+03  0.29805788609E+03  0.00000000000E+00 0.  1.
         12    1    3    3    0    0  0.15383142018E+02 -0.28795950526E+02 -0.14700586478E+02  0.35804400118E+02  0.00000000000E+00 0. -1.
        -13    1    4    4    0    0 -0.39477605385E+02  0.72807048705E+01 -0.23578715955E+02  0.46555835686E+02  0.00000000000E+00 0. -1.
         13    1    4    4    0    0 -0.22593181540E+03 -0.61753536080E+02  0.60983755526E+02  0.24202831005E+03  0.00000000000E+00 0.  1.
         -4    1    1    2    0  502  0.10456444459E+02  0.89301773812E+02  0.10016206381E+03  0.13459785683E+03  0.00000000000E+00 0.  1.
<scales pt_clust_5="13000.00000" pt_clust_6="13000.00000" pt_clust_7="13000.00000" pt_clust_8="13000.00000" pt_clust_9="13000.00000"></scales>
<clustering>
<clus scale="   91.732">  5  6 -1 -1</clus>
<clus scale="   92.045">  7  8 -1 -1</clus>
<clus scale="   89.912">  7  9 -1 -1</clus>
<clus scale="  273.183">  1  5  2 -1</clus>
<clus scale="  400.198">  2  5  1 -1</clus>
</clustering>
</event>
<event>
 9    2  0.2147756E-005  0.1795601E+03  0.7546771E-02  0.1186591E+00
          2   -1    0    0  502    0 -0.00000000000E+00  0.00000000000E+00  0.46174043344E+03  0.46174043344E+03  0.00000000000E+00 0. -1.
         21   -1    0    0  501  502  0.00000000000E+00 -0.00000000000E+00 -0.58535014354E+02  0.58535014354E+02  0.00000000000E+00 0.  1.
         24    2    1    2    0    0  0.53132515170E+02 -0.69062831969E+02  0.59975745985E+02  0.13291460680E+03  0.80476478972E+02 0.  0.
         23    2    1    2    0    0 -0.48391520203E+02  0.70820264000E+01  0.13178453254E+03  0.16696768148E+03  0.90106322288E+02 0.  0.
        -11    1    3    3    0    0  0.82116823956E+01 -0.51882834743E+02 -0.42241962634E+01  0.52698236240E+02  0.00000000000E+00 0.  1.
         12    1    3    3    0    0  0.44920832774E+02 -0.17179997226E+02  0.64199942248E+02  0.80216370564E+02  0.00000000000E+00 0. -1.
        -11    1    4    4    0    0 -0.93770403178E+01 -0.21350604293E+02  0.11264985910E+03  0.11503811518E+03  0.00000000000E+00 0.  1.
         11    1    4    4    0    0 -0.39014479885E+02  0.28432630693E+02  0.19134673448E+02  0.51929566306E+02  0.00000000000E+00 0. -1.
          1    1    1    2  501    0 -0.47409949673E+01  0.61980805569E+02  0.21144514056E+03  0.22039315951E+03  0.00000000000E+00 0. -1.
<scales pt_clust_5="13000.00000" pt_clust_6="13000.00000" pt_clust_7="13000.00000" pt_clust_8="13000.00000" pt_clust_9="13000.00000"></scales>
<clustering>
<clus scale="   80.476">  5  6 -1 -1</clus>
<clus scale="   90.106">  7  8 -1 -1</clus>
<clus scale="   62.162">  7  9 -1 -1</clus>
<clus scale="  118.614">  1  5  2 -1</clus>
<clus scale="  179.560">  2  5  1 -1</clus>
</clustering>
</event>
<event>
 9    2  0.2147756E-005  0.5045488E+03  0.7546771E-02  0.1053063E+00
         21   -1    0    0  501  502  0.00000000000E+00  0.00000000000E+00  0.53026936981E+02  0.53026936981E+02  0.00000000000E+00 0. -1.
          2   -1    0    0  502    0 -0.00000000000E+00 -0.00000000000E+00 -0.23223943979E+04  0.23223943979E+04  0.00000000000E+00 0. -1.
         24    2    1    2    0    0 -0.11693134839E+03  0.55973349888E+02 -0.96221542780E+03  0.97427327503E+03  0.80894553608E+02 0.  0.
         23    2    1    2    0    0 -0.50432653247E+02 -0.10815006731E+03 -0.97800301622E+02  0.17915594475E+03  0.91060770754E+02 0.  0.
        -11    1    3    3    0    0 -0.44160903389E+02  0.42669384232E+01 -0.13166326569E+03  0.13893742363E+03  0.00000000000E+00 0.  1.
         12    1    3    3    0    0 -0.72770445006E+02  0.51706411464E+02 -0.83055216211E+03  0.83533585140E+03  0.00000000000E+00 0. -1.
        -11    1    4    4    0    0 -0.35900218094E+02 -0.44836780213E+02 -0.98692542744E+02  0.11419010689E+03  0.00000000000E+00 0.  1.
         11    1    4    4    0    0 -0.14532435153E+02 -0.63313287098E+02  0.89224112217E+00  0.64965837860E+02  0.00000000000E+00 0. -1.
          1    1    1    2  501    0  0.16736400164E+03  0.52176717424E+02 -0.12093517315E+04  0.12219921151E+04  0.00000000000E+00 0. -1.
<scales pt_clust_5="13000.00000" pt_clust_6="13000.00000" pt_clust_7="13000.00000" pt_clust_8="13000.00000" pt_clust_9="13000.00000"></scales>
<clustering>
<clus scale="   80.895">  5  6 -1 -1</clus>
<clus scale="   91.061">  7  8 -1 -1</clus>
<clus scale="  152.807">  2  5  1 -1</clus>
<clus scale="  119.932">  7  9 -1 -1</clus>
<clus scale="  504.549">  1  5  2 -1</clus>
</clustering>
</event>
<event>
 9    2  0.2147756E-005  0.3652238E+03  0.7546771E-02  0.1066730E+00
         21   -1    0    0  501  502  0.00000000000E+00  0.00000000000E+00  0.16442914374E+03  0.16442914374E+03  0.00000000000E+00 0.  1.
          2   -1    0    0  502    0 -0.00000000000E+00 -0.00000000000E+00 -0.63732607908E+03  0.63732607908E+03  0.00000000000E+00 0. -1.
         24    2    1    2    0    0  0.20462108267E+03  0.16106353876E+03 -0.26367548315E+03  0.38084899604E+03  0.87806300345E+02 0.  0.
         23    2    1    2    0    0 -0.11118134625E+03 -0.15959099152E+03 -0.23911342914E+03  0.32279056533E+03  0.95853746612E+02 0.  0.
        -11    1    3    3    0    0  0.17571266699E+03  0.14153470602E+03 -0.17493807339E+03  0.28550016440E+03  0.00000000000E+00 0.  1.
         12    1    3    3    0    0  0.28908415680E+02  0.19528832740E+02 -0.88737409757E+02  0.95348831643E+02  0.00000000000E+00 0. -1.
        -11    1    4    4    0    0 -0.11433206529E+03 -0.95865756558E+02 -0.19357085741E+03  0.24440078001E+03  0.00000000000E+00 0. -1.
         11    1    4    4    0    0  0.31507190397E+01 -0.63725234959E+02 -0.45542571738E+02  0.78389785314E+02  0.00000000000E+00 0.  1.
          1    1    1    2  501    0 -0.93439736416E+02 -0.14725472462E+01  0.29891976954E+02  0.98115661457E+02  0.00000000000E+00 0. -1.
<scales pt_clust_5="13000.00000" pt_clust_6="13000.00000" pt_clust_7="13000.00000" pt_clust_8="13000.00000" pt_clust_9="13000.00000"></scales>
<clustering>
<clus scale="   87.806">  5  6 -1 -1</clus>
<clus scale="   95.854">  7  8 -1 -1</clus>
<clus scale="   93.451">  7  9 -1 -1</clus>
<clus scale="  274.811">  2  5  1 -1</clus>
<clus scale="  365.224">  1  5  2 -1</clus>
</clustering>
</event>
<event>
 9    2  0.2147756E-005  0.2355548E+03  0.7546771E-02  0.1164893E+00
          2   -1    0    0  502    0 -0.00000000000E+00  0.00000000000E+00  0.14276787474E+03  0.14276787474E+03  0.00000000000E+00 0. -1.
         21   -1    0    0  501  502  0.00000000000E+00 -0.00000000000E+00 -0.20732990566E+03  0.20732990566E+03  0.00000000000E+00 0. -1.
         24    2    1    2    0    0  0.28226539661E+02 -0.11519932867E+02  0.37083883602E+02  0.93547710665E+02  0.80290182172E+02 0.  0.
         23    2    1    2    0    0  0.45166467839E+01 -0.80862512863E+02 -0.10085131329E+03  0.15853341845E+03  0.91666304000E+02 0.  0.
        -11    1    3    3    0    0 -0.22495127572E+02  0.17838513209E+01 -0.84538101073E+01  0.24097298507E+02  0.00000000000E+00 0.  1.
         12    1    3    3    0    0  0.50721667233E+02 -0.13303784188E+02  0.45537693709E+02  0.69450412158E+02  0.00000000000E+00 0. -1.
        -13    1    4    4    0    0 -0.21226202130E+02  0.99343841841E+01 -0.39625891745E+02  0.46037538407E+02  0.00000000000E+00 0.  1.
         13    1    4    4    0    0  0.25742848914E+02 -0.90796897047E+02 -0.61225421541E+02  0.11249588004E+03  0.00000000000E+00 0. -1.
          1    1    1    2  501    0 -0.32743186445E+02  0.92382445730E+02 -0.79460123094E+00  0.98016651283E+02  0.00000000000E+00 0. -1.
<scales pt_clust_5="13000.00000" pt_clust_6="13000.00000" pt_clust_7="13000.00000" pt_clust_8="13000.00000" pt_clust_9="13000.00000"></scales>
<clustering>
<clus scale="   80.290">  5  6 -1 -1</clus>
<clus scale="   85.883">  1  5  2 -1</clus>
<clus scale="   91.666">  7  8 -1 -1</clus>
<clus scale="   86.468">  7  9 -1 -1</clus>
<clus scale="  235.555">  2  5  1 -1</clus>
</clustering>
</event>
<event>
 9    2  0.2147756E-005  0.1037723E+04  0.7546771E-02  0.9528685E-01
          2   -1    0    0  502    0 -0.00000000000E+00  0.00000000000E+00  0.15976692646E+04  0.15976692646E+04  0.00000000000E+00 0. -1.
         21   -1    0    0  501  502  0.00000000000E+00 -0.00000000000E+00 -0.33024268366E+03  0.33024268366E+03  0.00000000000E+00 0. -1.
         24    2    1    2    0    0  0.30957997731E+03  0.25415174024E+03  0.27874338638E+03  0.49460690169E+03  0.80655082500E+02 0.  0.
         23    2    1    2    0    0  0.13079041269E+03  0.20118223734E+03 -0.22255978353E+01  0.25722879632E+03  0.92635175259E+02 0.  0.
        -11    1    3    3    0    0  0.32239658570E+02  0.46031183948E+01  0.40386120669E+02  0.51880854140E+02  0.00000000000E+00 0.  1.
         12    1    3    3    0    0  0.27734031874E+03  0.24954862185E+03  0.23835726571E+03  0.44272604755E+03  0.00000000000E+00 0. -1.
        -13    1    4    4    0    0  0.13158863364E+03  0.15623353607E+03  0.23203475544E+02  0.20557939482E+03  0.00000000000E+00 0. -1.
         13    1    4    4    0    0 -0.79822094365E+00  0.44948701269E+02 -0.25429073379E+02  0.51649401501E+02  0.00000000000E+00 0.  1.
          1    1    1    2  501    0 -0.44037039000E+03 -0.45533397759E+03  0.99090879241E+03  0.11760762502E+04  0.00000000000E+00 0. -1.
<scales pt_clust_5="13000.00000" pt_clust_6="13000.00000" pt_clust_7="13000.00000" pt_clust_8="13000.00000" pt_clust_9="13000.00000"></scales>
<clustering>
<clus scale="   80.655">  5  6 -1 -1</clus>
<clus scale="   92.635">  7  8 -1 -1</clus>
<clus scale="  408.581">  1  5  2 -1</clus>
<clus scale="  280.449">  7  9 -1 -1</clus>
<clus scale=" 1037.723">  2  5  1 -1</clus>
</clustering>
</event>
<event>
 9    2  0.2147756E-005  0.4058344E+03  0.7546771E-02  0.1082058E+00
         21   -1    0    0  501  502  0.00000000000E+00  0.00000000000E+00  0.44864752576E+02  0.44864752576E+02  0.00000000000E+00 0. -1.
          2   -1    0    0  502    0 -0.00000000000E+00 -0.00000000000E+00 -0.17938386322E+04  0.17938386322E+04  0.00000000000E+00 0. -1.
         24    2    1    2    0    0 -0.88912636581E+01 -0.10175315741E+03 -0.73101505519E+03  0.74282849810E+03  0.83536860525E+02 0.  0.
         23    2    1    2    0    0  0.69291797262E+02 -0.12549659678E+03 -0.40138581602E+03  0.43598629763E+03  0.91775429434E+02 0.  0.
        -13    1    3    3    0    0 -0.19255394863E+02 -0.47354883493E+02 -0.13681202624E+03  0.14605062734E+03  0.00000000000E+00 0.  1.
         14    1    3    3    0    0  0.10364131205E+02 -0.54398273920E+02 -0.59420302895E+03  0.59677787077E+03  0.00000000000E+00 0. -1.
        -11    1    4    4    0    0  0.40965085315E+02 -0.76183430045E+01 -0.55026186030E+02  0.69022159587E+02  0.00000000000E+00 0.  1.
         11    1    4    4    0    0  0.28326711947E+02 -0.11787825378E+03 -0.34635962999E+03  0.36696413804E+03  0.00000000000E+00 0. -1.
          1    1    1    2  501    0 -0.60400533604E+02  0.22724975419E+03 -0.61657300837E+03  0.65988858900E+03  0.00000000000E+00 0. -1.
<scales pt_clust_5="13000.00000" pt_clust_6="13000.00000" pt_clust_7="13000.00000" pt_clust_8="13000.00000" pt_clust_9="13000.00000"></scales>
<clustering>
<clus scale="   83.537">  5  6 -1 -1</clus>
<clus scale="   91.775">  7  8 -1 -1</clus>
<clus scale="  131.951">  2  5  1 -1</clus>
<clus scale="  178.373">  7  9 -1 -1</clus>
<clus scale="  405.834">  1  5  2 -1</clus>
</clustering>
</event>
<event>
 9    2  0.2147756E-005  0.1808140E+03  0.7546771E-02  0.1186264E+00
          2   -1    0    0  502    0 -0.00000000000E+00  0.00000000000E+00  0.97454327904E+02  0.97454327904E+02  0.00000000000E+00 0. -1.
         21   -1    0    0  501  502  0.00000000000E+00 -0.00000000000E+00 -0.29419217880E+03  0.29419217880E+03  0.00000000000E+00 0.  1.
         24    2    1    2    0    0  0.21459143086E+02  0.78056663807E+02  0.94685885189E+01  0.11739336447E+03  0.84487929713E+02 0.  0.
         23    2    1    2    0    0  0.18744025704E+02 -0.96854270510E+02 -0.15712549983E+03  0.20808227682E+03  0.94221669558E+02 0.  0.
        -13    1    3    3    0    0  0.38669726831E+02  0.11842801838E+02 -0.17222605916E+02  0.43957000388E+02  0.00000000000E+00 0.  1.
         14    1    3    3    0    0 -0.17210583745E+02  0.66213861970E+02  0.26691194435E+02  0.73436364086E+02  0.00000000000E+00 0. -1.
        -13    1    4    4    0    0 -0.16310767171E+02 -0.34229627498E+02 -0.29626787245E+01  0.38032696323E+02  0.00000000000E+00 0. -1.
         13    1    4    4    0    0  0.35054792875E+02 -0.62624643012E+02 -0.15416282111E+03  0.17004958050E+03  0.00000000000E+00 0.  1.
          1    1    1    2  501    0 -0.40203168790E+02  0.18797606703E+02 -0.49080939576E+02  0.66170865403E+02  0.00000000000E+00 0. -1.
<scales pt_clust_5="13000.00000" pt_clust_6="13000.00000" pt_clust_7="13000.00000" pt_clust_8="13000.00000" pt_clust_9="13000.00000"></scales>
<clustering>
<clus scale="   84.488">  5  6 -1 -1</clus>
<clus scale="   94.222">  7  8 -1 -1</clus>
<clus scale="   44.381">  7  9 -1 -1</clus>
<clus scale="  117.011">  1  5  2 -1</clus>
<clus scale="  180.814">  2  5  1 -1</clus>
</clustering>
</event>
<event>
 9    2  0.2147756E-005  0.3681634E+03  0.7546771E-02  0.1093619E+00
          2   -1    0    0  502    0 -0.00000000000E+00  0.00000000000E+00  0.44247499230E+03  0.44247499230E+03  0.00000000000E+00 0. -1.
         21   -1    0    0  501  502  0.00000000000E+00 -0.00000000000E+00 -0.14444680525E+03  0.14444680525E+03  0.00000000000E+00 0.  1.
         24    2    1    2    0    0 -0.99860679984E+02 -0.16804571805E+02  0.12406640662E+03  0.17972777452E+03  0.81578493743E+02 0.  0.
         23    2    1    2    0    0  0.16724183994E+03  0.85369795854E+02  0.10877586357E+01  0.20938897235E+03  0.92653782730E+02 0.  0.
        -11    1    3    3    0    0 -0.74411219114E+02  0.12114477039E+02  0.11900274219E+03  0.14087385397E+03  0.00000000000E+00 0.  1.
         12    1    3    3    0    0 -0.25449460870E+02 -0.28919048844E+02  0.50636644339E+01  0.38853920550E+02  0.00000000000E+00 0. -1.
        -11    1    4    4    0    0  0.13004048837E+03  0.57108441024E+02  0.41124510469E+02  0.14786185449E+03  0.00000000000E+00 0. -1.
         11    1    4    4    0    0  0.37201351571E+02  0.28261354830E+02 -0.40036751834E+02  0.61527117866E+02  0.00000000000E+00 0.  1.
          1    1    1    2  501    0 -0.67381159952E+02 -0.68565224049E+02  0.17287402179E+03  0.19780505068E+03  0.00000000000E+00 0. -1.
<scales pt_clust_5="13000.00000" pt_clust_6="13000.00000" pt_clust_7="13000.00000" pt_clust_8="13000.00000" pt_clust_9="13000.00000"></scales>
<clustering>
<clus scale="   81.578">  5  6 -1 -1</clus>
<clus scale="   92.654">  7  8 -1 -1</clus>
<clus scale="   96.132">  7  9 -1 -1</clus>
<clus scale="  130.037">  1  5  2 -1</clus>
<clus scale="  368.163">  2  5  1 -1</clus>
</clustering>
</event>
<event>
 9    2  0.2147756E-005  0.3093923E+03  0.7546771E-02  0.1131064E+00
         21   -1    0    0  501  502  0.00000000000E+00  0.00000000000E+00  0.11272975356E+03  0.11272975356E+03  0.00000000000E+00 0. -1.
          2   -1    0    0  502    0 -0.00000000000E+00 -0.00000000000E+00 -0.36028084715E+03  0.36028084715E+03  0.00000000000E+00 0. -1.
         24    2    1    2    0    0  0.70443863954E+01  0.22048758763E+02 -0.97414271072E+02  0.12911426808E+03  0.81517991093E+02 0.  0.
         23    2    1    2    0    0 -0.10442347578E+03  0.52185842017E+02 -0.16392121035E+03  0.22067509926E+03  0.90552260218E+02 0.  0.
        -11    1    3    3    0    0 -0.32742495475E+02 -0.42386999362E+01 -0.60069768084E+02  0.68544982491E+02  0.00000000000E+00 0.  1.
         12    1    3    3    0    0  0.39786881871E+02  0.26287458699E+02 -0.37344502988E+02  0.60569285593E+02  0.00000000000E+00 0. -1.
        -13    1    4    4    0    0  0.11998022658E+02  0.25669415148E+02 -0.30910855743E+02  0.41932713060E+02  0.00000000000E+00 0.  1.
         13    1    4    4    0    0 -0.11642149844E+03  0.26516426869E+02 -0.13301035460E+03  0.17874238620E+03  0.00000000000E+00 0. -1.
          1    1    1    2  501    0  0.97379089385E+02 -0.74234600780E+02  0.13784387831E+02  0.12322123336E+03  0.00000000000E+00 0. -1.
<scales pt_clust_5="13000.00000" pt_clust_6="13000.00000" pt_clust_7="13000.00000" pt_clust_8="13000.00000" pt_clust_9="13000.00000"></scales>
<clustering>
<clus scale="   81.518">  5  6 -1 -1</clus>
<clus scale="   84.741">  2  5  1 -1</clus>
<clus scale="   90.552">  7  8 -1 -1</clus>
<clus scale="  120.824">  7  9 -1 -1</clus>
<clus scale="  309.392">  1  5  2 -1</clus>
</clustering>
</event>
<event>
 9    2  0.2147756E-005  0.1943711E+03  0.7546771E-02  0.1177557E+00
          2   -1    0    0  502    0 -0.00000000000E+00  0.00000000000E+00  0.54040998861E+03  0.54040998861E+03  0.00000000000E+00 0. -1.
         21   -1    0    0  501  502  0.00000000000E+00 -0.00000000000E+00 -0.75388426283E+02  0.75388426283E+02  0.00000000000E+00 0. -1.
         24    2    1    2    0    0  0.36390619929E+02 -0.74720787940E+02  0.39165019497E+03  0.40804017889E+03  0.78736516267E+02 0.  0.
         23    2    1    2    0    0 -0.26705264347E+02 -0.20738171634E+02  0.25192047360E+02  0.10039219878E+03  0.91108240124E+02 0.  0.
        -13    1    3    3    0    0 -0.18769263431E+02 -0.17429431414E+02  0.39918831700E+02  0.47429773913E+02  0.00000000000E+00 0.  1.
         14    1    3    3    0    0  0.55159883360E+02 -0.57291356526E+02  0.35173136327E+03  0.36061040497E+03  0.00000000000E+00 0. -1.
        -11    1    4    4    0    0  0.10047037153E+01 -0.31439455508E+02  0.51741095775E+02  0.60552372242E+02  0.00000000000E+00 0.  1.
         11    1    4    4    0    0 -0.27709968063E+02  0.10701283874E+02 -0.26549048415E+02  0.39839826535E+02  0.00000000000E+00 0. -1.
          1    1    1    2  501    0 -0.96853555815E+01  0.95458959574E+02  0.48179319997E+02  0.10736603723E+03  0.00000000000E+00 0. -1.
<scales pt_clust_5="13000.00000" pt_clust_6="13000.00000" pt_clust_7="13000.00000" pt_clust_8="13000.00000" pt_clust_9="13000.00000"></scales>
<clustering>
<clus scale="   78.737">  5  6 -1 -1</clus>
<clus scale="   91.108">  7  8 -1 -1</clus>
<clus scale="   95.949">  7  9 -1 -1</clus>
<clus scale="  114.485">  1  5  2 -1</clus>
<clus scale="  194.371">  2  5  1 -1</clus>
</clustering>
</event>
<event>
 9    2  0.2147756E-005  0.3736647E+03  0.7546771E-02  0.1104844E+00
         21   -1    0    0  501  502  0.00000000000E+00  0.00000000000E+00  0.54371053673E+02  0.54371053673E+02  0.00000000000E+00 0. -1.
          2   -1    0    0  502    0 -0.00000000000E+00 -0.00000000000E+00 -0.10368402784E+04  0.10368402784E+04  0.00000000000E+00 0. -1.
         24    2    1    2    0    0  0.29278985579E+02  0.29963749130E+02 -0.12401670885E+03  0.15496027854E+03  0.82930444310E+02 0.  0.
         23    2    1    2    0    0  0.13813669755E+03  0.41444334255E+02 -0.27628106806E+03  0.32629144833E+03  0.96620394477E+02 0.  0.
        -11    1    3    3    0    0  0.90279592790E+01  0.29597870051E+02 -0.17137540373E+01  0.30991529700E+02  0.00000000000E+00 0.  1.
         12    1    3    3    0    0  0.20251026300E+02  0.36587907901E+00 -0.12230295481E+03  0.12396874884E+03  0.00000000000E+00 0. -1.
        -13    1    4    4    0    0  0.10139917066E+02 -0.18203520067E+02 -0.90870682656E+02  0.93229110407E+02  0.00000000000E+00 0.  1.
         13    1    4    4    0    0  0.12799678049E+03  0.59647854322E+02 -0.18541038541E+03  0.23306233792E+03  0.00000000000E+00 0. -1.
          1    1    1    2  501    0 -0.16741568313E+03 -0.71408083384E+02 -0.58217144784E+03  0.60995960523E+03  0.00000000000E+00 0. -1.
<scales pt_clust_5="13000.00000" pt_clust_6="13000.00000" pt_clust_7="13000.00000" pt_clust_8="13000.00000" pt_clust_9="13000.00000"></scales>
<clustering>
<clus scale="   82.930">  5  6 -1 -1</clus>
<clus scale="   92.912">  2  5  1 -1</clus>
<clus scale="   96.620">  7  8 -1 -1</clus>
<clus scale="  156.675">  7  9 -1 -1</clus>
<clus scale="  373.665">  1  5  2 -1</clus>
</clustering>
</event>
<event>
 9    2  0.2147756E-005  0.3627254E+03  0.7546771E-02  0.1098449E+00
         21   -1    0    0  501  502  0.00000000000E+00  0.00000000000E+00  0.22162914459E+03  0.22162914459E+03  0.00000000000E+00 0.  1.
          2   -1    0    0  502    0 -0.00000000000E+00 -0.00000000000E+00 -0.26360394326E+03  0.26360394326E+03  0.00000000000E+00 0. -1.
         24    2    1    2    0    0 -0.77740843863E+02  0.43656286297E+02  0.19103689766E+01  0.11986256891E+03  0.80086676653E+02 0.  0.
         23    2    1    2    0    0  0.61177514676E+02  0.54022959504E+02  0.12162538938E+03  0.17247333540E+03  0.91066720737E+02 0.  0.
        -13    1    3    3    0    0 -0.47311761433E+02  0.97676301546E+01  0.38232079822E+02  0.61607639918E+02  0.00000000000E+00 0.  1.
         14    1    3    3    0    0 -0.30429082430E+02  0.33888656143E+02 -0.36321710845E+02  0.58254928988E+02  0.00000000000E+00 0. -1.
        -13    1    4    4    0    0  0.81928595361E+02  0.42171108722E+02  0.70442115517E+02  0.11598615774E+03  0.00000000000E+00 0.  1.
         13    1    4    4    0    0 -0.20751080684E+02  0.11851850783E+02  0.51183273860E+02  0.56487177656E+02  0.00000000000E+00 0. -1.
          1    1    1    2  501    0  0.16563329186E+02 -0.97679245802E+02 -0.16551055703E+03  0.19289718355E+03  0.00000000000E+00 0. -1.
<scales pt_clust_5="13000.00000" pt_clust_6="13000.00000" pt_clust_7="13000.00000" pt_clust_8="13000.00000" pt_clust_9="13000.00000"></scales>
<clustering>
<clus scale="   80.087">  5  6 -1 -1</clus>
<clus scale="   91.067">  7  8 -1 -1</clus>
<clus scale="   99.074">  7  9 -1 -1</clus>
<clus scale="  119.847">  2  5  1 -1</clus>
<clus scale="  362.725">  1  5  2 -1</clus>
</clustering>
</event>
<event>
 9    2  0.2147756E-005  0.6428650E+03  0.7546771E-02  0.1028936E+00
         21   -1    0    0  501  502  0.00000000000E+00  0.00000000000E+00  0.20264173102E+03  0.20264173102E+03  0.00000000000E+00 0. -1.
          2   -1    0    0  502    0 -0.00000000000E+00 -0.00000000000E+00 -0.81570571351E+03  0.81570571351E+03  0.00000000000E+00 0. -1.
         24    2    1    2    0    0 -0.11363608899E+02 -0.12526118863E+03 -0.33025736317E+02  0.15248380759E+03  0.79631120397E+02 0.  0.
         23    2    1    2    0    0  0.23838888104E+03 -0.12268305399E+03 -0.38304386903E+03  0.47621814901E+03  0.90447385290E+02 0.  0.
        -11    1    3    3    0    0 -0.59737525448E+01 -0.63583336920E+02  0.24083905769E+02  0.68253651700E+02  0.00000000000E+00 0.  1.
         12    1    3    3    0    0 -0.53898563541E+01 -0.61677851707E+02 -0.57109642086E+02  0.84230155894E+02  0.00000000000E+00 0. -1.
        -13    1    4    4    0    0  0.19123037688E+03 -0.96722944212E+02 -0.35708534722E+03  0.41645447552E+03  0.00000000000E+00 0.  1.
         13    1    4    4    0    0  0.47158504169E+02 -0.25960109775E+02 -0.25958521803E+02  0.59763673491E+02  0.00000000000E+00 0. -1.
          1    1    1    2  501    0 -0.22702527215E+03  0.24794424261E+03 -0.19699437715E+03  0.38964548793E+03  0.00000000000E+00 0. -1.
<scales pt_clust_5="13000.00000" pt_clust_6="13000.00000" pt_clust_7="13000.00000" pt_clust_8="13000.00000" pt_clust_9="13000.00000"></scales>
<clustering>
<clus scale="   79.631">  5  6 -1 -1</clus>
<clus scale="   90.447">  7  8 -1 -1</clus>
<clus scale="  148.864">  2  5  1 -1</clus>
<clus scale="  304.159">  7  9 -1 -1</clus>
<clus scale="  642.865">  1  5  2 -1</clus>
</clustering>
</event>
<event>
 9    2  0.2147756E-005  0.2379741E+03  0.7546771E-02  0.1166179E+00
         -1   -1    0    0    0  501 -0.00000000000E+00  0.00000000000E+00  0.40091711589E+03  0.40091711589E+03  0.00000000000E+00 0.  1.
         21   -1    0    0  501  502  0.00000000000E+00 -0.00000000000E+00 -0.68936915380E+02  0.68936915380E+02  0.00000000000E+00 0. -1.
         24    2    1    2    0    0 -0.82518555250E+01  0.39678783765E+01  0.32037281325E+02  0.86973568324E+02  0.80337892765E+02 0.  0.
         23    2    1    2    0    0 -0.28365944019E+02 -0.69067854113E+01  0.20060706466E+02  0.10059770858E+03  0.94154854161E+02 0.  0.
        -11    1    3    3    0    0 -0.43574520525E+02  0.32519408726E+01  0.26794418210E+02  0.51256753756E+02  0.00000000000E+00 0.  1.
         12    1    3    3    0    0  0.35322665000E+02  0.71593750385E+00  0.52428631150E+01  0.35716814568E+02  0.00000000000E+00 0. -1.
        -11    1    4    4    0    0 -0.44704712464E+02  0.32907441709E+02  0.10060233190E+02  0.56414708438E+02  0.00000000000E+00 0.  1.
         11    1    4    4    0    0  0.16338768445E+02 -0.39814227120E+02  0.10000473275E+02  0.44183000138E+02  0.00000000000E+00 0. -1.
         -2    1    1    2    0  502  0.36617799544E+02  0.29389070348E+01  0.27988221272E+03  0.28228275437E+03  0.00000000000E+00 0.  1.
<scales pt_clust_5="13000.00000" pt_clust_6="13000.00000" pt_clust_7="13000.00000" pt_clust_8="13000.00000" pt_clust_9="13000.00000"></scales>
<clustering>
<clus scale="   80.338">  5  6 -1 -1</clus>
<clus scale="   80.858">  1  5  2 -1</clus>
<clus scale="   94.155">  7  8 -1 -1</clus>
<clus scale="   30.463">  7  9 -1 -1</clus>
<clus scale="  237.974">  2  5  1 -1</clus>
</clustering>
</event>
<event>
 9    2  0.2147756E-005  0.2692044E+03  0.7546771E-02  0.1145728E+00
         21   -1    0    0  501  502  0.00000000000E+00  0.00000000000E+00  0.77373308259E+02  0.77373308259E+02  0.00000000000E+00 0. -1.
          4   -1    0    0  502    0 -0.00000000000E+00 -0.00000000000E+00 -0.77875903220E+03  0.77875903220E+03  0.00000000000E+00 0. -1.
         24    2    1    2    0    0  0.12873470352E+02  0.36449419917E+02 -0.52860847981E+03  0.53625265828E+03  0.81521175985E+02 0.  0.
         23    2    1    2    0    0  0.42234420193E+02  0.82399186348E+02 -0.12308294850E+03  0.17976760622E+03  0.92701714518E+02 0.  0.
        -13    1    3    3    0    0  0.48046656627E+01  0.45450722970E+02 -0.13631259762E+03  0.14377057175E+03  0.00000000000E+00 0.  1.
         14    1    3    3    0    0  0.80688046893E+01 -0.90013030534E+01 -0.39229588219E+03  0.39248208653E+03  0.00000000000E+00 0. -1.
        -11    1    4    4    0    0  0.24906346068E+02  0.58339205789E+02 -0.11696969677E+02  0.64502775957E+02  0.00000000000E+00 0. -1.
         11    1    4    4    0    0  0.17328074126E+02  0.24059980559E+02 -0.11138597882E+03  0.11526483026E+03  0.00000000000E+00 0.  1.
          3    1    1    2  501    0 -0.55107890545E+02 -0.11884860627E+03 -0.49694295633E+02  0.14011207596E+03  0.00000000000E+00 0. -1.
<scales pt_clust_5="13000.00000" pt_clust_6="13000.00000" pt_clust_7="13000.00000" pt_clust_8="13000.00000" pt_clust_9="13000.00000"></scales>
<clustering>
<clus scale="   81.521">  5  6 -1 -1</clus>
<clus scale="   90.222">  2  5  1 -1</clus>
<clus scale="   92.702">  7  8 -1 -1</clus>
<clus scale="  116.186">  7  9 -1 -1</clus>
<clus scale="  269.204">  1  5  2 -1</clus>
</clustering>
</event>
<event>
 9    2  0.2147756E-005  0.3295465E+03  0.7546771E-02  0.1079682E+00
         21   -1    0    0  501  502  0.00000000000E+00  0.00000000000E+00  0.21392447140E+03  0.21392447140E+03  0.00000000000E+00 0. -1.
          2   -1    0    0  502    0 -0.00000000000E+00 -0.00000000000E+00 -0.44899393983E+03  0.44899393983E+03  0.00000000000E+00 0. -1.
         24    2    1    2    0    0 -0.17958948428E+03  0.17448420375E+03 -0.81999969747E+01  0.26283008776E+03  0.79468829487E+02 0.  0.
         23    2    1    2    0    0 -0.52471609299E+01 -0.78364832048E+02 -0.54839764030E+02  0.12990738545E+03  0.87749355986E+02 0.  0.
        -11    1    3    3    0    0 -0.21420572347E+02  0.63786789253E+02 -0.17574985747E+02  0.69544773541E+02  0.00000000000E+00 0.  1.
         12    1    3    3    0    0 -0.15816891194E+03  0.11069741450E+03  0.93749887727E+01  0.19328531422E+03  0.00000000000E+00 0. -1.
        -11    1    4    4    0    0 -0.30457140639E+02 -0.59728571837E+02 -0.68373418828E+02  0.95760451711E+02  0.00000000000E+00 0. -1.
         11    1    4    4    0    0  0.25209979709E+02 -0.18636260211E+02  0.13533654799E+02  0.34146933739E+02  0.00000000000E+00 0.  1.
          1    1    1    2  501    0  0.18483664521E+03 -0.96119371702E+02 -0.17202970743E+03  0.27018093802E+03  0.00000000000E+00 0. -1.
<scales pt_clust_5="13000.00000" pt_clust_6="13000.00000" pt_clust_7="13000.00000" pt_clust_8="13000.00000" pt_clust_9="13000.00000"></scales>
<clustering>
<clus scale="   79.469">  5  6 -1 -1</clus>
<clus scale="   87.749">  7  8 -1 -1</clus>
<clus scale="  208.335">  7  9 -1 -1</clus>
<clus scale="  262.702">  2  5  1 -1</clus>
<clus scale="  329.547">  1  5  2 -1</clus>
</clustering>
</event>
<event>
 9    2  0.2147756E-005  0.2671655E+03  0.7546771E-02  0.1145509E+00
          2   -1    0    0  502    0 -0.00000000000E+00  0.00000000000E+00  0.21790187901E+03  0.21790187901E+03  0.00000000000E+00 0. -1.
         21   -1    0    0  501  502  0.00000000000E+00 -0.00000000000E+00 -0.14999269950E+03  0.14999269950E+03  0.00000000000E+00 0. -1.
         24    2    1    2    0    0  0.29275232064E+02 -0.29779179500E+02  0.24234669060E+01  0.92820437425E+02  0.82860857272E+02 0.  0.
         23    2    1    2    0    0 -0.57368426934E+02  0.72632991783E+02 -0.55824035989E+02  0.14338613127E+03  0.94215559976E+02 0.  0.
        -13    1    3    3    0    0 -0.23974821806E+02 -0.29781915287E+02 -0.66380972723E+01  0.38804882350E+02  0.00000000000E+00 0.  1.
         14    1    3    3    0    0  0.53250053870E+02  0.27357870512E-02  0.90615641782E+01  0.54015555075E+02  0.00000000000E+00 0. -1.
        -11    1    4    4    0    0  0.21035829860E+02  0.33243026436E+02  0.94280748688E-01  0.39339723351E+02  0.00000000000E+00 0.  1.
         11    1    4    4    0    0 -0.78404256794E+02  0.39389965347E+02 -0.55918316738E+02  0.10404640792E+03  0.00000000000E+00 0. -1.
          1    1    1    2  501    0  0.28093194870E+02 -0.42853812282E+02  0.12130974860E+03  0.13168800982E+03  0.00000000000E+00 0. -1.
<scales pt_clust_5="13000.00000" pt_clust_6="13000.00000" pt_clust_7="13000.00000" pt_clust_8="13000.00000" pt_clust_9="13000.00000"></scales>
<clustering>
<clus scale="   82.861">  5  6 -1 -1</clus>
<clus scale="   92.789">  1  5  2 -1</clus>
<clus scale="   94.216">  7  8 -1 -1</clus>
<clus scale="   81.891">  7  9 -1 -1</clus>
<clus scale="  267.166">  2  5  1 -1</clus>
</clustering>
</event>
<event>
 9    2  0.2147756E-005  0.4743031E+03  0.7546771E-02  0.1068411E+00
         21   -1    0    0  501  502  0.00000000000E+00  0.00000000000E+00  0.11080034440E+03  0.11080034440E+03  0.00000000000E+00 0.  1.
         -1   -1    0    0    0  501 -0.00000000000E+00 -0.00000000000E+00 -0.80511184578E+03  0.80511184578E+03  0.00000000000E+00 0.  1.
         24    2    1    2    0    0 -0.39722737319E+02 -0.78772872745E+02 -0.18070847537E+03  0.21680451201E+03  0.81028279127E+02 0.  0.
         23    2    1    2    0    0  0.78930154151E+02 -0.18038894773E+02 -0.56844922931E+03  0.58113375783E+03  0.89590999694E+02 0.  0.
        -11    1    3    3    0    0  0.19316838053E+02 -0.48542416017E+02 -0.95112899135E+02  0.10851714135E+03  0.00000000000E+00 0.  1.
         12    1    3    3    0    0 -0.59039575371E+02 -0.30230456728E+02 -0.85595576232E+02  0.10828737066E+03  0.00000000000E+00 0. -1.
        -13    1    4    4    0    0  0.47714345838E+02 -0.52446459101E+02 -0.40714088688E+03  0.41326866763E+03  0.00000000000E+00 0.  1.
         13    1    4    4    0    0  0.31215808313E+02  0.34407564328E+02 -0.16130834242E+03  0.16786509020E+03  0.00000000000E+00 0. -1.
         -2    1    1    2    0  502 -0.39207416833E+02  0.96811767518E+02  0.54846203302E+02  0.11797392034E+03  0.00000000000E+00 0.  1.
<scales pt_clust_5="13000.00000" pt_clust_6="13000.00000" pt_clust_7="13000.00000" pt_clust_8="13000.00000" pt_clust_9="13000.00000"></scales>
<clustering>
<clus scale="   81.028">  5  6 -1 -1</clus>
<clus scale="   89.591">  7  8 -1 -1</clus>
<clus scale="  104.450">  7  9 -1 -1</clus>
<clus scale="  119.786">  2  5  1 -1</clus>
<clus scale="  474.303">  1  5  2 -1</clus>
</clustering>
</event>
<event>
 9    2  0.2147756E-005  0.4565706E+03  0.7546771E-02  0.1067502E+00
          2   -1    0    0  502    0 -0.00000000000E+00  0.00000000000E+00  0.14761294014E+03  0.14761294014E+03  0.00000000000E+00 0. -1.
         21   -1    0    0  501  502  0.00000000000E+00 -0.00000000000E+00 -0.67381944613E+03  0.67381944613E+03  0.00000000000E+00 0.  1.
         24    2    1    2    0    0  0.10567904390E+03 -0.32573876219E+02 -0.25657474542E+03  0.29118907258E+03  0.82044855226E+02 0.  0.
         23    2    1    2    0    0  0.12752417192E+03 -0.77865625506E+02 -0.19349905043E+03  0.26121392318E+03  0.92007396914E+02 0.  0.
        -13    1    3    3    0    0  0.70551597573E+02 -0.45006234745E+02 -0.10075500096E+03  0.13097579664E+03  0.00000000000E+00 0.  1.
         14    1    3    3    0    0  0.35127446325E+02  0.12432358526E+02 -0.15581974446E+03  0.16021327594E+03  0.00000000000E+00 0. -1.
        -11    1    4    4    0    0  0.73847964894E+02 -0.40475269160E+02 -0.17342121696E+03  0.19278663809E+03  0.00000000000E+00 0.  1.
         11    1    4    4    0    0  0.53676207027E+02 -0.37390356346E+02 -0.20077833467E+02  0.68427285093E+02  0.00000000000E+00 0. -1.
          1    1    1    2  501    0 -0.23320321582E+03  0.11043950172E+03 -0.76132710138E+02  0.26902939052E+03  0.00000000000E+00 0. -1.
<scales pt_clust_5="13000.00000" pt_clust_6="13000.00000" pt_clust_7="13000.00000" pt_clust_8="13000.00000" pt_clust_9="13000.00000"></scales>
<clustering>
<clus scale="   82.045">  5  6 -1 -1</clus>
<clus scale="   92.007">  7  8 -1 -1</clus>
<clus scale="  137.697">  1  5  2 -1</clus>
<clus scale="  177.405">  7  9 -1 -1</clus>
<clus scale="  456.571">  2  5  1 -1</clus>
</clustering>
</event>
<event>
 9    2  0.2147756E-005  0.5499083E+03  0.7546771E-02  0.1040276E+00
          2   -1    0    0  502    0 -0.00000000000E+00  0.00000000000E+00  0.57172116051E+03  0.57172116051E+03  0.00000000000E+00 0. -1.
         21   -1    0    0  501  502  0.00000000000E+00 -0.00000000000E+00 -0.23157326086E+03  0.23157326086E+03  0.00000000000E+00 0.  1.
         24    2    1    2    0    0 -0.12947960582E+03 -0.77304434529E+02  0.33475992351E+02  0.17365422622E+03  0.79336021443E+02 0.  0.
         23    2    1    2    0    0  0.20244494581E+03  0.17048734812E+03 -0.21437088857E+02  0.28083866192E+03  0.91438029828E+02 0.  0.
        -13    1    3    3    0    0 -0.13592902071E+03 -0.84084463505E+02  0.36252039798E+02  0.16389358152E+03  0.00000000000E+00 0.  1.
         14    1    3    3    0    0  0.64494148953E+01  0.67800289759E+01 -0.27760474470E+01  0.97606446936E+01  0.00000000000E+00 0. -1.
        -11    1    4    4    0    0  0.13204950102E+03  0.89761438862E+02  0.29276817750E+02  0.16233089257E+03  0.00000000000E+00 0.  1.
         11    1    4    4    0    0  0.70395444791E+02  0.80725909259E+02 -0.50713906607E+02  0.11850776935E+03  0.00000000000E+00 0. -1.
          1    1    1    2  501    0 -0.72965339994E+02 -0.93182913591E+02  0.32810899615E+03  0.34880153323E+03  0.00000000000E+00 0. -1.
<scales pt_clust_5="13000.00000" pt_clust_6="13000.00000" pt_clust_7="13000.00000" pt_clust_8="13000.00000" pt_clust_9="13000.00000"></scales>
<clustering>
<clus scale="   79.336">  5  6 -1 -1</clus>
<clus scale="   91.438">  7  8 -1 -1</clus>
<clus scale="  118.351">  7  9 -1 -1</clus>
<clus scale="  170.397">  1  5  2 -1</clus>
<clus scale="  549.908">  2  5  1 -1</clus>
</clustering>
</event>
<event>
 9    2  0.2147756E-005  0.2601297E+03  0.7546771E-02  0.1134058E+00
         -1   -1    0    0    0  501 -0.00000000000E+00  0.00000000000E+00  0.14650496588E+03  0.14650496588E+03  0.00000000000E+00 0.  1.
         21   -1    0    0  501  502  0.00000000000E+00 -0.00000000000E+00 -0.42780871893E+03  0.42780871893E+03  0.00000000000E+00 0.  1.
         24    2    1    2    0    0  0.10409146907E+03  0.22438816819E+02  0.59761502413E+02  0.14536967782E+03  0.78882010776E+02 0.  0.
         23    2    1    2    0    0  0.42665368903E+02  0.91905000608E+01 -0.19513842040E+03  0.21958158350E+03  0.90731856038E+02 0.  0.
        -11    1    3    3    0    0  0.11395763510E+03  0.10460133752E+02  0.61219150511E+02  0.12978266982E+03  0.00000000000E+00 0.  1.
         12    1    3    3    0    0 -0.98661660343E+01  0.11978683067E+02 -0.14576480982E+01  0.15587007994E+02  0.00000000000E+00 0. -1.
        -11    1    4    4    0    0 -0.21787263815E+02  0.10665991301E+02 -0.15655274237E+02  0.28871020876E+02  0.00000000000E+00 0. -1.
         11    1    4    4    0    0  0.64452632719E+02 -0.14754912399E+01 -0.17948314616E+03  0.19071056262E+03  0.00000000000E+00 0.  1.
         -2    1    1    2    0  502 -0.14675683797E+03 -0.31629316880E+02 -0.14592683507E+03  0.20936242349E+03  0.00000000000E+00 0.  1.
<scales pt_clust_5="13000.00000" pt_clust_6="13000.00000" pt_clust_7="13000.00000" pt_clust_8="13000.00000" pt_clust_9="13000.00000"></scales>
<clustering>
<clus scale="   78.882">  5  6 -1 -1</clus>
<clus scale="   90.732">  7  8 -1 -1</clus>
<clus scale="  132.518">  1  5  2 -1</clus>
<clus scale="   73.262">  7  9 -1 -1</clus>
<clus scale="  260.130">  2  5  1 -1</clus>
</clustering>
</event>
<event>
 9    2  0.2147756E-005  0.2949821E+03  0.7546771E-02  0.1127162E+00
         -1   -1    0    0    0  501 -0.00000000000E+00  0.00000000000E+00  0.11659093705E+03  0.11659093705E+03  0.00000000000E+00 0.  1.
         21   -1    0    0  501  502  0.00000000000E+00 -0.00000000000E+00 -0.39917870462E+03  0.39917870462E+03  0.00000000000E+00 0.  1.
         24    2    1    2    0    0  0.59487820838E+02  0.35855148034E+02 -0.51528828581E+00  0.10762837088E+03  0.82214404019E+02 0.  0.
         23    2    1    2    0    0  0.66637983676E+02  0.71301890594E+01 -0.17462936884E+02  0.11187505993E+03  0.87861336240E+02 0.  0.
        -13    1    3    3    0    0  0.60495059548E+00  0.47395730468E+02  0.32218225472E+01  0.47508960969E+02  0.00000000000E+00 0.  1.
         14    1    3    3    0    0  0.58882870242E+02 -0.11540582434E+02 -0.37371108330E+01  0.60119409913E+02  0.00000000000E+00 0. -1.
        -13    1    4    4    0    0  0.78653694529E+02 -0.13440229081E+02 -0.29639606832E+02  0.85120794838E+02  0.00000000000E+00 0.  1.
         13    1    4    4    0    0 -0.12015710852E+02  0.20570418141E+02  0.12176669947E+02  0.26754265095E+02  0.00000000000E+00 0. -1.
         -2    1    1    2    0  502 -0.12612580451E+03 -0.42985337094E+02 -0.26460954240E+03  0.29626621086E+03  0.00000000000E+00 0.  1.
<scales pt_clust_5="13000.00000" pt_clust_6="13000.00000" pt_clust_7="13000.00000" pt_clust_8="13000.00000" pt_clust_9="13000.00000"></scales>
<clustering>
<clus scale="   82.214">  5  6 -1 -1</clus>
<clus scale="   87.861">  7  8 -1 -1</clus>
<clus scale="  107.627">  1  5  2 -1</clus>
<clus scale="  116.265">  7  9 -1 -1</clus>
<clus scale="  294.982">  2  5  1 -1</clus>
</clustering>
</event>
<event>
 9    2  0.2147756E-005  0.1774545E+03  0.7546771E-02  0.1212397E+00
         21   -1    0    0  501  502  0.00000000000E+00  0.00000000000E+00  0.33061003837E+02  0.33061003837E+02  0.00000000000E+00 0. -1.
          2   -1    0    0  502    0 -0.00000000000E+00 -0.00000000000E+00 -0.56936659998E+03  0.56936659998E+03  0.00000000000E+00 0. -1.
         24    2    1    2    0    0 -0.16789261308E+02  0.13824291549E+02 -0.29305857689E+03  0.30133091036E+03  0.66663316134E+02 0.  0.
         23    2    1    2    0    0  0.20976900655E+02  0.24252034145E+02 -0.65927036754E+02  0.11968633241E+03  0.94605773975E+02 0.  0.
        -11    1    3    3    0    0  0.22398143356E+02 -0.28099769405E+01 -0.54277595098E+02  0.58784607898E+02  0.00000000000E+00 0.  1.
         12    1    3    3    0    0 -0.39187404663E+02  0.16634268490E+02 -0.23878098179E+03  0.24254630246E+03  0.00000000000E+00 0. -1.
        -11    1    4    4    0    0  0.49068857708E+02 -0.97469544901E+01 -0.54800236585E+02  0.74201225384E+02  0.00000000000E+00 0.  1.
         11    1    4    4    0    0 -0.28091957053E+02  0.33998988635E+02 -0.11126800169E+02  0.45485107027E+02  0.00000000000E+00 0. -1.
          1    1    1    2  501    0 -0.41876393476E+01 -0.38076325694E+02 -0.17731998250E+03  0.18141036105E+03  0.00000000000E+00 0. -1.
<scales pt_clust_5="13000.00000" pt_clust_6="13000.00000" pt_clust_7="13000.00000" pt_clust_8="13000.00000" pt_clust_9="13000.00000"></scales>
<clustering>
<clus scale="   66.663">  5  6 -1 -1</clus>
<clus scale="   70.121">  2  5  1 -1</clus>
<clus scale="   94.606">  7  8 -1 -1</clus>
<clus scale="   32.736">  7  9 -1 -1</clus>
<clus scale="  177.455">  1  5  2 -1</clus>
</clustering>
</event>
<event>
 9    2  0.2147756E-005  0.3685702E+03  0.7546771E-02  0.1071675E+00
         21   -1    0    0  501  502  0.00000000000E+00  0.00000000000E+00  0.45410962848E+02  0.45410962848E+02  0.00000000000E+00 0. -1.
          2   -1    0    0  502    0 -0.00000000000E+00 -0.00000000000E+00 -0.25767606375E+04  0.25767606375E+04  0.00000000000E+00 0. -1.
         24    2    1    2    0    0 -0.21530266396E+03 -0.40187911508E+02 -0.16563762378E+04  0.16727388623E+04  0.80639661574E+02 0.  0.
         23    2    1    2    0    0 -0.46595723400E+02 -0.12955785281E+02 -0.25080736156E+03  0.27046417665E+03  0.88924262281E+02 0.  0.
        -11    1    3    3    0    0 -0.15065771677E+03 -0.44542910709E+01 -0.87573392888E+03  0.88860987083E+03  0.00000000000E+00 0.  1.
         12    1    3    3    0    0 -0.64644947189E+02 -0.35733620437E+02 -0.78064230893E+03  0.78412899151E+03  0.00000000000E+00 0. -1.
        -11    1    4    4    0    0 -0.15574753756E+02 -0.37667648933E+02 -0.44365809596E+02  0.60247404855E+02  0.00000000000E+00 0. -1.
         11    1    4    4    0    0 -0.31020969644E+02  0.24711863652E+02 -0.20644155197E+03  0.21021677179E+03  0.00000000000E+00 0.  1.
          1    1    1    2  501    0  0.26189838736E+03  0.53143696789E+02 -0.62416607532E+03  0.67896856141E+03  0.00000000000E+00 0. -1.
<scales pt_clust_5="13000.00000" pt_clust_6="13000.00000" pt_clust_7="13000.00000" pt_clust_8="13000.00000" pt_clust_9="13000.00000"></scales>
<clustering>
<clus scale="   80.640">  5  6 -1 -1</clus>
<clus scale="   88.924">  7  8 -1 -1</clus>
<clus scale="  233.395">  2  5  1 -1</clus>
<clus scale="  110.840">  7  9 -1 -1</clus>
<clus scale="  368.570">  1  5  2 -1</clus>
</clustering>
</event>
<event>
 9    2  0.2147756E-005  0.1643529E+03  0.7546771E-02  0.1214787E+00
         21   -1    0    0  501  502  0.00000000000E+00  0.00000000000E+00  0.44606604732E+02  0.44606604732E+02  0.00000000000E+00 0. -1.
          2   -1    0    0  502    0 -0.00000000000E+00 -0.00000000000E+00 -0.73910069386E+03  0.73910069386E+03  0.00000000000E+00 0. -1.
         24    2    1    2    0    0  0.12859459445E+02 -0.21452129381E+02 -0.15769319907E+02  0.85367000393E+02  0.80083042859E+02 0.  0.
         23    2    1    2    0    0  0.36291409445E+02  0.47682240786E+02 -0.49833682238E+03  0.50954507044E+03  0.87783414097E+02 0.  0.
        -13    1    3    3    0    0 -0.33002872652E+02 -0.16518449941E+01 -0.12418662254E+02  0.35300727575E+02  0.00000000000E+00 0.  1.
         14    1    3    3    0    0  0.45862332097E+02 -0.19800284387E+02 -0.33506576527E+01  0.50066272818E+02  0.00000000000E+00 0. -1.
        -11    1    4    4    0    0  0.68498625638E+01 -0.22061653858E+02 -0.52941425315E+02  0.57761853350E+02  0.00000000000E+00 0. -1.
         11    1    4    4    0    0  0.29441546881E+02  0.69743894644E+02 -0.44539539706E+03  0.45178321709E+03  0.00000000000E+00 0.  1.
          1    1    1    2  501    0 -0.49150868890E+02 -0.26230111405E+02 -0.18038794685E+03  0.18879522776E+03  0.00000000000E+00 0. -1.
<scales pt_clust_5="13000.00000" pt_clust_6="13000.00000" pt_clust_7="13000.00000" pt_clust_8="13000.00000" pt_clust_9="13000.00000"></scales>
<clustering>
<clus scale="   80.083">  5  6 -1 -1</clus>
<clus scale="   83.898">  2  5  1 -1</clus>
<clus scale="   87.783">  7  8 -1 -1</clus>
<clus scale="   55.782">  7  9 -1 -1</clus>
<clus scale="  164.353">  1  5  2 -1</clus>
</clustering>
</event>
<event>
 9    2  0.2147756E-005  0.1682748E+03  0.7546771E-02  0.1206001E+00
         21   -1    0    0  501  502  0.00000000000E+00  0.00000000000E+00  0.25177995900E+02  0.25177995900E+02  0.00000000000E+00 0.  1.
          2   -1    0    0  502    0 -0.00000000000E+00 -0.00000000000E+00 -0.78122978177E+03  0.78122978177E+03  0.00000000000E+00 0. -1.
         24    2    1    2    0    0 -0.44421993584E+02 -0.19997789099E+02 -0.42153354016E+03  0.43194967328E+03  0.80726511668E+02 0.  0.
         23    2    1    2    0    0 -0.20454786584E+01  0.17936797347E+02 -0.10407602736E+03  0.13936856897E+03  0.90916807382E+02 0.  0.
        -11    1    3    3    0    0 -0.14320941702E+02 -0.31341926048E+02 -0.61612046183E+02  0.70593554482E+02  0.00000000000E+00 0.  1.
         12    1    3    3    0    0 -0.30101051883E+02  0.11344136949E+02 -0.35992149398E+03  0.36135611880E+03  0.00000000000E+00 0. -1.
        -13    1    4    4    0    0  0.24019046499E+02  0.20492679018E+02  0.48568975335E+00  0.31576896342E+02  0.00000000000E+00 0.  1.
         13    1    4    4    0    0 -0.26064525157E+02 -0.25558816712E+01 -0.10456171712E+03  0.10779167263E+03  0.00000000000E+00 0. -1.
          1    1    1    2  501    0  0.46467472243E+02  0.20609917517E+01 -0.23044221834E+03  0.23508953541E+03  0.00000000000E+00 0. -1.
<scales pt_clust_5="13000.00000" pt_clust_6="13000.00000" pt_clust_7="13000.00000" pt_clust_8="13000.00000" pt_clust_9="13000.00000"></scales>
<clustering>
<clus scale="   80.727">  5  6 -1 -1</clus>
<clus scale="   90.917">  7  8 -1 -1</clus>
<clus scale="   46.513">  7  9 -1 -1</clus>
<clus scale="   94.287">  2  5  1 -1</clus>
<clus scale="  168.275">  1  5  2 -1</clus>
</clustering>
</event>
<event>
 9    2  0.2147756E-005  0.2083738E+03  0.7546771E-02  0.1160563E+00
         21   -1    0    0  501  502  0.00000000000E+00  0.00000000000E+00  0.70277657907E+02  0.70277657907E+02  0.00000000000E+00 0. -1.
          2   -1    0    0  502    0 -0.00000000000E+00 -0.00000000000E+00 -0.62670212661E+03  0.62670212661E+03  0.00000000000E+00 0. -1.
         24    2    1    2    0    0 -0.23068106012E+00  0.11180471135E+03 -0.43432738082E+03  0.45546920828E+03  0.79445448345E+02 0.  0.
         23    2    1    2    0    0 -0.11779826374E+02 -0.19179720483E+02 -0.11276635252E+03  0.14764522670E+03  0.92607973306E+02 0.  0.
        -13    1    3    3    0    0  0.13364261982E+02  0.28548368665E+02 -0.34056462492E+02  0.46405339016E+02  0.00000000000E+00 0.  1.
         14    1    3    3    0    0 -0.13594943042E+02  0.83256342683E+02 -0.40027091833E+03  0.40906386926E+03  0.00000000000E+00 0. -1.
        -13    1    4    4    0    0  0.32267305864E+02 -0.29667008443E+02 -0.81757702134E+02  0.92766547181E+02  0.00000000000E+00 0.  1.
         13    1    4    4    0    0 -0.44047132238E+02  0.10487287960E+02 -0.31008650387E+02  0.54878679521E+02  0.00000000000E+00 0. -1.
          1    1    1    2  501    0  0.12010507434E+02 -0.92624990864E+02 -0.93307353578E+01  0.93865349537E+02  0.00000000000E+00 0. -1.
<scales pt_clust_5="13000.00000" pt_clust_6="13000.00000" pt_clust_7="13000.00000" pt_clust_8="13000.00000" pt_clust_9="13000.00000"></scales>
<clustering>
<clus scale="   79.445">  5  6 -1 -1</clus>
<clus scale="   92.608">  7  8 -1 -1</clus>
<clus scale="   93.400">  7  9 -1 -1</clus>
<clus scale="  137.157">  2  5  1 -1</clus>
<clus scale="  208.374">  1  5  2 -1</clus>
</clustering>
</event>
<event>
 9    2  0.2147756E-005  0.6208985E+03  0.7546771E-02  0.1013001E+00
          2   -1    0    0  502    0 -0.00000000000E+00  0.00000000000E+00  0.14737401374E+04  0.14737401374E+04  0.00000000000E+00 0. -1.
         21   -1    0    0  501  502  0.00000000000E+00 -0.00000000000E+00 -0.17138245962E+03  0.17138245962E+03  0.00000000000E+00 0. -1.
         24    2    1    2    0    0 -0.24507751484E+03 -0.70844385413E+02  0.88481777580E+02  0.28166755415E+03  0.80160282392E+02 0.  0.
         23    2    1    2    0    0 -0.97886867507E+01 -0.18915325945E+03  0.71959790212E+03  0.74956067456E+03  0.90251261293E+02 0.  0.
        -11    1    3    3    0    0 -0.17930050087E+03 -0.76491783653E+02  0.38107373389E+02  0.19862485868E+03  0.00000000000E+00 0.  1.
         12    1    3    3    0    0 -0.65777013969E+02  0.56473982395E+01  0.50374404191E+02  0.83042695471E+02  0.00000000000E+00 0. -1.
        -13    1    4    4    0    0 -0.21534879738E+01 -0.59633675241E+02  0.99392979306E+02  0.11593005248E+03  0.00000000000E+00 0.  1.
         13    1    4    4    0    0 -0.76351987769E+01 -0.12951958421E+03  0.62020492282E+03  0.63363062208E+03  0.00000000000E+00 0. -1.
          1    1    1    2  501    0  0.25486620159E+03  0.25999764486E+03  0.49427799807E+03  0.61389436830E+03  0.00000000000E+00 0. -1.
<scales pt_clust_5="13000.00000" pt_clust_6="13000.00000" pt_clust_7="13000.00000" pt_clust_8="13000.00000" pt_clust_9="13000.00000"></scales>
<clustering>
<clus scale="   80.160">  5  6 -1 -1</clus>
<clus scale="   90.251">  7  8 -1 -1</clus>
<clus scale="  267.409">  1  5  2 -1</clus>
<clus scale="  273.924">  7  9 -1 -1</clus>
<clus scale="  620.899">  2  5  1 -1</clus>
</clustering>
</event>
<event>
 9    2  0.2147756E-005  0.1822825E+03  0.7546771E-02  0.1174372E+00
         21   -1    0    0  501  502  0.00000000000E+00  0.00000000000E+00  0.67343433400E+02  0.67343433400E+02  0.00000000000E+00 0.  1.
          2   -1    0    0  502    0 -0.00000000000E+00 -0.00000000000E+00 -0.46930562995E+03  0.46930562995E+03  0.00000000000E+00 0. -1.
         24    2    1    2    0    0 -0.12301852806E+03 -0.16645195020E+02 -0.28019614632E+03  0.31743708787E+03  0.82739371407E+02 0.  0.
         23    2    1    2    0    0  0.80025830478E+02 -0.81237571172E+01 -0.48494203298E+02  0.13072109127E+03  0.90918573331E+02 0.  0.
        -11    1    3    3    0    0 -0.12653459706E+03  0.55582281183E+01 -0.24081272488E+03  0.27208944598E+03  0.00000000000E+00 0.  1.
         12    1    3    3    0    0  0.35160690010E+01 -0.22203423138E+02 -0.39383421442E+02  0.45347641887E+02  0.00000000000E+00 0. -1.
        -13    1    4    4    0    0  0.46233125474E+02 -0.12399853379E+02 -0.74024880019E+02  0.88152941623E+02  0.00000000000E+00 0. -1.
         13    1    4    4    0    0  0.33792705004E+02  0.42760962623E+01  0.25530676721E+02  0.42568149650E+02  0.00000000000E+00 0.  1.
          1    1    1    2  501    0  0.42992697578E+02  0.24768952137E+02 -0.73271846936E+02  0.88490884211E+02  0.00000000000E+00 0. -1.
<scales pt_clust_5="13000.00000" pt_clust_6="13000.00000" pt_clust_7="13000.00000" pt_clust_8="13000.00000" pt_clust_9="13000.00000"></scales>
<clustering>
<clus scale="   82.739">  5  6 -1 -1</clus>
<clus scale="   90.919">  7  8 -1 -1</clus>
<clus scale="   49.617">  7  9 -1 -1</clus>
<clus scale="  149.186">  2  5  1 -1</clus>
<clus scale="  182.283">  1  5  2 -1</clus>
</clustering>
</event>
<event>
 9    2  0.2147756E-005  0.6408230E+03  0.7546771E-02  0.1049684E+00
          2   -1    0    0  502    0 -0.00000000000E+00  0.00000000000E+00  0.13653060894E+04  0.13653060894E+04  0.00000000000E+00 0. -1.
         21   -1    0    0  501  502  0.00000000000E+00 -0.00000000000E+00 -0.97629582099E+02  0.97629582099E+02  0.00000000000E+00 0. -1.
         24    2    1    2    0    0  0.12246545194E+02 -0.39036418412E+01  0.21990411858E+03  0.23473326624E+03  0.81096662235E+02 0.  0.
         23    2    1    2    0    0  0.27981455795E+03  0.10891984899E+03  0.38551097538E+03  0.49682133404E+03  0.89738539515E+02 0.  0.
        -11    1    3    3    0    0 -0.15586916385E+02  0.14755436984E+02  0.12915159132E+02  0.25049475411E+02  0.00000000000E+00 0.  1.
         12    1    3    3    0    0  0.27833461578E+02 -0.18659078825E+02  0.20698895944E+03  0.20968379083E+03  0.00000000000E+00 0. -1.
        -13    1    4    4    0    0  0.44037211473E+02  0.52138317405E+02  0.59804873573E+02  0.90743060557E+02  0.00000000000E+00 0.  1.
         13    1    4    4    0    0  0.23577734648E+03  0.56781531585E+02  0.32570610180E+03  0.40607827348E+03  0.00000000000E+00 0. -1.
          1    1    1    2  501    0 -0.29206110314E+03 -0.10501620715E+03  0.66226141338E+03  0.73138107126E+03  0.00000000000E+00 0. -1.
<scales pt_clust_5="13000.00000" pt_clust_6="13000.00000" pt_clust_7="13000.00000" pt_clust_8="13000.00000" pt_clust_9="13000.00000"></scales>
<clustering>
<clus scale="   81.097">  5  6 -1 -1</clus>
<clus scale="   82.109">  1  5  2 -1</clus>
<clus scale="   89.739">  7  8 -1 -1</clus>
<clus scale="  304.158">  7  9 -1 -1</clus>
<clus scale="  640.823">  2  5  1 -1</clus>
</clustering>
</event>
<event>
 9    2  0.2147756E-005  0.3835853E+03  0.7546771E-02  0.1105649E+00
          2   -1    0    0  502    0 -0.00000000000E+00  0.00000000000E+00  0.53698603461E+03  0.53698603461E+03  0.00000000000E+00 0. -1.
         21   -1    0    0  501  502  0.00000000000E+00 -0.00000000000E+00 -0.13013624750E+03  0.13013624750E+03  0.00000000000E+00 0. -1.
         24    2    1    2    0    0 -0.15070606777E+02  0.57505218814E+01  0.22967058990E+03  0.24459399367E+03  0.82567851985E+02 0.  0.
         23    2    1    2    0    0 -0.14782195317E+02  0.61305665890E+02  0.27663178904E+03  0.29892189649E+03  0.94086425819E+02 0.  0.
        -11    1    3    3    0    0  0.30859528572E+02 -0.13860423857E+02  0.81877150681E+02  0.88590573183E+02  0.00000000000E+00 0.  1.
         12    1    3    3    0    0 -0.45930135350E+02  0.19610945739E+02  0.14779343922E+03  0.15600342048E+03  0.00000000000E+00 0. -1.
        -13    1    4    4    0    0 -0.28026129336E+02  0.82998545045E+02  0.20584426395E+03  0.22370981965E+03  0.00000000000E+00 0. -1.
         13    1    4    4    0    0  0.13243934019E+02 -0.21692879155E+02  0.70787525087E+02  0.75212076838E+02  0.00000000000E+00 0.  1.
          1    1    1    2  501    0  0.29852802095E+02 -0.67056187771E+02 -0.99452591824E+02  0.12360639195E+03  0.00000000000E+00 0. -1.
<scales pt_clust_5="13000.00000" pt_clust_6="13000.00000" pt_clust_7="13000.00000" pt_clust_8="13000.00000" pt_clust_9="13000.00000"></scales>
<clustering>
<clus scale="   82.568">  5  6 -1 -1</clus>
<clus scale="   84.129">  1  5  2 -1</clus>
<clus scale="   94.086">  7  8 -1 -1</clus>
<clus scale="   72.944">  7  9 -1 -1</clus>
<clus scale="  383.585">  2  5  1 -1</clus>
</clustering>
</event>
<event>
 9    2  0.2147756E-005  0.3400932E+03  0.7546771E-02  0.1104716E+00
          2   -1    0    0  502    0 -0.00000000000E+00  0.00000000000E+00  0.62993799426E+03  0.62993799426E+03  0.00000000000E+00 0. -1.
         21   -1    0    0  501  502  0.00000000000E+00 -0.00000000000E+00 -0.10271139001E+03  0.10271139001E+03  0.00000000000E+00 0.  1.
         24    2    1    2    0    0 -0.48544442256E+02  0.75434286531E+02  0.25054733270E+02  0.12615126087E+03  0.85085289569E+02 0.  0.
         23    2    1    2    0    0  0.16152987754E+02  0.36803607463E+02  0.98426338472E+01  0.10049947824E+03  0.91585168831E+02 0.  0.
        -13    1    3    3    0    0 -0.72464768090E+02  0.60389434627E+02  0.26100317495E+02  0.97873658367E+02  0.00000000000E+00 0.  1.
         14    1    3    3    0    0  0.23920325834E+02  0.15044851905E+02 -0.10455842250E+01  0.28277602501E+02  0.00000000000E+00 0. -1.
        -13    1    4    4    0    0  0.26104318898E+02  0.61726746257E+02  0.22676734196E+02  0.70752109102E+02  0.00000000000E+00 0.  1.
         13    1    4    4    0    0 -0.99513311436E+01 -0.24923138794E+02 -0.12834100349E+02  0.29747369138E+02  0.00000000000E+00 0. -1.
          1    1    1    2  501    0  0.32391454502E+02 -0.11223789399E+03  0.49232923713E+03  0.50599864516E+03  0.00000000000E+00 0. -1.
<scales pt_clust_5="13000.00000" pt_clust_6="13000.00000" pt_clust_7="13000.00000" pt_clust_8="13000.00000" pt_clust_9="13000.00000"></scales>
<clustering>
<clus scale="   85.085">  5  6 -1 -1</clus>
<clus scale="   91.585">  7  8 -1 -1</clus>
<clus scale="  116.819">  7  9 -1 -1</clus>
<clus scale="  123.638">  1  5  2 -1</clus>
<clus scale="  340.093">  2  5  1 -1</clus>
</clustering>
</event>
<event>
 9    2  0.2147756E-005  0.3200875E+03  0.7546771E-02  0.1113150E+00
          2   -1    0    0  502    0 -0.00000000000E+00  0.00000000000E+00  0.51553560301E+03  0.51553560301E+03  0.00000000000E+00 0. -1.
         21   -1    0    0  501  502  0.00000000000E+00 -0.00000000000E+00 -0.11414105264E+03  0.11414105264E+03  0.00000000000E+00 0. -1.
         24    2    1    2    0    0 -0.39855126383E+02  0.78121760839E+02  0.43246317242E+01  0.11965655268E+03  0.81286822697E+02 0.  0.
         23    2    1    2    0    0 -0.56167235705E+02  0.30361124666E+02  0.30042380913E+02  0.11543418847E+03  0.91356176357E+02 0.  0.
        -13    1    3    3    0    0 -0.50008503417E+02  0.22120687625E+02 -0.19363509378E+02  0.58009660664E+02  0.00000000000E+00 0.  1.
         14    1    3    3    0    0  0.10153377034E+02  0.56001073214E+02  0.23688141102E+02  0.61646892016E+02  0.00000000000E+00 0. -1.
        -13    1    4    4    0    0 -0.49005979320E+02 -0.15970454520E+02 -0.11483016242E+02  0.52806259939E+02  0.00000000000E+00 0. -1.
         13    1    4    4    0    0 -0.71612563841E+01  0.46331579186E+02  0.41525397155E+02  0.62627928529E+02  0.00000000000E+00 0.  1.
          1    1    1    2  501    0  0.96022362087E+02 -0.10848288551E+03  0.36702753773E+03  0.39458591450E+03  0.00000000000E+00 0. -1.
<scales pt_clust_5="13000.00000" pt_clust_6="13000.00000" pt_clust_7="13000.00000" pt_clust_8="13000.00000" pt_clust_9="13000.00000"></scales>
<clustering>
<clus scale="   81.287">  5  6 -1 -1</clus>
<clus scale="   91.356">  7  8 -1 -1</clus>
<clus scale="  119.578">  1  5  2 -1</clus>
<clus scale="   75.850">  7  9 -1 -1</clus>
<clus scale="  320.087">  2  5  1 -1</clus>
</clustering>
</event>
<event>
 9    2  0.2147756E-005  0.4918532E+03  0.7546771E-02  0.1072746E+00
          2   -1    0    0  502    0 -0.00000000000E+00  0.00000000000E+00  0.60810842856E+03  0.60810842856E+03  0.00000000000E+00 0. -1.
         21   -1    0    0  501  502  0.00000000000E+00 -0.00000000000E+00 -0.40118653768E+03  0.40118653768E+03  0.00000000000E+00 0. -1.
         24    2    1    2    0    0 -0.64104426036E+00 -0.54252211663E+02  0.45046302836E+03  0.46044900441E+03  0.78438717076E+02 0.  0.
         23    2    1    2    0    0 -0.17034692466E+03  0.15939965572E+03 -0.24414252601E+02  0.25167688169E+03  0.91207850897E+02 0.  0.
        -13    1    3    3    0    0  0.21540665429E+02 -0.11777618816E+02  0.38188061985E+02  0.45398685556E+02  0.00000000000E+00 0.  1.
         14    1    3    3    0    0 -0.22181709689E+02 -0.42474592847E+02  0.41227496638E+03  0.41505031886E+03  0.00000000000E+00 0. -1.
        -13    1    4    4    0    0 -0.49847883587E+02  0.10399841880E+03  0.64508002856E+01  0.11550798862E+03  0.00000000000E+00 0.  1.
         13    1    4    4    0    0 -0.12049904107E+03  0.55401236921E+02 -0.30865052887E+02  0.13616889307E+03  0.00000000000E+00 0. -1.
          1    1    1    2  501    0  0.17098796892E+03 -0.10514744406E+03 -0.21912688489E+03  0.29716908013E+03  0.00000000000E+00 0. -1.
<scales pt_clust_5="13000.00000" pt_clust_6="13000.00000" pt_clust_7="13000.00000" pt_clust_8="13000.00000" pt_clust_9="13000.00000"></scales>
<clustering>
<clus scale="   78.439">  5  6 -1 -1</clus>
<clus scale="   91.208">  7  8 -1 -1</clus>
<clus scale="   95.375">  1  5  2 -1</clus>
<clus scale="  208.196">  7  9 -1 -1</clus>
<clus scale="  491.853">  2  5  1 -1</clus>
</clustering>
</event>
<event>
 9    2  0.2147756E-005  0.2485252E+03  0.7546771E-02  0.1137410E+00
         21   -1    0    0  501  502  0.00000000000E+00  0.00000000000E+00  0.26274097253E+03  0.26274097253E+03  0.00000000000E+00 0. -1.
          4   -1    0    0  502    0 -0.00000000000E+00 -0.00000000000E+00 -0.17797638424E+03  0.17797638424E+03  0.00000000000E+00 0. -1.
         24    2    1    2    0    0 -0.10798309678E+03  0.25759523336E+02 -0.60804429460E+02  0.15269808489E+03  0.85414426504E+02 0.  0.
         23    2    1    2    0    0  0.66576885958E+02  0.75695011825E+02  0.96577219273E+02  0.16798722067E+03  0.93436237438E+02 0.  0.
        -13    1    3    3    0    0 -0.32122108120E+02 -0.29192129864E+02 -0.50744184245E+01  0.43700800890E+02  0.00000000000E+00 0.  1.
         14    1    3    3    0    0 -0.75860988661E+02  0.54951653200E+02 -0.55730011035E+02  0.10899728400E+03  0.00000000000E+00 0. -1.
        -13    1    4    4    0    0  0.86648175871E+02  0.38429939992E+02  0.72095541181E+02  0.11909044348E+03  0.00000000000E+00 0.  1.
         13    1    4    4    0    0 -0.20071289913E+02  0.37265071833E+02  0.24481678092E+02  0.48896777192E+02  0.00000000000E+00 0. -1.
          3    1    1    2  501    0  0.41406210824E+02 -0.10145453516E+03  0.48991798477E+02  0.12003205121E+03  0.00000000000E+00 0. -1.
<scales pt_clust_5="13000.00000" pt_clust_6="13000.00000" pt_clust_7="13000.00000" pt_clust_8="13000.00000" pt_clust_9="13000.00000"></scales>
<clustering>
<clus scale="   85.414">  5  6 -1 -1</clus>
<clus scale="   93.436">  7  8 -1 -1</clus>
<clus scale="  109.579">  7  9 -1 -1</clus>
<clus scale="  140.070">  2  5  1 -1</clus>
<clus scale="  248.525">  1  5  2 -1</clus>
</clustering>
</event>
<event>
 9    2  0.2147756E-005  0.1647091E+03  0.7546771E-02  0.1198329E+00
         -1   -1    0    0    0  501 -0.00000000000E+00  0.00000000000E+00  0.14538062591E+03  0.14538062591E+03  0.00000000000E+00 0.  1.
         21   -1    0    0  501  502  0.00000000000E+00 -0.00000000000E+00 -0.15313817905E+03  0.15313817905E+03  0.00000000000E+00 0.  1.
         24    2    1    2    0    0 -0.77339898106E+02 -0.40453022246E+02  0.42867173580E+02  0.12620532127E+03  0.80450492224E+02 0.  0.
         23    2    1    2    0    0  0.68385904809E+02  0.15590152052E+02 -0.71861333326E+02  0.13841171720E+03  0.95257899487E+02 0.  0.
        -13    1    3    3    0    0 -0.73771121207E+02 -0.42933866097E+02  0.62695222315E+02  0.10590649689E+03  0.00000000000E+00 0.  1.
         14    1    3    3    0    0 -0.35687768993E+01  0.24808438519E+01 -0.19828048735E+02  0.20298824385E+02  0.00000000000E+00 0. -1.
        -11    1    4    4    0    0  0.42256961833E+02 -0.74595035909E+00  0.16086533040E+02  0.45221497217E+02  0.00000000000E+00 0. -1.
         11    1    4    4    0    0  0.26128942976E+02  0.16336102411E+02 -0.87947866366E+02  0.93190219987E+02  0.00000000000E+00 0.  1.
         -2    1    1    2    0  502  0.89539932975E+01  0.24862870194E+02  0.21236606612E+02  0.33901766483E+02  0.00000000000E+00 0.  1.
<scales pt_clust_5="13000.00000" pt_clust_6="13000.00000" pt_clust_7="13000.00000" pt_clust_8="13000.00000" pt_clust_9="13000.00000"></scales>
<clustering>
<clus scale="   80.450">  5  6 -1 -1</clus>
<clus scale="   95.258">  7  8 -1 -1</clus>
<clus scale="   26.426">  7  9 -1 -1</clus>
<clus scale="  118.702">  1  5  2 -1</clus>
<clus scale="  164.709">  2  5  1 -1</clus>
</clustering>
</event>
<event>
 9    2  0.2147756E-005  0.3653634E+03  0.7546771E-02  0.1088490E+00
          4   -1    0    0  502    0 -0.00000000000E+00  0.00000000000E+00  0.37770777001E+03  0.37770777001E+03  0.00000000000E+00 0. -1.
         21   -1    0    0  501  502  0.00000000000E+00 -0.00000000000E+00 -0.18442233034E+03  0.18442233034E+03  0.00000000000E+00 0.  1.
         24    2    1    2    0    0  0.17416040269E+01  0.12737428042E+03  0.10860837994E+03  0.18708258739E+03  0.83527682913E+02 0.  0.
         23    2    1    2    0    0  0.10255745618E+03  0.60489914998E+02  0.22872161227E+02  0.15146062748E+03  0.90775130313E+02 0.  0.
        -11    1    3    3    0    0  0.41824892987E+02  0.53612898326E+02  0.55220886906E+02  0.87595724159E+02  0.00000000000E+00 0.  1.
         12    1    3    3    0    0 -0.40083288960E+02  0.73761382098E+02  0.53387493032E+02  0.99486863229E+02  0.00000000000E+00 0. -1.
        -11    1    4    4    0    0  0.28962681937E+02 -0.15823799338E+02  0.30804117468E+02  0.45145578116E+02  0.00000000000E+00 0. -1.
         11    1    4    4    0    0  0.73594774240E+02  0.76313714337E+02 -0.79319562411E+01  0.10631504936E+03  0.00000000000E+00 0.  1.
          3    1    1    2  501    0 -0.10429906020E+03 -0.18786419542E+03  0.61804898506E+02  0.22358688548E+03  0.00000000000E+00 0. -1.
<scales pt_clust_5="13000.00000" pt_clust_6="13000.00000" pt_clust_7="13000.00000" pt_clust_8="13000.00000" pt_clust_9="13000.00000"></scales>
<clustering>
<clus scale="   83.528">  5  6 -1 -1</clus>
<clus scale="   90.775">  7  8 -1 -1</clus>
<clus scale="  152.329">  1  5  2 -1</clus>
<clus scale="  149.965">  7  9 -1 -1</clus>
<clus scale="  365.363">  2  5  1 -1</clus>
</clustering>
</event>
<event>
 9    2  0.2147756E-005  0.2356255E+03  0.7546771E-02  0.1156996E+00
         21   -1    0    0  501  502  0.00000000000E+00  0.00000000000E+00  0.73465538054E+02  0.73465538054E+02  0.00000000000E+00 0. -1.
          2   -1    0    0  502    0 -0.00000000000E+00 -0.00000000000E+00 -0.39679172065E+03  0.39679172065E+03  0.00000000000E+00 0. -1.
         24    2    1    2    0    0 -0.48278641090E+02 -0.42492590482E+02 -0.12689123581E+03  0.16349016599E+03  0.80567991287E+02 0.  0.
         23    2    1    2    0    0  0.70243897715E+02 -0.68822856074E+02 -0.11130420691E+03  0.16491913181E+03  0.71686141444E+02 0.  0.
        -13    1    3    3    0    0 -0.27996431724E+02  0.19910154455E+02 -0.25768857150E+02  0.42944713744E+02  0.00000000000E+00 0.  1.
         14    1    3    3    0    0 -0.20282209366E+02 -0.62402744937E+02 -0.10112237866E+03  0.12054545225E+03  0.00000000000E+00 0. -1.
        -13    1    4    4    0    0  0.75401822809E+02 -0.36638004829E+02 -0.56301049088E+02  0.10098309962E+03  0.00000000000E+00 0. -1.
         13    1    4    4    0    0 -0.51579250936E+01 -0.32184851245E+02 -0.55003157826E+02  0.63936032186E+02  0.00000000000E+00 0.  1.
          1    1    1    2  501    0 -0.21965256625E+02  0.11131544656E+03 -0.85130739870E+02  0.14184796090E+03  0.00000000000E+00 0. -1.
<scales pt_clust_5="13000.00000" pt_clust_6="13000.00000" pt_clust_7="13000.00000" pt_clust_8="13000.00000" pt_clust_9="13000.00000"></scales>
<clustering>
<clus scale="   71.686">  7  8 -1 -1</clus>
<clus scale="   80.568">  5  6 -1 -1</clus>
<clus scale="  103.090">  2  5  1 -1</clus>
<clus scale="  102.004">  7  9 -1 -1</clus>
<clus scale="  235.625">  1  5  2 -1</clus>
</clustering>
</event>
<event>
 9    2  0.2754860E-005  0.3373396E+03  0.7546771E-02  0.1093211E+00
          2   -1    0    0  502    0 -0.00000000000E+00  0.00000000000E+00  0.31103569602E+03  0.31103569602E+03  0.00000000000E+00 0. -1.
         21   -1    0    0  501  502  0.00000000000E+00 -0.00000000000E+00 -0.24721676545E+03  0.24721676545E+03  0.00000000000E+00 0. -1.
         24    2    1    2    0    0 -0.14243292347E+03 -0.47048275525E+02 -0.83470269998E+02  0.19015994790E+03  0.81809790945E+02 0.  0.
         23    2    1    2    0    0 -0.56301698666E+02 -0.34851250222E+02  0.10404658502E+03  0.14883716894E+03  0.83320586217E+02 0.  0.
        -11    1    3    3    0    0  0.45555453915E+01 -0.20116404459E+02 -0.16456678308E+02  0.26386454538E+02  0.00000000000E+00 0.  1.
         12    1    3    3    0    0 -0.14698846886E+03 -0.26931871065E+02 -0.67013591690E+02  0.16377349336E+03  0.00000000000E+00 0. -1.
        -11    1    4    4    0    0  0.10301869147E+02 -0.34188951421E+02  0.17896151643E+02  0.39941020903E+02  0.00000000000E+00 0.  1.
         11    1    4    4    0    0 -0.66603567813E+02 -0.66229880168E+00  0.86150433380E+02  0.10889614803E+03  0.00000000000E+00 0. -1.
          1    1    1    2  501    0  0.19873462214E+03  0.81899525747E+02  0.43242615543E+02  0.21925534464E+03  0.00000000000E+00 0. -1.
<scales pt_clust_5="13000.00000" pt_clust_6="13000.00000" pt_clust_7="13000.00000" pt_clust_8="13000.00000" pt_clust_9="13000.00000"></scales>
<clustering>
<clus scale="   81.810">  5  6 -1 -1</clus>
<clus scale="   83.321">  7  8 -1 -1</clus>
<clus scale="  170.861">  1  5  2 -1</clus>
<clus scale="  138.854">  7  9 -1 -1</clus>
<clus scale="  337.340">  2  5  1 -1</clus>
</clustering>
</event>
<event>
 9    2  0.2147756E-005  0.2600150E+03  0.7546771E-02  0.1149956E+00
         21   -1    0    0  501  502  0.00000000000E+00  0.00000000000E+00  0.67040284545E+02  0.67040284545E+02  0.00000000000E+00 0.  1.
          2   -1    0    0  502    0 -0.00000000000E+00 -0.00000000000E+00 -0.53765956440E+03  0.53765956440E+03  0.00000000000E+00 0. -1.
         24    2    1    2    0    0  0.15799706058E+02  0.34961951799E+02 -0.34397449873E+02  0.96863969235E+02  0.82021187465E+02 0.  0.
         23    2    1    2    0    0  0.50477336596E+02  0.76740406130E+02 -0.19087756978E+03  0.23023208081E+03  0.90197078368E+02 0.  0.
        -11    1    3    3    0    0  0.49420382289E+02  0.20002137959E+02 -0.15646013151E+02  0.55563094191E+02  0.00000000000E+00 0.  1.
         12    1    3    3    0    0 -0.33620676230E+02  0.14959813840E+02 -0.18751436722E+02  0.41300875045E+02  0.00000000000E+00 0. -1.
        -13    1    4    4    0    0  0.31622073555E+02  0.92106341475E+02 -0.17753338908E+03  0.20248861182E+03  0.00000000000E+00 0. -1.
         13    1    4    4    0    0  0.18855263041E+02 -0.15365935346E+02 -0.13344180700E+02  0.27743468996E+02  0.00000000000E+00 0.  1.
          1    1    1    2  501    0 -0.66277042654E+02 -0.11170235793E+03 -0.24534426020E+03  0.27760379889E+03  0.00000000000E+00 0. -1.
<scales pt_clust_5="13000.00000" pt_clust_6="13000.00000" pt_clust_7="13000.00000" pt_clust_8="13000.00000" pt_clust_9="13000.00000"></scales>
<clustering>
<clus scale="   82.021">  5  6 -1 -1</clus>
<clus scale="   90.197">  7  8 -1 -1</clus>
<clus scale="   90.551">  2  5  1 -1</clus>
<clus scale="  108.789">  7  9 -1 -1</clus>
<clus scale="  260.015">  1  5  2 -1</clus>
</clustering>
</event>
<event>
 9    2  0.2147756E-005  0.5086933E+03  0.7546771E-02  0.1072761E+00
         21   -1    0    0  501  502  0.00000000000E+00  0.00000000000E+00  0.24236830691E+03  0.24236830691E+03  0.00000000000E+00 0.  1.
          2   -1    0    0  502    0 -0.00000000000E+00 -0.00000000000E+00 -0.37859257230E+03  0.37859257230E+03  0.00000000000E+00 0. -1.
         24    2    1    2    0    0  0.17388371241E+02 -0.25321336610E+02 -0.63611357847E+02  0.10711123010E+03  0.80516366187E+02 0.  0.
         23    2    1    2    0    0  0.75196345143E+02  0.15022722593E+03  0.14760441641E+03  0.24427761668E+03  0.98294356562E+02 0.  0.
        -11    1    3    3    0    0 -0.19869509895E+02 -0.40152592538E+02 -0.42680464604E+02  0.61876087221E+02  0.00000000000E+00 0.  1.
         12    1    3    3    0    0  0.37257881137E+02  0.14831255928E+02 -0.20930893243E+02  0.45235142877E+02  0.00000000000E+00 0. -1.
        -11    1    4    4    0    0  0.90925310537E+02  0.10506620729E+03  0.76577194425E+02  0.15865177817E+03  0.00000000000E+00 0.  1.
         11    1    4    4    0    0 -0.15728965394E+02  0.45161018643E+02  0.71027221987E+02  0.85625838509E+02  0.00000000000E+00 0. -1.
          1    1    1    2  501    0 -0.92584716384E+02 -0.12490588932E+03 -0.22021732396E+03  0.26957203243E+03  0.00000000000E+00 0. -1.
<scales pt_clust_5="13000.00000" pt_clust_6="13000.00000" pt_clust_7="13000.00000" pt_clust_8="13000.00000" pt_clust_9="13000.00000"></scales>
<clustering>
<clus scale="   80.516">  5  6 -1 -1</clus>
<clus scale="   86.177">  2  5  1 -1</clus>
<clus scale="   98.294">  7  8 -1 -1</clus>
<clus scale="  165.606">  7  9 -1 -1</clus>
<clus scale="  508.693">  1  5  2 -1</clus>
</clustering>
</event>
<event>
 9    2  0.2147756E-005  0.2669952E+03  0.7546771E-02  0.1147409E+00
         21   -1    0    0  501  502  0.00000000000E+00  0.00000000000E+00  0.87269328486E+02  0.87269328486E+02  0.00000000000E+00 0. -1.
         -3   -1    0    0    0  501 -0.00000000000E+00 -0.00000000000E+00 -0.37156020914E+03  0.37156020914E+03  0.00000000000E+00 0.  1.
         24    2    1    2    0    0  0.29514748786E+02  0.19917469832E+02 -0.41953183107E+02  0.98254973263E+02  0.81401131427E+02 0.  0.
         23    2    1    2    0    0  0.20458644797E+02 -0.63728889347E+02 -0.50318032747E+01  0.11413822775E+03  0.92316241831E+02 0.  0.
        -11    1    3    3    0    0  0.39176771051E+02  0.42866089362E+02 -0.44590038016E+02  0.73216067208E+02  0.00000000000E+00 0.  1.
         12    1    3    3    0    0 -0.96620222646E+01 -0.22948619531E+02  0.26368549090E+01  0.25038906055E+02  0.00000000000E+00 0. -1.
        -11    1    4    4    0    0 -0.28560671685E+02 -0.19801281052E+02 -0.27784524089E+02  0.44494746626E+02  0.00000000000E+00 0.  1.
         11    1    4    4    0    0  0.49019316482E+02 -0.43927608294E+02  0.22752720814E+02  0.69643481126E+02  0.00000000000E+00 0. -1.
         -4    1    1    2    0  502 -0.49973393583E+02  0.43811419515E+02 -0.23730589427E+03  0.24643633661E+03  0.00000000000E+00 0.  1.
<scales pt_clust_5="13000.00000" pt_clust_6="13000.00000" pt_clust_7="13000.00000" pt_clust_8="13000.00000" pt_clust_9="13000.00000"></scales>
<clustering>
<clus scale="   81.401">  5  6 -1 -1</clus>
<clus scale="   88.848">  2  5  1 -1</clus>
<clus scale="   92.316">  7  8 -1 -1</clus>
<clus scale="   65.318">  7  9 -1 -1</clus>
<clus scale="  266.995">  1  5  2 -1</clus>
</clustering>
</event>
<event>
 9    2  0.2147756E-005  0.2266559E+03  0.7546771E-02  0.1142603E+00
         -1   -1    0    0    0  501 -0.00000000000E+00  0.00000000000E+00  0.48113578689E+03  0.48113578689E+03  0.00000000000E+00 0.  1.
         21   -1    0    0  501  502  0.00000000000E+00 -0.00000000000E+00 -0.80259082086E+02  0.80259082086E+02  0.00000000000E+00 0.  1.
         24    2    1    2    0    0 -0.14141011300E+03 -0.14235306383E+02  0.13159145285E+03  0.20941837378E+03  0.79625880251E+02 0.  0.
         23    2    1    2    0    0  0.29829950461E+02 -0.26132716004E+02  0.17156967309E+03  0.19826233106E+03  0.91099146012E+02 0.  0.
        -11    1    3    3    0    0 -0.89869472687E+02 -0.47414747819E+02  0.82680020704E+02  0.13099872616E+03  0.00000000000E+00 0.  1.
         12    1    3    3    0    0 -0.51540640312E+02  0.33179441436E+02  0.48911432150E+02  0.78419647619E+02  0.00000000000E+00 0. -1.
        -11    1    4    4    0    0  0.22239952589E+02  0.14645982560E+02  0.14836076138E+03  0.15073166825E+03  0.00000000000E+00 0. -1.
         11    1    4    4    0    0  0.75899978724E+01 -0.40778698564E+02  0.23208911701E+02  0.47530662805E+02  0.00000000000E+00 0.  1.
         -2    1    1    2    0  502  0.11158016254E+03  0.40368022388E+02  0.97715578863E+02  0.15371416414E+03  0.00000000000E+00 0.  1.
<scales pt_clust_5="13000.00000" pt_clust_6="13000.00000" pt_clust_7="13000.00000" pt_clust_8="13000.00000" pt_clust_9="13000.00000"></scales>
<clustering>
<clus scale="   79.626">  5  6 -1 -1</clus>
<clus scale="   91.099">  7  8 -1 -1</clus>
<clus scale="  118.658">  7  9 -1 -1</clus>
<clus scale="  162.910">  1  5  2 -1</clus>
<clus scale="  226.656">  2  5  1 -1</clus>
</clustering>
</event>
<event>
 9    2  0.2147756E-005  0.1606597E+03  0.7546771E-02  0.1215301E+00
          2   -1    0    0  502    0 -0.00000000000E+00  0.00000000000E+00  0.19300305882E+03  0.19300305882E+03  0.00000000000E+00 0. -1.
         21   -1    0    0  501  502  0.00000000000E+00 -0.00000000000E+00 -0.52109777352E+03  0.52109777352E+03  0.00000000000E+00 0. -1.
         24    2    1    2    0    0 -0.29591078887E+02  0.20443738695E+02  0.16941270719E+03  0.19129572220E+03  0.81239212054E+02 0.  0.
         23    2    1    2    0    0 -0.32533607402E+02 -0.22585253758E+02 -0.28406277753E+03  0.30049298960E+03  0.89642879919E+02 0.  0.
        -11    1    3    3    0    0 -0.98860941269E+01 -0.31497373553E+02  0.55955816122E+02  0.64968244210E+02  0.00000000000E+00 0.  1.
         12    1    3    3    0    0 -0.19704984760E+02  0.51941112248E+02  0.11345689107E+03  0.12632747799E+03  0.00000000000E+00 0. -1.
        -11    1    4    4    0    0  0.28142079834E+02 -0.78575626757E+01 -0.46967330843E+02  0.55314086046E+02  0.00000000000E+00 0.  1.
         11    1    4    4    0    0 -0.60675687236E+02 -0.14727691083E+02 -0.23709544669E+03  0.24517890355E+03  0.00000000000E+00 0. -1.
          1    1    1    2  501    0  0.62124686289E+02  0.21415150632E+01 -0.21344464436E+03  0.22231212054E+03  0.00000000000E+00 0. -1.
<scales pt_clust_5="13000.00000" pt_clust_6="13000.00000" pt_clust_7="13000.00000" pt_clust_8="13000.00000" pt_clust_9="13000.00000"></scales>
<clustering>
<clus scale="   81.239">  5  6 -1 -1</clus>
<clus scale="   88.845">  1  5  2 -1</clus>
<clus scale="   89.643">  7  8 -1 -1</clus>
<clus scale="   52.583">  7  9 -1 -1</clus>
<clus scale="  160.660">  2  5  1 -1</clus>
</clustering>
</event>
<event>
 9    2  0.2147756E-005  0.4281025E+03  0.7546771E-02  0.1092653E+00
          2   -1    0    0  502    0 -0.00000000000E+00  0.00000000000E+00  0.72525011727E+03  0.72525011727E+03  0.00000000000E+00 0. -1.
         21   -1    0    0  501  502  0.00000000000E+00 -0.00000000000E+00 -0.20445933603E+03  0.20445933603E+03  0.00000000000E+00 0. -1.
         24    2    1    2    0    0 -0.66850475549E+01 -0.23525848212E+02  0.49349925043E+03  0.50073792588E+03  0.81233028008E+02 0.  0.
         23    2    1    2    0    0 -0.71994112033E+02  0.19562390422E+03 -0.34430997450E+02  0.22992926676E+03  0.90719954041E+02 0.  0.
        -13    1    3    3    0    0  0.33182814688E+02 -0.78620988517E+01  0.11877773921E+03  0.12357614300E+03  0.00000000000E+00 0.  1.
         14    1    3    3    0    0 -0.39867862243E+02 -0.15663749360E+02  0.37472151123E+03  0.37716178287E+03  0.00000000000E+00 0. -1.
        -11    1    4    4    0    0 -0.41004621881E+02  0.15639697637E+02 -0.14465746836E+02  0.46208624620E+02  0.00000000000E+00 0.  1.
         11    1    4    4    0    0 -0.30989490153E+02  0.17998420658E+03 -0.19965250614E+02  0.18372064214E+03  0.00000000000E+00 0. -1.
          1    1    1    2  501    0  0.78679159588E+02 -0.17209805600E+03  0.61722528252E+02  0.19904226066E+03  0.00000000000E+00 0. -1.
<scales pt_clust_5="13000.00000" pt_clust_6="13000.00000" pt_clust_7="13000.00000" pt_clust_8="13000.00000" pt_clust_9="13000.00000"></scales>
<clustering>
<clus scale="   81.233">  5  6 -1 -1</clus>
<clus scale="   84.835">  1  5  2 -1</clus>
<clus scale="   90.720">  7  8 -1 -1</clus>
<clus scale="  200.076">  7  9 -1 -1</clus>
<clus scale="  428.102">  2  5  1 -1</clus>
</clustering>
</event>
<event>
 9    2  0.2147756E-005  0.2454375E+03  0.7546771E-02  0.1150868E+00
         21   -1    0    0  501  502  0.00000000000E+00  0.00000000000E+00  0.78714214813E+02  0.78714214813E+02  0.00000000000E+00 0. -1.
          2   -1    0    0  502    0 -0.00000000000E+00 -0.00000000000E+00 -0.45624986452E+03  0.45624986452E+03  0.00000000000E+00 0. -1.
         24    2    1    2    0    0 -0.32169542532E+02 -0.60366201722E+02 -0.21830037623E+03  0.24239710961E+03  0.80139545223E+02 0.  0.
         23    2    1    2    0    0  0.96238930191E+02 -0.23040504555E+02 -0.88826925500E+02  0.16600117438E+03  0.99364836167E+02 0.  0.
        -11    1    3    3    0    0 -0.55154659624E+02 -0.27245707854E+02 -0.99902819859E+02  0.11732407464E+03  0.00000000000E+00 0.  1.
         12    1    3    3    0    0  0.22985117092E+02 -0.33120493868E+02 -0.11839755637E+03  0.12507303497E+03  0.00000000000E+00 0. -1.
        -11    1    4    4    0    0  0.11720432530E+03 -0.21431029274E+02 -0.73719594321E+02  0.14010967658E+03  0.00000000000E+00 0. -1.
         11    1    4    4    0    0 -0.20965395110E+02 -0.16094752813E+01 -0.15107331179E+02  0.25891497796E+02  0.00000000000E+00 0.  1.
          1    1    1    2  501    0 -0.64069387659E+02  0.83406706277E+02 -0.70408347985E+02  0.12656579535E+03  0.00000000000E+00 0. -1.
<scales pt_clust_5="13000.00000" pt_clust_6="13000.00000" pt_clust_7="13000.00000" pt_clust_8="13000.00000" pt_clust_9="13000.00000"></scales>
<clustering>
<clus scale="   80.140">  5  6 -1 -1</clus>
<clus scale="   99.365">  7  8 -1 -1</clus>
<clus scale="  105.174">  7  9 -1 -1</clus>
<clus scale="  105.363">  2  5  1 -1</clus>
<clus scale="  245.437">  1  5  2 -1</clus>
</clustering>
</event>
<event>
 9    2  0.2147756E-005  0.6425849E+03  0.7546771E-02  0.1043089E+00
          2   -1    0    0  502    0 -0.00000000000E+00  0.00000000000E+00  0.24042473648E+03  0.24042473648E+03  0.00000000000E+00 0. -1.
         21   -1    0    0  501  502  0.00000000000E+00 -0.00000000000E+00 -0.60260917418E+03  0.60260917418E+03  0.00000000000E+00 0.  1.
         24    2    1    2    0    0  0.50576279810E+02 -0.21597231868E+02  0.12453132254E+02  0.99213632549E+02  0.81632492777E+02 0.  0.
         23    2    1    2    0    0  0.23295929498E+03  0.14988238991E+03 -0.30873093738E+03  0.42571151030E+03  0.95816148858E+02 0.  0.
        -13    1    3    3    0    0  0.19257334884E+02  0.12873653930E+02  0.39180413723E+02  0.45515719613E+02  0.00000000000E+00 0.  1.
         14    1    3    3    0    0  0.31318944926E+02 -0.34470885797E+02 -0.26727281470E+02  0.53697912936E+02  0.00000000000E+00 0. -1.
        -11    1    4    4    0    0  0.87963566459E+02  0.83871384931E+02 -0.19570917005E+03  0.23037811848E+03  0.00000000000E+00 0.  1.
         11    1    4    4    0    0  0.14499572852E+03  0.66011004974E+02 -0.11302176734E+03  0.19533339182E+03  0.00000000000E+00 0. -1.
          1    1    1    2  501    0 -0.28353557479E+03 -0.12828515804E+03 -0.65906632574E+02  0.31810876782E+03  0.00000000000E+00 0. -1.
<scales pt_clust_5="13000.00000" pt_clust_6="13000.00000" pt_clust_7="13000.00000" pt_clust_8="13000.00000" pt_clust_9="13000.00000"></scales>
<clustering>
<clus scale="   81.632">  5  6 -1 -1</clus>
<clus scale="   95.816">  7  8 -1 -1</clus>
<clus scale="   98.429">  1  5  2 -1</clus>
<clus scale="  287.148">  7  9 -1 -1</clus>
<clus scale="  642.585">  2  5  1 -1</clus>
</clustering>
</event>
<event>
 9    2  0.2147756E-005  0.2454016E+03  0.7546771E-02  0.1142762E+00
         21   -1    0    0  501  502  0.00000000000E+00  0.00000000000E+00  0.30552985261E+03  0.30552985261E+03  0.00000000000E+00 0.  1.
          2   -1    0    0  502    0 -0.00000000000E+00 -0.00000000000E+00 -0.13309174284E+03  0.13309174284E+03  0.00000000000E+00 0. -1.
         24    2    1    2    0    0  0.29344667711E+02  0.94849942498E+02  0.14240650529E+03  0.19138924980E+03  0.80576740299E+02 0.  0.
         23    2    1    2    0    0  0.18759760569E+02 -0.96374948354E+02 -0.58089918784E+02  0.14682435530E+03  0.92427773733E+02 0.  0.
        -11    1    3    3    0    0  0.52512095744E+02  0.87916379748E+02  0.10364027435E+03  0.14569871823E+03  0.00000000000E+00 0.  1.
         12    1    3    3    0    0 -0.23167428033E+02  0.69335627499E+01  0.38766230938E+02  0.45690531571E+02  0.00000000000E+00 0. -1.
        -11    1    4    4    0    0  0.91633932001E+01 -0.74802763207E+02 -0.83268257162E+02  0.11230771928E+03  0.00000000000E+00 0. -1.
         11    1    4    4    0    0  0.95963673691E+01 -0.21572185147E+02  0.25178338378E+02  0.34516636020E+02  0.00000000000E+00 0.  1.
          1    1    1    2  501    0 -0.48104428280E+02  0.15250058563E+01  0.88121523261E+02  0.10040799034E+03  0.00000000000E+00 0. -1.
<scales pt_clust_5="13000.00000" pt_clust_6="13000.00000" pt_clust_7="13000.00000" pt_clust_8="13000.00000" pt_clust_9="13000.00000"></scales>
<clustering>
<clus scale="   80.577">  5  6 -1 -1</clus>
<clus scale="   92.428">  7  8 -1 -1</clus>
<clus scale="   48.129">  7  9 -1 -1</clus>
<clus scale="  127.868">  2  5  1 -1</clus>
<clus scale="  245.402">  1  5  2 -1</clus>
</clustering>
</event>
<event>
 9    2  0.2147756E-005  0.7701994E+03  0.7546771E-02  0.9897737E-01
          2   -1    0    0  502    0 -0.00000000000E+00  0.00000000000E+00  0.30984205300E+03  0.30984205300E+03  0.00000000000E+00 0. -1.
         21   -1    0    0  501  502  0.00000000000E+00 -0.00000000000E+00 -0.11883906869E+04  0.11883906869E+04  0.00000000000E+00 0. -1.
         24    2    1    2    0    0 -0.17723554809E+03 -0.21548360202E+03  0.46591547330E+02  0.29445057846E+03  0.81760312080E+02 0.  0.
         23    2    1    2    0    0  0.24360808907E+03 -0.17343535517E+03 -0.17989703876E+03  0.36054399172E+03  0.90577601676E+02 0.  0.
        -11    1    3    3    0    0 -0.86126947688E+02 -0.91285434064E+02 -0.19187416444E+02  0.12696077560E+03  0.00000000000E+00 0.  1.
         12    1    3    3    0    0 -0.91108600401E+02 -0.12419816795E+03  0.65778963774E+02  0.16748980287E+03  0.00000000000E+00 0. -1.
        -13    1    4    4    0    0  0.42532787625E+02 -0.70969044372E+02 -0.75026020746E+02  0.11168951191E+03  0.00000000000E+00 0.  1.
         13    1    4    4    0    0  0.20107530144E+03 -0.10246631080E+03 -0.10487101801E+03  0.24885447980E+03  0.00000000000E+00 0. -1.
          1    1    1    2  501    0 -0.66372540979E+02  0.38891895719E+03 -0.74524314242E+03  0.84323816967E+03  0.00000000000E+00 0. -1.
<scales pt_clust_5="13000.00000" pt_clust_6="13000.00000" pt_clust_7="13000.00000" pt_clust_8="13000.00000" pt_clust_9="13000.00000"></scales>
<clustering>
<clus scale="   81.760">  5  6 -1 -1</clus>
<clus scale="   90.578">  7  8 -1 -1</clus>
<clus scale="  290.741">  1  5  2 -1</clus>
<clus scale="  338.554">  7  9 -1 -1</clus>
<clus scale="  770.199">  2  5  1 -1</clus>
</clustering>
</event>
<event>
 9    2  0.2147756E-005  0.1897068E+03  0.7546771E-02  0.1191997E+00
          2   -1    0    0  502    0 -0.00000000000E+00  0.00000000000E+00  0.64578566903E+03  0.64578566903E+03  0.00000000000E+00 0. -1.
         21   -1    0    0  501  502  0.00000000000E+00 -0.00000000000E+00 -0.20879358049E+03  0.20879358049E+03  0.00000000000E+00 0. -1.
         24    2    1    2    0    0 -0.40665898891E+02 -0.14270506845E+01  0.59869334795E+03  0.60530838240E+03  0.79427710027E+02 0.  0.
         23    2    1    2    0    0 -0.85803442546E+01 -0.61160785694E+02 -0.96542500541E+02  0.14637240464E+03  0.91050329020E+02 0.  0.
        -13    1    3    3    0    0 -0.15512470885E+02  0.32070812228E+02  0.13148530505E+03  0.13622613257E+03  0.00000000000E+00 0.  1.
         14    1    3    3    0    0 -0.25153428005E+02 -0.33497862913E+02  0.46720804289E+03  0.46908224983E+03  0.00000000000E+00 0. -1.
        -13    1    4    4    0    0  0.32053808443E+02 -0.10104064244E+02 -0.50371284971E+01  0.33983987603E+02  0.00000000000E+00 0.  1.
         13    1    4    4    0    0 -0.40634152697E+02 -0.51056721450E+02 -0.91505372044E+02  0.11238841703E+03  0.00000000000E+00 0. -1.
          1    1    1    2  501    0  0.49246243145E+02  0.62587836378E+02 -0.65158758865E+02  0.10289846249E+03  0.00000000000E+00 0. -1.
<scales pt_clust_5="13000.00000" pt_clust_6="13000.00000" pt_clust_7="13000.00000" pt_clust_8="13000.00000" pt_clust_9="13000.00000"></scales>
<clustering>
<clus scale="   79.428">  5  6 -1 -1</clus>
<clus scale="   89.244">  1  5  2 -1</clus>
<clus scale="   91.050">  7  8 -1 -1</clus>
<clus scale="   69.619">  7  9 -1 -1</clus>
<clus scale="  189.707">  2  5  1 -1</clus>
</clustering>
</event>
<event>
 9    2  0.2147756E-005  0.5759838E+03  0.7546771E-02  0.1058712E+00
          2   -1    0    0  502    0 -0.00000000000E+00  0.00000000000E+00  0.75413675764E+03  0.75413675764E+03  0.00000000000E+00 0. -1.
         21   -1    0    0  501  502  0.00000000000E+00 -0.00000000000E+00 -0.68276809586E+03  0.68276809586E+03  0.00000000000E+00 0. -1.
         24    2    1    2    0    0 -0.84270123839E+01 -0.34901817075E+02  0.62908582179E+03  0.63515315083E+03  0.79883680818E+02 0.  0.
         23    2    1    2    0    0  0.16269751636E+03  0.46816893341E+01  0.33905374824E+02  0.18959986838E+03  0.91138003057E+02 0.  0.
        -13    1    3    3    0    0 -0.11657076288E+02 -0.42307010674E+02  0.15753194311E+03  0.16353006965E+03  0.00000000000E+00 0.  1.
         14    1    3    3    0    0  0.32300639041E+01  0.74051935989E+01  0.47155387867E+03  0.47162308117E+03  0.00000000000E+00 0. -1.
        -11    1    4    4    0    0  0.66430121236E+02  0.43590718426E+02  0.32257961502E+02  0.85753646107E+02  0.00000000000E+00 0.  1.
         11    1    4    4    0    0  0.96267395124E+02 -0.38909029092E+02  0.16474133223E+01  0.10384622227E+03  0.00000000000E+00 0. -1.
          1    1    1    2  501    0 -0.15427050398E+03  0.30220127741E+02 -0.59162253482E+03  0.61215183429E+03  0.00000000000E+00 0. -1.
<scales pt_clust_5="13000.00000" pt_clust_6="13000.00000" pt_clust_7="13000.00000" pt_clust_8="13000.00000" pt_clust_9="13000.00000"></scales>
<clustering>
<clus scale="   79.884">  5  6 -1 -1</clus>
<clus scale="   87.582">  1  5  2 -1</clus>
<clus scale="   91.138">  7  8 -1 -1</clus>
<clus scale="  157.363">  7  9 -1 -1</clus>
<clus scale="  575.984">  2  5  1 -1</clus>
</clustering>
</event>
<event>
 9    2  0.2147756E-005  0.1730996E+03  0.7546771E-02  0.1208543E+00
         21   -1    0    0  501  502  0.00000000000E+00  0.00000000000E+00  0.16844068448E+03  0.16844068448E+03  0.00000000000E+00 0.  1.
          2   -1    0    0  502    0 -0.00000000000E+00 -0.00000000000E+00 -0.44114286415E+03  0.44114286415E+03  0.00000000000E+00 0. -1.
         24    2    1    2    0    0  0.34914709580E+01 -0.12396633217E+02 -0.39126668200E+03  0.39977167678E+03  0.81005618502E+02 0.  0.
         23    2    1    2    0    0  0.31624933471E+02  0.38244973489E+02  0.12874065896E+03  0.16503629013E+03  0.90553881056E+02 0.  0.
        -13    1    3    3    0    0  0.16080225033E+02  0.31433135532E+02 -0.13884495278E+03  0.14326387039E+03  0.00000000000E+00 0.  1.
         14    1    3    3    0    0 -0.12588754075E+02 -0.43829768749E+02 -0.25242172922E+03  0.25650780639E+03  0.00000000000E+00 0. -1.
        -11    1    4    4    0    0 -0.24358692284E+02  0.39915640307E+02  0.50625984486E+02  0.68917302153E+02  0.00000000000E+00 0.  1.
         11    1    4    4    0    0  0.55983625755E+02 -0.16706668188E+01  0.78114674477E+02  0.96118987973E+02  0.00000000000E+00 0. -1.
          1    1    1    2  501    0 -0.35116404429E+02 -0.25848340271E+02 -0.10176156633E+02  0.44775581722E+02  0.00000000000E+00 0. -1.
<scales pt_clust_5="13000.00000" pt_clust_6="13000.00000" pt_clust_7="13000.00000" pt_clust_8="13000.00000" pt_clust_9="13000.00000"></scales>
<clustering>
<clus scale="   81.006">  5  6 -1 -1</clus>
<clus scale="   82.023">  2  5  1 -1</clus>
<clus scale="   90.554">  7  8 -1 -1</clus>
<clus scale="   46.901">  7  9 -1 -1</clus>
<clus scale="  173.100">  1  5  2 -1</clus>
</clustering>
</event>
<event>
 9    2  0.2147756E-005  0.3217778E+03  0.7546771E-02  0.1112771E+00
         21   -1    0    0  501  502  0.00000000000E+00  0.00000000000E+00  0.46058153647E+02  0.46058153647E+02  0.00000000000E+00 0. -1.
         -1   -1    0    0    0  501 -0.00000000000E+00 -0.00000000000E+00 -0.11499541325E+04  0.11499541325E+04  0.00000000000E+00 0.  1.
         24    2    1    2    0    0 -0.65744820739E+02 -0.53262803812E+02 -0.47419730234E+03  0.48886209001E+03  0.83449108907E+02 0.  0.
         23    2    1    2    0    0 -0.53509116687E+02 -0.69345160113E+02 -0.14265962568E+03  0.19095134739E+03  0.91862241817E+02 0.  0.
        -11    1    3    3    0    0 -0.62313409945E+02 -0.53107777931E+02 -0.47727705891E+03  0.48424868415E+03  0.00000000000E+00 0.  1.
         12    1    3    3    0    0 -0.34314107948E+01 -0.15502588113E+00  0.30797565737E+01  0.46134058589E+01  0.00000000000E+00 0. -1.
        -11    1    4    4    0    0 -0.79288715797E+02 -0.43660813547E+02 -0.10335426401E+03  0.13738657496E+03  0.00000000000E+00 0. -1.
         11    1    4    4    0    0  0.25779599110E+02 -0.25684346566E+02 -0.39305361671E+02  0.53564772424E+02  0.00000000000E+00 0.  1.
         -2    1    1    2    0  502  0.11925393743E+03  0.12260796393E+03 -0.48703905082E+03  0.51619884874E+03  0.00000000000E+00 0.  1.
<scales pt_clust_5="13000.00000" pt_clust_6="13000.00000" pt_clust_7="13000.00000" pt_clust_8="13000.00000" pt_clust_9="13000.00000"></scales>
<clustering>
<clus scale="   83.449">  5  6 -1 -1</clus>
<clus scale="   91.862">  7  8 -1 -1</clus>
<clus scale="  118.840">  2  5  1 -1</clus>
<clus scale="  108.245">  7  9 -1 -1</clus>
<clus scale="  321.778">  1  5  2 -1</clus>
</clustering>
</event>
<event>
 9    2  0.2147756E-005  0.2580696E+03  0.7546771E-02  0.1116286E+00
         21   -1    0    0  501  502  0.00000000000E+00  0.00000000000E+00  0.13923506799E+03  0.13923506799E+03  0.00000000000E+00 0. -1.
          2   -1    0    0  502    0 -0.00000000000E+00 -0.00000000000E+00 -0.42418955844E+03  0.42418955844E+03  0.00000000000E+00 0. -1.
         24    2    1    2    0    0  0.10231408472E+03  0.16577174128E+03 -0.20301036223E+03  0.29265768289E+03  0.80541107791E+02 0.  0.
         23    2    1    2    0    0 -0.18467528806E+02 -0.11528990847E+03 -0.89165224384E+02  0.17263028060E+03  0.90652986303E+02 0.  0.
        -13    1    3    3    0    0  0.53325851619E+02  0.20610508441E+02 -0.47115574336E+02  0.74083175243E+02  0.00000000000E+00 0.  1.
         14    1    3    3    0    0  0.48988233102E+02  0.14516123284E+03 -0.15589478789E+03  0.21857450765E+03  0.00000000000E+00 0. -1.
        -11    1    4    4    0    0 -0.19406599106E+02 -0.41952734104E+02  0.11924207012E+02  0.47737141730E+02  0.00000000000E+00 0. -1.
         11    1    4    4    0    0  0.93907030011E+00 -0.73337174366E+02 -0.10108943140E+03  0.12489313887E+03  0.00000000000E+00 0.  1.
          1    1    1    2  501    0 -0.83846555915E+02 -0.50481832812E+02  0.72210961514E+01  0.98136662937E+02  0.00000000000E+00 0. -1.
<scales pt_clust_5="13000.00000" pt_clust_6="13000.00000" pt_clust_7="13000.00000" pt_clust_8="13000.00000" pt_clust_9="13000.00000"></scales>
<clustering>
<clus scale="   80.541">  5  6 -1 -1</clus>
<clus scale="   90.653">  7  8 -1 -1</clus>
<clus scale="   97.871">  7  9 -1 -1</clus>
<clus scale="  210.797">  2  5  1 -1</clus>
<clus scale="  258.070">  1  5  2 -1</clus>
</clustering>
</event>
<event>
 9    2  0.2147756E-005  0.3238085E+03  0.7546771E-02  0.1075331E+00
         -1   -1    0    0    0  501 -0.00000000000E+00  0.00000000000E+00  0.13668071703E+04  0.13668071703E+04  0.00000000000E+00 0.  1.
         21   -1    0    0  501  502  0.00000000000E+00 -0.00000000000E+00 -0.10371728588E+03  0.10371728588E+03  0.00000000000E+00 0.  1.
         24    2    1    2    0    0  0.18494021837E+03 -0.23846193788E+03  0.10174940985E+04  0.10641142408E+04  0.77316859606E+02 0.  0.
         23    2    1    2    0    0 -0.12335734472E+03  0.14530284667E+03  0.15584217800E+03  0.26313852685E+03  0.92871675570E+02 0.  0.
        -11    1    3    3    0    0  0.16554068735E+03 -0.22960593781E+03  0.98779916816E+03  0.10275552552E+04  0.00000000000E+00 0.  1.
         12    1    3    3    0    0  0.19399531012E+02 -0.88560000668E+01  0.29694930389E+02  0.36558985646E+02  0.00000000000E+00 0. -1.
        -11    1    4    4    0    0 -0.63707667640E+02  0.12329475920E+02  0.62342699299E+02  0.89984971237E+02  0.00000000000E+00 0.  1.
         11    1    4    4    0    0 -0.59649677078E+02  0.13297337075E+03  0.93499478697E+02  0.17315355561E+03  0.00000000000E+00 0. -1.
         -2    1    1    2    0  502 -0.61582873648E+02  0.93159091202E+02  0.89753607906E+02  0.14327168852E+03  0.00000000000E+00 0.  1.
<scales pt_clust_5="13000.00000" pt_clust_6="13000.00000" pt_clust_7="13000.00000" pt_clust_8="13000.00000" pt_clust_9="13000.00000"></scales>
<clustering>
<clus scale="   77.317">  5  6 -1 -1</clus>
<clus scale="   92.872">  7  8 -1 -1</clus>
<clus scale="  111.674">  7  9 -1 -1</clus>
<clus scale="  311.520">  1  5  2 -1</clus>
<clus scale="  323.809">  2  5  1 -1</clus>
</clustering>
</event>
<event>
 9    2  0.2147756E-005  0.2219420E+03  0.7546771E-02  0.1149457E+00
          2   -1    0    0  502    0 -0.00000000000E+00  0.00000000000E+00  0.91785296483E+03  0.91785296483E+03  0.00000000000E+00 0. -1.
         21   -1    0    0  501  502  0.00000000000E+00 -0.00000000000E+00 -0.87812029813E+02  0.87812029813E+02  0.00000000000E+00 0. -1.
         24    2    1    2    0    0  0.80401022519E+02  0.96514828125E+02  0.75820444086E+03  0.77238672452E+03  0.76992477532E+02 0.  0.
         23    2    1    2    0    0 -0.49973383584E+02 -0.51539924527E+02 -0.33409851418E+02  0.11484948806E+03  0.83189445541E+02 0.  0.
        -13    1    3    3    0    0 -0.36900334557E+01  0.35983811373E+02  0.10596282098E+03  0.11196682749E+03  0.00000000000E+00 0.  1.
         14    1    3    3    0    0  0.84091055975E+02  0.60531016752E+02  0.65224161989E+03  0.66041989703E+03  0.00000000000E+00 0. -1.
        -11    1    4    4    0    0 -0.23627391667E+02 -0.46808323565E+02 -0.58221102666E+02  0.78351576803E+02  0.00000000000E+00 0. -1.
         11    1    4    4    0    0 -0.26345991918E+02 -0.47316009625E+01  0.24811251248E+02  0.36497911259E+02  0.00000000000E+00 0.  1.
          1    1    1    2  501    0 -0.30427638935E+02 -0.44974903598E+02  0.10524634557E+03  0.11842878206E+03  0.00000000000E+00 0. -1.
<scales pt_clust_5="13000.00000" pt_clust_6="13000.00000" pt_clust_7="13000.00000" pt_clust_8="13000.00000" pt_clust_9="13000.00000"></scales>
<clustering>
<clus scale="   76.992">  5  6 -1 -1</clus>
<clus scale="   83.189">  7  8 -1 -1</clus>
<clus scale="   54.301">  7  9 -1 -1</clus>
<clus scale="  147.334">  1  5  2 -1</clus>
<clus scale="  221.942">  2  5  1 -1</clus>
</clustering>
</event>
<event>
 9    2  0.2147756E-005  0.1921451E+03  0.7546771E-02  0.1181626E+00
          4   -1    0    0  502    0 -0.00000000000E+00  0.00000000000E+00  0.24021903290E+02  0.24021903290E+02  0.00000000000E+00 0. -1.
         21   -1    0    0  501  502  0.00000000000E+00 -0.00000000000E+00 -0.20075645698E+04  0.20075645698E+04  0.00000000000E+00 0. -1.
         24    2    1    2    0    0 -0.45609593017E+02  0.54619365043E+02 -0.15896794019E+04  0.15933536371E+04  0.81435262694E+02 0.  0.
         23    2    1    2    0    0  0.84428602701E+02 -0.32134402053E+02 -0.35915602387E+03  0.38151351271E+03  0.91644433285E+02 0.  0.
        -11    1    3    3    0    0 -0.31594643864E+01  0.31534801760E+02 -0.17483184322E+03  0.17768117329E+03  0.00000000000E+00 0.  1.
         12    1    3    3    0    0 -0.42450128631E+02  0.23084563282E+02 -0.14148475586E+04  0.14156724638E+04  0.00000000000E+00 0. -1.
        -11    1    4    4    0    0  0.35477210026E+02  0.30032185936E+02 -0.95010260447E+02  0.10577104620E+03  0.00000000000E+00 0.  1.
         11    1    4    4    0    0  0.48951392675E+02 -0.62166587988E+02 -0.26414576342E+03  0.27574246652E+03  0.00000000000E+00 0. -1.
          3    1    1    2  501    0 -0.38819009684E+02 -0.22484962990E+02 -0.34707240740E+02  0.56719323280E+02  0.00000000000E+00 0. -1.
<scales pt_clust_5="13000.00000" pt_clust_6="13000.00000" pt_clust_7="13000.00000" pt_clust_8="13000.00000" pt_clust_9="13000.00000"></scales>
<clustering>
<clus scale="   81.435">  5  6 -1 -1</clus>
<clus scale="   91.644">  7  8 -1 -1</clus>
<clus scale="   44.861">  7  9 -1 -1</clus>
<clus scale="  108.144">  1  5  2 -1</clus>
<clus scale="  192.145">  2  5  1 -1</clus>
</clustering>
</event>
<event>
 9    2  0.2147756E-005  0.2520648E+03  0.7546771E-02  0.1144913E+00
         21   -1    0    0  501  502  0.00000000000E+00  0.00000000000E+00  0.12899752667E+03  0.12899752667E+03  0.00000000000E+00 0. -1.
          2   -1    0    0  502    0 -0.00000000000E+00 -0.00000000000E+00 -0.31953673993E+03  0.31953673993E+03  0.00000000000E+00 0. -1.
         24    2    1    2    0    0  0.52257724531E+02 -0.54640318965E+02 -0.15896910707E+03  0.19450013555E+03  0.82720562724E+02 0.  0.
         23    2    1    2    0    0  0.50021957391E+02 -0.22988663311E+02 -0.63114780644E+02  0.12181288197E+03  0.88454665322E+02 0.  0.
        -11    1    3    3    0    0  0.26141428023E+02  0.93607087278E+01 -0.87054254873E+01  0.29099511334E+02  0.00000000000E+00 0.  1.
         12    1    3    3    0    0  0.26116296508E+02 -0.64001027693E+02 -0.15026368158E+03  0.16540062421E+03  0.00000000000E+00 0. -1.
        -11    1    4    4    0    0  0.47660938609E+02 -0.54292028313E+02 -0.49618436261E+02  0.87642333518E+02  0.00000000000E+00 0. -1.
         11    1    4    4    0    0  0.23610187820E+01  0.31303365002E+02 -0.13496344383E+02  0.34170548457E+02  0.00000000000E+00 0.  1.
          1    1    1    2  501    0 -0.10227968192E+03  0.77628982276E+02  0.31544674447E+02  0.13222124908E+03  0.00000000000E+00 0. -1.
<scales pt_clust_5="13000.00000" pt_clust_6="13000.00000" pt_clust_7="13000.00000" pt_clust_8="13000.00000" pt_clust_9="13000.00000"></scales>
<clustering>
<clus scale="   82.721">  5  6 -1 -1</clus>
<clus scale="   88.455">  7  8 -1 -1</clus>
<clus scale="  112.068">  2  5  1 -1</clus>
<clus scale="  102.172">  7  9 -1 -1</clus>
<clus scale="  252.065">  1  5  2 -1</clus>
</clustering>
</event>
<event>
 9    2  0.2147756E-005  0.4800619E+03  0.7546771E-02  0.1052986E+00
          2   -1    0    0  502    0 -0.00000000000E+00  0.00000000000E+00  0.32332951147E+03  0.32332951147E+03  0.00000000000E+00 0. -1.
         21   -1    0    0  501  502  0.00000000000E+00 -0.00000000000E+00 -0.10456121642E+04  0.10456121642E+04  0.00000000000E+00 0. -1.
         24    2    1    2    0    0 -0.81100655289E+02 -0.13569716436E+03  0.23698159318E+03  0.29625939172E+03  0.81353026822E+02 0.  0.
         23    2    1    2    0    0  0.15753714988E+03  0.20329870374E+03 -0.30198257760E+03  0.40752689060E+03  0.93468566110E+02 0.  0.
        -13    1    3    3    0    0 -0.31160880797E+02 -0.43567242011E+01  0.18519742929E+02  0.36509757818E+02  0.00000000000E+00 0.  1.
         14    1    3    3    0    0 -0.49939774492E+02 -0.13134044016E+03  0.21846185025E+03  0.25974963390E+03  0.00000000000E+00 0. -1.
        -13    1    4    4    0    0  0.15110142643E+03  0.16730633288E+03 -0.20821157618E+03  0.30687963527E+03  0.00000000000E+00 0. -1.
         13    1    4    4    0    0  0.64357234517E+01  0.35992370858E+02 -0.93771001423E+02  0.10064725532E+03  0.00000000000E+00 0.  1.
          1    1    1    2  501    0 -0.76436494592E+02 -0.67601539380E+02 -0.65728166833E+03  0.66515539339E+03  0.00000000000E+00 0. -1.
<scales pt_clust_5="13000.00000" pt_clust_6="13000.00000" pt_clust_7="13000.00000" pt_clust_8="13000.00000" pt_clust_9="13000.00000"></scales>
<clustering>
<clus scale="   81.353">  5  6 -1 -1</clus>
<clus scale="   93.469">  7  8 -1 -1</clus>
<clus scale="  102.042">  7  9 -1 -1</clus>
<clus scale="  177.790">  1  5  2 -1</clus>
<clus scale="  480.062">  2  5  1 -1</clus>
</clustering>
</event>
<event>
 9    2  0.2147756E-005  0.5591391E+03  0.7546771E-02  0.1044828E+00
          2   -1    0    0  502    0 -0.00000000000E+00  0.00000000000E+00  0.22905905196E+04  0.22905905196E+04  0.00000000000E+00 0. -1.
         21   -1    0    0  501  502  0.00000000000E+00 -0.00000000000E+00 -0.56201960673E+02  0.56201960673E+02  0.00000000000E+00 0. -1.
         24    2    1    2    0    0  0.67847030338E+02 -0.93637488304E+02  0.68550864660E+03  0.70007892136E+03  0.82566293504E+02 0.  0.
         23    2    1    2    0    0  0.19481016734E+03  0.15944995827E+03  0.98889467067E+03  0.10246978392E+04  0.93368632371E+02 0.  0.
        -13    1    3    3    0    0  0.14155899497E+02 -0.40335148257E+02  0.88363836643E+02  0.98160487477E+02  0.00000000000E+00 0.  1.
         14    1    3    3    0    0  0.53691130841E+02 -0.53302340047E+02  0.59714480996E+03  0.60191843388E+03  0.00000000000E+00 0. -1.
        -13    1    4    4    0    0  0.13211520017E+03  0.13474344772E+03  0.84486930670E+03  0.86568722309E+03  0.00000000000E+00 0. -1.
         13    1    4    4    0    0  0.62694967165E+02  0.24706510546E+02  0.14402536396E+03  0.15901061611E+03  0.00000000000E+00 0.  1.
          1    1    1    2  501    0 -0.26265719768E+03 -0.65812469961E+02  0.55998524169E+03  0.62201571974E+03  0.00000000000E+00 0. -1.
<scales pt_clust_5="13000.00000" pt_clust_6="13000.00000" pt_clust_7="13000.00000" pt_clust_8="13000.00000" pt_clust_9="13000.00000"></scales>
<clustering>
<clus scale="   82.566">  5  6 -1 -1</clus>
<clus scale="   93.369">  7  8 -1 -1</clus>
<clus scale="  142.086">  1  5  2 -1</clus>
<clus scale="  257.925">  7  9 -1 -1</clus>
<clus scale="  559.139">  2  5  1 -1</clus>
</clustering>
</event>
<event>
 9    2  0.2147756E-005  0.4270819E+03  0.7546771E-02  0.1048734E+00
          2   -1    0    0  502    0 -0.00000000000E+00  0.00000000000E+00  0.14862975773E+03  0.14862975773E+03  0.00000000000E+00 0. -1.
         21   -1    0    0  501  502  0.00000000000E+00 -0.00000000000E+00 -0.85538475094E+03  0.85538475094E+03  0.00000000000E+00 0. -1.
         24    2    1    2    0    0  0.26688507606E+03  0.65551256884E+02 -0.30939963044E+03  0.42067050035E+03  0.75570678470E+02 0.  0.
         23    2    1    2    0    0  0.45948590317E+02  0.18095447063E+02 -0.90582275972E+02  0.13728190425E+03  0.90567402298E+02 0.  0.
        -13    1    3    3    0    0  0.17025408035E+03  0.32039190264E+02 -0.13978090866E+03  0.22260203057E+03  0.00000000000E+00 0.  1.
         14    1    3    3    0    0  0.96630995711E+02  0.33512066620E+02 -0.16961872179E+03  0.19806846978E+03  0.00000000000E+00 0. -1.
        -13    1    4    4    0    0  0.46203416230E+02 -0.10608059427E+02 -0.57840978551E+01  0.47757118675E+02  0.00000000000E+00 0. -1.
         13    1    4    4    0    0 -0.25482591375E+00  0.28703506490E+02 -0.84798178117E+02  0.89524785579E+02  0.00000000000E+00 0.  1.
          1    1    1    2  501    0 -0.31283366638E+03 -0.83646703947E+02 -0.30677308679E+03  0.44606210406E+03  0.00000000000E+00 0. -1.
<scales pt_clust_5="13000.00000" pt_clust_6="13000.00000" pt_clust_7="13000.00000" pt_clust_8="13000.00000" pt_clust_9="13000.00000"></scales>
<clustering>
<clus scale="   75.571">  5  6 -1 -1</clus>
<clus scale="   90.567">  7  8 -1 -1</clus>
<clus scale="  285.019">  1  5  2 -1</clus>
<clus scale="  118.127">  7  9 -1 -1</clus>
<clus scale="  427.082">  2  5  1 -1</clus>
</clustering>
</event>
<event>
 9    2  0.2147756E-005  0.1930719E+03  0.7546771E-02  0.1183346E+00
          2   -1    0    0  502    0 -0.00000000000E+00  0.00000000000E+00  0.18016786131E+03  0.18016786131E+03  0.00000000000E+00 0. -1.
         21   -1    0    0  501  502  0.00000000000E+00 -0.00000000000E+00 -0.23724324567E+03  0.23724324567E+03  0.00000000000E+00 0.  1.
         24    2    1    2    0    0 -0.68563366927E+00  0.63216617771E+02  0.11830396828E+03  0.15657651691E+03  0.80768594655E+02 0.  0.
         23    2    1    2    0    0 -0.16297141170E+02  0.28978958832E+02 -0.10539123590E+03  0.14384409699E+03  0.92078416408E+02 0.  0.
        -13    1    3    3    0    0  0.21339208814E+02 -0.64116359019E+01  0.68183879767E+01  0.23301530472E+02  0.00000000000E+00 0.  1.
         14    1    3    3    0    0 -0.22024842483E+02  0.69628253673E+02  0.11148558030E+03  0.13327498644E+03  0.00000000000E+00 0. -1.
        -11    1    4    4    0    0  0.32340570087E+02  0.13531705339E+02 -0.78917933520E+02  0.86354268881E+02  0.00000000000E+00 0.  1.
         11    1    4    4    0    0 -0.48637711257E+02  0.15447253493E+02 -0.26473302382E+02  0.57489828107E+02  0.00000000000E+00 0. -1.
          1    1    1    2  501    0  0.16982774839E+02 -0.92195576603E+02 -0.69988116732E+02  0.11699049308E+03  0.00000000000E+00 0. -1.
<scales pt_clust_5="13000.00000" pt_clust_6="13000.00000" pt_clust_7="13000.00000" pt_clust_8="13000.00000" pt_clust_9="13000.00000"></scales>
<clustering>
<clus scale="   80.769">  5  6 -1 -1</clus>
<clus scale="   92.078">  7  8 -1 -1</clus>
<clus scale="   93.747">  7  9 -1 -1</clus>
<clus scale="  102.569">  1  5  2 -1</clus>
<clus scale="  193.072">  2  5  1 -1</clus>
</clustering>
</event>
<event>
 9    2  0.2147756E-005  0.2818306E+03  0.7546771E-02  0.1124437E+00
         21   -1    0    0  501  502  0.00000000000E+00  0.00000000000E+00  0.10594007136E+03  0.10594007136E+03  0.00000000000E+00 0.  1.
          2   -1    0    0  502    0 -0.00000000000E+00 -0.00000000000E+00 -0.47505240604E+03  0.47505240604E+03  0.00000000000E+00 0. -1.
         24    2    1    2    0    0 -0.49239097121E+02 -0.93494249030E+02 -0.21942208021E+02  0.13382852364E+03  0.79138801855E+02 0.  0.
         23    2    1    2    0    0 -0.85943260074E+02  0.31971852644E+02 -0.11349450487E+03  0.17028208153E+03  0.87786908706E+02 0.  0.
        -11    1    3    3    0    0 -0.38946864576E+02 -0.10364077911E+01 -0.52241121898E+01  0.39309334128E+02  0.00000000000E+00 0.  1.
         12    1    3    3    0    0 -0.10292232545E+02 -0.92457841239E+02 -0.16718095831E+02  0.94519189509E+02  0.00000000000E+00 0. -1.
        -11    1    4    4    0    0 -0.60034982079E+02  0.52081076857E+02 -0.11215193268E+03  0.13745797047E+03  0.00000000000E+00 0. -1.
         11    1    4    4    0    0 -0.25908277995E+02 -0.20109224213E+02 -0.13425721901E+01  0.32824111065E+02  0.00000000000E+00 0.  1.
          1    1    1    2  501    0  0.13518235719E+03  0.61522396386E+02 -0.23367562179E+03  0.27688187223E+03  0.00000000000E+00 0. -1.
<scales pt_clust_5="13000.00000" pt_clust_6="13000.00000" pt_clust_7="13000.00000" pt_clust_8="13000.00000" pt_clust_9="13000.00000"></scales>
<clustering>
<clus scale="   79.139">  5  6 -1 -1</clus>
<clus scale="   87.787">  7  8 -1 -1</clus>
<clus scale="  132.018">  2  5  1 -1</clus>
<clus scale="  103.544">  7  9 -1 -1</clus>
<clus scale="  281.831">  1  5  2 -1</clus>
</clustering>
</event>
<event>
 9    2  0.2147756E-005  0.2505609E+03  0.7546771E-02  0.1142802E+00
          2   -1    0    0  502    0 -0.00000000000E+00  0.00000000000E+00  0.27098423400E+04  0.27098423400E+04  0.00000000000E+00 0. -1.
         21   -1    0    0  501  502  0.00000000000E+00 -0.00000000000E+00 -0.18122604858E+02  0.18122604858E+02  0.00000000000E+00 0. -1.
         24    2    1    2    0    0 -0.88499832441E+02 -0.12906176682E+02  0.17294383232E+04  0.17335976783E+04  0.80032534418E+02 0.  0.
         23    2    1    2    0    0 -0.42650526335E+02 -0.28521341738E+02  0.29450114841E+03  0.31257027610E+03  0.91305622808E+02 0.  0.
        -13    1    3    3    0    0 -0.14895231780E+02  0.20350519862E+02  0.15078140559E+03  0.15287591000E+03  0.00000000000E+00 0.  1.
         14    1    3    3    0    0 -0.73604600661E+02 -0.33256696545E+02  0.15786569176E+04  0.15807217683E+04  0.00000000000E+00 0. -1.
        -11    1    4    4    0    0 -0.13099716611E+02 -0.57250762156E+02  0.21681327966E+03  0.22462691420E+03  0.00000000000E+00 0. -1.
         11    1    4    4    0    0 -0.29550809724E+02  0.28729420418E+02  0.77687868744E+02  0.87943361904E+02  0.00000000000E+00 0.  1.
          1    1    1    2  501    0  0.13115035878E+03  0.41427518420E+02  0.66778026346E+03  0.68179699043E+03  0.00000000000E+00 0. -1.
<scales pt_clust_5="13000.00000" pt_clust_6="13000.00000" pt_clust_7="13000.00000" pt_clust_8="13000.00000" pt_clust_9="13000.00000"></scales>
<clustering>
<clus scale="   80.033">  5  6 -1 -1</clus>
<clus scale="   91.306">  7  8 -1 -1</clus>
<clus scale="  120.017">  1  5  2 -1</clus>
<clus scale="   77.286">  7  9 -1 -1</clus>
<clus scale="  250.561">  2  5  1 -1</clus>
</clustering>
</event>
<event>
 9    2  0.2147756E-005  0.3585390E+03  0.7546771E-02  0.1077370E+00
         21   -1    0    0  501  502  0.00000000000E+00  0.00000000000E+00  0.17020232708E+03  0.17020232708E+03  0.00000000000E+00 0. -1.
          2   -1    0    0  502    0 -0.00000000000E+00 -0.00000000000E+00 -0.72019110645E+03  0.72019110645E+03  0.00000000000E+00 0. -1.
         24    2    1    2    0    0 -0.55433279122E+02  0.19360470408E+03 -0.47757028119E+03  0.52461390893E+03  0.81183434837E+02 0.  0.
         23    2    1    2    0    0 -0.10262810196E+03 -0.58839086747E+02 -0.13995658828E+02  0.15000556889E+03  0.91165929988E+02 0.  0.
        -13    1    3    3    0    0 -0.21237345349E+02  0.56158668292E+02 -0.65369135767E+02  0.88757787110E+02  0.00000000000E+00 0.  1.
         14    1    3    3    0    0 -0.34195933773E+02  0.13744603578E+03 -0.41220114543E+03  0.43585612182E+03  0.00000000000E+00 0. -1.
        -13    1    4    4    0    0 -0.51352311695E+02  0.57145568956E+01 -0.38004054372E+02  0.64140659691E+02  0.00000000000E+00 0.  1.
         13    1    4    4    0    0 -0.51275790266E+02 -0.64553643642E+02  0.24008395545E+02  0.85864909198E+02  0.00000000000E+00 0. -1.
          1    1    1    2  501    0  0.15806138108E+03 -0.13476561733E+03 -0.58422839343E+02  0.21577395571E+03  0.00000000000E+00 0. -1.
<scales pt_clust_5="13000.00000" pt_clust_6="13000.00000" pt_clust_7="13000.00000" pt_clust_8="13000.00000" pt_clust_9="13000.00000"></scales>
<clustering>
<clus scale="   81.183">  5  6 -1 -1</clus>
<clus scale="   91.166">  7  8 -1 -1</clus>
<clus scale="  207.714">  7  9 -1 -1</clus>
<clus scale="  217.132">  2  5  1 -1</clus>
<clus scale="  358.539">  1  5  2 -1</clus>
</clustering>
</event>
<event>
 9    2  0.2147756E-005  0.1824595E+03  0.7546771E-02  0.1200399E+00
         21   -1    0    0  501  502  0.00000000000E+00  0.00000000000E+00  0.12297681252E+03  0.12297681252E+03  0.00000000000E+00 0. -1.
          2   -1    0    0  502    0 -0.00000000000E+00 -0.00000000000E+00 -0.14554432919E+03  0.14554432919E+03  0.00000000000E+00 0. -1.
         24    2    1    2    0    0  0.19189023220E+02  0.44625785248E+01  0.66317341398E+01  0.83739967540E+02  0.81118857528E+02 0.  0.
         23    2    1    2    0    0 -0.38500570838E+01 -0.64312371469E+02  0.18292319473E+02  0.10685344582E+03  0.83259509180E+02 0.  0.
        -13    1    3    3    0    0  0.58359597265E+01 -0.34913555568E+02 -0.13064735778E+02  0.37731977278E+02  0.00000000000E+00 0.  1.
         14    1    3    3    0    0  0.13353063494E+02  0.39376134093E+02  0.19696469918E+02  0.46007990263E+02  0.00000000000E+00 0. -1.
        -11    1    4    4    0    0  0.25208596697E+02 -0.11267233451E+02 -0.21032687595E+02  0.34710197990E+02  0.00000000000E+00 0.  1.
         11    1    4    4    0    0 -0.29058653781E+02 -0.53045138018E+02  0.39325007068E+02  0.72143247832E+02  0.00000000000E+00 0. -1.
          1    1    1    2  501    0 -0.15338966136E+02  0.59849792944E+02 -0.47491570278E+02  0.77927728345E+02  0.00000000000E+00 0. -1.
<scales pt_clust_5="13000.00000" pt_clust_6="13000.00000" pt_clust_7="13000.00000" pt_clust_8="13000.00000" pt_clust_9="13000.00000"></scales>
<clustering>
<clus scale="   81.119">  5  6 -1 -1</clus>
<clus scale="   83.260">  7  8 -1 -1</clus>
<clus scale="   61.784">  7  9 -1 -1</clus>
<clus scale="   83.477">  2  5  1 -1</clus>
<clus scale="  182.460">  1  5  2 -1</clus>
</clustering>
</event>
<event>
 9    2  0.2147756E-005  0.4737496E+03  0.7546771E-02  0.1074078E+00
          2   -1    0    0  502    0 -0.00000000000E+00  0.00000000000E+00  0.11538446486E+04  0.11538446486E+04  0.00000000000E+00 0. -1.
         21   -1    0    0  501  502  0.00000000000E+00 -0.00000000000E+00 -0.82847287363E+02  0.82847287363E+02  0.00000000000E+00 0.  1.
         24    2    1    2    0    0  0.28734974575E+02  0.57620279403E+02  0.57404536147E+02  0.11784917033E+03  0.80295397228E+02 0.  0.
         23    2    1    2    0    0 -0.16416754773E+03 -0.72999698543E+01  0.14273044934E+03  0.23607700229E+03  0.91411687187E+02 0.  0.
        -13    1    3    3    0    0  0.27350331633E+02  0.88654282712E+01 -0.13520587720E+02  0.31771728803E+02  0.00000000000E+00 0.  1.
         14    1    3    3    0    0  0.13846429423E+01  0.48754851132E+02  0.70925123868E+02  0.86077441532E+02  0.00000000000E+00 0. -1.
        -11    1    4    4    0    0 -0.15682685696E+02 -0.19026681691E+02  0.61857027084E+02  0.66590187314E+02  0.00000000000E+00 0. -1.
         11    1    4    4    0    0 -0.14848486203E+03  0.11726711837E+02  0.80873422252E+02  0.16948681497E+03  0.00000000000E+00 0.  1.
          1    1    1    2  501    0  0.13543257315E+03 -0.50320309549E+02  0.87086237571E+03  0.88276576330E+03  0.00000000000E+00 0. -1.
<scales pt_clust_5="13000.00000" pt_clust_6="13000.00000" pt_clust_7="13000.00000" pt_clust_8="13000.00000" pt_clust_9="13000.00000"></scales>
<clustering>
<clus scale="   80.295">  5  6 -1 -1</clus>
<clus scale="   91.412">  7  8 -1 -1</clus>
<clus scale="  102.923">  1  5  2 -1</clus>
<clus scale="  159.090">  7  9 -1 -1</clus>
<clus scale="  473.750">  2  5  1 -1</clus>
</clustering>
</event>
<event>
 9    2  0.2147756E-005  0.3611554E+03  0.7546771E-02  0.1104577E+00
         21   -1    0    0  501  502  0.00000000000E+00  0.00000000000E+00  0.26116347922E+02  0.26116347922E+02  0.00000000000E+00 0. -1.
          2   -1    0    0  502    0 -0.00000000000E+00 -0.00000000000E+00 -0.21487466608E+04  0.21487466608E+04  0.00000000000E+00 0. -1.
         24    2    1    2    0    0 -0.68550654919E+02 -0.40784405649E+02 -0.67256848523E+03  0.68050277210E+03  0.66129384379E+02 0.  0.
         23    2    1    2    0    0  0.12358580225E+03 -0.11627053237E+03 -0.69536098059E+03  0.72152876110E+03  0.91019627311E+02 0.  0.
        -13    1    3    3    0    0  0.33495428961E+00 -0.32207859948E+02 -0.15596208360E+03  0.15925335148E+03  0.00000000000E+00 0.  1.
         14    1    3    3    0    0 -0.68885609209E+02 -0.85765457004E+01 -0.51660640162E+03  0.52124942062E+03  0.00000000000E+00 0. -1.
        -13    1    4    4    0    0  0.51295594392E+02 -0.53937079206E+02 -0.14539399573E+03  0.16333970893E+03  0.00000000000E+00 0.  1.
         13    1    4    4    0    0  0.72290207861E+02 -0.62333453165E+02 -0.54996698485E+03  0.55818905217E+03  0.00000000000E+00 0. -1.
          1    1    1    2  501    0 -0.55035147334E+02  0.15705493802E+03 -0.75470084702E+03  0.77283147548E+03  0.00000000000E+00 0. -1.
<scales pt_clust_5="13000.00000" pt_clust_6="13000.00000" pt_clust_7="13000.00000" pt_clust_8="13000.00000" pt_clust_9="13000.00000"></scales>
<clustering>
<clus scale="   66.129">  5  6 -1 -1</clus>
<clus scale="   91.020">  7  8 -1 -1</clus>
<clus scale="  103.613">  2  5  1 -1</clus>
<clus scale="  163.328">  7  9 -1 -1</clus>
<clus scale="  361.155">  1  5  2 -1</clus>
</clustering>
</event>
<event>
 9    2  0.2147756E-005  0.2588237E+03  0.7546771E-02  0.1120607E+00
         21   -1    0    0  501  502  0.00000000000E+00  0.00000000000E+00  0.24566489093E+03  0.24566489093E+03  0.00000000000E+00 0.  1.
          4   -1    0    0  502    0 -0.00000000000E+00 -0.00000000000E+00 -0.20537463376E+03  0.20537463376E+03  0.00000000000E+00 0. -1.
         24    2    1    2    0    0  0.12822224498E+03  0.11046468214E+03  0.42305010381E+02  0.19220798174E+03  0.80689554681E+02 0.  0.
         23    2    1    2    0    0 -0.27534971950E+01 -0.19011237114E+02  0.32873261506E+02  0.99698539307E+02  0.92141947746E+02 0.  0.
        -13    1    3    3    0    0  0.11542909788E+03  0.69441658096E+02  0.41962106090E+01  0.13477250721E+03  0.00000000000E+00 0.  1.
         14    1    3    3    0    0  0.12793147095E+02  0.41023024042E+02  0.38108799772E+02  0.57435474528E+02  0.00000000000E+00 0. -1.
        -11    1    4    4    0    0  0.51499199092E+01 -0.52310411477E+02  0.38313246981E+02  0.65044644039E+02  0.00000000000E+00 0.  1.
         11    1    4    4    0    0 -0.79034171041E+01  0.33299174364E+02 -0.54399854753E+01  0.34653895267E+02  0.00000000000E+00 0. -1.
          3    1    1    2  501    0 -0.12546874778E+03 -0.91453445025E+02 -0.34888014716E+02  0.15913300364E+03  0.00000000000E+00 0. -1.
<scales pt_clust_5="13000.00000" pt_clust_6="13000.00000" pt_clust_7="13000.00000" pt_clust_8="13000.00000" pt_clust_9="13000.00000"></scales>
<clustering>
<clus scale="   80.690">  5  6 -1 -1</clus>
<clus scale="   92.142">  7  8 -1 -1</clus>
<clus scale="  155.262">  7  9 -1 -1</clus>
<clus scale="  187.495">  2  5  1 -1</clus>
<clus scale="  258.824">  1  5  2 -1</clus>
</clustering>
</event>
<event>
 9    2  0.2147756E-005  0.4610044E+03  0.7546771E-02  0.1079229E+00
         21   -1    0    0  501  502  0.00000000000E+00  0.00000000000E+00  0.80540737883E+02  0.80540737883E+02  0.00000000000E+00 0. -1.
          2   -1    0    0  502    0 -0.00000000000E+00 -0.00000000000E+00 -0.10071820169E+04  0.10071820169E+04  0.00000000000E+00 0. -1.
         24    2    1    2    0    0  0.30847854397E+02  0.43810089861E+02 -0.25692653619E+03  0.27467728365E+03  0.81027471021E+02 0.  0.
         23    2    1    2    0    0  0.15404206077E+03  0.52973481322E+02 -0.11310292681E+03  0.21859778285E+03  0.91965060763E+02 0.  0.
        -13    1    3    3    0    0  0.19217209428E+02 -0.21371669116E+02 -0.53282145342E+02  0.60539544030E+02  0.00000000000E+00 0.  1.
         14    1    3    3    0    0  0.11630644968E+02  0.65181758978E+02 -0.20364439085E+03  0.21413773962E+03  0.00000000000E+00 0. -1.
        -13    1    4    4    0    0  0.12539755248E+03  0.27621183877E+02 -0.12432897805E+03  0.17873212008E+03  0.00000000000E+00 0. -1.
         13    1    4    4    0    0  0.28644508292E+02  0.25352297445E+02  0.11226051237E+02  0.39865662762E+02  0.00000000000E+00 0.  1.
          1    1    1    2  501    0 -0.18488991517E+03 -0.96783571183E+02 -0.55661181599E+03  0.59444768826E+03  0.00000000000E+00 0. -1.
<scales pt_clust_5="13000.00000" pt_clust_6="13000.00000" pt_clust_7="13000.00000" pt_clust_8="13000.00000" pt_clust_9="13000.00000"></scales>
<clustering>
<clus scale="   81.027">  5  6 -1 -1</clus>
<clus scale="   91.965">  7  8 -1 -1</clus>
<clus scale="   97.141">  2  5  1 -1</clus>
<clus scale="  172.752">  7  9 -1 -1</clus>
<clus scale="  461.004">  1  5  2 -1</clus>
</clustering>
</event>
<event>
 9    2  0.2147756E-005  0.1726718E+03  0.7546771E-02  0.1197868E+00
         21   -1    0    0  501  502  0.00000000000E+00  0.00000000000E+00  0.20931399930E+02  0.20931399930E+02  0.00000000000E+00 0. -1.
          2   -1    0    0  502    0 -0.00000000000E+00 -0.00000000000E+00 -0.91489496373E+03  0.91489496373E+03  0.00000000000E+00 0. -1.
         24    2    1    2    0    0 -0.62541155042E+02 -0.19258812998E+02 -0.34282532730E+03  0.35827212072E+03  0.80916064491E+02 0.  0.
         23    2    1    2    0    0  0.26195080835E+02 -0.27264150774E+02 -0.24791175674E+03  0.26863399223E+03  0.96304031470E+02 0.  0.
        -13    1    3    3    0    0 -0.35466389890E+02 -0.43290881323E+02 -0.28191034718E+03  0.28741156738E+03  0.00000000000E+00 0.  1.
         14    1    3    3    0    0 -0.27074765152E+02  0.24032068324E+02 -0.60914980117E+02  0.70860553333E+02  0.00000000000E+00 0. -1.
        -11    1    4    4    0    0  0.11467226092E+01  0.31851748360E+02 -0.13532133390E+03  0.13902414270E+03  0.00000000000E+00 0.  1.
         11    1    4    4    0    0  0.25048358226E+02 -0.59115899134E+02 -0.11259042284E+03  0.12960984953E+03  0.00000000000E+00 0. -1.
          1    1    1    2  501    0  0.36346074208E+02  0.46522963772E+02 -0.30322647976E+03  0.30892025071E+03  0.00000000000E+00 0. -1.
<scales pt_clust_5="13000.00000" pt_clust_6="13000.00000" pt_clust_7="13000.00000" pt_clust_8="13000.00000" pt_clust_9="13000.00000"></scales>
<clustering>
<clus scale="   80.916">  5  6 -1 -1</clus>
<clus scale="   96.304">  7  8 -1 -1</clus>
<clus scale="   59.038">  7  9 -1 -1</clus>
<clus scale="  104.066">  2  5  1 -1</clus>
<clus scale="  172.672">  1  5  2 -1</clus>
</clustering>
</event>
<event>
 9    2  0.2147756E-005  0.2039305E+03  0.7546771E-02  0.1176029E+00
          2   -1    0    0  502    0 -0.00000000000E+00  0.00000000000E+00  0.37329836012E+02  0.37329836012E+02  0.00000000000E+00 0. -1.
         21   -1    0    0  501  502  0.00000000000E+00 -0.00000000000E+00 -0.85051271612E+03  0.85051271612E+03  0.00000000000E+00 0.  1.
         24    2    1    2    0    0  0.51619810583E+02 -0.39462410814E+02 -0.52420513376E+03  0.53415370497E+03  0.79418332617E+02 0.  0.
         23    2    1    2    0    0 -0.47995846907E+02 -0.29947011165E+02 -0.76617994045E+02  0.13024430064E+03  0.88841634615E+02 0.  0.
        -13    1    3    3    0    0  0.58746032855E+02 -0.55611367142E+02 -0.35861336241E+03  0.36762380803E+03  0.00000000000E+00 0.  1.
         14    1    3    3    0    0 -0.71262222717E+01  0.16148956327E+02 -0.16559177135E+03  0.16652989694E+03  0.00000000000E+00 0. -1.
        -13    1    4    4    0    0 -0.12334974358E+02 -0.24895330109E+02  0.15161145482E+02  0.31651056633E+02  0.00000000000E+00 0.  1.
         13    1    4    4    0    0 -0.35660872549E+02 -0.50516810558E+01 -0.91779139527E+02  0.98593244012E+02  0.00000000000E+00 0. -1.
          1    1    1    2  501    0 -0.36239636757E+01  0.69409421979E+02 -0.21235975230E+03  0.22344454651E+03  0.00000000000E+00 0. -1.
<scales pt_clust_5="13000.00000" pt_clust_6="13000.00000" pt_clust_7="13000.00000" pt_clust_8="13000.00000" pt_clust_9="13000.00000"></scales>
<clustering>
<clus scale="   79.418">  5  6 -1 -1</clus>
<clus scale="   88.842">  7  8 -1 -1</clus>
<clus scale="   69.504">  7  9 -1 -1</clus>
<clus scale="  102.612">  1  5  2 -1</clus>
<clus scale="  203.931">  2  5  1 -1</clus>
</clustering>
</event>
<event>
 9    2  0.2147756E-005  0.2995869E+03  0.7546771E-02  0.1108353E+00
          2   -1    0    0  502    0 -0.00000000000E+00  0.00000000000E+00  0.31076462533E+03  0.31076462533E+03  0.00000000000E+00 0. -1.
         21   -1    0    0  501  502  0.00000000000E+00 -0.00000000000E+00 -0.18187649492E+03  0.18187649492E+03  0.00000000000E+00 0. -1.
         24    2    1    2    0    0 -0.14052959562E+03  0.24890331597E+02  0.97394643744E+02  0.19140340209E+03  0.82349558899E+02 0.  0.
         23    2    1    2    0    0  0.55287540637E+02  0.13036333660E+01 -0.98095339216E+02  0.14393038988E+03  0.89637324510E+02 0.  0.
        -13    1    3    3    0    0 -0.59030519752E+02  0.78299487984E+00 -0.39149394721E+01  0.59165379186E+02  0.00000000000E+00 0.  1.
         14    1    3    3    0    0 -0.81499075865E+02  0.24107336717E+02  0.10130958322E+03  0.13223802291E+03  0.00000000000E+00 0. -1.
        -11    1    4    4    0    0  0.58068077901E+02 -0.28690951280E+02 -0.93072678275E+02  0.11339133917E+03  0.00000000000E+00 0. -1.
         11    1    4    4    0    0 -0.27805372640E+01  0.29994584646E+02 -0.50226609402E+01  0.30539050713E+02  0.00000000000E+00 0.  1.
          1    1    1    2  501    0  0.85242054981E+02 -0.26193964963E+02  0.12958882588E+03  0.15730732828E+03  0.00000000000E+00 0. -1.
<scales pt_clust_5="13000.00000" pt_clust_6="13000.00000" pt_clust_7="13000.00000" pt_clust_8="13000.00000" pt_clust_9="13000.00000"></scales>
<clustering>
<clus scale="   82.350">  5  6 -1 -1</clus>
<clus scale="   89.637">  7  8 -1 -1</clus>
<clus scale="   89.176">  7  9 -1 -1</clus>
<clus scale="  164.771">  1  5  2 -1</clus>
<clus scale="  299.587">  2  5  1 -1</clus>
</clustering>
</event>
<event>
 9    2  0.2147756E-005  0.2024773E+03  0.7546771E-02  0.1184283E+00
          2   -1    0    0  502    0 -0.00000000000E+00  0.00000000000E+00  0.47687740054E+03  0.47687740054E+03  0.00000000000E+00 0. -1.
         21   -1    0    0  501  502  0.00000000000E+00 -0.00000000000E+00 -0.44932854345E+02  0.44932854345E+02  0.00000000000E+00 0. -1.
         24    2    1    2    0    0  0.23493960831E+02  0.27324957133E+02  0.96433641100E+02  0.12993703858E+03  0.79281570249E+02 0.  0.
         23    2    1    2    0    0 -0.58257500769E+02  0.32658813633E+02  0.14689692476E+03  0.19092100795E+03  0.10203720042E+03 0.  0.
        -11    1    3    3    0    0  0.46615736151E+02  0.22340239738E+02  0.92493247894E+02  0.10595807697E+03  0.00000000000E+00 0.  1.
         12    1    3    3    0    0 -0.23121775319E+02  0.49847173945E+01  0.39403932062E+01  0.23978961613E+02  0.00000000000E+00 0. -1.
        -11    1    4    4    0    0 -0.37222584980E+02  0.36990412033E+00 -0.18430634897E+01  0.37270022064E+02  0.00000000000E+00 0.  1.
         11    1    4    4    0    0 -0.21034915789E+02  0.32288909513E+02  0.14873998824E+03  0.15365098588E+03  0.00000000000E+00 0. -1.
          1    1    1    2  501    0  0.34763539938E+02 -0.59983770766E+02  0.18861398034E+03  0.20095220836E+03  0.00000000000E+00 0. -1.
<scales pt_clust_5="13000.00000" pt_clust_6="13000.00000" pt_clust_7="13000.00000" pt_clust_8="13000.00000" pt_clust_9="13000.00000"></scales>
<clustering>
<clus scale="   79.282">  5  6 -1 -1</clus>
<clus scale="   87.087">  1  5  2 -1</clus>
<clus scale="  102.037">  7  8 -1 -1</clus>
<clus scale="   65.561">  7  9 -1 -1</clus>
<clus scale="  202.477">  2  5  1 -1</clus>
</clustering>
</event>
<event>
 9    2  0.2147756E-005  0.2974095E+03  0.7546771E-02  0.1111169E+00
         21   -1    0    0  501  502  0.00000000000E+00  0.00000000000E+00  0.37081543595E+03  0.37081543595E+03  0.00000000000E+00 0.  1.
         -3   -1    0    0    0  501 -0.00000000000E+00 -0.00000000000E+00 -0.14801686850E+03  0.14801686850E+03  0.00000000000E+00 0.  1.
         24    2    1    2    0    0 -0.10746461991E+03  0.78774557986E+02  0.18123898287E+02  0.15780027944E+03  0.82573464154E+02 0.  0.
         23    2    1    2    0    0  0.38089592803E+02 -0.74067060463E+01 -0.33032658191E+02  0.10332863319E+03  0.89888673117E+02 0.  0.
        -11    1    3    3    0    0 -0.73135684822E+02  0.92406296663E+02  0.29915622477E+01  0.11788427165E+03  0.00000000000E+00 0.  1.
         12    1    3    3    0    0 -0.34328935089E+02 -0.13631738677E+02  0.15132336040E+02  0.39916007788E+02  0.00000000000E+00 0. -1.
        -13    1    4    4    0    0 -0.28214126015E+02  0.13624415312E+01 -0.21412522932E+02  0.35445582123E+02  0.00000000000E+00 0.  1.
         13    1    4    4    0    0  0.66303718818E+02 -0.87691475775E+01 -0.11620135259E+02  0.67883051064E+02  0.00000000000E+00 0. -1.
         -4    1    1    2    0  502  0.69375027108E+02 -0.71367851940E+02  0.23770732736E+03  0.25770339182E+03  0.00000000000E+00 0.  1.
<scales pt_clust_5="13000.00000" pt_clust_6="13000.00000" pt_clust_7="13000.00000" pt_clust_8="13000.00000" pt_clust_9="13000.00000"></scales>
<clustering>
<clus scale="   82.573">  5  6 -1 -1</clus>
<clus scale="   89.889">  7  8 -1 -1</clus>
<clus scale="   99.530">  7  9 -1 -1</clus>
<clus scale="  156.756">  2  5  1 -1</clus>
<clus scale="  297.409">  1  5  2 -1</clus>
</clustering>
</event>
<event>
 9    2  0.2147756E-005  0.3252387E+03  0.7546771E-02  0.1118432E+00
         21   -1    0    0  501  502  0.00000000000E+00  0.00000000000E+00  0.90113069143E+02  0.90113069143E+02  0.00000000000E+00 0. -1.
          2   -1    0    0  502    0 -0.00000000000E+00 -0.00000000000E+00 -0.12193479047E+04  0.12193479047E+04  0.00000000000E+00 0. -1.
         24    2    1    2    0    0 -0.52661747235E+02  0.24581978976E+02 -0.91405111459E+03  0.91948114498E+03  0.81108585044E+02 0.  0.
         23    2    1    2    0    0  0.64980222469E+02 -0.11844757375E+03 -0.87121571802E+01  0.16283890044E+03  0.90489495388E+02 0.  0.
        -11    1    3    3    0    0 -0.39761261049E+02  0.36475805150E+02 -0.27799724913E+03  0.28318529758E+03  0.00000000000E+00 0.  1.
         12    1    3    3    0    0 -0.12900486186E+02 -0.11893826174E+02 -0.63605386546E+03  0.63629584739E+03  0.00000000000E+00 0. -1.
        -11    1    4    4    0    0  0.22595295991E+02  0.93788061679E+01  0.10836885802E+02  0.26757195293E+02  0.00000000000E+00 0. -1.
         11    1    4    4    0    0  0.42384926478E+02 -0.12782637991E+03 -0.19549042982E+02  0.13608170515E+03  0.00000000000E+00 0.  1.
          1    1    1    2  501    0 -0.12318475234E+02  0.93865594771E+02 -0.20647156378E+03  0.22714092842E+03  0.00000000000E+00 0. -1.
<scales pt_clust_5="13000.00000" pt_clust_6="13000.00000" pt_clust_7="13000.00000" pt_clust_8="13000.00000" pt_clust_9="13000.00000"></scales>
<clustering>
<clus scale="   81.109">  5  6 -1 -1</clus>
<clus scale="   90.489">  7  8 -1 -1</clus>
<clus scale="   94.671">  7  9 -1 -1</clus>
<clus scale="   99.780">  2  5  1 -1</clus>
<clus scale="  325.239">  1  5  2 -1</clus>
</clustering>
</event>
<event>
 9    2  0.2147756E-005  0.2838216E+03  0.7546771E-02  0.1139016E+00
         -1   -1    0    0    0  501 -0.00000000000E+00  0.00000000000E+00  0.72613326703E+02  0.72613326703E+02  0.00000000000E+00 0.  1.
         21   -1    0    0  501  502  0.00000000000E+00 -0.00000000000E+00 -0.49520200197E+03  0.49520200197E+03  0.00000000000E+00 0.  1.
         24    2    1    2    0    0 -0.32800690186E+02 -0.22223187941E+02 -0.14440565547E+03  0.17039803122E+03  0.81318757684E+02 0.  0.
         23    2    1    2    0    0 -0.44902893488E+02 -0.43900820028E+02 -0.94954205838E+01  0.11000947342E+03  0.89824102490E+02 0.  0.
        -11    1    3    3    0    0 -0.32567260305E+02  0.24965288925E+02 -0.86181625015E+02  0.95452420530E+02  0.00000000000E+00 0.  1.
         12    1    3    3    0    0 -0.23342988053E+00 -0.47188476866E+02 -0.58224030457E+02  0.74945610686E+02  0.00000000000E+00 0. -1.
        -13    1    4    4    0    0 -0.64690450130E+02 -0.55595522682E+02 -0.14405803098E+02  0.86505743412E+02  0.00000000000E+00 0.  1.
         13    1    4    4    0    0  0.19787556642E+02  0.11694702654E+02  0.49103825145E+01  0.23503730012E+02  0.00000000000E+00 0. -1.
         -2    1    1    2    0  502  0.77703583674E+02  0.66124007969E+02 -0.26868759921E+03  0.28740782403E+03  0.00000000000E+00 0.  1.
<scales pt_clust_5="13000.00000" pt_clust_6="13000.00000" pt_clust_7="13000.00000" pt_clust_8="13000.00000" pt_clust_9="13000.00000"></scales>
<clustering>
<clus scale="   81.319">  5  6 -1 -1</clus>
<clus scale="   89.824">  7  8 -1 -1</clus>
<clus scale="   90.457">  1  5  2 -1</clus>
<clus scale="   95.850">  7  9 -1 -1</clus>
<clus scale="  283.822">  2  5  1 -1</clus>
</clustering>
</event>
<event>
 9    2  0.2147756E-005  0.2539824E+03  0.7546771E-02  0.1132091E+00
         -1   -1    0    0    0  501 -0.00000000000E+00  0.00000000000E+00  0.29022938404E+03  0.29022938404E+03  0.00000000000E+00 0.  1.
         21   -1    0    0  501  502  0.00000000000E+00 -0.00000000000E+00 -0.17170649258E+03  0.17170649258E+03  0.00000000000E+00 0. -1.
         24    2    1    2    0    0  0.10832857717E+03  0.63284153188E+02 -0.49542484091E+02  0.15738204261E+03  0.81084430877E+02 0.  0.
         23    2    1    2    0    0 -0.61547417847E+02 -0.21300101015E+02 -0.12963127334E+02  0.11292279173E+03  0.91333100656E+02 0.  0.
        -13    1    3    3    0    0 -0.28462468714E+01  0.33771004304E+02 -0.16566099329E+02  0.37722904182E+02  0.00000000000E+00 0.  1.
         14    1    3    3    0    0  0.11117482404E+03  0.29513148884E+02 -0.32976384761E+02  0.11965913843E+03  0.00000000000E+00 0. -1.
        -11    1    4    4    0    0  0.18171711070E+02 -0.24203114645E+02  0.61708115226E+01  0.30888197691E+02  0.00000000000E+00 0.  1.
         11    1    4    4    0    0 -0.79719128917E+02  0.29030136295E+01 -0.19133938856E+02  0.82034594042E+02  0.00000000000E+00 0. -1.
         -2    1    1    2    0  502 -0.46781159326E+02 -0.41984052173E+02  0.18102850288E+03  0.19163104227E+03  0.00000000000E+00 0.  1.
<scales pt_clust_5="13000.00000" pt_clust_6="13000.00000" pt_clust_7="13000.00000" pt_clust_8="13000.00000" pt_clust_9="13000.00000"></scales>
<clustering>
<clus scale="   81.084">  5  6 -1 -1</clus>
<clus scale="   91.333">  7  8 -1 -1</clus>
<clus scale="   62.858">  7  9 -1 -1</clus>
<clus scale="  149.381">  1  5  2 -1</clus>
<clus scale="  253.982">  2  5  1 -1</clus>
</clustering>
</event>
<event>
 9    2  0.2147756E-005  0.1447332E+03  0.7546771E-02  0.1226991E+00
         21   -1    0    0  501  502  0.00000000000E+00  0.00000000000E+00  0.31555338241E+02  0.31555338241E+02  0.00000000000E+00 0.  1.
          2   -1    0    0  502    0 -0.00000000000E+00 -0.00000000000E+00 -0.79648142557E+03  0.79648142557E+03  0.00000000000E+00 0. -1.
         24    2    1    2    0    0  0.35142359960E+02  0.35053677005E+02 -0.60463868861E+03  0.61207439148E+03  0.81137976325E+02 0.  0.
         23    2    1    2    0    0 -0.57115609621E+02 -0.77461616228E+01 -0.10527722056E+03  0.15073474170E+03  0.91189217039E+02 0.  0.
        -13    1    3    3    0    0 -0.68966862492E+01 -0.22395780825E+02 -0.12436532863E+03  0.12655382351E+03  0.00000000000E+00 0.  1.
         14    1    3    3    0    0  0.42039046209E+02  0.57449457830E+02 -0.48027335998E+03  0.48552056797E+03  0.00000000000E+00 0. -1.
        -11    1    4    4    0    0  0.17641927834E+02 -0.16560635013E+02 -0.39668680453E+01  0.24519957011E+02  0.00000000000E+00 0. -1.
         11    1    4    4    0    0 -0.74757537455E+02  0.88144733899E+01 -0.10131035251E+03  0.12621478469E+03  0.00000000000E+00 0.  1.
          1    1    1    2  501    0  0.21973249662E+02 -0.27307515382E+02 -0.55010178156E+02  0.65227630632E+02  0.00000000000E+00 0. -1.
<scales pt_clust_5="13000.00000" pt_clust_6="13000.00000" pt_clust_7="13000.00000" pt_clust_8="13000.00000" pt_clust_9="13000.00000"></scales>
<clustering>
<clus scale="   81.138">  5  6 -1 -1</clus>
<clus scale="   91.189">  7  8 -1 -1</clus>
<clus scale="   35.050">  7  9 -1 -1</clus>
<clus scale="   95.116">  2  5  1 -1</clus>
<clus scale="  144.733">  1  5  2 -1</clus>
</clustering>
</event>
<event>
 9    2  0.2147756E-005  0.1315588E+03  0.7546771E-02  0.1245234E+00
          2   -1    0    0  502    0 -0.00000000000E+00  0.00000000000E+00  0.63475021882E+03  0.63475021882E+03  0.00000000000E+00 0. -1.
         21   -1    0    0  501  502  0.00000000000E+00 -0.00000000000E+00 -0.18853106745E+02  0.18853106745E+02  0.00000000000E+00 0. -1.
         24    2    1    2    0    0 -0.22707237458E+02  0.94895076587E+01  0.24409257773E+03  0.25920970529E+03  0.83682826331E+02 0.  0.
         23    2    1    2    0    0  0.45825964668E+02  0.16902026362E+01  0.25153054568E+03  0.27140868698E+03  0.91061430552E+02 0.  0.
        -11    1    3    3    0    0  0.28768494720E+02  0.19172586445E+02  0.87121567225E+02  0.93730367732E+02  0.00000000000E+00 0.  1.
         12    1    3    3    0    0 -0.51475732178E+02 -0.96830787866E+01  0.15697101051E+03  0.16547933756E+03  0.00000000000E+00 0. -1.
        -13    1    4    4    0    0  0.65633022913E+02 -0.23594369439E+02  0.16677879849E+03  0.18077487544E+03  0.00000000000E+00 0. -1.
         13    1    4    4    0    0 -0.19807058246E+02  0.25284572075E+02  0.84751747188E+02  0.90633811532E+02  0.00000000000E+00 0.  1.
          1    1    1    2  501    0 -0.23118727210E+02 -0.11179710295E+02  0.12027398866E+03  0.12298493330E+03  0.00000000000E+00 0. -1.
<scales pt_clust_5="13000.00000" pt_clust_6="13000.00000" pt_clust_7="13000.00000" pt_clust_8="13000.00000" pt_clust_9="13000.00000"></scales>
<clustering>
<clus scale="   83.683">  5  6 -1 -1</clus>
<clus scale="   87.227">  1  5  2 -1</clus>
<clus scale="   91.061">  7  8 -1 -1</clus>
<clus scale="   31.408">  7  9 -1 -1</clus>
<clus scale="  131.559">  2  5  1 -1</clus>
</clustering>
</event>
<event>
 9    2  0.2147756E-005  0.3226841E+03  0.7546771E-02  0.1110430E+00
         21   -1    0    0  501  502  0.00000000000E+00  0.00000000000E+00  0.96683075456E+02  0.96683075456E+02  0.00000000000E+00 0. -1.
          2   -1    0    0  502    0 -0.00000000000E+00 -0.00000000000E+00 -0.54269845453E+03  0.54269845453E+03  0.00000000000E+00 0. -1.
         24    2    1    2    0    0 -0.93135956559E+02  0.87976389881E+01 -0.19004171552E+03  0.22749862066E+03  0.82994360694E+02 0.  0.
         23    2    1    2    0    0 -0.84920403244E+02 -0.10863923424E+02 -0.17229226484E+03  0.21513201787E+03  0.96268691022E+02 0.  0.
        -13    1    3    3    0    0 -0.64519245338E+02  0.32581537872E+02 -0.65589148983E+02  0.97602387744E+02  0.00000000000E+00 0.  1.
         14    1    3    3    0    0 -0.28616711222E+02 -0.23783898884E+02 -0.12445256654E+03  0.12989623291E+03  0.00000000000E+00 0. -1.
        -13    1    4    4    0    0 -0.41303772159E+02  0.30047317750E+02 -0.13577179698E+03  0.14506144820E+03  0.00000000000E+00 0.  1.
         13    1    4    4    0    0 -0.43616631085E+02 -0.40911241174E+02 -0.36520467858E+02  0.70070569672E+02  0.00000000000E+00 0. -1.
          1    1    1    2  501    0  0.17805635980E+03  0.20662844360E+01 -0.83681398712E+02  0.19675089145E+03  0.00000000000E+00 0. -1.
<scales pt_clust_5="13000.00000" pt_clust_6="13000.00000" pt_clust_7="13000.00000" pt_clust_8="13000.00000" pt_clust_9="13000.00000"></scales>
<clustering>
<clus scale="   82.994">  5  6 -1 -1</clus>
<clus scale="   96.269">  7  8 -1 -1</clus>
<clus scale="  125.059">  2  5  1 -1</clus>
<clus scale="  139.068">  7  9 -1 -1</clus>
<clus scale="  322.684">  1  5  2 -1</clus>
</clustering>
</event>
<event>
 9    2  0.2147756E-005  0.1385888E+03  0.7546771E-02  0.1228218E+00
          4   -1    0    0  502    0 -0.00000000000E+00  0.00000000000E+00  0.64421218903E+03  0.64421218903E+03  0.00000000000E+00 0. -1.
         21   -1    0    0  501  502  0.00000000000E+00 -0.00000000000E+00 -0.23143861110E+02  0.23143861110E+02  0.00000000000E+00 0. -1.
         24    2    1    2    0    0 -0.60368829026E+01  0.55029843929E+02  0.26635639985E+03  0.28653139936E+03  0.89943223207E+02 0.  0.
         23    2    1    2    0    0  0.15610405914E+02 -0.66419689560E+01  0.23400283026E+03  0.25042631842E+03  0.87568349674E+02 0.  0.
        -13    1    3    3    0    0  0.36558515566E+02  0.43739182867E+02  0.19004554024E+03  0.19841105952E+03  0.00000000000E+00 0.  1.
         14    1    3    3    0    0 -0.42595398468E+02  0.11290661062E+02  0.76310859617E+02  0.88120339839E+02  0.00000000000E+00 0. -1.
        -13    1    4    4    0    0 -0.23967297153E+02  0.27817730488E+02  0.95880888239E+02  0.10267133091E+03  0.00000000000E+00 0.  1.
         13    1    4    4    0    0  0.39577703068E+02 -0.34459699444E+02  0.13812194202E+03  0.14775498750E+03  0.00000000000E+00 0. -1.
          3    1    1    2  501    0 -0.95735230118E+01 -0.48387874973E+02  0.12070909781E+03  0.13039833236E+03  0.00000000000E+00 0. -1.
<scales pt_clust_5="13000.00000" pt_clust_6="13000.00000" pt_clust_7="13000.00000" pt_clust_8="13000.00000" pt_clust_9="13000.00000"></scales>
<clustering>
<clus scale="   87.568">  7  8 -1 -1</clus>
<clus scale="   49.326">  7  9 -1 -1</clus>
<clus scale="   89.943">  5  6 -1 -1</clus>
<clus scale="  105.615">  1  5  2 -1</clus>
<clus scale="  138.589">  2  5  1 -1</clus>
</clustering>
</event>
<event>
 9    2  0.2147756E-005  0.3533370E+03  0.7546771E-02  0.1077653E+00
          2   -1    0    0  502    0 -0.00000000000E+00  0.00000000000E+00  0.51656020347E+03  0.51656020347E+03  0.00000000000E+00 0. -1.
         21   -1    0    0  501  502  0.00000000000E+00 -0.00000000000E+00 -0.19971561691E+03  0.19971561691E+03  0.00000000000E+00 0.  1.
         24    2    1    2    0    0  0.18745550392E+03 -0.98346031583E+02 -0.22650056044E+02  0.22627207845E+03  0.76645421050E+02 0.  0.
         23    2    1    2    0    0  0.18640789584E+02  0.59910529921E+02  0.34473482638E+02  0.11988095417E+03  0.96157534993E+02 0.  0.
        -13    1    3    3    0    0  0.10995332940E+03 -0.96337159269E+02 -0.26721400280E+01  0.14621122814E+03  0.00000000000E+00 0.  1.
         14    1    3    3    0    0  0.77502174526E+02 -0.20088723145E+01 -0.19977916016E+02  0.80060850311E+02  0.00000000000E+00 0. -1.
        -11    1    4    4    0    0 -0.37022098421E+02  0.11770940083E+02  0.56405269262E+00  0.38852399635E+02  0.00000000000E+00 0. -1.
         11    1    4    4    0    0  0.55662888006E+02  0.48139589838E+02  0.33909429945E+02  0.81028554535E+02  0.00000000000E+00 0.  1.
          1    1    1    2  501    0 -0.20609629351E+03  0.38435501663E+02  0.30502115997E+03  0.37012278775E+03  0.00000000000E+00 0. -1.
<scales pt_clust_5="13000.00000" pt_clust_6="13000.00000" pt_clust_7="13000.00000" pt_clust_8="13000.00000" pt_clust_9="13000.00000"></scales>
<clustering>
<clus scale="   76.645">  5  6 -1 -1</clus>
<clus scale="   96.158">  7  8 -1 -1</clus>
<clus scale="  209.650">  7  9 -1 -1</clus>
<clus scale="  225.136">  1  5  2 -1</clus>
<clus scale="  353.337">  2  5  1 -1</clus>
</clustering>
</event>
<event>
 9    2  0.2147756E-005  0.1680942E+03  0.7546771E-02  0.1188646E+00
         21   -1    0    0  501  502  0.00000000000E+00  0.00000000000E+00  0.54435447603E+02  0.54435447603E+02  0.00000000000E+00 0.  1.
          2   -1    0    0  502    0 -0.00000000000E+00 -0.00000000000E+00 -0.12190248977E+04  0.12190248977E+04  0.00000000000E+00 0. -1.
         24    2    1    2    0    0  0.10422658306E+03  0.45026498933E+02 -0.10733462698E+04  0.10821987684E+04  0.78685405893E+02 0.  0.
         23    2    1    2    0    0 -0.71358651410E+02 -0.60283660784E+02 -0.60660634603E+02  0.14384455448E+03  0.91023987909E+02 0.  0.
        -13    1    3    3    0    0  0.62873474956E+02  0.49261167108E+02 -0.41974784626E+03  0.42727975716E+03  0.00000000000E+00 0.  1.
         14    1    3    3    0    0  0.41353108099E+02 -0.42346681742E+01 -0.65359842354E+03  0.65491901119E+03  0.00000000000E+00 0. -1.
        -11    1    4    4    0    0 -0.20614213492E+02  0.24130665939E+02 -0.11420008945E+02  0.33729088942E+02  0.00000000000E+00 0. -1.
         11    1    4    4    0    0 -0.50744437918E+02 -0.84414326723E+02 -0.49240625659E+02  0.11011546554E+03  0.00000000000E+00 0.  1.
          1    1    1    2  501    0 -0.32867931645E+02  0.15257161850E+02 -0.30582545673E+02  0.47417022452E+02  0.00000000000E+00 0. -1.
<scales pt_clust_5="13000.00000" pt_clust_6="13000.00000" pt_clust_7="13000.00000" pt_clust_8="13000.00000" pt_clust_9="13000.00000"></scales>
<clustering>
<clus scale="   78.685">  5  6 -1 -1</clus>
<clus scale="   91.024">  7  8 -1 -1</clus>
<clus scale="   36.236">  7  9 -1 -1</clus>
<clus scale="  138.137">  2  5  1 -1</clus>
<clus scale="  168.094">  1  5  2 -1</clus>
</clustering>
</event>
<event>
 9    2  0.2147756E-005  0.2900374E+03  0.7546771E-02  0.1141044E+00
         -1   -1    0    0    0  501 -0.00000000000E+00  0.00000000000E+00  0.52268362164E+03  0.52268362164E+03  0.00000000000E+00 0.  1.
         21   -1    0    0  501  502  0.00000000000E+00 -0.00000000000E+00 -0.72555244227E+02  0.72555244227E+02  0.00000000000E+00 0.  1.
         24    2    1    2    0    0 -0.36749316984E+01  0.43879010095E+01  0.18680536330E+03  0.20349826881E+03  0.80514240075E+02 0.  0.
         23    2    1    2    0    0  0.60037748035E+02  0.97990932385E+02  0.62664057439E+02  0.15952903514E+03  0.91191967515E+02 0.  0.
        -11    1    3    3    0    0 -0.71103805872E+01  0.41837757815E+02  0.11203074372E+03  0.11979917792E+03  0.00000000000E+00 0.  1.
         12    1    3    3    0    0  0.34354488888E+01 -0.37449856806E+02  0.74774619572E+02  0.83699090891E+02  0.00000000000E+00 0. -1.
        -11    1    4    4    0    0  0.72139252246E+01  0.46999993613E+02  0.71196526644E+02  0.85615334625E+02  0.00000000000E+00 0. -1.
         11    1    4    4    0    0  0.52823822810E+02  0.50990938771E+02 -0.85324692049E+01  0.73913700515E+02  0.00000000000E+00 0.  1.
         -2    1    1    2    0  502 -0.56362816336E+02 -0.10237883339E+03  0.20065895668E+03  0.23221156191E+03  0.00000000000E+00 0.  1.
<scales pt_clust_5="13000.00000" pt_clust_6="13000.00000" pt_clust_7="13000.00000" pt_clust_8="13000.00000" pt_clust_9="13000.00000"></scales>
<clustering>
<clus scale="   80.514">  5  6 -1 -1</clus>
<clus scale="   80.717">  1  5  2 -1</clus>
<clus scale="   91.192">  7  8 -1 -1</clus>
<clus scale="  115.553">  7  9 -1 -1</clus>
<clus scale="  290.037">  2  5  1 -1</clus>
</clustering>
</event>
<event>
 9    2  0.2147756E-005  0.2692850E+03  0.7546771E-02  0.1141849E+00
         21   -1    0    0  501  502  0.00000000000E+00  0.00000000000E+00  0.22659847846E+03  0.22659847846E+03  0.00000000000E+00 0. -1.
          4   -1    0    0  502    0 -0.00000000000E+00 -0.00000000000E+00 -0.16214179653E+03  0.16214179653E+03  0.00000000000E+00 0. -1.
         24    2    1    2    0    0 -0.57065493603E+02 -0.15479468186E+02 -0.29998585271E+02  0.10337000871E+03  0.79305479552E+02 0.  0.
         23    2    1    2    0    0 -0.16296872612E+02  0.10614607808E+03  0.12004450929E+02  0.14253956920E+03  0.92956140166E+02 0.  0.
        -11    1    3    3    0    0  0.85448628285E+01 -0.27084125694E+02  0.38099901625E+01  0.28654503493E+02  0.00000000000E+00 0.  1.
         12    1    3    3    0    0 -0.65610356431E+02  0.11604657509E+02 -0.33808575433E+02  0.74715505217E+02  0.00000000000E+00 0. -1.
        -13    1    4    4    0    0  0.19366753100E+02  0.30914663237E+02 -0.31860559129E+02  0.48434313836E+02  0.00000000000E+00 0.  1.
         13    1    4    4    0    0 -0.35663625712E+02  0.75231414848E+02  0.43865010058E+02  0.94105255360E+02  0.00000000000E+00 0. -1.
          3    1    1    2  501    0  0.73362366215E+02 -0.90666609899E+02  0.82450816270E+02  0.14283069709E+03  0.00000000000E+00 0. -1.
<scales pt_clust_5="13000.00000" pt_clust_6="13000.00000" pt_clust_7="13000.00000" pt_clust_8="13000.00000" pt_clust_9="13000.00000"></scales>
<clustering>
<clus scale="   79.305">  5  6 -1 -1</clus>
<clus scale="   92.956">  7  8 -1 -1</clus>
<clus scale="   98.921">  2  5  1 -1</clus>
<clus scale="  110.417">  7  9 -1 -1</clus>
<clus scale="  269.285">  1  5  2 -1</clus>
</clustering>
</event>
<event>
 9    2  0.2147756E-005  0.3781770E+03  0.7546771E-02  0.1105978E+00
         21   -1    0    0  501  502  0.00000000000E+00  0.00000000000E+00  0.30640852449E+03  0.30640852449E+03  0.00000000000E+00 0.  1.
         -1   -1    0    0    0  501 -0.00000000000E+00 -0.00000000000E+00 -0.18753355994E+03  0.18753355994E+03  0.00000000000E+00 0.  1.
         24    2    1    2    0    0 -0.34683437981E+02 -0.15441067616E+02 -0.22983166310E+02  0.90034161787E+02  0.78336178843E+02 0.  0.
         23    2    1    2    0    0 -0.14186720701E+02 -0.20807800365E+02  0.25684588373E+03  0.27381389454E+03  0.91487776504E+02 0.  0.
        -13    1    3    3    0    0 -0.32371116370E+02 -0.37315805451E+02 -0.38904472267E+02  0.62880175524E+02  0.00000000000E+00 0.  1.
         14    1    3    3    0    0 -0.23123216113E+01  0.21874737836E+02  0.15921305957E+02  0.27153986263E+02  0.00000000000E+00 0. -1.
        -13    1    4    4    0    0 -0.95110814761E-01 -0.54049510990E+02  0.19343701324E+03  0.20084630138E+03  0.00000000000E+00 0. -1.
         13    1    4    4    0    0 -0.14091609887E+02  0.33241710625E+02  0.63408870489E+02  0.72967593157E+02  0.00000000000E+00 0.  1.
         -2    1    1    2    0  502  0.48870158683E+02  0.36248867981E+02 -0.11498775287E+03  0.13009402811E+03  0.00000000000E+00 0.  1.
<scales pt_clust_5="13000.00000" pt_clust_6="13000.00000" pt_clust_7="13000.00000" pt_clust_8="13000.00000" pt_clust_9="13000.00000"></scales>
<clustering>
<clus scale="   78.336">  5  6 -1 -1</clus>
<clus scale="   87.051">  2  5  1 -1</clus>
<clus scale="   91.488">  7  8 -1 -1</clus>
<clus scale="   27.306">  7  9 -1 -1</clus>
<clus scale="  378.177">  1  5  2 -1</clus>
</clustering>
</event>
<event>
 9    2  0.2147756E-005  0.7578809E+03  0.7546771E-02  0.1013277E+00
         21   -1    0    0  501  502  0.00000000000E+00  0.00000000000E+00  0.26247936736E+04  0.26247936736E+04  0.00000000000E+00 0.  1.
         -1   -1    0    0    0  501 -0.00000000000E+00 -0.00000000000E+00 -0.91076286141E+02  0.91076286141E+02  0.00000000000E+00 0.  1.
         24    2    1    2    0    0 -0.53768045006E+02 -0.10848273041E+03  0.93866830673E+03  0.94992404382E+03  0.81228034028E+02 0.  0.
         23    2    1    2    0    0 -0.23295457704E+03 -0.17681555040E+03  0.39700452694E+03  0.50146352226E+03  0.91222233650E+02 0.  0.
        -11    1    3    3    0    0 -0.22929956926E+02 -0.10988954913E+03  0.65140339265E+03  0.66100520110E+03  0.00000000000E+00 0.  1.
         12    1    3    3    0    0 -0.30838088080E+02  0.14068187237E+01  0.28726491408E+03  0.28891884272E+03  0.00000000000E+00 0. -1.
        -13    1    4    4    0    0 -0.12256649572E+03 -0.14817367683E+03  0.24684308876E+03  0.31290492940E+03  0.00000000000E+00 0. -1.
         13    1    4    4    0    0 -0.11038808132E+03 -0.28641873569E+02  0.15016143819E+03  0.18855859285E+03  0.00000000000E+00 0.  1.
         -2    1    1    2    0  502  0.28672262205E+03  0.28529828081E+03  0.11980445538E+04  0.12644823937E+04  0.00000000000E+00 0.  1.
<scales pt_clust_5="13000.00000" pt_clust_6="13000.00000" pt_clust_7="13000.00000" pt_clust_8="13000.00000" pt_clust_9="13000.00000"></scales>
<clustering>
<clus scale="   81.228">  5  6 -1 -1</clus>
<clus scale="   91.222">  7  8 -1 -1</clus>
<clus scale="  145.800">  2  5  1 -1</clus>
<clus scale="  360.236">  7  9 -1 -1</clus>
<clus scale="  757.881">  1  5  2 -1</clus>
</clustering>
</event>
<event>
 9    2  0.2147756E-005  0.4153839E+03  0.7546771E-02  0.1089629E+00
         21   -1    0    0  501  502  0.00000000000E+00  0.00000000000E+00  0.84663742830E+02  0.84663742830E+02  0.00000000000E+00 0.  1.
          2   -1    0    0  502    0 -0.00000000000E+00 -0.00000000000E+00 -0.84394212343E+03  0.84394212343E+03  0.00000000000E+00 0. -1.
         24    2    1    2    0    0  0.26561619279E+02 -0.54091935562E+02 -0.65641809653E+02  0.12010388343E+03  0.80527253328E+02 0.  0.
         23    2    1    2    0    0  0.11555922189E+03 -0.56988221647E+02 -0.99892989522E+02  0.18796304344E+03  0.93540927786E+02 0.  0.
        -13    1    3    3    0    0  0.18050012497E+01 -0.70019212381E+02 -0.37827482832E+02  0.79604438252E+02  0.00000000000E+00 0.  1.
         14    1    3    3    0    0  0.24756618029E+02  0.15927276819E+02 -0.27814326821E+02  0.40499445177E+02  0.00000000000E+00 0. -1.
        -13    1    4    4    0    0  0.92526544585E+02 -0.67724115300E+02 -0.37575253516E+02  0.12066323766E+03  0.00000000000E+00 0.  1.
         13    1    4    4    0    0  0.23032677307E+02  0.10735893652E+02 -0.62317736006E+02  0.67299805775E+02  0.00000000000E+00 0. -1.
          1    1    1    2  501    0 -0.14212084117E+03  0.11108015721E+03 -0.59374358142E+03  0.62053893939E+03  0.00000000000E+00 0. -1.
<scales pt_clust_5="13000.00000" pt_clust_6="13000.00000" pt_clust_7="13000.00000" pt_clust_8="13000.00000" pt_clust_9="13000.00000"></scales>
<clustering>
<clus scale="   80.527">  5  6 -1 -1</clus>
<clus scale="   93.541">  7  8 -1 -1</clus>
<clus scale="  100.579">  2  5  1 -1</clus>
<clus scale="  138.177">  7  9 -1 -1</clus>
<clus scale="  415.384">  1  5  2 -1</clus>
</clustering>
</event>
<event>
 9    2  0.2147756E-005  0.3588193E+03  0.7546771E-02  0.1094065E+00
         21   -1    0    0  501  502  0.00000000000E+00  0.00000000000E+00  0.47657616503E+03  0.47657616503E+03  0.00000000000E+00 0. -1.
          2   -1    0    0  502    0 -0.00000000000E+00 -0.00000000000E+00 -0.13012605690E+03  0.13012605690E+03  0.00000000000E+00 0. -1.
         24    2    1    2    0    0 -0.11396499327E+03  0.39354379826E+00  0.85747218319E+02  0.16317396569E+03  0.79277885060E+02 0.  0.
         23    2    1    2    0    0 -0.14361035471E+02 -0.29158719659E+02 -0.47918701724E+02  0.10805502072E+03  0.91231657092E+02 0.  0.
        -11    1    3    3    0    0 -0.62267857781E+02 -0.37496558907E+02  0.31558833255E+02  0.79241643085E+02  0.00000000000E+00 0.  1.
         12    1    3    3    0    0 -0.51697135494E+02  0.37890102705E+02  0.54188385064E+02  0.83932322601E+02  0.00000000000E+00 0. -1.
        -13    1    4    4    0    0 -0.31913467405E+02 -0.41310138129E+02  0.35625696084E+01  0.52322928208E+02  0.00000000000E+00 0.  1.
         13    1    4    4    0    0  0.17552431934E+02  0.12151418471E+02 -0.51481271332E+02  0.55732092511E+02  0.00000000000E+00 0. -1.
          1    1    1    2  501    0  0.12832602875E+03  0.28765175860E+02  0.30862159153E+03  0.33547323553E+03  0.00000000000E+00 0. -1.
<scales pt_clust_5="13000.00000" pt_clust_6="13000.00000" pt_clust_7="13000.00000" pt_clust_8="13000.00000" pt_clust_9="13000.00000"></scales>
<clustering>
<clus scale="   79.278">  5  6 -1 -1</clus>
<clus scale="   91.232">  7  8 -1 -1</clus>
<clus scale="  131.511">  7  9 -1 -1</clus>
<clus scale="  138.828">  2  5  1 -1</clus>
<clus scale="  358.819">  1  5  2 -1</clus>
</clustering>
</event>
<event>
 9    2  0.2147756E-005  0.4644513E+03  0.7546771E-02  0.1072953E+00
         21   -1    0    0  501  502  0.00000000000E+00  0.00000000000E+00  0.26105132771E+03  0.26105132771E+03  0.00000000000E+00 0.  1.
         -1   -1    0    0    0  501 -0.00000000000E+00 -0.00000000000E+00 -0.34958077960E+03  0.34958077960E+03  0.00000000000E+00 0.  1.
         24    2    1    2    0    0  0.61739730849E+02 -0.51935485552E+02  0.53852846507E+02  0.12484639628E+03  0.78596466607E+02 0.  0.
         23    2    1    2    0    0 -0.25721638070E+02 -0.73174950559E+02 -0.27485283772E+03  0.30004834800E+03  0.92025826180E+02 0.  0.
        -11    1    3    3    0    0 -0.98411542027E+01 -0.38258899373E+02  0.14962724698E+02  0.42243044725E+02  0.00000000000E+00 0.  1.
         12    1    3    3    0    0  0.71580885052E+02 -0.13676586179E+02  0.38890121808E+02  0.82603351558E+02  0.00000000000E+00 0. -1.
        -11    1    4    4    0    0  0.27236539908E+02 -0.50911671278E+02 -0.18122948573E+03  0.19020503115E+03  0.00000000000E+00 0.  1.
         11    1    4    4    0    0 -0.52958177978E+02 -0.22263279281E+02 -0.93623351991E+02  0.10984331685E+03  0.00000000000E+00 0. -1.
         -2    1    1    2    0  502 -0.36018092779E+02  0.12511043611E+03  0.13247053932E+03  0.18573736302E+03  0.00000000000E+00 0.  1.
<scales pt_clust_5="13000.00000" pt_clust_6="13000.00000" pt_clust_7="13000.00000" pt_clust_8="13000.00000" pt_clust_9="13000.00000"></scales>
<clustering>
<clus scale="   78.596">  5  6 -1 -1</clus>
<clus scale="   92.026">  7  8 -1 -1</clus>
<clus scale="  112.634">  2  5  1 -1</clus>
<clus scale="  124.570">  7  9 -1 -1</clus>
<clus scale="  464.451">  1  5  2 -1</clus>
</clustering>
</event>
<event>
 9    2  0.2147756E-005  0.4254582E+03  0.7546771E-02  0.1086961E+00
         21   -1    0    0  501  502  0.00000000000E+00  0.00000000000E+00  0.13735670726E+03  0.13735670726E+03  0.00000000000E+00 0.  1.
          2   -1    0    0  502    0 -0.00000000000E+00 -0.00000000000E+00 -0.55152627850E+03  0.55152627850E+03  0.00000000000E+00 0. -1.
         24    2    1    2    0    0  0.56105461311E+02 -0.15154899564E+02 -0.81792266970E+01  0.10079894939E+03  0.81951416578E+02 0.  0.
         23    2    1    2    0    0  0.16610475716E+03 -0.39325801346E+02 -0.15354541323E+03  0.24738773274E+03  0.92125932198E+02 0.  0.
        -11    1    3    3    0    0  0.17635784287E+02  0.15612736983E+02  0.30238245846E+02  0.38329231082E+02  0.00000000000E+00 0.  1.
         12    1    3    3    0    0  0.38469677023E+02 -0.30767636547E+02 -0.38417472543E+02  0.62469718308E+02  0.00000000000E+00 0. -1.
        -11    1    4    4    0    0  0.20922558308E+02 -0.43667817647E+02 -0.44486082649E+02  0.65754416533E+02  0.00000000000E+00 0. -1.
         11    1    4    4    0    0  0.14518219885E+03  0.43420163009E+01 -0.10905933058E+03  0.18163331620E+03  0.00000000000E+00 0.  1.
          1    1    1    2  501    0 -0.22221021847E+03  0.54480700910E+02 -0.25244493131E+03  0.34069630364E+03  0.00000000000E+00 0. -1.
<scales pt_clust_5="13000.00000" pt_clust_6="13000.00000" pt_clust_7="13000.00000" pt_clust_8="13000.00000" pt_clust_9="13000.00000"></scales>
<clustering>
<clus scale="   81.951">  5  6 -1 -1</clus>
<clus scale="   92.126">  7  8 -1 -1</clus>
<clus scale="  100.467">  2  5  1 -1</clus>
<clus scale="  194.126">  7  9 -1 -1</clus>
<clus scale="  425.458">  1  5  2 -1</clus>
</clustering>
</event>
<event>
 9    2  0.2147756E-005  0.3775423E+03  0.7546771E-02  0.1100576E+00
          2   -1    0    0  502    0 -0.00000000000E+00  0.00000000000E+00  0.11958780201E+04  0.11958780201E+04  0.00000000000E+00 0. -1.
         21   -1    0    0  501  502  0.00000000000E+00 -0.00000000000E+00 -0.49546719110E+02  0.49546719110E+02  0.00000000000E+00 0. -1.
         24    2    1    2    0    0 -0.53742521035E+02 -0.27276364471E+02  0.34941717500E+03  0.36360260114E+03  0.80512301825E+02 0.  0.
         23    2    1    2    0    0 -0.10558302608E+03 -0.29911271695E+02  0.12601566291E+03  0.18989742868E+03  0.90214336727E+02 0.  0.
        -13    1    3    3    0    0 -0.64240376105E+02  0.34029538647E+01  0.18099604801E+03  0.19208845726E+03  0.00000000000E+00 0.  1.
         14    1    3    3    0    0  0.10497855070E+02 -0.30679318336E+02  0.16842112699E+03  0.17151414388E+03  0.00000000000E+00 0. -1.
        -13    1    4    4    0    0 -0.20985592818E+02  0.30843759922E+02  0.25786409816E+02  0.45350540937E+02  0.00000000000E+00 0.  1.
         13    1    4    4    0    0 -0.84597433264E+02 -0.60755031617E+02  0.10022925309E+03  0.14454688775E+03  0.00000000000E+00 0. -1.
          1    1    1    2  501    0  0.15932554712E+03  0.57187636166E+02  0.67089846306E+03  0.69192470937E+03  0.00000000000E+00 0. -1.
<scales pt_clust_5="13000.00000" pt_clust_6="13000.00000" pt_clust_7="13000.00000" pt_clust_8="13000.00000" pt_clust_9="13000.00000"></scales>
<clustering>
<clus scale="   80.512">  5  6 -1 -1</clus>
<clus scale="   90.214">  7  8 -1 -1</clus>
<clus scale="  100.571">  1  5  2 -1</clus>
<clus scale="  120.888">  7  9 -1 -1</clus>
<clus scale="  377.542">  2  5  1 -1</clus>
</clustering>
</event>
<event>
 9    2  0.2147756E-005  0.2230986E+03  0.7546771E-02  0.1168814E+00
          4   -1    0    0  502    0 -0.00000000000E+00  0.00000000000E+00  0.35286875825E+03  0.35286875825E+03  0.00000000000E+00 0. -1.
         21   -1    0    0  501  502  0.00000000000E+00 -0.00000000000E+00 -0.79348581248E+02  0.79348581248E+02  0.00000000000E+00 0. -1.
         24    2    1    2    0    0  0.21535763249E+02  0.30846562793E+02  0.19996760867E+02  0.94508752611E+02  0.84360739329E+02 0.  0.
         23    2    1    2    0    0  0.62451770277E+01 -0.10260273144E+03  0.18228935027E+03  0.23285144349E+03  0.10209830938E+03 0.  0.
        -11    1    3    3    0    0  0.10229409059E+02  0.58113470817E+02  0.25841822127E+02  0.64417513697E+02  0.00000000000E+00 0.  1.
         12    1    3    3    0    0  0.11306354189E+02 -0.27266908024E+02 -0.58450612600E+01  0.30091238914E+02  0.00000000000E+00 0. -1.
        -11    1    4    4    0    0  0.64607464940E+00  0.20902528212E+02  0.32261739049E+02  0.38446754149E+02  0.00000000000E+00 0.  1.
         11    1    4    4    0    0  0.55991023783E+01 -0.12350525965E+03  0.15002761122E+03  0.19440468934E+03  0.00000000000E+00 0. -1.
          3    1    1    2  501    0 -0.27780940276E+02  0.71756168648E+02  0.71234065868E+02  0.10485714340E+03  0.00000000000E+00 0. -1.
<scales pt_clust_5="13000.00000" pt_clust_6="13000.00000" pt_clust_7="13000.00000" pt_clust_8="13000.00000" pt_clust_9="13000.00000"></scales>
<clustering>
<clus scale="   84.361">  5  6 -1 -1</clus>
<clus scale="   92.369">  1  5  2 -1</clus>
<clus scale="  102.098">  7  8 -1 -1</clus>
<clus scale="   83.716">  7  9 -1 -1</clus>
<clus scale="  223.099">  2  5  1 -1</clus>
</clustering>
</event>
<event>
 9    2  0.2147756E-005  0.3090105E+03  0.7546771E-02  0.1118855E+00
         -1   -1    0    0    0  501 -0.00000000000E+00  0.00000000000E+00  0.97585824019E+02  0.97585824019E+02  0.00000000000E+00 0.  1.
         21   -1    0    0  501  502  0.00000000000E+00 -0.00000000000E+00 -0.46786853538E+03  0.46786853538E+03  0.00000000000E+00 0.  1.
         24    2    1    2    0    0  0.75321666622E+02  0.86980161692E+01 -0.13267777371E+03  0.17565495989E+03  0.86615612627E+02 0.  0.
         23    2    1    2    0    0 -0.10972160918E+03 -0.10604796007E+03 -0.22461525973E+03  0.28573644088E+03  0.88928608375E+02 0.  0.
        -11    1    3    3    0    0 -0.83068930672E+01  0.27979425217E+02 -0.36996938967E+02  0.47123520675E+02  0.00000000000E+00 0.  1.
         12    1    3    3    0    0  0.83628559689E+02 -0.19281409047E+02 -0.95680834738E+02  0.12853143922E+03  0.00000000000E+00 0. -1.
        -13    1    4    4    0    0 -0.43589573412E+02 -0.14564048371E+02 -0.13183778898E+03  0.13961864137E+03  0.00000000000E+00 0. -1.
         13    1    4    4    0    0 -0.66132035765E+02 -0.91483911702E+02 -0.92777470748E+02  0.14611779951E+03  0.00000000000E+00 0.  1.
         -2    1    1    2    0  502  0.34399942555E+02  0.97349943905E+02 -0.12989677928E+02  0.10406295863E+03  0.00000000000E+00 0.  1.
<scales pt_clust_5="13000.00000" pt_clust_6="13000.00000" pt_clust_7="13000.00000" pt_clust_8="13000.00000" pt_clust_9="13000.00000"></scales>
<clustering>
<clus scale="   86.616">  5  6 -1 -1</clus>
<clus scale="   88.929">  7  8 -1 -1</clus>
<clus scale="  103.249">  7  9 -1 -1</clus>
<clus scale="  115.114">  1  5  2 -1</clus>
<clus scale="  309.010">  2  5  1 -1</clus>
</clustering>
</event>
<event>
 9    2  0.3902637E-005  0.3791649E+03  0.7546771E-02  0.1077334E+00
          2   -1    0    0  502    0 -0.00000000000E+00  0.00000000000E+00  0.13736496129E+04  0.13736496129E+04  0.00000000000E+00 0. -1.
         21   -1    0    0  501  502  0.00000000000E+00 -0.00000000000E+00 -0.74154044571E+02  0.74154044571E+02  0.00000000000E+00 0. -1.
         24    2    1    2    0    0 -0.10451102352E+03  0.12742970361E+03  0.79922276460E+03  0.82007848658E+03  0.81306908003E+02 0.  0.
         23    2    1    2    0    0 -0.74401189553E+02  0.35861767381E+02  0.25698634397E+03  0.28441483609E+03  0.89600304889E+02 0.  0.
        -11    1    3    3    0    0 -0.10548042417E+01  0.23519984446E+02  0.36822807511E+02  0.43706080050E+02  0.00000000000E+00 0.  1.
         12    1    3    3    0    0 -0.10345621928E+03  0.10390971916E+03  0.76239995709E+03  0.77637240653E+03  0.00000000000E+00 0. -1.
        -13    1    4    4    0    0  0.17548271217E+02  0.10219709746E+02  0.88174492521E+02  0.90482735488E+02  0.00000000000E+00 0.  1.
         13    1    4    4    0    0 -0.91949460770E+02  0.25642057635E+02  0.16881185145E+03  0.19393210061E+03  0.00000000000E+00 0. -1.
          1    1    1    2  501    0  0.17891221307E+03 -0.16329147099E+03  0.24328645977E+03  0.34331033482E+03  0.00000000000E+00 0. -1.
<scales pt_clust_5="13000.00000" pt_clust_6="13000.00000" pt_clust_7="13000.00000" pt_clust_8="13000.00000" pt_clust_9="13000.00000"></scales>
<clustering>
<clus scale="   81.307">  5  6 -1 -1</clus>
<clus scale="   89.600">  7  8 -1 -1</clus>
<clus scale="  183.771">  1  5  2 -1</clus>
<clus scale="  157.891">  7  9 -1 -1</clus>
<clus scale="  379.165">  2  5  1 -1</clus>
</clustering>
</event>
<event>
 9    2  0.2147756E-005  0.3198713E+03  0.7546771E-02  0.1109803E+00
          2   -1    0    0  502    0 -0.00000000000E+00  0.00000000000E+00  0.40850813798E+03  0.40850813798E+03  0.00000000000E+00 0. -1.
         21   -1    0    0  501  502  0.00000000000E+00 -0.00000000000E+00 -0.12869678851E+03  0.12869678851E+03  0.00000000000E+00 0. -1.
         24    2    1    2    0    0  0.33801499472E+02  0.79709224189E+02  0.12935532570E+03  0.18371563994E+03  0.97583473426E+02 0.  0.
         23    2    1    2    0    0  0.35330803196E+02  0.23757927745E+02  0.19623385222E+03  0.22089842570E+03  0.92063483175E+02 0.  0.
        -13    1    3    3    0    0  0.58506157515E+01  0.79538289042E+02  0.38311838168E+02  0.88478054185E+02  0.00000000000E+00 0.  1.
         14    1    3    3    0    0  0.27950883720E+02  0.17093514688E+00  0.91043487529E+02  0.95237585758E+02  0.00000000000E+00 0. -1.
        -13    1    4    4    0    0  0.18590977269E+02  0.46775192596E+02  0.46638943586E+02  0.68620216679E+02  0.00000000000E+00 0. -1.
         13    1    4    4    0    0  0.16739825926E+02 -0.23017264852E+02  0.14959490863E+03  0.15227820902E+03  0.00000000000E+00 0.  1.
          1    1    1    2  501    0 -0.69132302668E+02 -0.10346715193E+03 -0.45777828444E+02  0.13259086084E+03  0.00000000000E+00 0. -1.
<scales pt_clust_5="13000.00000" pt_clust_6="13000.00000" pt_clust_7="13000.00000" pt_clust_8="13000.00000" pt_clust_9="13000.00000"></scales>
<clustering>
<clus scale="   92.063">  7  8 -1 -1</clus>
<clus scale="   97.583">  5  6 -1 -1</clus>
<clus scale="  124.438">  7  9 -1 -1</clus>
<clus scale="  130.455">  1  5  2 -1</clus>
<clus scale="  319.871">  2  5  1 -1</clus>
</clustering>
</event>
<event>
 9    2  0.2147756E-005  0.4063365E+03  0.7546771E-02  0.1096735E+00
          4   -1    0    0  502    0 -0.00000000000E+00  0.00000000000E+00  0.69960428493E+03  0.69960428493E+03  0.00000000000E+00 0. -1.
         21   -1    0    0  501  502  0.00000000000E+00 -0.00000000000E+00 -0.11016029446E+03  0.11016029446E+03  0.00000000000E+00 0.  1.
         24    2    1    2    0    0 -0.18698349395E+02 -0.31709438389E+02  0.29442055362E+03  0.30762098790E+03  0.81191705554E+02 0.  0.
         23    2    1    2    0    0  0.13683533821E+03  0.28996323109E+02 -0.19302499986E+02  0.16633932754E+03  0.87928885146E+02 0.  0.
        -13    1    3    3    0    0 -0.10537531626E+02  0.27202814583E+02  0.11274875112E+03  0.11646163992E+03  0.00000000000E+00 0.  1.
         14    1    3    3    0    0 -0.81608177690E+01 -0.58912252971E+02  0.18167180250E+03  0.19115934798E+03  0.00000000000E+00 0. -1.
        -11    1    4    4    0    0  0.11416806758E+03 -0.33884273040E+01 -0.40868368406E+02  0.12130973840E+03  0.00000000000E+00 0.  1.
         11    1    4    4    0    0  0.22667270628E+02  0.32384750413E+02  0.21565868420E+02  0.45029589136E+02  0.00000000000E+00 0. -1.
          3    1    1    2  501    0 -0.11813698881E+03  0.27131152793E+01  0.31432593684E+03  0.33580426396E+03  0.00000000000E+00 0. -1.
<scales pt_clust_5="13000.00000" pt_clust_6="13000.00000" pt_clust_7="13000.00000" pt_clust_8="13000.00000" pt_clust_9="13000.00000"></scales>
<clustering>
<clus scale="   81.192">  5  6 -1 -1</clus>
<clus scale="   87.929">  7  8 -1 -1</clus>
<clus scale="   89.147">  1  5  2 -1</clus>
<clus scale="  135.380">  7  9 -1 -1</clus>
<clus scale="  406.337">  2  5  1 -1</clus>
</clustering>
</event>
<event>
 9    2  0.2147756E-005  0.2153305E+03  0.7546771E-02  0.1185434E+00
          2   -1    0    0  502    0 -0.00000000000E+00  0.00000000000E+00  0.19907722317E+03  0.19907722317E+03  0.00000000000E+00 0. -1.
         21   -1    0    0  501  502  0.00000000000E+00 -0.00000000000E+00 -0.20741416521E+03  0.20741416521E+03  0.00000000000E+00 0. -1.
         24    2    1    2    0    0 -0.21481112056E+02 -0.36934096004E+01  0.13184986241E+03  0.14954864935E+03  0.67121776323E+02 0.  0.
         23    2    1    2    0    0  0.19185394561E+02  0.45957840831E+02 -0.17378736074E+03  0.20290062722E+03  0.92121741600E+02 0.  0.
        -11    1    3    3    0    0 -0.42744575111E+02 -0.10197363046E+02  0.10964939396E+03  0.11812736563E+03  0.00000000000E+00 0.  1.
         12    1    3    3    0    0  0.21263463055E+02  0.65039534459E+01  0.22200468443E+02  0.31421283720E+02  0.00000000000E+00 0. -1.
        -11    1    4    4    0    0  0.42804986501E+02  0.24630024274E+02 -0.16133993442E+03  0.16872901174E+03  0.00000000000E+00 0. -1.
         11    1    4    4    0    0 -0.23619591940E+02  0.21327816557E+02 -0.12447426323E+02  0.34171615481E+02  0.00000000000E+00 0.  1.
          1    1    1    2  501    0  0.22957174948E+01 -0.42264431231E+02  0.33600556288E+02  0.54042111811E+02  0.00000000000E+00 0. -1.
<scales pt_clust_5="13000.00000" pt_clust_6="13000.00000" pt_clust_7="13000.00000" pt_clust_8="13000.00000" pt_clust_9="13000.00000"></scales>
<clustering>
<clus scale="   67.122">  5  6 -1 -1</clus>
<clus scale="   70.572">  1  5  2 -1</clus>
<clus scale="   92.122">  7  8 -1 -1</clus>
<clus scale="   47.112">  7  9 -1 -1</clus>
<clus scale="  215.331">  2  5  1 -1</clus>
</clustering>
</event>
<event>
 9    2  0.2147756E-005  0.5717973E+03  0.7546771E-02  0.1001212E+00
         21   -1    0    0  501  502  0.00000000000E+00  0.00000000000E+00  0.53062020277E+03  0.53062020277E+03  0.00000000000E+00 0. -1.
          2   -1    0    0  502    0 -0.00000000000E+00 -0.00000000000E+00 -0.84148201496E+03  0.84148201496E+03  0.00000000000E+00 0. -1.
         24    2    1    2    0    0 -0.42077576338E+02 -0.48531231195E+03 -0.56152564301E+03  0.74777500767E+03  0.80980564184E+02 0.  0.
         23    2    1    2    0    0  0.76824777502E+01  0.30031353884E+03  0.18235013873E+02  0.32527750882E+03  0.12339246306E+03 0.  0.
        -13    1    3    3    0    0  0.13511615963E+02 -0.19764802896E+03 -0.18864019080E+03  0.27355516574E+03  0.00000000000E+00 0.  1.
         14    1    3    3    0    0 -0.55589192301E+02 -0.28766428299E+03 -0.37288545222E+03  0.47421984194E+03  0.00000000000E+00 0. -1.
        -13    1    4    4    0    0  0.44373473990E+02  0.35022870069E+02 -0.30887558717E+01  0.56614018004E+02  0.00000000000E+00 0. -1.
         13    1    4    4    0    0 -0.36690996240E+02  0.26529066877E+03  0.21323769745E+02  0.26866349082E+03  0.00000000000E+00 0.  1.
          1    1    1    2  501    0  0.34395098588E+02  0.18499877311E+03  0.23242881695E+03  0.29904970123E+03  0.00000000000E+00 0. -1.
<scales pt_clust_5="13000.00000" pt_clust_6="13000.00000" pt_clust_7="13000.00000" pt_clust_8="13000.00000" pt_clust_9="13000.00000"></scales>
<clustering>
<clus scale="   80.981">  5  6 -1 -1</clus>
<clus scale="  123.392">  7  8 -1 -1</clus>
<clus scale="  188.169">  7  9 -1 -1</clus>
<clus scale="  493.818">  2  5  1 -1</clus>
<clus scale="  571.797">  1  5  2 -1</clus>
</clustering>
</event>
<event>
 9    2  0.2147756E-005  0.2506329E+03  0.7546771E-02  0.1139222E+00
          2   -1    0    0  502    0 -0.00000000000E+00  0.00000000000E+00  0.15376034090E+04  0.15376034090E+04  0.00000000000E+00 0. -1.
         21   -1    0    0  501  502  0.00000000000E+00 -0.00000000000E+00 -0.25585949051E+02  0.25585949051E+02  0.00000000000E+00 0.  1.
         24    2    1    2    0    0 -0.10566795922E+02 -0.99559730089E+02  0.74155178946E+03  0.75298309966E+03  0.84027941108E+02 0.  0.
         23    2    1    2    0    0  0.94736716682E+02  0.22328332396E+02  0.36113772665E+03  0.38523728311E+03  0.92269750022E+02 0.  0.
        -11    1    3    3    0    0  0.13234906757E+02 -0.31958174407E+02  0.75034213515E+02  0.82623367555E+02  0.00000000000E+00 0.  1.
         12    1    3    3    0    0 -0.23801702678E+02 -0.67601555682E+02  0.66651757595E+03  0.67035973210E+03  0.00000000000E+00 0. -1.
        -13    1    4    4    0    0  0.10691514712E+02  0.45090850172E+02  0.14477660875E+03  0.15201236692E+03  0.00000000000E+00 0. -1.
         13    1    4    4    0    0  0.84045201970E+02 -0.22762517776E+02  0.21636111790E+03  0.23322491618E+03  0.00000000000E+00 0.  1.
          1    1    1    2  501    0 -0.84169920761E+02  0.77231397692E+02  0.40932794385E+03  0.42496897530E+03  0.00000000000E+00 0. -1.
<scales pt_clust_5="13000.00000" pt_clust_6="13000.00000" pt_clust_7="13000.00000" pt_clust_8="13000.00000" pt_clust_9="13000.00000"></scales>
<clustering>
<clus scale="   84.028">  5  6 -1 -1</clus>
<clus scale="   92.270">  7  8 -1 -1</clus>
<clus scale="  114.233">  7  9 -1 -1</clus>
<clus scale="  130.708">  1  5  2 -1</clus>
<clus scale="  250.633">  2  5  1 -1</clus>
</clustering>
</event>
<event>
 9    2  0.2147756E-005  0.1630845E+03  0.7546771E-02  0.1207315E+00
         21   -1    0    0  501  502  0.00000000000E+00  0.00000000000E+00  0.35423008407E+03  0.35423008407E+03  0.00000000000E+00 0.  1.
          2   -1    0    0  502    0 -0.00000000000E+00 -0.00000000000E+00 -0.18082871773E+03  0.18082871773E+03  0.00000000000E+00 0. -1.
         24    2    1    2    0    0  0.56491316365E+02 -0.74064278245E+01 -0.14545881593E+03  0.17691306436E+03  0.83029158809E+02 0.  0.
         23    2    1    2    0    0 -0.88368918668E+02  0.22602911132E+02  0.25788639272E+03  0.28768356570E+03  0.89086952167E+02 0.  0.
        -11    1    3    3    0    0  0.20980843259E+01  0.24705309088E+02 -0.87076449668E+01  0.26278838175E+02  0.00000000000E+00 0.  1.
         12    1    3    3    0    0  0.54393232039E+02 -0.32111736913E+02 -0.13675117096E+03  0.15063422619E+03  0.00000000000E+00 0. -1.
        -13    1    4    4    0    0 -0.35635641142E+02  0.66029479291E+01  0.21451769646E+03  0.21755767037E+03  0.00000000000E+00 0.  1.
         13    1    4    4    0    0 -0.52733277525E+02  0.15999963203E+02  0.43368696258E+02  0.70125895332E+02  0.00000000000E+00 0. -1.
          1    1    1    2  501    0  0.31877602303E+02 -0.15196483307E+02  0.60973789553E+02  0.70462171737E+02  0.00000000000E+00 0. -1.
<scales pt_clust_5="13000.00000" pt_clust_6="13000.00000" pt_clust_7="13000.00000" pt_clust_8="13000.00000" pt_clust_9="13000.00000"></scales>
<clustering>
<clus scale="   83.029">  5  6 -1 -1</clus>
<clus scale="   89.087">  7  8 -1 -1</clus>
<clus scale="   35.315">  7  9 -1 -1</clus>
<clus scale="  100.697">  2  5  1 -1</clus>
<clus scale="  163.084">  1  5  2 -1</clus>
</clustering>
</event>
<event>
 9    2  0.2147756E-005  0.5626869E+03  0.7546771E-02  0.1029037E+00
          2   -1    0    0  502    0 -0.00000000000E+00  0.00000000000E+00  0.12868509136E+04  0.12868509136E+04  0.00000000000E+00 0. -1.
         21   -1    0    0  501  502  0.00000000000E+00 -0.00000000000E+00 -0.12255012008E+03  0.12255012008E+03  0.00000000000E+00 0. -1.
         24    2    1    2    0    0  0.29630758003E+02 -0.20357326374E+03  0.43689925559E+03  0.48976547809E+03  0.81665221875E+02 0.  0.
         23    2    1    2    0    0 -0.35370118021E+02 -0.15932858104E+03  0.34391505549E+03  0.39162743878E+03  0.91966534296E+02 0.  0.
        -13    1    3    3    0    0  0.45707284484E+02 -0.54339223655E+02  0.15092503014E+03  0.16679410003E+03  0.00000000000E+00 0.  1.
         14    1    3    3    0    0 -0.16076526481E+02 -0.14923404008E+03  0.28597422545E+03  0.32297137806E+03  0.00000000000E+00 0. -1.
        -11    1    4    4    0    0 -0.58536174660E+02 -0.15206429219E+03  0.29454549481E+03  0.33661117215E+03  0.00000000000E+00 0.  1.
         11    1    4    4    0    0  0.23166056639E+02 -0.72642888528E+01  0.49369560674E+02  0.55016266630E+02  0.00000000000E+00 0. -1.
          1    1    1    2  501    0  0.57393600182E+01  0.36290184478E+03  0.38348648246E+03  0.52800811682E+03  0.00000000000E+00 0. -1.
<scales pt_clust_5="13000.00000" pt_clust_6="13000.00000" pt_clust_7="13000.00000" pt_clust_8="13000.00000" pt_clust_9="13000.00000"></scales>
<clustering>
<clus scale="   81.665">  5  6 -1 -1</clus>
<clus scale="   91.967">  7  8 -1 -1</clus>
<clus scale="  221.335">  1  5  2 -1</clus>
<clus scale="  251.219">  7  9 -1 -1</clus>
<clus scale="  562.687">  2  5  1 -1</clus>
</clustering>
</event>
<event>
 9    2  0.2147756E-005  0.3195887E+03  0.7546771E-02  0.1122065E+00
         21   -1    0    0  501  502  0.00000000000E+00  0.00000000000E+00  0.18188597860E+03  0.18188597860E+03  0.00000000000E+00 0.  1.
          2   -1    0    0  502    0 -0.00000000000E+00 -0.00000000000E+00 -0.23827040737E+03  0.23827040737E+03  0.00000000000E+00 0. -1.
         24    2    1    2    0    0 -0.46202155958E+02 -0.25607577895E+02 -0.25880460501E+01  0.96071506243E+02  0.80203797096E+02 0.  0.
         23    2    1    2    0    0 -0.11193845670E+03  0.62444634622E+02 -0.40790411923E+02  0.16119050476E+03  0.88819877503E+02 0.  0.
        -11    1    3    3    0    0 -0.28720586422E+02 -0.53972288969E+02  0.66410685038E+01  0.61497836156E+02  0.00000000000E+00 0.  1.
         12    1    3    3    0    0 -0.17481569536E+02  0.28364711075E+02 -0.92291145539E+01  0.34573670086E+02  0.00000000000E+00 0. -1.
        -13    1    4    4    0    0 -0.95090261666E+02  0.51341492015E+02 -0.67727047299E+02  0.12753454278E+03  0.00000000000E+00 0.  1.
         13    1    4    4    0    0 -0.16848195031E+02  0.11103142608E+02  0.26936635376E+02  0.33655961982E+02  0.00000000000E+00 0. -1.
          1    1    1    2  501    0  0.15814061265E+03 -0.36837056728E+02 -0.13005970803E+02  0.16289437497E+03  0.00000000000E+00 0. -1.
<scales pt_clust_5="13000.00000" pt_clust_6="13000.00000" pt_clust_7="13000.00000" pt_clust_8="13000.00000" pt_clust_9="13000.00000"></scales>
<clustering>
<clus scale="   80.204">  5  6 -1 -1</clus>
<clus scale="   88.820">  7  8 -1 -1</clus>
<clus scale="   96.037">  2  5  1 -1</clus>
<clus scale="  145.073">  7  9 -1 -1</clus>
<clus scale="  319.589">  1  5  2 -1</clus>
</clustering>
</event>
<event>
 9    2  0.2147756E-005  0.2450340E+03  0.7546771E-02  0.1160174E+00
          2   -1    0    0  502    0 -0.00000000000E+00  0.00000000000E+00  0.13217200518E+04  0.13217200518E+04  0.00000000000E+00 0. -1.
         21   -1    0    0  501  502  0.00000000000E+00 -0.00000000000E+00 -0.22303706546E+02  0.22303706546E+02  0.00000000000E+00 0.  1.
         24    2    1    2    0    0  0.25927708135E+02 -0.19561297742E+02  0.19524379877E+03  0.21298941412E+03  0.78673115798E+02 0.  0.
         23    2    1    2    0    0  0.23229735708E+02  0.92297233571E+02  0.39446682157E+03  0.41591953763E+03  0.91250142545E+02 0.  0.
        -11    1    3    3    0    0 -0.21786389093E+02  0.77178590014E+01  0.10343930715E+03  0.10599010502E+03  0.00000000000E+00 0.  1.
         12    1    3    3    0    0  0.47714097228E+02 -0.27279156743E+02  0.91804491619E+02  0.10699930910E+03  0.00000000000E+00 0. -1.
        -11    1    4    4    0    0 -0.10187785171E+02  0.73207744657E+02  0.34713110843E+03  0.35491290661E+03  0.00000000000E+00 0. -1.
         11    1    4    4    0    0  0.33417520879E+02  0.19089488913E+02  0.47335713146E+02  0.61006631015E+02  0.00000000000E+00 0.  1.
          1    1    1    2  501    0 -0.49157443843E+02 -0.72735935829E+02  0.70970572494E+03  0.71511480663E+03  0.00000000000E+00 0. -1.
<scales pt_clust_5="13000.00000" pt_clust_6="13000.00000" pt_clust_7="13000.00000" pt_clust_8="13000.00000" pt_clust_9="13000.00000"></scales>
<clustering>
<clus scale="   78.673">  5  6 -1 -1</clus>
<clus scale="   85.114">  1  5  2 -1</clus>
<clus scale="   91.250">  7  8 -1 -1</clus>
<clus scale="   91.239">  7  9 -1 -1</clus>
<clus scale="  245.034">  2  5  1 -1</clus>
</clustering>
</event>
<event>
 9    2  0.3016098E-005  0.4068634E+03  0.7546771E-02  0.1079659E+00
          2   -1    0    0  502    0 -0.00000000000E+00  0.00000000000E+00  0.15089340425E+04  0.15089340425E+04  0.00000000000E+00 0. -1.
         21   -1    0    0  501  502  0.00000000000E+00 -0.00000000000E+00 -0.84957484162E+02  0.84957484162E+02  0.00000000000E+00 0. -1.
         24    2    1    2    0    0 -0.23379448103E+02 -0.11675219855E+03  0.98696925624E+03  0.99680427182E+03  0.73025811148E+02 0.  0.
         23    2    1    2    0    0  0.66788871544E+02 -0.89708981844E+02  0.32887834118E+03  0.36001665512E+03  0.94565183227E+02 0.  0.
        -11    1    3    3    0    0 -0.79015044287E+01 -0.62704784069E+02  0.25637515023E+03  0.26405026296E+03  0.00000000000E+00 0.  1.
         12    1    3    3    0    0 -0.15477943674E+02 -0.54047414483E+02  0.73059410601E+03  0.73275400885E+03  0.00000000000E+00 0. -1.
        -13    1    4    4    0    0  0.27356956728E+02  0.57583561137E+01  0.15715757814E+03  0.15962476660E+03  0.00000000000E+00 0.  1.
         13    1    4    4    0    0  0.39431914816E+02 -0.95467337958E+02  0.17172076304E+03  0.20039188851E+03  0.00000000000E+00 0. -1.
          1    1    1    2  501    0 -0.43409423441E+02  0.20646118040E+03  0.10812896087E+03  0.23707059968E+03  0.00000000000E+00 0. -1.
<scales pt_clust_5="13000.00000" pt_clust_6="13000.00000" pt_clust_7="13000.00000" pt_clust_8="13000.00000" pt_clust_9="13000.00000"></scales>
<clustering>
<clus scale="   73.026">  5  6 -1 -1</clus>
<clus scale="   94.565">  7  8 -1 -1</clus>
<clus scale="  139.680">  1  5  2 -1</clus>
<clus scale="  175.142">  7  9 -1 -1</clus>
<clus scale="  406.863">  2  5  1 -1</clus>
</clustering>
</event>
<event>
 9    2  0.2147756E-005  0.2201937E+03  0.7546771E-02  0.1169686E+00
          2   -1    0    0  502    0 -0.00000000000E+00  0.00000000000E+00  0.66912945838E+03  0.66912945838E+03  0.00000000000E+00 0. -1.
         21   -1    0    0  501  502  0.00000000000E+00 -0.00000000000E+00 -0.49931544918E+02  0.49931544918E+02  0.00000000000E+00 0. -1.
         24    2    1    2    0    0  0.39747529233E+02 -0.28819357568E+02  0.39008018313E+03  0.40128720539E+03  0.80364485235E+02 0.  0.
         23    2    1    2    0    0  0.26899444872E+02 -0.52619621171E+02  0.15396919782E+03  0.18846243586E+03  0.91209490668E+02 0.  0.
        -13    1    3    3    0    0  0.56352703317E+02  0.26190951483E+01  0.19511893414E+03  0.20311052482E+03  0.00000000000E+00 0.  1.
         14    1    3    3    0    0 -0.16605174084E+02 -0.31438452717E+02  0.19496124899E+03  0.19817668057E+03  0.00000000000E+00 0. -1.
        -11    1    4    4    0    0  0.14926985307E+02  0.25216115788E+02  0.33159926909E+02  0.44252097559E+02  0.00000000000E+00 0.  1.
         11    1    4    4    0    0  0.11972459566E+02 -0.77835736959E+02  0.12080927091E+03  0.14421033830E+03  0.00000000000E+00 0. -1.
          1    1    1    2  501    0 -0.66646974106E+02  0.81438978740E+02  0.75148532516E+02  0.12931136205E+03  0.00000000000E+00 0. -1.
<scales pt_clust_5="13000.00000" pt_clust_6="13000.00000" pt_clust_7="13000.00000" pt_clust_8="13000.00000" pt_clust_9="13000.00000"></scales>
<clustering>
<clus scale="   80.364">  5  6 -1 -1</clus>
<clus scale="   91.209">  7  8 -1 -1</clus>
<clus scale="   94.175">  1  5  2 -1</clus>
<clus scale="   87.609">  7  9 -1 -1</clus>
<clus scale="  220.194">  2  5  1 -1</clus>
</clustering>
</event>
<event>
 9    2  0.2147756E-005  0.2738087E+03  0.7546771E-02  0.1128063E+00
         -3   -1    0    0    0  501 -0.00000000000E+00  0.00000000000E+00  0.56816745255E+03  0.56816745255E+03  0.00000000000E+00 0.  1.
         21   -1    0    0  501  502  0.00000000000E+00 -0.00000000000E+00 -0.15134930495E+03  0.15134930495E+03  0.00000000000E+00 0.  1.
         24    2    1    2    0    0 -0.10379449681E+03  0.20190214868E+01  0.42568113668E+03  0.44556462357E+03  0.80907537556E+02 0.  0.
         23    2    1    2    0    0  0.19231711417E+02 -0.71055636270E+02  0.72542293452E+02  0.13777673645E+03  0.91111374697E+02 0.  0.
        -11    1    3    3    0    0 -0.21685573179E+02 -0.31611683342E+02  0.18783685883E+03  0.19170875865E+03  0.00000000000E+00 0.  1.
         12    1    3    3    0    0 -0.82108923627E+02  0.33630704829E+02  0.23784427785E+03  0.25385586492E+03  0.00000000000E+00 0. -1.
        -11    1    4    4    0    0  0.37889032036E+01 -0.85780798408E+02  0.31391710697E+02  0.91422867289E+02  0.00000000000E+00 0.  1.
         11    1    4    4    0    0  0.15442808213E+02  0.14725162138E+02  0.41150582755E+02  0.46353869165E+02  0.00000000000E+00 0. -1.
         -4    1    1    2    0  502  0.84562785390E+02  0.69036614783E+02 -0.81405282535E+02  0.13617539748E+03  0.00000000000E+00 0.  1.
<scales pt_clust_5="13000.00000" pt_clust_6="13000.00000" pt_clust_7="13000.00000" pt_clust_8="13000.00000" pt_clust_9="13000.00000"></scales>
<clustering>
<clus scale="   80.908">  5  6 -1 -1</clus>
<clus scale="   91.111">  7  8 -1 -1</clus>
<clus scale="  109.165">  7  9 -1 -1</clus>
<clus scale="  131.618">  1  5  2 -1</clus>
<clus scale="  273.809">  2  5  1 -1</clus>
</clustering>
</event>
<event>
 9    2  0.2147756E-005  0.2311345E+03  0.7546771E-02  0.1163481E+00
          2   -1    0    0  502    0 -0.00000000000E+00  0.00000000000E+00  0.37476115413E+02  0.37476115413E+02  0.00000000000E+00 0. -1.
         21   -1    0    0  501  502  0.00000000000E+00 -0.00000000000E+00 -0.84813197978E+03  0.84813197978E+03  0.00000000000E+00 0. -1.
         24    2    1    2    0    0 -0.40620210382E+02  0.36753306352E+02 -0.95146224344E+02  0.13369240172E+03  0.76289234175E+02 0.  0.
         23    2    1    2    0    0 -0.19532519220E+02  0.42567052622E+02 -0.18966136074E+03  0.21672742468E+03  0.93839605586E+02 0.  0.
        -11    1    3    3    0    0 -0.34212568488E+02 -0.14282325532E+02 -0.62812037189E+02  0.72937210537E+02  0.00000000000E+00 0.  1.
         12    1    3    3    0    0 -0.64076418946E+01  0.51035631884E+02 -0.32334187156E+02  0.60755191182E+02  0.00000000000E+00 0. -1.
        -13    1    4    4    0    0  0.13775174403E+01  0.58591236036E+02 -0.17892618694E+03  0.18828013934E+03  0.00000000000E+00 0. -1.
         13    1    4    4    0    0 -0.20910036660E+02 -0.16024183414E+02 -0.10735173796E+02  0.28447285347E+02  0.00000000000E+00 0.  1.
          1    1    1    2  501    0  0.60152729602E+02 -0.79320358974E+02 -0.52584827929E+03  0.53518826879E+03  0.00000000000E+00 0. -1.
<scales pt_clust_5="13000.00000" pt_clust_6="13000.00000" pt_clust_7="13000.00000" pt_clust_8="13000.00000" pt_clust_9="13000.00000"></scales>
<clustering>
<clus scale="   76.289">  5  6 -1 -1</clus>
<clus scale="   93.840">  7  8 -1 -1</clus>
<clus scale="   93.919">  1  5  2 -1</clus>
<clus scale="   85.779">  7  9 -1 -1</clus>
<clus scale="  231.135">  2  5  1 -1</clus>
</clustering>
</event>
<event>
 9    2  0.2147756E-005  0.2750241E+03  0.7546771E-02  0.1121001E+00
         21   -1    0    0  501  502  0.00000000000E+00  0.00000000000E+00  0.18140611884E+03  0.18140611884E+03  0.00000000000E+00 0. -1.
          2   -1    0    0  502    0 -0.00000000000E+00 -0.00000000000E+00 -0.25495796570E+03  0.25495796570E+03  0.00000000000E+00 0. -1.
         24    2    1    2    0    0  0.73020815802E+02  0.10806461672E+03 -0.18031519246E+02  0.15579192511E+03  0.83282575091E+02 0.  0.
         23    2    1    2    0    0 -0.20649246638E+02  0.16115407935E+02  0.51570898751E+02  0.10843270856E+03  0.91716939156E+02 0.  0.
        -13    1    3    3    0    0 -0.17603643111E+02  0.26693835127E+02 -0.10922275821E+02  0.33789720236E+02  0.00000000000E+00 0.  1.
         14    1    3    3    0    0  0.90624458912E+02  0.81370781598E+02 -0.71092434251E+01  0.12200220487E+03  0.00000000000E+00 0. -1.
        -11    1    4    4    0    0  0.14384421828E+02 -0.26077510287E+02 -0.43621071234E+01  0.30099437082E+02  0.00000000000E+00 0.  1.
         11    1    4    4    0    0 -0.35033668466E+02  0.42192918222E+02  0.55933005874E+02  0.78333271478E+02  0.00000000000E+00 0. -1.
          1    1    1    2  501    0 -0.52371569164E+02 -0.12418002466E+03 -0.10709122637E+03  0.17213945087E+03  0.00000000000E+00 0. -1.
<scales pt_clust_5="13000.00000" pt_clust_6="13000.00000" pt_clust_7="13000.00000" pt_clust_8="13000.00000" pt_clust_9="13000.00000"></scales>
<clustering>
<clus scale="   83.283">  5  6 -1 -1</clus>
<clus scale="   91.717">  7  8 -1 -1</clus>
<clus scale="  134.772">  7  9 -1 -1</clus>
<clus scale="  154.745">  2  5  1 -1</clus>
<clus scale="  275.024">  1  5  2 -1</clus>
</clustering>
</event>
<event>
 9    2  0.2147756E-005  0.2750932E+03  0.7546771E-02  0.1140766E+00
         -3   -1    0    0    0  501 -0.00000000000E+00  0.00000000000E+00  0.54616938594E+03  0.54616938594E+03  0.00000000000E+00 0.  1.
         21   -1    0    0  501  502  0.00000000000E+00 -0.00000000000E+00 -0.90364235501E+02  0.90364235501E+02  0.00000000000E+00 0. -1.
         24    2    1    2    0    0  0.27958304044E+01  0.36300070060E+02  0.31181638504E+03  0.32603562170E+03  0.88001459536E+02 0.  0.
         23    2    1    2    0    0 -0.44447312733E+02 -0.86262196173E+02 -0.18754997893E+02  0.13523650222E+03  0.92306183370E+02 0.  0.
        -11    1    3    3    0    0 -0.38008883564E+02  0.38797647160E+02  0.17315484784E+03  0.18147323215E+03  0.00000000000E+00 0.  1.
         12    1    3    3    0    0  0.40804713969E+02 -0.24975770997E+01  0.13866153720E+03  0.14456238955E+03  0.00000000000E+00 0. -1.
        -11    1    4    4    0    0 -0.68134953300E+02 -0.86648620694E+02 -0.14797888941E+02  0.11121750243E+03  0.00000000000E+00 0. -1.
         11    1    4    4    0    0  0.23687640567E+02  0.38642452148E+00 -0.39571089524E+01  0.24018999788E+02  0.00000000000E+00 0.  1.
         -4    1    1    2    0  502  0.41651482328E+02  0.49962126113E+02  0.16274376329E+03  0.17526149753E+03  0.00000000000E+00 0.  1.
<scales pt_clust_5="13000.00000" pt_clust_6="13000.00000" pt_clust_7="13000.00000" pt_clust_8="13000.00000" pt_clust_9="13000.00000"></scales>
<clustering>
<clus scale="   88.001">  5  6 -1 -1</clus>
<clus scale="   92.306">  7  8 -1 -1</clus>
<clus scale="   65.047">  7  9 -1 -1</clus>
<clus scale="   95.235">  1  5  2 -1</clus>
<clus scale="  275.093">  2  5  1 -1</clus>
</clustering>
</event>
<event>
 9    2  0.2147756E-005  0.3393316E+03  0.7546771E-02  0.1104937E+00
          2   -1    0    0  502    0 -0.00000000000E+00  0.00000000000E+00  0.43182521788E+03  0.43182521788E+03  0.00000000000E+00 0. -1.
         21   -1    0    0  501  502  0.00000000000E+00 -0.00000000000E+00 -0.14357329999E+03  0.14357329999E+03  0.00000000000E+00 0. -1.
         24    2    1    2    0    0  0.18455360385E+02  0.93166827386E+02  0.18147860194E+03  0.21966477489E+03  0.79356614817E+02 0.  0.
         23    2    1    2    0    0  0.13897557568E+03 -0.36173114681E+02  0.34538294000E+02  0.17338604949E+03  0.90813674876E+02 0.  0.
        -11    1    3    3    0    0 -0.23503128892E+02  0.24524451503E+01  0.39631663599E+02  0.46141958286E+02  0.00000000000E+00 0.  1.
         12    1    3    3    0    0  0.41958489277E+02  0.90714382236E+02  0.14184693834E+03  0.17352281661E+03  0.00000000000E+00 0. -1.
        -13    1    4    4    0    0  0.11750707509E+03 -0.32848936871E+01 -0.49960139795E+01  0.11765909816E+03  0.00000000000E+00 0. -1.
         13    1    4    4    0    0  0.21468500589E+02 -0.32888220994E+02  0.39534307980E+02  0.55726951335E+02  0.00000000000E+00 0.  1.
          1    1    1    2  501    0 -0.15743093607E+03 -0.56993712705E+02  0.72235021949E+02  0.18234769347E+03  0.00000000000E+00 0. -1.
<scales pt_clust_5="13000.00000" pt_clust_6="13000.00000" pt_clust_7="13000.00000" pt_clust_8="13000.00000" pt_clust_9="13000.00000"></scales>
<clustering>
<clus scale="   79.357">  5  6 -1 -1</clus>
<clus scale="   90.814">  7  8 -1 -1</clus>
<clus scale="  123.766">  1  5  2 -1</clus>
<clus scale="  147.383">  7  9 -1 -1</clus>
<clus scale="  339.332">  2  5  1 -1</clus>
</clustering>
</event>
<event>
 9    2  0.2147756E-005  0.3521578E+03  0.7546771E-02  0.1108476E+00
          2   -1    0    0  502    0 -0.00000000000E+00  0.00000000000E+00  0.10780310343E+04  0.10780310343E+04  0.00000000000E+00 0. -1.
         21   -1    0    0  501  502  0.00000000000E+00 -0.00000000000E+00 -0.10911472551E+03  0.10911472551E+03  0.00000000000E+00 0. -1.
         24    2    1    2    0    0 -0.30281995884E+01  0.62042320295E+02  0.78189438428E+03  0.78840735727E+03  0.79805471855E+02 0.  0.
         23    2    1    2    0    0  0.10089818252E+03 -0.10130346220E+03 -0.16956892059E+02  0.16911408233E+03  0.88708522493E+02 0.  0.
        -11    1    3    3    0    0  0.30827347033E+02  0.58963173358E+01  0.15871611008E+03  0.16178966433E+03  0.00000000000E+00 0.  1.
         12    1    3    3    0    0 -0.33855546621E+02  0.56146002959E+02  0.62317827420E+03  0.62661769295E+03  0.00000000000E+00 0. -1.
        -13    1    4    4    0    0  0.69616742077E+02 -0.10862336349E+03  0.67400558995E+01  0.12919347595E+03  0.00000000000E+00 0. -1.
         13    1    4    4    0    0  0.31281440443E+02  0.73199012917E+01 -0.23696947958E+02  0.39920606379E+02  0.00000000000E+00 0.  1.
          1    1    1    2  501    0 -0.97869982932E+02  0.39261141905E+02  0.20397881661E+03  0.22962432025E+03  0.00000000000E+00 0. -1.
<scales pt_clust_5="13000.00000" pt_clust_6="13000.00000" pt_clust_7="13000.00000" pt_clust_8="13000.00000" pt_clust_9="13000.00000"></scales>
<clustering>
<clus scale="   79.805">  5  6 -1 -1</clus>
<clus scale="   88.709">  7  8 -1 -1</clus>
<clus scale="  101.130">  1  5  2 -1</clus>
<clus scale="  131.450">  7  9 -1 -1</clus>
<clus scale="  352.158">  2  5  1 -1</clus>
</clustering>
</event>
<event>
 9    2  0.2147756E-005  0.3072444E+03  0.7546771E-02  0.1107509E+00
         21   -1    0    0  501  502  0.00000000000E+00  0.00000000000E+00  0.73741095506E+02  0.73741095506E+02  0.00000000000E+00 0. -1.
          2   -1    0    0  502    0 -0.00000000000E+00 -0.00000000000E+00 -0.11253289702E+04  0.11253289702E+04  0.00000000000E+00 0. -1.
         24    2    1    2    0    0  0.12531915749E+03  0.39900298594E+02 -0.75870381423E+03  0.77459372310E+03  0.84065647420E+02 0.  0.
         23    2    1    2    0    0  0.37761017912E+02  0.57702662473E+02 -0.79885764014E+02  0.13901223644E+03  0.90483008671E+02 0.  0.
        -13    1    3    3    0    0 -0.54017338323E+01  0.20124652572E+02 -0.60628104229E+02  0.64108871398E+02  0.00000000000E+00 0.  1.
         14    1    3    3    0    0  0.13072089132E+03  0.19775646022E+02 -0.69807571001E+03  0.71048485171E+03  0.00000000000E+00 0. -1.
        -13    1    4    4    0    0 -0.24269435723E+02  0.16054570379E+02 -0.51372324195E+02  0.59041260434E+02  0.00000000000E+00 0.  1.
         13    1    4    4    0    0  0.62030453636E+02  0.41648092094E+02 -0.28513439819E+02  0.79970976008E+02  0.00000000000E+00 0. -1.
          1    1    1    2  501    0 -0.16308017540E+03 -0.97602961067E+02 -0.21299829646E+03  0.28546410617E+03  0.00000000000E+00 0. -1.
<scales pt_clust_5="13000.00000" pt_clust_6="13000.00000" pt_clust_7="13000.00000" pt_clust_8="13000.00000" pt_clust_9="13000.00000"></scales>
<clustering>
<clus scale="   84.066">  5  6 -1 -1</clus>
<clus scale="   90.483">  7  8 -1 -1</clus>
<clus scale="  156.090">  2  5  1 -1</clus>
<clus scale="  103.243">  7  9 -1 -1</clus>
<clus scale="  307.244">  1  5  2 -1</clus>
</clustering>
</event>
<event>
 9    2  0.2147756E-005  0.2126954E+03  0.7546771E-02  0.1159718E+00
         21   -1    0    0  501  502  0.00000000000E+00  0.00000000000E+00  0.10152927983E+03  0.10152927983E+03  0.00000000000E+00 0.  1.
          2   -1    0    0  502    0 -0.00000000000E+00 -0.00000000000E+00 -0.31782599287E+03  0.31782599287E+03  0.00000000000E+00 0. -1.
         24    2    1    2    0    0 -0.81057694542E+02 -0.64739755158E+02 -0.14322952800E+03  0.19445938255E+03  0.80858939071E+02 0.  0.
         23    2    1    2    0    0  0.35568623623E+02 -0.33795061150E+02 -0.40893523725E+02  0.11169911422E+03  0.91636121098E+02 0.  0.
        -11    1    3    3    0    0 -0.83365779067E+02 -0.38385682741E+02 -0.14055974914E+03  0.16787005938E+03  0.00000000000E+00 0.  1.
         12    1    3    3    0    0  0.23080845243E+01 -0.26354072418E+02 -0.26697788569E+01  0.26589323164E+02  0.00000000000E+00 0. -1.
        -11    1    4    4    0    0  0.27829681470E+02 -0.13329694371E+01  0.25258176597E+02  0.37606428483E+02  0.00000000000E+00 0.  1.
         11    1    4    4    0    0  0.77389421529E+01 -0.32462091713E+02 -0.66151700322E+02  0.74092685736E+02  0.00000000000E+00 0. -1.
          1    1    1    2  501    0  0.45489070920E+02  0.98534816308E+02 -0.32173661322E+02  0.11319677593E+03  0.00000000000E+00 0. -1.
<scales pt_clust_5="13000.00000" pt_clust_6="13000.00000" pt_clust_7="13000.00000" pt_clust_8="13000.00000" pt_clust_9="13000.00000"></scales>
<clustering>
<clus scale="   80.859">  5  6 -1 -1</clus>
<clus scale="   91.636">  7  8 -1 -1</clus>
<clus scale="  108.528">  7  9 -1 -1</clus>
<clus scale="  131.529">  2  5  1 -1</clus>
<clus scale="  212.695">  1  5  2 -1</clus>
</clustering>
</event>
<event>
 9    2  0.2147756E-005  0.5401381E+03  0.7546771E-02  0.1054243E+00
          2   -1    0    0  502    0 -0.00000000000E+00  0.00000000000E+00  0.13102513957E+04  0.13102513957E+04  0.00000000000E+00 0. -1.
         21   -1    0    0  501  502  0.00000000000E+00 -0.00000000000E+00 -0.88928228819E+02  0.88928228819E+02  0.00000000000E+00 0. -1.
         24    2    1    2    0    0 -0.91699029158E+02 -0.84798428794E+01  0.38668812436E+03  0.40501422597E+03  0.77641471091E+02 0.  0.
         23    2    1    2    0    0 -0.20988970499E+03 -0.58276179637E+01  0.45697435292E+03  0.51064904468E+03  0.88595926595E+02 0.  0.
        -11    1    3    3    0    0  0.49811940879E+01 -0.21076723801E+02  0.49888721106E+02  0.54386809746E+02  0.00000000000E+00 0.  1.
         12    1    3    3    0    0 -0.96680223246E+02  0.12596880922E+02  0.33679940326E+03  0.35062741623E+03  0.00000000000E+00 0. -1.
        -13    1    4    4    0    0 -0.16174099123E+03 -0.36719681547E+02  0.38108571166E+03  0.41561376648E+03  0.00000000000E+00 0.  1.
         13    1    4    4    0    0 -0.48148713763E+02  0.30892063583E+02  0.75888641262E+02  0.95035278197E+02  0.00000000000E+00 0. -1.
          1    1    1    2  501    0  0.30158873415E+03  0.14307460843E+02  0.37766068964E+03  0.48351635391E+03  0.00000000000E+00 0. -1.
<scales pt_clust_5="13000.00000" pt_clust_6="13000.00000" pt_clust_7="13000.00000" pt_clust_8="13000.00000" pt_clust_9="13000.00000"></scales>
<clustering>
<clus scale="   77.641">  5  6 -1 -1</clus>
<clus scale="   88.596">  7  8 -1 -1</clus>
<clus scale="  120.453">  1  5  2 -1</clus>
<clus scale="  258.614">  7  9 -1 -1</clus>
<clus scale="  540.138">  2  5  1 -1</clus>
</clustering>
</event>
<event>
 9    2  0.2147756E-005  0.5412416E+03  0.7546771E-02  0.1058667E+00
          2   -1    0    0  502    0 -0.00000000000E+00  0.00000000000E+00  0.35748621957E+03  0.35748621957E+03  0.00000000000E+00 0. -1.
         21   -1    0    0  501  502  0.00000000000E+00 -0.00000000000E+00 -0.41625912433E+03  0.41625912433E+03  0.00000000000E+00 0. -1.
         24    2    1    2    0    0  0.51208775013E+02 -0.39348066876E+02  0.15851359192E+03  0.19051653868E+03  0.83662319370E+02 0.  0.
         23    2    1    2    0    0  0.10598892424E+03  0.14946212152E+03  0.88243796977E+02  0.22241724495E+03  0.90054901691E+02 0.  0.
        -11    1    3    3    0    0  0.51400459285E+02 -0.11432066328E+02  0.15333398051E+03  0.16212343734E+03  0.00000000000E+00 0.  1.
         12    1    3    3    0    0 -0.19168427261E+00 -0.27916000548E+02  0.51796114092E+01  0.28393101342E+02  0.00000000000E+00 0. -1.
        -11    1    4    4    0    0  0.26223537513E+02  0.86155456873E+01  0.48404463045E+02  0.55721572033E+02  0.00000000000E+00 0.  1.
         11    1    4    4    0    0  0.79765386725E+02  0.14084657583E+03  0.39839333932E+02  0.16669567292E+03  0.00000000000E+00 0. -1.
          1    1    1    2  501    0 -0.15719769925E+03 -0.11011405464E+03 -0.30553029366E+03  0.36081156027E+03  0.00000000000E+00 0. -1.
<scales pt_clust_5="13000.00000" pt_clust_6="13000.00000" pt_clust_7="13000.00000" pt_clust_8="13000.00000" pt_clust_9="13000.00000"></scales>
<clustering>
<clus scale="   83.662">  5  6 -1 -1</clus>
<clus scale="   90.055">  7  8 -1 -1</clus>
<clus scale="  105.688">  1  5  2 -1</clus>
<clus scale="  189.231">  7  9 -1 -1</clus>
<clus scale="  541.242">  2  5  1 -1</clus>
</clustering>
</event>
<event>
 9    2  0.2147756E-005  0.2648314E+03  0.7546771E-02  0.1120534E+00
         21   -1    0    0  501  502  0.00000000000E+00  0.00000000000E+00  0.54682477475E+02  0.54682477475E+02  0.00000000000E+00 0. -1.
          2   -1    0    0  502    0 -0.00000000000E+00 -0.00000000000E+00 -0.92884229661E+03  0.92884229661E+03  0.00000000000E+00 0. -1.
         24    2    1    2    0    0  0.64789538668E+02 -0.14159360243E+03 -0.24859859037E+03  0.30421445570E+03  0.80614783701E+02 0.  0.
         23    2    1    2    0    0 -0.12655160767E+03  0.10528994724E+03 -0.50229770043E+03  0.53673961325E+03  0.93194153113E+02 0.  0.
        -11    1    3    3    0    0  0.21890894782E+02 -0.79506907902E+01 -0.87505548687E+02  0.90551895669E+02  0.00000000000E+00 0.  1.
         12    1    3    3    0    0  0.42898643886E+02 -0.13364291164E+03 -0.16109304168E+03  0.21366256003E+03  0.00000000000E+00 0. -1.
        -11    1    4    4    0    0 -0.32011766629E+02  0.41366223596E+02 -0.29952568205E+03  0.30405846784E+03  0.00000000000E+00 0.  1.
         11    1    4    4    0    0 -0.94539841044E+02  0.63923723649E+02 -0.20277201838E+03  0.23268114541E+03  0.00000000000E+00 0. -1.
          1    1    1    2  501    0  0.61762069005E+02  0.36303655185E+02 -0.12326352834E+03  0.14257070515E+03  0.00000000000E+00 0. -1.
<scales pt_clust_5="13000.00000" pt_clust_6="13000.00000" pt_clust_7="13000.00000" pt_clust_8="13000.00000" pt_clust_9="13000.00000"></scales>
<clustering>
<clus scale="   80.615">  5  6 -1 -1</clus>
<clus scale="   93.194">  7  8 -1 -1</clus>
<clus scale="   71.642">  7  9 -1 -1</clus>
<clus scale="  175.343">  2  5  1 -1</clus>
<clus scale="  264.831">  1  5  2 -1</clus>
</clustering>
</event>
<event>
 9    2  0.2147756E-005  0.1878306E+03  0.7546771E-02  0.1173440E+00
          2   -1    0    0  502    0 -0.00000000000E+00  0.00000000000E+00  0.85227793423E+03  0.85227793423E+03  0.00000000000E+00 0. -1.
         21   -1    0    0  501  502  0.00000000000E+00 -0.00000000000E+00 -0.36630650617E+02  0.36630650617E+02  0.00000000000E+00 0. -1.
         24    2    1    2    0    0  0.35799991473E+02 -0.10704737502E+03  0.18934783901E+03  0.23504978111E+03  0.81578278811E+02 0.  0.
         23    2    1    2    0    0 -0.36192883936E+02  0.27082402824E+02  0.24565906851E+03  0.26490938922E+03  0.88233922975E+02 0.  0.
        -13    1    3    3    0    0  0.49336037978E+02 -0.10493791387E+03  0.18851747285E+03  0.22132520865E+03  0.00000000000E+00 0.  1.
         14    1    3    3    0    0 -0.13536046505E+02 -0.21094611510E+01  0.83036615339E+00  0.13724572462E+02  0.00000000000E+00 0. -1.
        -13    1    4    4    0    0 -0.32897680211E+02 -0.26054713073E+02  0.14612181327E+03  0.15202858202E+03  0.00000000000E+00 0. -1.
         13    1    4    4    0    0 -0.32952037254E+01  0.53137115897E+02  0.99537255238E+02  0.11288080720E+03  0.00000000000E+00 0.  1.
          1    1    1    2  501    0  0.39289246280E+00  0.79964972197E+02  0.38064037610E+03  0.38894941453E+03  0.00000000000E+00 0. -1.
<scales pt_clust_5="13000.00000" pt_clust_6="13000.00000" pt_clust_7="13000.00000" pt_clust_8="13000.00000" pt_clust_9="13000.00000"></scales>
<clustering>
<clus scale="   81.578">  5  6 -1 -1</clus>
<clus scale="   88.234">  7  8 -1 -1</clus>
<clus scale="   79.966">  7  9 -1 -1</clus>
<clus scale="  139.269">  1  5  2 -1</clus>
<clus scale="  187.831">  2  5  1 -1</clus>
</clustering>
</event>
<event>
 9    2  0.2147756E-005  0.1484165E+03  0.7546771E-02  0.1219502E+00
         21   -1    0    0  501  502  0.00000000000E+00  0.00000000000E+00  0.65296306833E+02  0.65296306833E+02  0.00000000000E+00 0.  1.
          2   -1    0    0  502    0 -0.00000000000E+00 -0.00000000000E+00 -0.25146082661E+03  0.25146082661E+03  0.00000000000E+00 0. -1.
         24    2    1    2    0    0  0.51101114669E+02 -0.34725235748E+02 -0.47161244772E+02  0.11341168747E+03  0.82588509665E+02 0.  0.
         23    2    1    2    0    0 -0.14036605093E+02 -0.44019747563E+01 -0.62445843482E+02  0.10971982558E+03  0.89008724814E+02 0.  0.
        -13    1    3    3    0    0  0.37658628341E+02 -0.55428145716E+02 -0.55859722565E+02  0.87239671200E+02  0.00000000000E+00 0.  1.
         14    1    3    3    0    0  0.13442486328E+02  0.20702909968E+02  0.86984777932E+01  0.26172016272E+02  0.00000000000E+00 0. -1.
        -11    1    4    4    0    0  0.42513030021E+01  0.31217190755E+02 -0.62149734626E+02  0.69679093637E+02  0.00000000000E+00 0.  1.
         11    1    4    4    0    0 -0.18287908095E+02 -0.35619165512E+02 -0.29610885601E+00  0.40040731945E+02  0.00000000000E+00 0. -1.
          1    1    1    2  501    0 -0.37064509576E+02  0.39127210504E+02 -0.76557431521E+02  0.93625620388E+02  0.00000000000E+00 0. -1.
<scales pt_clust_5="13000.00000" pt_clust_6="13000.00000" pt_clust_7="13000.00000" pt_clust_8="13000.00000" pt_clust_9="13000.00000"></scales>
<clustering>
<clus scale="   82.589">  5  6 -1 -1</clus>
<clus scale="   89.009">  7  8 -1 -1</clus>
<clus scale="   53.895">  7  9 -1 -1</clus>
<clus scale="  103.141">  2  5  1 -1</clus>
<clus scale="  148.417">  1  5  2 -1</clus>
</clustering>
</event>
<event>
 9    2  0.2147756E-005  0.5501749E+03  0.7546771E-02  0.1037437E+00
         21   -1    0    0  501  502  0.00000000000E+00  0.00000000000E+00  0.71282111550E+02  0.71282111550E+02  0.00000000000E+00 0. -1.
          2   -1    0    0  502    0 -0.00000000000E+00 -0.00000000000E+00 -0.18973710562E+04  0.18973710562E+04  0.00000000000E+00 0. -1.
         24    2    1    2    0    0 -0.11121675469E+03  0.10622930693E+03 -0.42793378394E+03  0.46614517362E+03  0.10251910690E+03 0.  0.
         23    2    1    2    0    0 -0.20257085013E+03 -0.30307113655E+02 -0.47067636120E+03  0.52044701642E+03  0.85880087650E+02 0.  0.
        -11    1    3    3    0    0 -0.41779685809E+02 -0.14839382722E+02 -0.84261785306E+02  0.95214483609E+02  0.00000000000E+00 0.  1.
         12    1    3    3    0    0 -0.69437068883E+02  0.12106868966E+03 -0.34367199863E+03  0.37093069001E+03  0.00000000000E+00 0. -1.
        -11    1    4    4    0    0 -0.13170657402E+03  0.17979548745E+02 -0.24009594569E+03  0.27443751374E+03  0.00000000000E+00 0.  1.
         11    1    4    4    0    0 -0.70864276118E+02 -0.48286662400E+02 -0.23058041551E+03  0.24600950268E+03  0.00000000000E+00 0. -1.
          1    1    1    2  501    0  0.31378760483E+03 -0.75922193280E+02 -0.92747879951E+03  0.98206097770E+03  0.00000000000E+00 0. -1.
<scales pt_clust_5="13000.00000" pt_clust_6="13000.00000" pt_clust_7="13000.00000" pt_clust_8="13000.00000" pt_clust_9="13000.00000"></scales>
<clustering>
<clus scale="   85.880">  7  8 -1 -1</clus>
<clus scale="  102.519">  5  6 -1 -1</clus>
<clus scale="  184.835">  2  5  1 -1</clus>
<clus scale="  240.647">  7  9 -1 -1</clus>
<clus scale="  550.175">  1  5  2 -1</clus>
</clustering>
</event>
<event>
 9    2  0.2147756E-005  0.3397147E+03  0.7546771E-02  0.1083023E+00
         -1   -1    0    0    0  501 -0.00000000000E+00  0.00000000000E+00  0.89629274055E+02  0.89629274055E+02  0.00000000000E+00 0.  1.
         21   -1    0    0  501  502  0.00000000000E+00 -0.00000000000E+00 -0.88266770212E+03  0.88266770212E+03  0.00000000000E+00 0. -1.
         24    2    1    2    0    0 -0.20296782662E+03 -0.55589537219E+01 -0.36579370550E+03  0.42645437037E+03  0.82652612894E+02 0.  0.
         23    2    1    2    0    0 -0.35175367153E+02  0.16463083121E+02 -0.95263255642E+02  0.13713393797E+03  0.90676841080E+02 0.  0.
        -11    1    3    3    0    0 -0.44724791443E+02  0.59798400828E+01 -0.16207332682E+03  0.16823741773E+03  0.00000000000E+00 0.  1.
         12    1    3    3    0    0 -0.15824303518E+03 -0.11538793805E+02 -0.20372037868E+03  0.25821695264E+03  0.00000000000E+00 0. -1.
        -11    1    4    4    0    0 -0.58829531956E+02 -0.11455199166E+02 -0.72391516349E+02  0.93982269909E+02  0.00000000000E+00 0.  1.
         11    1    4    4    0    0  0.23654164803E+02  0.27918282287E+02 -0.22871739293E+02  0.43151668064E+02  0.00000000000E+00 0. -1.
         -2    1    1    2    0  502  0.23814319377E+03 -0.10904129399E+02 -0.33198146693E+03  0.40870866783E+03  0.00000000000E+00 0.  1.
<scales pt_clust_5="13000.00000" pt_clust_6="13000.00000" pt_clust_7="13000.00000" pt_clust_8="13000.00000" pt_clust_9="13000.00000"></scales>
<clustering>
<clus scale="   82.653">  5  6 -1 -1</clus>
<clus scale="   90.677">  7  8 -1 -1</clus>
<clus scale="  219.222">  1  5  2 -1</clus>
<clus scale="  107.812">  7  9 -1 -1</clus>
<clus scale="  339.715">  2  5  1 -1</clus>
</clustering>
</event>
<event>
 9    2  0.2147756E-005  0.1441917E+03  0.7546771E-02  0.1227911E+00
          2   -1    0    0  502    0 -0.00000000000E+00  0.00000000000E+00  0.76958152859E+03  0.76958152859E+03  0.00000000000E+00 0. -1.
         21   -1    0    0  501  502  0.00000000000E+00 -0.00000000000E+00 -0.30724193798E+02  0.30724193798E+02  0.00000000000E+00 0.  1.
         24    2    1    2    0    0  0.30688478628E+02 -0.38493185359E+02  0.57219315369E+03  0.57992376625E+03  0.80517460758E+02 0.  0.
         23    2    1    2    0    0 -0.52556422080E+02  0.92633960370E+01  0.14096035275E+03  0.17573585523E+03  0.90361948622E+02 0.  0.
        -13    1    3    3    0    0  0.12033103450E+02  0.23456794918E+02  0.10437113190E+03  0.10764919870E+03  0.00000000000E+00 0.  1.
         14    1    3    3    0    0  0.18655375178E+02 -0.61949980277E+02  0.46782202179E+03  0.47227456755E+03  0.00000000000E+00 0. -1.
        -13    1    4    4    0    0  0.25661715019E+02 -0.19746031833E+01  0.30262474985E+02  0.39727069709E+02  0.00000000000E+00 0. -1.
         13    1    4    4    0    0 -0.78218137099E+02  0.11237999220E+02  0.11069787776E+03  0.13600878552E+03  0.00000000000E+00 0.  1.
          1    1    1    2  501    0  0.21867943452E+02  0.29229789322E+02  0.25703828355E+02  0.44646100913E+02  0.00000000000E+00 0. -1.
<scales pt_clust_5="13000.00000" pt_clust_6="13000.00000" pt_clust_7="13000.00000" pt_clust_8="13000.00000" pt_clust_9="13000.00000"></scales>
<clustering>
<clus scale="   80.517">  5  6 -1 -1</clus>
<clus scale="   90.362">  7  8 -1 -1</clus>
<clus scale="   36.505">  7  9 -1 -1</clus>
<clus scale="   94.375">  1  5  2 -1</clus>
<clus scale="  144.192">  2  5  1 -1</clus>
</clustering>
</event>
<event>
 9    2  0.2147756E-005  0.8207136E+03  0.7546771E-02  0.9724813E-01
         21   -1    0    0  501  502  0.00000000000E+00  0.00000000000E+00  0.84720508061E+03  0.84720508061E+03  0.00000000000E+00 0. -1.
          2   -1    0    0  502    0 -0.00000000000E+00 -0.00000000000E+00 -0.45684090904E+03  0.45684090904E+03  0.00000000000E+00 0. -1.
         24    2    1    2    0    0 -0.19325165078E+03  0.36806324921E+03  0.12675130905E+03  0.44203524528E+03  0.80700110144E+02 0.  0.
         23    2    1    2    0    0  0.16201574044E+03  0.18730396492E+03  0.71229619519E+02  0.27343641872E+03  0.91443649103E+02 0.  0.
        -11    1    3    3    0    0 -0.26905371455E+02  0.93975480808E+02  0.59516991344E+02  0.11444458163E+03  0.00000000000E+00 0.  1.
         12    1    3    3    0    0 -0.16634627933E+03  0.27408776840E+03  0.67234317703E+02  0.32759066365E+03  0.00000000000E+00 0. -1.
        -11    1    4    4    0    0  0.13233401634E+03  0.88921562260E+02  0.27645542458E+02  0.16181351036E+03  0.00000000000E+00 0. -1.
         11    1    4    4    0    0  0.29681724098E+02  0.98382402663E+02  0.43584077061E+02  0.11162290837E+03  0.00000000000E+00 0.  1.
          1    1    1    2  501    0  0.31235910345E+02 -0.55536721413E+03  0.19238324300E+03  0.58857432565E+03  0.00000000000E+00 0. -1.
<scales pt_clust_5="13000.00000" pt_clust_6="13000.00000" pt_clust_7="13000.00000" pt_clust_8="13000.00000" pt_clust_9="13000.00000"></scales>
<clustering>
<clus scale="   80.700">  5  6 -1 -1</clus>
<clus scale="   91.444">  7  8 -1 -1</clus>
<clus scale="  423.473">  2  5  1 -1</clus>
<clus scale="  326.338">  7  9 -1 -1</clus>
<clus scale="  820.714">  1  5  2 -1</clus>
</clustering>
</event>
<event>
 9    2  0.2147756E-005  0.2883231E+03  0.7546771E-02  0.1134897E+00
         21   -1    0    0  501  502  0.00000000000E+00  0.00000000000E+00  0.17805985112E+03  0.17805985112E+03  0.00000000000E+00 0. -1.
          2   -1    0    0  502    0 -0.00000000000E+00 -0.00000000000E+00 -0.22220181158E+03  0.22220181158E+03  0.00000000000E+00 0. -1.
         24    2    1    2    0    0 -0.28248887909E+02  0.43392270748E+02  0.34511251395E+02  0.10140291853E+03  0.80066451061E+02 0.  0.
         23    2    1    2    0    0  0.45616071962E+02 -0.14174869890E+03 -0.99258798967E+02  0.19687739165E+03  0.82066305572E+02 0.  0.
        -13    1    3    3    0    0  0.24930935367E+02 -0.24164596729E+01  0.69275728664E+01  0.25988114234E+02  0.00000000000E+00 0.  1.
         14    1    3    3    0    0 -0.53179823276E+02  0.45808730421E+02  0.27583678529E+02  0.75414804300E+02  0.00000000000E+00 0. -1.
        -11    1    4    4    0    0  0.65718071942E+02 -0.13163681878E+03 -0.90474201182E+02  0.17272144661E+03  0.00000000000E+00 0. -1.
         11    1    4    4    0    0 -0.20101999980E+02 -0.10111880118E+02 -0.87845977846E+01  0.24155945044E+02  0.00000000000E+00 0.  1.
          1    1    1    2  501    0 -0.17367184053E+02  0.98356428154E+02  0.20605587107E+02  0.10198135252E+03  0.00000000000E+00 0. -1.
<scales pt_clust_5="13000.00000" pt_clust_6="13000.00000" pt_clust_7="13000.00000" pt_clust_8="13000.00000" pt_clust_9="13000.00000"></scales>
<clustering>
<clus scale="   80.066">  5  6 -1 -1</clus>
<clus scale="   82.066">  7  8 -1 -1</clus>
<clus scale="   95.350">  2  5  1 -1</clus>
<clus scale="  110.235">  7  9 -1 -1</clus>
<clus scale="  288.323">  1  5  2 -1</clus>
</clustering>
</event>
<event>
 9    2  0.2147756E-005  0.3186750E+03  0.7546771E-02  0.1119759E+00
         21   -1    0    0  501  502  0.00000000000E+00  0.00000000000E+00  0.21632798389E+03  0.21632798389E+03  0.00000000000E+00 0. -1.
          2   -1    0    0  502    0 -0.00000000000E+00 -0.00000000000E+00 -0.21961599849E+03  0.21961599849E+03  0.00000000000E+00 0. -1.
         24    2    1    2    0    0 -0.58582571532E+02  0.31713724462E+02  0.47813222482E+02  0.11319781577E+03  0.78038216566E+02 0.  0.
         23    2    1    2    0    0 -0.95332003949E+01 -0.13356444069E+03  0.41604170844E+02  0.16909845448E+03  0.94514753073E+02 0.  0.
        -13    1    3    3    0    0 -0.64657854868E+00  0.42071072262E+02  0.30105337573E+02  0.51737071191E+02  0.00000000000E+00 0.  1.
         14    1    3    3    0    0 -0.57935992984E+02 -0.10357347799E+02  0.17707884909E+02  0.61460744581E+02  0.00000000000E+00 0. -1.
        -11    1    4    4    0    0 -0.48526112766E+01 -0.10461751971E+03  0.71822637164E+02  0.12699159214E+03  0.00000000000E+00 0. -1.
         11    1    4    4    0    0 -0.46805891183E+01 -0.28946920986E+02 -0.30218466320E+02  0.42106862337E+02  0.00000000000E+00 0.  1.
          1    1    1    2  501    0  0.68115771927E+02  0.10185071623E+03 -0.92705407931E+02  0.15364771213E+03  0.00000000000E+00 0. -1.
<scales pt_clust_5="13000.00000" pt_clust_6="13000.00000" pt_clust_7="13000.00000" pt_clust_8="13000.00000" pt_clust_9="13000.00000"></scales>
<clustering>
<clus scale="   78.038">  5  6 -1 -1</clus>
<clus scale="   94.515">  7  8 -1 -1</clus>
<clus scale="  102.604">  2  5  1 -1</clus>
<clus scale="  126.247">  7  9 -1 -1</clus>
<clus scale="  318.675">  1  5  2 -1</clus>
</clustering>
</event>
<event>
 9    2  0.2147756E-005  0.8300991E+03  0.7546771E-02  0.1017135E+00
         -1   -1    0    0    0  501 -0.00000000000E+00  0.00000000000E+00  0.17236059292E+03  0.17236059292E+03  0.00000000000E+00 0.  1.
         21   -1    0    0  501  502  0.00000000000E+00 -0.00000000000E+00 -0.13420348036E+04  0.13420348036E+04  0.00000000000E+00 0.  1.
         24    2    1    2    0    0 -0.36374329908E+02  0.44587825177E+02 -0.28348121368E+03  0.30014562731E+03  0.80091404361E+02 0.  0.
         23    2    1    2    0    0 -0.25949760334E+03 -0.17267955858E+03 -0.65992808412E+02  0.33295751211E+03  0.96687217451E+02 0.  0.
        -11    1    3    3    0    0 -0.53758784474E+02  0.41560889496E+02 -0.26860187911E+03  0.27706368204E+03  0.00000000000E+00 0.  1.
         12    1    3    3    0    0  0.17384454566E+02  0.30269356815E+01 -0.14879334572E+02  0.23081945271E+02  0.00000000000E+00 0. -1.
        -11    1    4    4    0    0 -0.87343143402E+02 -0.11579552760E+03 -0.29148859181E+02  0.14794284336E+03  0.00000000000E+00 0.  1.
         11    1    4    4    0    0 -0.17215445994E+03 -0.56884030989E+02 -0.36843949231E+02  0.18501466875E+03  0.00000000000E+00 0. -1.
         -2    1    1    2    0  502  0.29587193325E+03  0.12809173341E+03 -0.82020018858E+03  0.88129225709E+03  0.00000000000E+00 0.  1.
<scales pt_clust_5="13000.00000" pt_clust_6="13000.00000" pt_clust_7="13000.00000" pt_clust_8="13000.00000" pt_clust_9="13000.00000"></scales>
<clustering>
<clus scale="   80.091">  5  6 -1 -1</clus>
<clus scale="   96.687">  7  8 -1 -1</clus>
<clus scale="   98.620">  1  5  2 -1</clus>
<clus scale="  319.658">  7  9 -1 -1</clus>
<clus scale="  830.099">  2  5  1 -1</clus>
</clustering>
</event>
<event>
 9    2  0.2147756E-005  0.3317206E+03  0.7546771E-02  0.1076226E+00
         21   -1    0    0  501  502  0.00000000000E+00  0.00000000000E+00  0.85610929109E+02  0.85610929109E+02  0.00000000000E+00 0. -1.
          2   -1    0    0  502    0 -0.00000000000E+00 -0.00000000000E+00 -0.19960017954E+04  0.19960017954E+04  0.00000000000E+00 0. -1.
         24    2    1    2    0    0  0.22633529750E+03  0.14848077035E+03 -0.16082232410E+04  0.16328991682E+04  0.81874872000E+02 0.  0.
         23    2    1    2    0    0 -0.38359968319E+02 -0.91062953717E+02 -0.11025128072E+03  0.17400750727E+03  0.91429311360E+02 0.  0.
        -11    1    3    3    0    0  0.25046710451E+02  0.20688990746E+02 -0.82626867953E+02  0.88783846224E+02  0.00000000000E+00 0.  1.
         12    1    3    3    0    0  0.20128858705E+03  0.12779177960E+03 -0.15255963730E+04  0.15441153220E+04  0.00000000000E+00 0. -1.
        -11    1    4    4    0    0 -0.21405603546E+02 -0.64230771878E+02 -0.12251764065E+03  0.13997987066E+03  0.00000000000E+00 0.  1.
         11    1    4    4    0    0 -0.16954364774E+02 -0.26832181839E+02  0.12266359931E+02  0.34027636607E+02  0.00000000000E+00 0. -1.
          1    1    1    2  501    0 -0.18797532918E+03 -0.57417816633E+02 -0.19191634457E+03  0.27470604901E+03  0.00000000000E+00 0. -1.
<scales pt_clust_5="13000.00000" pt_clust_6="13000.00000" pt_clust_7="13000.00000" pt_clust_8="13000.00000" pt_clust_9="13000.00000"></scales>
<clustering>
<clus scale="   81.875">  5  6 -1 -1</clus>
<clus scale="   91.429">  7  8 -1 -1</clus>
<clus scale="  196.549">  7  9 -1 -1</clus>
<clus scale="  282.803">  2  5  1 -1</clus>
<clus scale="  331.721">  1  5  2 -1</clus>
</clustering>
</event>
<event>
 9    2  0.2147756E-005  0.8546664E+03  0.7546771E-02  0.1017661E+00
          2   -1    0    0  502    0 -0.00000000000E+00  0.00000000000E+00  0.23462638548E+03  0.23462638548E+03  0.00000000000E+00 0. -1.
         21   -1    0    0  501  502  0.00000000000E+00 -0.00000000000E+00 -0.94883486180E+03  0.94883486180E+03  0.00000000000E+00 0. -1.
         24    2    1    2    0    0  0.18680207032E+02  0.34347250995E+02 -0.71431844878E+02  0.11406116698E+03  0.79867124427E+02 0.  0.
         23    2    1    2    0    0 -0.22609802590E+03  0.32112077155E+03 -0.48104500730E+03  0.62720466549E+03  0.87991625282E+02 0.  0.
        -13    1    3    3    0    0 -0.28034054504E+02  0.26734217690E+02 -0.18106654023E+02  0.42760700735E+02  0.00000000000E+00 0.  1.
         14    1    3    3    0    0  0.46714261536E+02  0.76130333056E+01 -0.53325190855E+02  0.71300466245E+02  0.00000000000E+00 0. -1.
        -13    1    4    4    0    0 -0.30808374331E+02  0.75757514578E+02 -0.56512791644E+02  0.99408513535E+02  0.00000000000E+00 0.  1.
         13    1    4    4    0    0 -0.19528965157E+03  0.24536325697E+03 -0.42453221565E+03  0.52779615195E+03  0.00000000000E+00 0. -1.
          1    1    1    2  501    0  0.20741781887E+03 -0.35546802255E+03 -0.16173162414E+03  0.44219541482E+03  0.00000000000E+00 0. -1.
<scales pt_clust_5="13000.00000" pt_clust_6="13000.00000" pt_clust_7="13000.00000" pt_clust_8="13000.00000" pt_clust_9="13000.00000"></scales>
<clustering>
<clus scale="   79.867">  5  6 -1 -1</clus>
<clus scale="   87.992">  7  8 -1 -1</clus>
<clus scale="   88.924">  1  5  2 -1</clus>
<clus scale="  398.851">  7  9 -1 -1</clus>
<clus scale="  854.666">  2  5  1 -1</clus>
</clustering>
</event>
<event>
 9    2  0.3342438E-005  0.7819320E+03  0.7546771E-02  0.1014604E+00
         21   -1    0    0  501  502  0.00000000000E+00  0.00000000000E+00  0.32831514808E+03  0.32831514808E+03  0.00000000000E+00 0. -1.
          2   -1    0    0  502    0 -0.00000000000E+00 -0.00000000000E+00 -0.63872319779E+03  0.63872319779E+03  0.00000000000E+00 0. -1.
         24    2    1    2    0    0  0.10170301825E+03  0.28808868668E+00 -0.85199193702E+02  0.15332051770E+03  0.76841991286E+02 0.  0.
         23    2    1    2    0    0  0.59140232641E+02 -0.46717528287E+02 -0.48786587828E+03  0.50224558933E+03  0.92506336228E+02 0.  0.
        -13    1    3    3    0    0  0.22237115167E+02  0.22820874006E+02  0.35743779598E+01  0.32063339800E+02  0.00000000000E+00 0.  1.
         14    1    3    3    0    0  0.79465903081E+02 -0.22532785320E+02 -0.88773571662E+02  0.12125717790E+03  0.00000000000E+00 0. -1.
        -11    1    4    4    0    0  0.77742674961E+02 -0.15102394491E+02 -0.38429854660E+03  0.39237402914E+03  0.00000000000E+00 0. -1.
         11    1    4    4    0    0 -0.18602442320E+02 -0.31615133797E+02 -0.10356733168E+03  0.10987156018E+03  0.00000000000E+00 0.  1.
          1    1    1    2  501    0 -0.16084325089E+03  0.46429439601E+02  0.26265702227E+03  0.31147223884E+03  0.00000000000E+00 0. -1.
<scales pt_clust_5="13000.00000" pt_clust_6="13000.00000" pt_clust_7="13000.00000" pt_clust_8="13000.00000" pt_clust_9="13000.00000"></scales>
<clustering>
<clus scale="   76.842">  5  6 -1 -1</clus>
<clus scale="   92.506">  7  8 -1 -1</clus>
<clus scale="  127.469">  2  5  1 -1</clus>
<clus scale="  162.829">  7  9 -1 -1</clus>
<clus scale="  781.932">  1  5  2 -1</clus>
</clustering>
</event>
<event>
 9    2  0.2147756E-005  0.2392894E+03  0.7546771E-02  0.1146825E+00
         21   -1    0    0  501  502  0.00000000000E+00  0.00000000000E+00  0.24898837562E+03  0.24898837562E+03  0.00000000000E+00 0.  1.
          2   -1    0    0  502    0 -0.00000000000E+00 -0.00000000000E+00 -0.13967755064E+03  0.13967755064E+03  0.00000000000E+00 0. -1.
         24    2    1    2    0    0  0.72928557101E+02 -0.62775185728E+02  0.77672720873E+02  0.14729406087E+03  0.80019937618E+02 0.  0.
         23    2    1    2    0    0 -0.44331511471E+02  0.93742251120E+02  0.92656639494E+02  0.16720980083E+03  0.92849190078E+02 0.  0.
        -13    1    3    3    0    0  0.24691784888E+02 -0.10408463049E+02 -0.14781759641E+02  0.30602626719E+02  0.00000000000E+00 0.  1.
         14    1    3    3    0    0  0.48236772213E+02 -0.52366722679E+02  0.92454480514E+02  0.11669143415E+03  0.00000000000E+00 0. -1.
        -11    1    4    4    0    0 -0.64306454635E+02  0.67092980830E+02  0.96150687461E+02  0.13372263415E+03  0.00000000000E+00 0.  1.
         11    1    4    4    0    0  0.19974943164E+02  0.26649270290E+02 -0.34940479671E+01  0.33487166685E+02  0.00000000000E+00 0. -1.
          1    1    1    2  501    0 -0.28597045630E+02 -0.30967065392E+02 -0.61018535388E+02  0.74162064552E+02  0.00000000000E+00 0. -1.
<scales pt_clust_5="13000.00000" pt_clust_6="13000.00000" pt_clust_7="13000.00000" pt_clust_8="13000.00000" pt_clust_9="13000.00000"></scales>
<clustering>
<clus scale="   80.020">  5  6 -1 -1</clus>
<clus scale="   92.849">  7  8 -1 -1</clus>
<clus scale="   42.152">  7  9 -1 -1</clus>
<clus scale="  125.150">  2  5  1 -1</clus>
<clus scale="  239.289">  1  5  2 -1</clus>
</clustering>
</event>
<event>
 9    2  0.2147756E-005  0.3428952E+03  0.7546771E-02  0.1069828E+00
         21   -1    0    0  501  502  0.00000000000E+00  0.00000000000E+00  0.23403311703E+03  0.23403311703E+03  0.00000000000E+00 0. -1.
          2   -1    0    0  502    0 -0.00000000000E+00 -0.00000000000E+00 -0.48742551513E+03  0.48742551513E+03  0.00000000000E+00 0. -1.
         24    2    1    2    0    0  0.28621270680E+03 -0.70871284064E+02 -0.17796517072E+02  0.30542674697E+03  0.77642316497E+02 0.  0.
         23    2    1    2    0    0 -0.18219518215E+03  0.10749729235E+03 -0.13782440251E+03  0.26865355596E+03  0.91806399234E+02 0.  0.
        -11    1    3    3    0    0  0.42526750180E+02 -0.20471397172E+02  0.24239315312E+02  0.53057958780E+02  0.00000000000E+00 0.  1.
         12    1    3    3    0    0  0.24368595662E+03 -0.50399886892E+02 -0.42035832384E+02  0.25236878820E+03  0.00000000000E+00 0. -1.
        -11    1    4    4    0    0 -0.40663874129E+02 -0.23818323937E+01 -0.61795860551E+02  0.74013189135E+02  0.00000000000E+00 0.  1.
         11    1    4    4    0    0 -0.14153130802E+03  0.10987912474E+03 -0.76028541958E+02  0.19464036682E+03  0.00000000000E+00 0. -1.
          1    1    1    2  501    0 -0.10401752464E+03 -0.36626008281E+02 -0.97771478510E+02  0.14737832923E+03  0.00000000000E+00 0. -1.
<scales pt_clust_5="13000.00000" pt_clust_6="13000.00000" pt_clust_7="13000.00000" pt_clust_8="13000.00000" pt_clust_9="13000.00000"></scales>
<clustering>
<clus scale="   77.642">  5  6 -1 -1</clus>
<clus scale="   91.806">  7  8 -1 -1</clus>
<clus scale="  110.277">  7  9 -1 -1</clus>
<clus scale="  304.908">  2  5  1 -1</clus>
<clus scale="  342.895">  1  5  2 -1</clus>
</clustering>
</event>
<event>
 9    2  0.2147756E-005  0.1591754E+03  0.7546771E-02  0.1213111E+00
         21   -1    0    0  501  502  0.00000000000E+00  0.00000000000E+00  0.27299143665E+02  0.27299143665E+02  0.00000000000E+00 0. -1.
          2   -1    0    0  502    0 -0.00000000000E+00 -0.00000000000E+00 -0.88816808436E+03  0.88816808436E+03  0.00000000000E+00 0. -1.
         24    2    1    2    0    0 -0.20267159272E+02  0.47536504096E+02 -0.61613874951E+03  0.62352602316E+03  0.80543565535E+02 0.  0.
         23    2    1    2    0    0  0.57118416451E+02 -0.11295364819E+02 -0.16376463316E+03  0.19588467506E+03  0.90342969197E+02 0.  0.
        -11    1    3    3    0    0 -0.94024458244E+00  0.27868957645E+02 -0.54579301028E+02  0.61289990706E+02  0.00000000000E+00 0.  1.
         12    1    3    3    0    0 -0.19326914689E+02  0.19667546451E+02 -0.56155944848E+03  0.56223603246E+03  0.00000000000E+00 0. -1.
        -13    1    4    4    0    0  0.43846122229E+02  0.29857603544E+02 -0.13191308689E+03  0.14217953937E+03  0.00000000000E+00 0. -1.
         13    1    4    4    0    0  0.13272294223E+02 -0.41152968363E+02 -0.31851546279E+02  0.53705135689E+02  0.00000000000E+00 0.  1.
          1    1    1    2  501    0 -0.36851257180E+02 -0.36241139277E+02 -0.80965558022E+02  0.96056529802E+02  0.00000000000E+00 0. -1.
<scales pt_clust_5="13000.00000" pt_clust_6="13000.00000" pt_clust_7="13000.00000" pt_clust_8="13000.00000" pt_clust_9="13000.00000"></scales>
<clustering>
<clus scale="   80.544">  5  6 -1 -1</clus>
<clus scale="   90.343">  7  8 -1 -1</clus>
<clus scale="   51.686">  7  9 -1 -1</clus>
<clus scale="   95.696">  2  5  1 -1</clus>
<clus scale="  159.175">  1  5  2 -1</clus>
</clustering>
</event>
<event>
 9    2  0.2147756E-005  0.2753373E+03  0.7546771E-02  0.1122788E+00
          2   -1    0    0  502    0 -0.00000000000E+00  0.00000000000E+00  0.49835186648E+03  0.49835186648E+03  0.00000000000E+00 0. -1.
         21   -1    0    0  501  502  0.00000000000E+00 -0.00000000000E+00 -0.12041097860E+03  0.12041097860E+03  0.00000000000E+00 0.  1.
         24    2    1    2    0    0 -0.94098035748E+02  0.80670673155E+02  0.29726829552E+03  0.33185052728E+03  0.79963335963E+02 0.  0.
         23    2    1    2    0    0  0.16064099708E+03 -0.61236894301E+02  0.93730090983E+02  0.21637058735E+03  0.92062011426E+02 0.  0.
        -11    1    3    3    0    0  0.11851850225E+02  0.25276005909E+02  0.53851789178E+02  0.60657712009E+02  0.00000000000E+00 0.  1.
         12    1    3    3    0    0 -0.10594988597E+03  0.55394667246E+02  0.24341650634E+03  0.27119281527E+03  0.00000000000E+00 0. -1.
        -11    1    4    4    0    0  0.84017188616E+02 -0.86012851317E+01  0.13720132399E+00  0.84456432040E+02  0.00000000000E+00 0.  1.
         11    1    4    4    0    0  0.76623808466E+02 -0.52635609170E+02  0.93592889659E+02  0.13191415531E+03  0.00000000000E+00 0. -1.
          1    1    1    2  501    0 -0.66542961333E+02 -0.19433778853E+02 -0.13057498625E+02  0.70541730442E+02  0.00000000000E+00 0. -1.
<scales pt_clust_5="13000.00000" pt_clust_6="13000.00000" pt_clust_7="13000.00000" pt_clust_8="13000.00000" pt_clust_9="13000.00000"></scales>
<clustering>
<clus scale="   79.963">  5  6 -1 -1</clus>
<clus scale="   92.062">  7  8 -1 -1</clus>
<clus scale="   69.323">  7  9 -1 -1</clus>
<clus scale="  147.500">  1  5  2 -1</clus>
<clus scale="  275.337">  2  5  1 -1</clus>
</clustering>
</event>
<event>
 9    2  0.2147756E-005  0.2135955E+03  0.7546771E-02  0.1171640E+00
         21   -1    0    0  501  502  0.00000000000E+00  0.00000000000E+00  0.91904434102E+02  0.91904434102E+02  0.00000000000E+00 0. -1.
         -1   -1    0    0    0  501 -0.00000000000E+00 -0.00000000000E+00 -0.26889938686E+03  0.26889938686E+03  0.00000000000E+00 0.  1.
         24    2    1    2    0    0  0.47899819291E+02  0.33315925570E+02 -0.36794143541E+02  0.10530564027E+03  0.79568368641E+02 0.  0.
         23    2    1    2    0    0  0.46105362476E+02 -0.46680841130E+01 -0.43229429549E+02  0.11743616023E+03  0.98868461569E+02 0.  0.
        -13    1    3    3    0    0 -0.34381831635E+01 -0.19765388056E+02 -0.22398521319E+02  0.30069676183E+02  0.00000000000E+00 0.  1.
         14    1    3    3    0    0  0.51338002455E+02  0.53081313626E+02 -0.14395622221E+02  0.75235964083E+02  0.00000000000E+00 0. -1.
        -11    1    4    4    0    0 -0.23855458052E+02 -0.13127165442E+02  0.10120778415E+02  0.29048846916E+02  0.00000000000E+00 0. -1.
         11    1    4    4    0    0  0.69960820527E+02  0.84590813287E+01 -0.53350207964E+02  0.88387313318E+02  0.00000000000E+00 0.  1.
         -2    1    1    2    0  502 -0.94005181767E+02 -0.28647841457E+02 -0.96971379665E+02  0.13806202046E+03  0.00000000000E+00 0.  1.
<scales pt_clust_5="13000.00000" pt_clust_6="13000.00000" pt_clust_7="13000.00000" pt_clust_8="13000.00000" pt_clust_9="13000.00000"></scales>
<clustering>
<clus scale="   79.568">  5  6 -1 -1</clus>
<clus scale="   98.669">  2  5  1 -1</clus>
<clus scale="   98.868">  7  8 -1 -1</clus>
<clus scale="   66.150">  7  9 -1 -1</clus>
<clus scale="  213.596">  1  5  2 -1</clus>
</clustering>
</event>
<event>
 9    2  0.2147756E-005  0.6773714E+03  0.7546771E-02  0.1014412E+00
         21   -1    0    0  501  502  0.00000000000E+00  0.00000000000E+00  0.15312894439E+03  0.15312894439E+03  0.00000000000E+00 0. -1.
          2   -1    0    0  502    0 -0.00000000000E+00 -0.00000000000E+00 -0.13615147771E+04  0.13615147771E+04  0.00000000000E+00 0. -1.
         24    2    1    2    0    0 -0.17821468366E+03 -0.27861294280E+02 -0.48527345124E+03  0.52382412811E+03  0.79778878903E+02 0.  0.
         23    2    1    2    0    0  0.10613421868E+03  0.33146802579E+03 -0.31555064993E+03  0.47751733752E+03  0.85528185184E+02 0.  0.
        -11    1    3    3    0    0 -0.14378452781E+03 -0.63527617199E+01 -0.44035759544E+03  0.46328086501E+03  0.00000000000E+00 0.  1.
         12    1    3    3    0    0 -0.34430155852E+02 -0.21508532560E+02 -0.44915855798E+02  0.60543263101E+02  0.00000000000E+00 0. -1.
        -13    1    4    4    0    0  0.39943079130E+02  0.18051303049E+03 -0.11420771380E+03  0.21731039009E+03  0.00000000000E+00 0.  1.
         13    1    4    4    0    0  0.66191139549E+02  0.15095499529E+03 -0.20134293614E+03  0.26020694743E+03  0.00000000000E+00 0. -1.
          1    1    1    2  501    0  0.72080464985E+02 -0.30360673151E+03 -0.40756173151E+03  0.51330225583E+03  0.00000000000E+00 0. -1.
<scales pt_clust_5="13000.00000" pt_clust_6="13000.00000" pt_clust_7="13000.00000" pt_clust_8="13000.00000" pt_clust_9="13000.00000"></scales>
<clustering>
<clus scale="   79.779">  5  6 -1 -1</clus>
<clus scale="   85.528">  7  8 -1 -1</clus>
<clus scale="  197.234">  2  5  1 -1</clus>
<clus scale="  319.454">  7  9 -1 -1</clus>
<clus scale="  677.371">  1  5  2 -1</clus>
</clustering>
</event>
<event>
 9    2  0.2147756E-005  0.1727123E+03  0.7546771E-02  0.1206887E+00
          2   -1    0    0  502    0 -0.00000000000E+00  0.00000000000E+00  0.62456117531E+03  0.62456117531E+03  0.00000000000E+00 0. -1.
         21   -1    0    0  501  502  0.00000000000E+00 -0.00000000000E+00 -0.28239116381E+02  0.28239116381E+02  0.00000000000E+00 0. -1.
         24    2    1    2    0    0  0.26932231036E+01 -0.32268302248E+02  0.27499498382E+03  0.28799811838E+03  0.79197085072E+02 0.  0.
         23    2    1    2    0    0 -0.32350064856E+02  0.66697458026E+02  0.28409635324E+03  0.30605677620E+03  0.86399853782E+02 0.  0.
        -11    1    3    3    0    0  0.10915158989E+02  0.23342604600E+02  0.12911864037E+03  0.13166488210E+03  0.00000000000E+00 0.  1.
         12    1    3    3    0    0 -0.82219358851E+01 -0.55610906848E+02  0.14587634345E+03  0.15633323629E+03  0.00000000000E+00 0. -1.
        -11    1    4    4    0    0  0.29170342819E+02  0.31509869014E+02  0.10378794411E+03  0.11231971371E+03  0.00000000000E+00 0.  1.
         11    1    4    4    0    0 -0.61520407675E+02  0.35187589012E+02  0.18030840913E+03  0.19373706249E+03  0.00000000000E+00 0. -1.
          1    1    1    2  501    0  0.29656841752E+02 -0.34429155778E+02  0.37230721871E+02  0.58745397107E+02  0.00000000000E+00 0. -1.
<scales pt_clust_5="13000.00000" pt_clust_6="13000.00000" pt_clust_7="13000.00000" pt_clust_8="13000.00000" pt_clust_9="13000.00000"></scales>
<clustering>
<clus scale="   79.197">  5  6 -1 -1</clus>
<clus scale="   85.561">  1  5  2 -1</clus>
<clus scale="   86.400">  7  8 -1 -1</clus>
<clus scale="   49.179">  7  9 -1 -1</clus>
<clus scale="  172.712">  2  5  1 -1</clus>
</clustering>
</event>
<event>
 9    2  0.2147756E-005  0.3159413E+03  0.7546771E-02  0.1111763E+00
          2   -1    0    0  502    0 -0.00000000000E+00  0.00000000000E+00  0.13274964648E+03  0.13274964648E+03  0.00000000000E+00 0. -1.
         21   -1    0    0  501  502  0.00000000000E+00 -0.00000000000E+00 -0.51022557964E+03  0.51022557964E+03  0.00000000000E+00 0. -1.
         24    2    1    2    0    0 -0.83332692325E+02 -0.58064928250E+02  0.25104638882E+02  0.13122331349E+03  0.79205060497E+02 0.  0.
         23    2    1    2    0    0  0.60854853859E+02  0.14512730485E+03 -0.12093217086E+03  0.21609851331E+03  0.85491108635E+02 0.  0.
        -11    1    3    3    0    0  0.15074581414E+02 -0.14044749603E+02  0.78437082017E+01  0.22045901083E+02  0.00000000000E+00 0.  1.
         12    1    3    3    0    0 -0.98407273739E+02 -0.44020178647E+02  0.17260930680E+02  0.10917741241E+03  0.00000000000E+00 0. -1.
        -11    1    4    4    0    0  0.21252078908E+02  0.12231398041E+03 -0.54783819524E+02  0.13569682216E+03  0.00000000000E+00 0.  1.
         11    1    4    4    0    0  0.39602774951E+02  0.22813324433E+02 -0.66148351333E+02  0.80401691148E+02  0.00000000000E+00 0. -1.
          1    1    1    2  501    0  0.22477838466E+02 -0.87062376597E+02 -0.28164840118E+03  0.29565339932E+03  0.00000000000E+00 0. -1.
<scales pt_clust_5="13000.00000" pt_clust_6="13000.00000" pt_clust_7="13000.00000" pt_clust_8="13000.00000" pt_clust_9="13000.00000"></scales>
<clustering>
<clus scale="   79.205">  5  6 -1 -1</clus>
<clus scale="   85.491">  7  8 -1 -1</clus>
<clus scale="   89.917">  7  9 -1 -1</clus>
<clus scale="  128.800">  1  5  2 -1</clus>
<clus scale="  315.941">  2  5  1 -1</clus>
</clustering>
</event>
<event>
 9    2  0.2147756E-005  0.3455242E+03  0.7546771E-02  0.1114918E+00
         21   -1    0    0  501  502  0.00000000000E+00  0.00000000000E+00  0.45754068404E+03  0.45754068404E+03  0.00000000000E+00 0. -1.
          2   -1    0    0  502    0 -0.00000000000E+00 -0.00000000000E+00 -0.12499538687E+03  0.12499538687E+03  0.00000000000E+00 0. -1.
         24    2    1    2    0    0 -0.69974274777E+01  0.39314930800E+02  0.18637531284E+03  0.20736592860E+03  0.81671557675E+02 0.  0.
         23    2    1    2    0    0 -0.13818901539E+02  0.99876964463E+02 -0.40048015821E+02  0.14175024847E+03  0.91230035071E+02 0.  0.
        -13    1    3    3    0    0 -0.37776087635E+02  0.73284763221E+01  0.13020914135E+03  0.13577613875E+03  0.00000000000E+00 0.  1.
         14    1    3    3    0    0  0.30778660157E+02  0.31986454478E+02  0.56166171483E+02  0.71589789846E+02  0.00000000000E+00 0. -1.
        -11    1    4    4    0    0  0.32647643268E+02  0.64116275009E+02 -0.41571925948E+02  0.83096271631E+02  0.00000000000E+00 0.  1.
         11    1    4    4    0    0 -0.46466544807E+02  0.35760689454E+02  0.15239101275E+01  0.58653976835E+02  0.00000000000E+00 0. -1.
          1    1    1    2  501    0  0.20816329017E+02 -0.13919189526E+03  0.18621800015E+03  0.23341989384E+03  0.00000000000E+00 0. -1.
<scales pt_clust_5="13000.00000" pt_clust_6="13000.00000" pt_clust_7="13000.00000" pt_clust_8="13000.00000" pt_clust_9="13000.00000"></scales>
<clustering>
<clus scale="   81.672">  5  6 -1 -1</clus>
<clus scale="   90.911">  2  5  1 -1</clus>
<clus scale="   91.230">  7  8 -1 -1</clus>
<clus scale="  132.512">  7  9 -1 -1</clus>
<clus scale="  345.524">  1  5  2 -1</clus>
</clustering>
</event>
<event>
 9    2  0.2147756E-005  0.2565510E+03  0.7546771E-02  0.1128973E+00
          2   -1    0    0  502    0 -0.00000000000E+00  0.00000000000E+00  0.77677417313E+03  0.77677417313E+03  0.00000000000E+00 0. -1.
         21   -1    0    0  501  502  0.00000000000E+00 -0.00000000000E+00 -0.89201291941E+02  0.89201291941E+02  0.00000000000E+00 0. -1.
         24    2    1    2    0    0 -0.92194626632E+02  0.85115656370E+02  0.55611392107E+03  0.57770497662E+03  0.93465622915E+02 0.  0.
         23    2    1    2    0    0 -0.20241553952E+02 -0.23064094079E+02  0.12922055752E+03  0.15982866686E+03  0.88913313517E+02 0.  0.
        -13    1    3    3    0    0 -0.50570870116E+02  0.99889562295E+02  0.38131153949E+03  0.39740889234E+03  0.00000000000E+00 0.  1.
         14    1    3    3    0    0 -0.41623756516E+02 -0.14773905925E+02  0.17480238158E+03  0.18029608428E+03  0.00000000000E+00 0. -1.
        -11    1    4    4    0    0 -0.30205471335E+02 -0.53767120502E+02  0.88442732021E+02  0.10782110458E+03  0.00000000000E+00 0. -1.
         11    1    4    4    0    0  0.99639173832E+01  0.30703026424E+02  0.40777825502E+02  0.52007562276E+02  0.00000000000E+00 0.  1.
          1    1    1    2  501    0  0.11243618058E+03 -0.62051562292E+02  0.22384025950E+01  0.12844182159E+03  0.00000000000E+00 0. -1.
<scales pt_clust_5="13000.00000" pt_clust_6="13000.00000" pt_clust_7="13000.00000" pt_clust_8="13000.00000" pt_clust_9="13000.00000"></scales>
<clustering>
<clus scale="   88.913">  7  8 -1 -1</clus>
<clus scale="   93.466">  5  6 -1 -1</clus>
<clus scale="  128.422">  7  9 -1 -1</clus>
<clus scale="  156.462">  1  5  2 -1</clus>
<clus scale="  256.551">  2  5  1 -1</clus>
</clustering>
</event>
<event>
 9    2  0.2147756E-005  0.9732925E+03  0.7546771E-02  0.9897892E-01
          4   -1    0    0  502    0 -0.00000000000E+00  0.00000000000E+00  0.55615801504E+03  0.55615801504E+03  0.00000000000E+00 0. -1.
         21   -1    0    0  501  502  0.00000000000E+00 -0.00000000000E+00 -0.56114781620E+03  0.56114781620E+03  0.00000000000E+00 0.  1.
         24    2    1    2    0    0 -0.84016776038E+02 -0.82681994513E+02 -0.56355009444E+00  0.14400323134E+03  0.82713252727E+02 0.  0.
         23    2    1    2    0    0  0.74061583704E+02  0.28679624448E+03 -0.41290404811E+03  0.51655776570E+03  0.92762968539E+02 0.  0.
        -11    1    3    3    0    0 -0.63871703348E+01 -0.61860331109E+02  0.98272065596E+01  0.62960864817E+02  0.00000000000E+00 0.  1.
         12    1    3    3    0    0 -0.77629605703E+02 -0.20821663404E+02 -0.10390756654E+02  0.81042366527E+02  0.00000000000E+00 0. -1.
        -11    1    4    4    0    0  0.41806642444E+02  0.20733216570E+03 -0.21861337869E+03  0.30418124799E+03  0.00000000000E+00 0.  1.
         11    1    4    4    0    0  0.32254941260E+02  0.79464078780E+02 -0.19429066942E+03  0.21237651771E+03  0.00000000000E+00 0. -1.
          3    1    1    2  501    0  0.99551923338E+01 -0.20411424996E+03  0.40847779704E+03  0.45674483420E+03  0.00000000000E+00 0. -1.
<scales pt_clust_5="13000.00000" pt_clust_6="13000.00000" pt_clust_7="13000.00000" pt_clust_8="13000.00000" pt_clust_9="13000.00000"></scales>
<clustering>
<clus scale="   82.713">  5  6 -1 -1</clus>
<clus scale="   92.763">  7  8 -1 -1</clus>
<clus scale="  144.002">  1  5  2 -1</clus>
<clus scale="  285.467">  7  9 -1 -1</clus>
<clus scale="  973.293">  2  5  1 -1</clus>
</clustering>
</event>
<event>
 9    2  0.3331606E-005  0.1143769E+04  0.7546771E-02  0.9746816E-01
         21   -1    0    0  501  502  0.00000000000E+00  0.00000000000E+00  0.27479337943E+03  0.27479337943E+03  0.00000000000E+00 0. -1.
          2   -1    0    0  502    0 -0.00000000000E+00 -0.00000000000E+00 -0.18170411551E+04  0.18170411551E+04  0.00000000000E+00 0. -1.
         24    2    1    2    0    0  0.91880427235E+02  0.77853802450E+02  0.29107869703E+02  0.14828992738E+03  0.81482556525E+02 0.  0.
         23    2    1    2    0    0 -0.54034797868E+03 -0.10870257211E+03 -0.13076367039E+04  0.14223704794E+04  0.97117682000E+02 0.  0.
        -11    1    3    3    0    0  0.32100989712E+02 -0.69012706234E+01 -0.14355133944E+02  0.35835330991E+02  0.00000000000E+00 0.  1.
         12    1    3    3    0    0  0.59779437524E+02  0.84755073073E+02  0.43463003646E+02  0.11245459639E+03  0.00000000000E+00 0. -1.
        -11    1    4    4    0    0 -0.56255766039E+02  0.17298771262E+02 -0.15876775366E+03  0.16932559849E+03  0.00000000000E+00 0.  1.
         11    1    4    4    0    0 -0.48409221264E+03 -0.12600134337E+03 -0.11488689502E+04  0.12530448810E+04  0.00000000000E+00 0. -1.
          1    1    1    2  501    0  0.44846755144E+03  0.30848769658E+02 -0.26371894142E+03  0.52117412767E+03  0.00000000000E+00 0. -1.
<scales pt_clust_5="13000.00000" pt_clust_6="13000.00000" pt_clust_7="13000.00000" pt_clust_8="13000.00000" pt_clust_9="13000.00000"></scales>
<clustering>
<clus scale="   81.483">  5  6 -1 -1</clus>
<clus scale="   97.118">  7  8 -1 -1</clus>
<clus scale="  145.405">  2  5  1 -1</clus>
<clus scale="  471.459">  7  9 -1 -1</clus>
<clus scale=" 1143.769">  1  5  2 -1</clus>
</clustering>
</event>
<event>
 9    2  0.2147756E-005  0.2855595E+03  0.7546771E-02  0.1098413E+00
          2   -1    0    0  502    0 -0.00000000000E+00  0.00000000000E+00  0.87515073593E+02  0.87515073593E+02  0.00000000000E+00 0. -1.
         21   -1    0    0  501  502  0.00000000000E+00 -0.00000000000E+00 -0.10806147888E+04  0.10806147888E+04  0.00000000000E+00 0.  1.
         24    2    1    2    0    0  0.10689164174E+03 -0.20656279674E+03 -0.76229076327E+03  0.80095547918E+03  0.79677222483E+02 0.  0.
         23    2    1    2    0    0 -0.43127048295E+01  0.48063086446E+02 -0.77508077406E+02  0.12397538118E+03  0.83867355823E+02 0.  0.
        -13    1    3    3    0    0  0.11814510087E+03 -0.18261971048E+03 -0.70624857430E+03  0.73898259264E+03  0.00000000000E+00 0.  1.
         14    1    3    3    0    0 -0.11253459122E+02 -0.23943086257E+02 -0.56042188969E+02  0.61972886541E+02  0.00000000000E+00 0. -1.
        -11    1    4    4    0    0 -0.39761982479E+02  0.43184786002E+01 -0.26310132984E+02  0.47873662966E+02  0.00000000000E+00 0. -1.
         11    1    4    4    0    0  0.35449277650E+02  0.43744607845E+02 -0.51197944422E+02  0.76101718210E+02  0.00000000000E+00 0.  1.
          1    1    1    2  501    0 -0.10257893691E+03  0.15849971029E+03 -0.15330087453E+03  0.24319900204E+03  0.00000000000E+00 0. -1.
<scales pt_clust_5="13000.00000" pt_clust_6="13000.00000" pt_clust_7="13000.00000" pt_clust_8="13000.00000" pt_clust_9="13000.00000"></scales>
<clustering>
<clus scale="   79.677">  5  6 -1 -1</clus>
<clus scale="   83.867">  7  8 -1 -1</clus>
<clus scale="  188.798">  7  9 -1 -1</clus>
<clus scale="  245.851">  1  5  2 -1</clus>
<clus scale="  285.560">  2  5  1 -1</clus>
</clustering>
</event>
<event>
 9    2  0.2147756E-005  0.2359779E+03  0.7546771E-02  0.1158641E+00
         21   -1    0    0  501  502  0.00000000000E+00  0.00000000000E+00  0.34156744876E+02  0.34156744876E+02  0.00000000000E+00 0. -1.
          2   -1    0    0  502    0 -0.00000000000E+00 -0.00000000000E+00 -0.82049840164E+03  0.82049840164E+03  0.00000000000E+00 0. -1.
         24    2    1    2    0    0  0.54264572689E+02  0.19519768857E+02 -0.24060669606E+03  0.26008619518E+03  0.80172199113E+02 0.  0.
         23    2    1    2    0    0 -0.52395580227E+02  0.83084985673E+02 -0.34251502580E+03  0.36690786391E+03  0.87501005870E+02 0.  0.
        -13    1    3    3    0    0 -0.16804803621E+02  0.15910230532E+02 -0.30699052222E+02  0.38444358073E+02  0.00000000000E+00 0.  1.
         14    1    3    3    0    0  0.71069376309E+02  0.36095383244E+01 -0.20990764384E+03  0.22164183711E+03  0.00000000000E+00 0. -1.
        -13    1    4    4    0    0 -0.34580474205E+02  0.43957005661E+02 -0.30426544142E+03  0.30936303332E+03  0.00000000000E+00 0. -1.
         13    1    4    4    0    0 -0.17815106022E+02  0.39127980012E+02 -0.38249584385E+02  0.57544830594E+02  0.00000000000E+00 0.  1.
          1    1    1    2  501    0 -0.18689924618E+01 -0.10260475453E+03 -0.20321993490E+03  0.22766108743E+03  0.00000000000E+00 0. -1.
<scales pt_clust_5="13000.00000" pt_clust_6="13000.00000" pt_clust_7="13000.00000" pt_clust_8="13000.00000" pt_clust_9="13000.00000"></scales>
<clustering>
<clus scale="   80.172">  5  6 -1 -1</clus>
<clus scale="   87.501">  7  8 -1 -1</clus>
<clus scale="   98.759">  2  5  1 -1</clus>
<clus scale="   97.035">  7  9 -1 -1</clus>
<clus scale="  235.978">  1  5  2 -1</clus>
</clustering>
</event>
<event>
 9    2  0.2147756E-005  0.5618065E+03  0.7546771E-02  0.1057076E+00
         -3   -1    0    0    0  501 -0.00000000000E+00  0.00000000000E+00  0.15829724386E+03  0.15829724386E+03  0.00000000000E+00 0.  1.
         21   -1    0    0  501  502  0.00000000000E+00 -0.00000000000E+00 -0.69810194323E+03  0.69810194323E+03  0.00000000000E+00 0.  1.
         24    2    1    2    0    0  0.55149739081E+02  0.27753525602E+02 -0.11773247995E+03  0.15371041259E+03  0.77163477115E+02 0.  0.
         23    2    1    2    0    0 -0.37073113161E+02  0.22109100279E+03 -0.38296939812E+02  0.24494012191E+03  0.90958014958E+02 0.  0.
        -13    1    3    3    0    0  0.27188298028E+02  0.21079557123E+02 -0.19997085271E+01  0.34460848979E+02  0.00000000000E+00 0.  1.
         14    1    3    3    0    0  0.27961441053E+02  0.66739684793E+01 -0.11573277142E+03  0.11924956361E+03  0.00000000000E+00 0. -1.
        -13    1    4    4    0    0 -0.47790217711E+02  0.69487032525E+02  0.11258198388E+02  0.85082898569E+02  0.00000000000E+00 0. -1.
         13    1    4    4    0    0  0.10717104550E+02  0.15160397027E+03 -0.49555138200E+02  0.15985722334E+03  0.00000000000E+00 0.  1.
         -4    1    1    2    0  502 -0.18076625920E+02 -0.24884452839E+03 -0.38377527961E+03  0.45774865260E+03  0.00000000000E+00 0.  1.
<scales pt_clust_5="13000.00000" pt_clust_6="13000.00000" pt_clust_7="13000.00000" pt_clust_8="13000.00000" pt_clust_9="13000.00000"></scales>
<clustering>
<clus scale="   77.163">  5  6 -1 -1</clus>
<clus scale="   90.958">  7  8 -1 -1</clus>
<clus scale="   98.823">  1  5  2 -1</clus>
<clus scale="  241.554">  7  9 -1 -1</clus>
<clus scale="  561.807">  2  5  1 -1</clus>
</clustering>
</event>
<event>
 9    2  0.2147756E-005  0.3271009E+03  0.7546771E-02  0.1122007E+00
          2   -1    0    0  502    0 -0.00000000000E+00  0.00000000000E+00  0.68292289747E+03  0.68292289747E+03  0.00000000000E+00 0. -1.
         21   -1    0    0  501  502  0.00000000000E+00 -0.00000000000E+00 -0.82572714754E+02  0.82572714754E+02  0.00000000000E+00 0. -1.
         24    2    1    2    0    0 -0.78141094169E+01 -0.40449296664E+02  0.32741870115E+03  0.33948319191E+03  0.79678264415E+02 0.  0.
         23    2    1    2    0    0  0.26182898127E+02 -0.92756538851E+01 -0.46297502173E+02  0.10241216203E+03  0.87024193842E+02 0.  0.
        -13    1    3    3    0    0  0.16645195631E+02  0.16597142334E+02  0.50629937579E+02  0.55820410698E+02  0.00000000000E+00 0.  1.
         14    1    3    3    0    0 -0.24459305048E+02 -0.57046438999E+02  0.27678876357E+03  0.28366278121E+03  0.00000000000E+00 0. -1.
        -13    1    4    4    0    0 -0.27276934983E+02  0.43899157997E+01  0.37948882701E+01  0.27887339776E+02  0.00000000000E+00 0.  1.
         13    1    4    4    0    0  0.53459833110E+02 -0.13665569685E+02 -0.50092390443E+02  0.74524822249E+02  0.00000000000E+00 0. -1.
          1    1    1    2  501    0 -0.18368788710E+02  0.49724950549E+02  0.31922898374E+03  0.32360025829E+03  0.00000000000E+00 0. -1.
<scales pt_clust_5="13000.00000" pt_clust_6="13000.00000" pt_clust_7="13000.00000" pt_clust_8="13000.00000" pt_clust_9="13000.00000"></scales>
<clustering>
<clus scale="   79.678">  5  6 -1 -1</clus>
<clus scale="   87.024">  7  8 -1 -1</clus>
<clus scale="   53.009">  7  9 -1 -1</clus>
<clus scale="   89.699">  1  5  2 -1</clus>
<clus scale="  327.101">  2  5  1 -1</clus>
</clustering>
</event>
<event>
 9    2  0.2147756E-005  0.1623581E+03  0.7546771E-02  0.1215545E+00
         21   -1    0    0  501  502  0.00000000000E+00  0.00000000000E+00  0.60595306993E+02  0.60595306993E+02  0.00000000000E+00 0.  1.
          2   -1    0    0  502    0 -0.00000000000E+00 -0.00000000000E+00 -0.67630685769E+03  0.67630685769E+03  0.00000000000E+00 0. -1.
         24    2    1    2    0    0 -0.31814830391E+02 -0.89357956260E+01 -0.55808844844E+03  0.56462161213E+03  0.79011497442E+02 0.  0.
         23    2    1    2    0    0  0.72470523543E+02  0.82036665756E+01 -0.61299351810E+02  0.13145242243E+03  0.90569597012E+02 0.  0.
        -13    1    3    3    0    0  0.93877266466E+01 -0.20053808500E+02 -0.49272637973E+02  0.54019232684E+02  0.00000000000E+00 0.  1.
         14    1    3    3    0    0 -0.41202557037E+02  0.11118012874E+02 -0.50881581046E+03  0.51060237945E+03  0.00000000000E+00 0. -1.
        -13    1    4    4    0    0  0.88609688011E+02  0.23022505442E+02 -0.37033229923E+02  0.98758152498E+02  0.00000000000E+00 0.  1.
         13    1    4    4    0    0 -0.16139164468E+02 -0.14818838866E+02 -0.24266121887E+02  0.32694269934E+02  0.00000000000E+00 0. -1.
          1    1    1    2  501    0 -0.40655693153E+02  0.73212905038E+00  0.36762495479E+01  0.40828130124E+02  0.00000000000E+00 0. -1.
<scales pt_clust_5="13000.00000" pt_clust_6="13000.00000" pt_clust_7="13000.00000" pt_clust_8="13000.00000" pt_clust_9="13000.00000"></scales>
<clustering>
<clus scale="   79.011">  5  6 -1 -1</clus>
<clus scale="   85.644">  2  5  1 -1</clus>
<clus scale="   90.570">  7  8 -1 -1</clus>
<clus scale="   45.802">  7  9 -1 -1</clus>
<clus scale="  162.358">  1  5  2 -1</clus>
</clustering>
</event>
<event>
 9    2  0.2147756E-005  0.5758085E+03  0.7546771E-02  0.1008330E+00
         21   -1    0    0  501  502  0.00000000000E+00  0.00000000000E+00  0.19889146032E+03  0.19889146032E+03  0.00000000000E+00 0. -1.
          2   -1    0    0  502    0 -0.00000000000E+00 -0.00000000000E+00 -0.11980089107E+04  0.11980089107E+04  0.00000000000E+00 0. -1.
         24    2    1    2    0    0  0.10254789775E+03 -0.36434700350E+03 -0.29197160507E+03  0.48497347693E+03  0.81774353340E+02 0.  0.
         23    2    1    2    0    0  0.59116931760E+02  0.31215880811E+02  0.63484065127E+00  0.11313695835E+03  0.91270616778E+02 0.  0.
        -13    1    3    3    0    0  0.24867261687E+02 -0.56813008749E+02 -0.14837460407E+02  0.63767145916E+02  0.00000000000E+00 0.  1.
         14    1    3    3    0    0  0.77680636066E+02 -0.30753399475E+03 -0.27713414467E+03  0.42120633102E+03  0.00000000000E+00 0. -1.
        -13    1    4    4    0    0  0.21212773024E+02  0.58114054616E+02  0.16497083416E+02  0.64026391781E+02  0.00000000000E+00 0.  1.
         13    1    4    4    0    0  0.37904158736E+02 -0.26898173805E+02 -0.15862242764E+02  0.49110566572E+02  0.00000000000E+00 0. -1.
          1    1    1    2  501    0 -0.16166482951E+03  0.33313112269E+03 -0.70778068595E+03  0.79878993572E+03  0.00000000000E+00 0. -1.
<scales pt_clust_5="13000.00000" pt_clust_6="13000.00000" pt_clust_7="13000.00000" pt_clust_8="13000.00000" pt_clust_9="13000.00000"></scales>
<clustering>
<clus scale="   81.774">  5  6 -1 -1</clus>
<clus scale="   91.271">  7  8 -1 -1</clus>
<clus scale="  370.286">  7  9 -1 -1</clus>
<clus scale="  387.236">  2  5  1 -1</clus>
<clus scale="  575.808">  1  5  2 -1</clus>
</clustering>
</event>
<event>
 9    2  0.2147756E-005  0.5424217E+03  0.7546771E-02  0.1030033E+00
         21   -1    0    0  501  502  0.00000000000E+00  0.00000000000E+00  0.46123805849E+03  0.46123805849E+03  0.00000000000E+00 0.  1.
          4   -1    0    0  502    0 -0.00000000000E+00 -0.00000000000E+00 -0.38221442290E+03  0.38221442290E+03  0.00000000000E+00 0. -1.
         24    2    1    2    0    0  0.11225916771E+03 -0.19607499913E+03  0.16925076506E+03  0.29357774157E+03  0.80588726596E+02 0.  0.
         23    2    1    2    0    0  0.16188257321E+03  0.81290324014E+02 -0.14256334833E+03  0.24809949967E+03  0.91733141018E+02 0.  0.
        -13    1    3    3    0    0  0.12337266544E+03 -0.19159526614E+03  0.16153122244E+03  0.27932399898E+03  0.00000000000E+00 0.  1.
         14    1    3    3    0    0 -0.11113497732E+02 -0.44797329905E+01  0.77195426284E+01  0.14253742593E+02  0.00000000000E+00 0. -1.
        -13    1    4    4    0    0  0.89543659146E+02  0.84853570131E+02 -0.56698408757E+02  0.13576783423E+03  0.00000000000E+00 0.  1.
         13    1    4    4    0    0  0.72338914066E+02 -0.35632461172E+01 -0.85864939578E+02  0.11233166544E+03  0.00000000000E+00 0. -1.
          3    1    1    2  501    0 -0.27414174092E+03  0.11478467512E+03  0.52336218865E+02  0.30177524014E+03  0.00000000000E+00 0. -1.
<scales pt_clust_5="13000.00000" pt_clust_6="13000.00000" pt_clust_7="13000.00000" pt_clust_8="13000.00000" pt_clust_9="13000.00000"></scales>
<clustering>
<clus scale="   80.589">  5  6 -1 -1</clus>
<clus scale="   91.733">  7  8 -1 -1</clus>
<clus scale="  239.879">  2  5  1 -1</clus>
<clus scale="  233.570">  7  9 -1 -1</clus>
<clus scale="  542.422">  1  5  2 -1</clus>
</clustering>
</event>
<event>
 9    2  0.2147756E-005  0.2511149E+03  0.7546771E-02  0.1152547E+00
         21   -1    0    0  501  502  0.00000000000E+00  0.00000000000E+00  0.68400428244E+02  0.68400428244E+02  0.00000000000E+00 0.  1.
         -1   -1    0    0    0  501 -0.00000000000E+00 -0.00000000000E+00 -0.52143795974E+03  0.52143795974E+03  0.00000000000E+00 0.  1.
         24    2    1    2    0    0  0.47753057283E+02  0.14533458351E+02 -0.32402445990E+02  0.99947999578E+02  0.80300113462E+02 0.  0.
         23    2    1    2    0    0  0.57983524146E+02 -0.73099181222E+02 -0.22462342884E+03  0.25960635054E+03  0.90742454719E+02 0.  0.
        -13    1    3    3    0    0  0.30421567724E+02 -0.17879610512E+02  0.16351503502E+02  0.38891180512E+02  0.00000000000E+00 0.  1.
         14    1    3    3    0    0  0.17331489559E+02  0.32413068863E+02 -0.48753949492E+02  0.61056819066E+02  0.00000000000E+00 0. -1.
        -11    1    4    4    0    0  0.58508781906E+02 -0.37475216452E+01 -0.12673796328E+03  0.13964180182E+03  0.00000000000E+00 0.  1.
         11    1    4    4    0    0 -0.52525776025E+00 -0.69351659576E+02 -0.97885465555E+02  0.11996454872E+03  0.00000000000E+00 0. -1.
         -2    1    1    2    0  502 -0.10573658143E+03  0.58565722870E+02 -0.19601165667E+03  0.23028403787E+03  0.00000000000E+00 0.  1.
<scales pt_clust_5="13000.00000" pt_clust_6="13000.00000" pt_clust_7="13000.00000" pt_clust_8="13000.00000" pt_clust_9="13000.00000"></scales>
<clustering>
<clus scale="   80.300">  5  6 -1 -1</clus>
<clus scale="   90.742">  7  8 -1 -1</clus>
<clus scale="   94.550">  2  5  1 -1</clus>
<clus scale="  105.950">  7  9 -1 -1</clus>
<clus scale="  251.115">  1  5  2 -1</clus>
</clustering>
</event>
<event>
 9    2  0.2147756E-005  0.5184951E+03  0.7546771E-02  0.1049944E+00
         21   -1    0    0  501  502  0.00000000000E+00  0.00000000000E+00  0.60433919854E+03  0.60433919854E+03  0.00000000000E+00 0.  1.
         -3   -1    0    0    0  501 -0.00000000000E+00 -0.00000000000E+00 -0.46156446954E+03  0.46156446954E+03  0.00000000000E+00 0.  1.
         24    2    1    2    0    0  0.61074779165E+02  0.10781994832E+03 -0.33007231109E+03  0.36417614770E+03  0.91220974029E+02 0.  0.
         23    2    1    2    0    0  0.82550656964E+02 -0.10140044552E+03 -0.43855317644E+02  0.16539665011E+03  0.91302254438E+02 0.  0.
        -13    1    3    3    0    0  0.73819982122E+02  0.92806309961E+02 -0.32154565659E+03  0.34271564044E+03  0.00000000000E+00 0.  1.
         14    1    3    3    0    0 -0.12745202957E+02  0.15013638359E+02 -0.85266545016E+01  0.21460507268E+02  0.00000000000E+00 0. -1.
        -13    1    4    4    0    0  0.17245131785E+02 -0.56313005231E+02 -0.60369333562E+02  0.84338636242E+02  0.00000000000E+00 0. -1.
         13    1    4    4    0    0  0.65305525178E+02 -0.45087440285E+02  0.16514015918E+02  0.81058013867E+02  0.00000000000E+00 0.  1.
         -4    1    1    2    0  502 -0.14362543613E+03 -0.64195028044E+01  0.51670235774E+03  0.53633087027E+03  0.00000000000E+00 0.  1.
<scales pt_clust_5="13000.00000" pt_clust_6="13000.00000" pt_clust_7="13000.00000" pt_clust_8="13000.00000" pt_clust_9="13000.00000"></scales>
<clustering>
<clus scale="   91.221">  5  6 -1 -1</clus>
<clus scale="   91.302">  7  8 -1 -1</clus>
<clus scale="  143.769">  7  9 -1 -1</clus>
<clus scale="  153.872">  2  5  1 -1</clus>
<clus scale="  518.495">  1  5  2 -1</clus>
</clustering>
</event>
<event>
 9    2  0.2147756E-005  0.4758714E+03  0.7546771E-02  0.1057314E+00
         21   -1    0    0  501  502  0.00000000000E+00  0.00000000000E+00  0.36142988534E+03  0.36142988534E+03  0.00000000000E+00 0. -1.
          2   -1    0    0  502    0 -0.00000000000E+00 -0.00000000000E+00 -0.28150403454E+03  0.28150403454E+03  0.00000000000E+00 0. -1.
         24    2    1    2    0    0 -0.13689877641E+03  0.32177241649E+02  0.31903666902E+02  0.16464561701E+03  0.79458702338E+02 0.  0.
         23    2    1    2    0    0 -0.13751704526E+03  0.53025823598E+02  0.76066087295E+02  0.18958418785E+03  0.91833757096E+02 0.  0.
        -11    1    3    3    0    0 -0.80106087955E+02 -0.21182362957E+02  0.85778467546E+01  0.83302204550E+02  0.00000000000E+00 0.  1.
         12    1    3    3    0    0 -0.56792688452E+02  0.53359604606E+02  0.23325820148E+02  0.81343412462E+02  0.00000000000E+00 0. -1.
        -13    1    4    4    0    0 -0.30837737123E+02  0.25361660228E+02  0.68285770151E+02  0.79101998998E+02  0.00000000000E+00 0.  1.
         13    1    4    4    0    0 -0.10667930814E+03  0.27664163369E+02  0.77803171445E+01  0.11048218885E+03  0.00000000000E+00 0. -1.
          1    1    1    2  501    0  0.27441582167E+03 -0.85203065246E+02 -0.28043903401E+02  0.28870411501E+03  0.00000000000E+00 0. -1.
<scales pt_clust_5="13000.00000" pt_clust_6="13000.00000" pt_clust_7="13000.00000" pt_clust_8="13000.00000" pt_clust_9="13000.00000"></scales>
<clustering>
<clus scale="   79.459">  5  6 -1 -1</clus>
<clus scale="   91.834">  7  8 -1 -1</clus>
<clus scale="  161.525">  2  5  1 -1</clus>
<clus scale="  184.210">  7  9 -1 -1</clus>
<clus scale="  475.871">  1  5  2 -1</clus>
</clustering>
</event>
<event>
 9    2  0.2147756E-005  0.2792968E+03  0.7546771E-02  0.1156865E+00
          2   -1    0    0  502    0 -0.00000000000E+00  0.00000000000E+00  0.79157830344E+03  0.79157830344E+03  0.00000000000E+00 0. -1.
         21   -1    0    0  501  502  0.00000000000E+00 -0.00000000000E+00 -0.36940881154E+02  0.36940881154E+02  0.00000000000E+00 0.  1.
         24    2    1    2    0    0  0.15617120934E+02 -0.29196330416E+02  0.11891216223E+03  0.13414657526E+03  0.52525052609E+02 0.  0.
         23    2    1    2    0    0  0.37988339316E+02 -0.90622564698E+02  0.21325171791E+03  0.25197685121E+03  0.91435634176E+02 0.  0.
        -11    1    3    3    0    0  0.19349250706E+02 -0.14832777822E+02  0.11660654260E+03  0.11912804279E+03  0.00000000000E+00 0.  1.
         12    1    3    3    0    0 -0.37321297713E+01 -0.14363552594E+02  0.23056196283E+01  0.15018532472E+02  0.00000000000E+00 0. -1.
        -11    1    4    4    0    0  0.96426598397E+01  0.18828741236E+02  0.32657495996E+02  0.38910338344E+02  0.00000000000E+00 0. -1.
         11    1    4    4    0    0  0.28345679477E+02 -0.10945130593E+03  0.18059422192E+03  0.21306651287E+03  0.00000000000E+00 0.  1.
          1    1    1    2  501    0 -0.53605460251E+02  0.11981889511E+03  0.42247354215E+03  0.44239575813E+03  0.00000000000E+00 0. -1.
<scales pt_clust_5="13000.00000" pt_clust_6="13000.00000" pt_clust_7="13000.00000" pt_clust_8="13000.00000" pt_clust_9="13000.00000"></scales>
<clustering>
<clus scale="   52.525">  5  6 -1 -1</clus>
<clus scale="   62.090">  1  5  2 -1</clus>
<clus scale="   91.436">  7  8 -1 -1</clus>
<clus scale="  109.798">  7  9 -1 -1</clus>
<clus scale="  279.297">  2  5  1 -1</clus>
</clustering>
</event>
<event>
 9    2  0.2147756E-005  0.4728260E+03  0.7546771E-02  0.1064263E+00
         21   -1    0    0  501  502  0.00000000000E+00  0.00000000000E+00  0.27815533760E+03  0.27815533760E+03  0.00000000000E+00 0. -1.
          2   -1    0    0  502    0 -0.00000000000E+00 -0.00000000000E+00 -0.34691795962E+03  0.34691795962E+03  0.00000000000E+00 0. -1.
         24    2    1    2    0    0 -0.15869611288E+02  0.10643615920E+03 -0.69215446425E+02  0.15224703899E+03  0.82509892189E+02 0.  0.
         23    2    1    2    0    0 -0.66406333357E+02  0.17673448266E+02 -0.19566950556E+03  0.22658147342E+03  0.91271336172E+02 0.  0.
        -13    1    3    3    0    0  0.27325679796E+02  0.41131566994E+02 -0.26066838850E+01  0.49449907792E+02  0.00000000000E+00 0.  1.
         14    1    3    3    0    0 -0.43195291084E+02  0.65304592206E+02 -0.66608762540E+02  0.10279713120E+03  0.00000000000E+00 0. -1.
        -13    1    4    4    0    0 -0.83632691382E+02 -0.10412895126E+01 -0.11641741608E+03  0.14334757103E+03  0.00000000000E+00 0. -1.
         13    1    4    4    0    0  0.17226358025E+02  0.18714737779E+02 -0.79252089479E+02  0.83233902394E+02  0.00000000000E+00 0.  1.
          1    1    1    2  501    0  0.82275944645E+02 -0.12410960747E+03  0.19612232997E+03  0.24624478481E+03  0.00000000000E+00 0. -1.
<scales pt_clust_5="13000.00000" pt_clust_6="13000.00000" pt_clust_7="13000.00000" pt_clust_8="13000.00000" pt_clust_9="13000.00000"></scales>
<clustering>
<clus scale="   82.510">  5  6 -1 -1</clus>
<clus scale="   91.271">  7  8 -1 -1</clus>
<clus scale="  135.604">  2  5  1 -1</clus>
<clus scale="  138.645">  7  9 -1 -1</clus>
<clus scale="  472.826">  1  5  2 -1</clus>
</clustering>
</event>
<event>
 9    2  0.2147756E-005  0.4829700E+03  0.7546771E-02  0.1078146E+00
         21   -1    0    0  501  502  0.00000000000E+00  0.00000000000E+00  0.82535639730E+03  0.82535639730E+03  0.00000000000E+00 0. -1.
          4   -1    0    0  502    0 -0.00000000000E+00 -0.00000000000E+00 -0.60852301711E+03  0.60852301711E+03  0.00000000000E+00 0. -1.
         24    2    1    2    0    0  0.24577230367E+02  0.17287872297E+02 -0.53404718584E+03  0.54108511378E+03  0.81632057862E+02 0.  0.
         23    2    1    2    0    0  0.93782972050E+02  0.18252275003E+03  0.22554577278E+03  0.31841631767E+03  0.91696540936E+02 0.  0.
        -11    1    3    3    0    0  0.37472206110E+02 -0.14175474304E+02 -0.14133812921E+03  0.14690669512E+03  0.00000000000E+00 0.  1.
         12    1    3    3    0    0 -0.12894975744E+02  0.31463346601E+02 -0.39270905663E+03  0.39417841866E+03  0.00000000000E+00 0. -1.
        -11    1    4    4    0    0  0.33155195928E+02  0.14863829995E+03  0.17794539178E+03  0.23421608332E+03  0.00000000000E+00 0. -1.
         11    1    4    4    0    0  0.60627776122E+02  0.33884450082E+02  0.47600380990E+02  0.84200234354E+02  0.00000000000E+00 0.  1.
          3    1    1    2  501    0 -0.11836020242E+03 -0.19981062233E+03  0.52533479325E+03  0.57437798296E+03  0.00000000000E+00 0. -1.
<scales pt_clust_5="13000.00000" pt_clust_6="13000.00000" pt_clust_7="13000.00000" pt_clust_8="13000.00000" pt_clust_9="13000.00000"></scales>
<clustering>
<clus scale="   81.632">  5  6 -1 -1</clus>
<clus scale="   86.987">  2  5  1 -1</clus>
<clus scale="   91.697">  7  8 -1 -1</clus>
<clus scale="  222.808">  7  9 -1 -1</clus>
<clus scale="  482.970">  1  5  2 -1</clus>
</clustering>
</event>
<event>
 9    2  0.2147756E-005  0.3786638E+03  0.7546771E-02  0.1094736E+00
         21   -1    0    0  501  502  0.00000000000E+00  0.00000000000E+00  0.53967910541E+02  0.53967910541E+02  0.00000000000E+00 0.  1.
          2   -1    0    0  502    0 -0.00000000000E+00 -0.00000000000E+00 -0.13684153688E+04  0.13684153688E+04  0.00000000000E+00 0. -1.
         24    2    1    2    0    0 -0.40824008065E+01 -0.84397468096E+02 -0.62600474579E+03  0.63667365616E+03  0.79572633950E+02 0.  0.
         23    2    1    2    0    0  0.22968980171E+02 -0.49792027006E+02 -0.26158822735E+02  0.10970409504E+03  0.91344865532E+02 0.  0.
        -13    1    3    3    0    0 -0.35677400884E+02 -0.60321412843E+02 -0.29090683360E+03  0.29922957009E+03  0.00000000000E+00 0.  1.
         14    1    3    3    0    0  0.31595000077E+02 -0.24076055253E+02 -0.33509791219E+03  0.33744408607E+03  0.00000000000E+00 0. -1.
        -11    1    4    4    0    0  0.34454711308E+02  0.10834897374E+02 -0.31288534443E+02  0.47785923869E+02  0.00000000000E+00 0. -1.
         11    1    4    4    0    0 -0.11485731136E+02 -0.60626924380E+02  0.51297117083E+01  0.61918171175E+02  0.00000000000E+00 0.  1.
          1    1    1    2  501    0 -0.18886579365E+02  0.13418949510E+03 -0.66228388968E+03  0.67600552809E+03  0.00000000000E+00 0. -1.
<scales pt_clust_5="13000.00000" pt_clust_6="13000.00000" pt_clust_7="13000.00000" pt_clust_8="13000.00000" pt_clust_9="13000.00000"></scales>
<clustering>
<clus scale="   79.573">  5  6 -1 -1</clus>
<clus scale="   91.345">  7  8 -1 -1</clus>
<clus scale="  116.066">  2  5  1 -1</clus>
<clus scale="   61.845">  7  9 -1 -1</clus>
<clus scale="  378.664">  1  5  2 -1</clus>
</clustering>
</event>
<event>
 9    2  0.2147756E-005  0.2925913E+03  0.7546771E-02  0.1138676E+00
          2   -1    0    0  502    0 -0.00000000000E+00  0.00000000000E+00  0.13854426813E+04  0.13854426813E+04  0.00000000000E+00 0. -1.
         21   -1    0    0  501  502  0.00000000000E+00 -0.00000000000E+00 -0.62994814243E+02  0.62994814243E+02  0.00000000000E+00 0. -1.
         24    2    1    2    0    0 -0.61478438269E+01 -0.20673809419E+02  0.10347614113E+04  0.10381044702E+04  0.80402179197E+02 0.  0.
         23    2    1    2    0    0  0.36745969094E+02  0.36673057128E+02  0.33567267971E+03  0.35121535563E+03  0.89335876116E+02 0.  0.
        -13    1    3    3    0    0 -0.25367259551E+02  0.13819181247E+02  0.16960495718E+03  0.17204740372E+03  0.00000000000E+00 0.  1.
         14    1    3    3    0    0  0.19219415724E+02 -0.34492990666E+02  0.86515645408E+03  0.86605706647E+03  0.00000000000E+00 0. -1.
        -11    1    4    4    0    0 -0.29775338926E+02  0.14973616716E+02  0.10467027312E+03  0.10984828665E+03  0.00000000000E+00 0.  1.
         11    1    4    4    0    0  0.66521308020E+02  0.21699440412E+02  0.23100240660E+03  0.24136706898E+03  0.00000000000E+00 0. -1.
          1    1    1    2  501    0 -0.30598125267E+02 -0.15999247709E+02 -0.47986223871E+02  0.59117669765E+02  0.00000000000E+00 0. -1.
<scales pt_clust_5="13000.00000" pt_clust_6="13000.00000" pt_clust_7="13000.00000" pt_clust_8="13000.00000" pt_clust_9="13000.00000"></scales>
<clustering>
<clus scale="   80.402">  5  6 -1 -1</clus>
<clus scale="   83.245">  1  5  2 -1</clus>
<clus scale="   89.336">  7  8 -1 -1</clus>
<clus scale="   34.769">  7  9 -1 -1</clus>
<clus scale="  292.591">  2  5  1 -1</clus>
</clustering>
</event>
<event>
 9    2  0.2147756E-005  0.1882135E+03  0.7546771E-02  0.1182955E+00
         -1   -1    0    0    0  501 -0.00000000000E+00  0.00000000000E+00  0.35533674684E+03  0.35533674684E+03  0.00000000000E+00 0.  1.
         21   -1    0    0  501  502  0.00000000000E+00 -0.00000000000E+00 -0.96498187396E+02  0.96498187396E+02  0.00000000000E+00 0.  1.
         24    2    1    2    0    0  0.66269555850E+02 -0.43684133142E+02  0.23745341069E+03  0.26241040713E+03  0.78582071777E+02 0.  0.
         23    2    1    2    0    0  0.51994346624E+01  0.62249616649E+02 -0.10693398861E+02  0.10891659581E+03  0.88580060796E+02 0.  0.
        -13    1    3    3    0    0  0.64406339826E+02 -0.31126332474E+01  0.18599438938E+03  0.19685471286E+03  0.00000000000E+00 0.  1.
         14    1    3    3    0    0  0.18632160240E+01 -0.40571499895E+02  0.51459021311E+02  0.65555694276E+02  0.00000000000E+00 0. -1.
        -11    1    4    4    0    0 -0.35856853454E+02  0.56131711402E+02 -0.10345148685E+02  0.67405526968E+02  0.00000000000E+00 0. -1.
         11    1    4    4    0    0  0.41056288116E+02  0.61179052470E+01 -0.34825017648E+00  0.41511068845E+02  0.00000000000E+00 0.  1.
         -2    1    1    2    0  502 -0.71468990512E+02 -0.18565483507E+02  0.32078547616E+02  0.80507931285E+02  0.00000000000E+00 0.  1.
<scales pt_clust_5="13000.00000" pt_clust_6="13000.00000" pt_clust_7="13000.00000" pt_clust_8="13000.00000" pt_clust_9="13000.00000"></scales>
<clustering>
<clus scale="   78.582">  5  6 -1 -1</clus>
<clus scale="   88.580">  7  8 -1 -1</clus>
<clus scale="   73.841">  7  9 -1 -1</clus>
<clus scale="  111.692">  1  5  2 -1</clus>
<clus scale="  188.214">  2  5  1 -1</clus>
</clustering>
</event>
<event>
 9    2  0.2147756E-005  0.1954696E+03  0.7546771E-02  0.1173927E+00
          4   -1    0    0  502    0 -0.00000000000E+00  0.00000000000E+00  0.32595848657E+02  0.32595848657E+02  0.00000000000E+00 0. -1.
         21   -1    0    0  501  502  0.00000000000E+00 -0.00000000000E+00 -0.78923542978E+03  0.78923542978E+03  0.00000000000E+00 0. -1.
         24    2    1    2    0    0  0.82882749838E+02 -0.41907261239E+02 -0.23723719986E+03  0.26686532462E+03  0.79434524754E+02 0.  0.
         23    2    1    2    0    0  0.10290102256E+02  0.51054147110E+02 -0.28166393126E+03  0.29945780033E+03  0.87338375663E+02 0.  0.
        -11    1    3    3    0    0  0.54557286048E+01 -0.25747369942E+02 -0.13532569445E+03  0.13786129120E+03  0.00000000000E+00 0.  1.
         12    1    3    3    0    0  0.77427021233E+02 -0.16159891298E+02 -0.10191150541E+03  0.12900403342E+03  0.00000000000E+00 0. -1.
        -11    1    4    4    0    0 -0.59986112906E+01  0.70360890789E+02 -0.15540283853E+03  0.17069469972E+03  0.00000000000E+00 0.  1.
         11    1    4    4    0    0  0.16288713546E+02 -0.19306743678E+02 -0.12626109273E+03  0.12876310061E+03  0.00000000000E+00 0. -1.
          3    1    1    2  501    0 -0.93172852093E+02 -0.91468858712E+01 -0.23773845000E+03  0.25550815348E+03  0.00000000000E+00 0. -1.
<scales pt_clust_5="13000.00000" pt_clust_6="13000.00000" pt_clust_7="13000.00000" pt_clust_8="13000.00000" pt_clust_9="13000.00000"></scales>
<clustering>
<clus scale="   79.435">  5  6 -1 -1</clus>
<clus scale="   87.338">  7  8 -1 -1</clus>
<clus scale="   93.621">  7  9 -1 -1</clus>
<clus scale="  122.211">  1  5  2 -1</clus>
<clus scale="  195.470">  2  5  1 -1</clus>
</clustering>
</event>
<event>
 9    2  0.2147756E-005  0.2350902E+03  0.7546771E-02  0.1153561E+00
         -3   -1    0    0    0  501 -0.00000000000E+00  0.00000000000E+00  0.15869682666E+03  0.15869682666E+03  0.00000000000E+00 0.  1.
         21   -1    0    0  501  502  0.00000000000E+00 -0.00000000000E+00 -0.19196939526E+03  0.19196939526E+03  0.00000000000E+00 0.  1.
         24    2    1    2    0    0 -0.64125004687E+02  0.45244737096E+02 -0.25929244012E+02  0.11546139101E+03  0.80621986188E+02 0.  0.
         23    2    1    2    0    0 -0.26191857615E+02 -0.81247520908E+02  0.30987667280E+02  0.13069358274E+03  0.93986190399E+02 0.  0.
        -13    1    3    3    0    0 -0.74455262907E+02  0.59165818558E+02 -0.23453738993E+02  0.97950283986E+02  0.00000000000E+00 0.  1.
         14    1    3    3    0    0  0.10330258220E+02 -0.13921081462E+02 -0.24755050182E+01  0.17511107020E+02  0.00000000000E+00 0. -1.
        -11    1    4    4    0    0 -0.26105997056E+02 -0.41796345134E+02 -0.30268320478E+02  0.57832765569E+02  0.00000000000E+00 0.  1.
         11    1    4    4    0    0 -0.85860559068E-01 -0.39451175774E+02  0.61255987758E+02  0.72860817167E+02  0.00000000000E+00 0. -1.
         -4    1    1    2    0  502  0.90316862302E+02  0.36002783812E+02 -0.38330991871E+02  0.10451124818E+03  0.00000000000E+00 0.  1.
<scales pt_clust_5="13000.00000" pt_clust_6="13000.00000" pt_clust_7="13000.00000" pt_clust_8="13000.00000" pt_clust_9="13000.00000"></scales>
<clustering>
<clus scale="   80.622">  5  6 -1 -1</clus>
<clus scale="   93.986">  7  8 -1 -1</clus>
<clus scale="   97.228">  7  9 -1 -1</clus>
<clus scale="  112.512">  1  5  2 -1</clus>
<clus scale="  235.090">  2  5  1 -1</clus>
</clustering>
</event>
<event>
 9    2  0.2147756E-005  0.1408440E+03  0.7546771E-02  0.1231885E+00
         21   -1    0    0  501  502  0.00000000000E+00  0.00000000000E+00  0.30714020605E+02  0.30714020605E+02  0.00000000000E+00 0.  1.
         -3   -1    0    0    0  501 -0.00000000000E+00 -0.00000000000E+00 -0.44915276623E+03  0.44915276623E+03  0.00000000000E+00 0.  1.
         24    2    1    2    0    0  0.29528761327E+02  0.38291183766E+02 -0.18608586249E+03  0.20815942274E+03  0.79776152796E+02 0.  0.
         23    2    1    2    0    0 -0.24015461458E+02 -0.60108334546E+02 -0.20392197045E+03  0.23544855359E+03  0.98295966770E+02 0.  0.
        -13    1    3    3    0    0  0.28945458026E+02  0.38886712836E+02 -0.19412035376E+03  0.20008180257E+03  0.00000000000E+00 0.  1.
         14    1    3    3    0    0  0.58330330157E+00 -0.59552907067E+00  0.80344912685E+01  0.80776201668E+01  0.00000000000E+00 0. -1.
        -13    1    4    4    0    0  0.17511616213E+02 -0.43979465688E+02 -0.30305054592E+02  0.56207174261E+02  0.00000000000E+00 0.  1.
         13    1    4    4    0    0 -0.41527077672E+02 -0.16128868858E+02 -0.17361691586E+03  0.17924137933E+03  0.00000000000E+00 0. -1.
         -4    1    1    2    0  502 -0.55132998688E+01  0.21817150780E+02 -0.28430912677E+02  0.36258810506E+02  0.00000000000E+00 0.  1.
<scales pt_clust_5="13000.00000" pt_clust_6="13000.00000" pt_clust_7="13000.00000" pt_clust_8="13000.00000" pt_clust_9="13000.00000"></scales>
<clustering>
<clus scale="   79.776">  5  6 -1 -1</clus>
<clus scale="   93.287">  2  5  1 -1</clus>
<clus scale="   98.296">  7  8 -1 -1</clus>
<clus scale="   26.787">  7  9 -1 -1</clus>
<clus scale="  140.844">  1  5  2 -1</clus>
</clustering>
</event>
<event>
 9    2  0.2147756E-005  0.6042593E+03  0.7546771E-02  0.1043232E+00
         21   -1    0    0  501  502  0.00000000000E+00  0.00000000000E+00  0.35294956380E+03  0.35294956380E+03  0.00000000000E+00 0. -1.
          2   -1    0    0  502    0 -0.00000000000E+00 -0.00000000000E+00 -0.39954892650E+03  0.39954892650E+03  0.00000000000E+00 0. -1.
         24    2    1    2    0    0  0.52749896410E+02  0.68638881767E+02  0.69990233498E+02  0.13709425022E+03  0.80014704884E+02 0.  0.
         23    2    1    2    0    0  0.97111110442E+02  0.22863811033E+03 -0.56102720659E+01  0.26447925978E+03  0.90619260837E+02 0.  0.
        -11    1    3    3    0    0  0.39068141786E+02 -0.63811196593E+01  0.12232896855E+02  0.41432863239E+02  0.00000000000E+00 0.  1.
         12    1    3    3    0    0  0.13681754624E+02  0.75020001426E+02  0.57757336643E+02  0.95661386984E+02  0.00000000000E+00 0. -1.
        -13    1    4    4    0    0  0.90617454040E+02  0.14726727828E+03  0.29865768431E+02  0.17547403897E+03  0.00000000000E+00 0. -1.
         13    1    4    4    0    0  0.64936564027E+01  0.81370832054E+02 -0.35476040497E+02  0.89005220813E+02  0.00000000000E+00 0.  1.
          1    1    1    2  501    0 -0.14986100685E+03 -0.29727699210E+03 -0.11097932413E+03  0.35092498029E+03  0.00000000000E+00 0. -1.
<scales pt_clust_5="13000.00000" pt_clust_6="13000.00000" pt_clust_7="13000.00000" pt_clust_8="13000.00000" pt_clust_9="13000.00000"></scales>
<clustering>
<clus scale="   80.015">  5  6 -1 -1</clus>
<clus scale="   90.619">  7  8 -1 -1</clus>
<clus scale="  117.882">  2  5  1 -1</clus>
<clus scale="  279.442">  7  9 -1 -1</clus>
<clus scale="  604.259">  1  5  2 -1</clus>
</clustering>
</event>
<event>
 9    2  0.2352911E-005  0.2369080E+03  0.7546771E-02  0.1157592E+00
          2   -1    0    0  502    0 -0.00000000000E+00  0.00000000000E+00  0.96893259012E+03  0.96893259012E+03  0.00000000000E+00 0. -1.
         21   -1    0    0  501  502  0.00000000000E+00 -0.00000000000E+00 -0.96466112603E+02  0.96466112603E+02  0.00000000000E+00 0. -1.
         24    2    1    2    0    0 -0.42300390737E+02  0.52676442767E+02  0.81566718824E+03  0.82177692495E+03  0.73757858686E+02 0.  0.
         23    2    1    2    0    0 -0.28605311446E+02 -0.15221882557E+02  0.11069508708E+03  0.14700283707E+03  0.91139795110E+02 0.  0.
        -11    1    3    3    0    0  0.15222393086E+01  0.36497085696E+02  0.14665619908E+03  0.15113700806E+03  0.00000000000E+00 0.  1.
         12    1    3    3    0    0 -0.43822630046E+02  0.16179357071E+02  0.66901098917E+03  0.67063991689E+03  0.00000000000E+00 0. -1.
        -13    1    4    4    0    0 -0.19761326546E+02 -0.42729757651E+02  0.18835855221E+02  0.50706327590E+02  0.00000000000E+00 0.  1.
         13    1    4    4    0    0 -0.88439848997E+01  0.27507875094E+02  0.91859231856E+02  0.96296509482E+02  0.00000000000E+00 0. -1.
          1    1    1    2  501    0  0.70905702183E+02 -0.37454560210E+02 -0.53895797802E+02  0.96618940707E+02  0.00000000000E+00 0. -1.
<scales pt_clust_5="13000.00000" pt_clust_6="13000.00000" pt_clust_7="13000.00000" pt_clust_8="13000.00000" pt_clust_9="13000.00000"></scales>
<clustering>
<clus scale="   73.758">  5  6 -1 -1</clus>
<clus scale="   91.140">  7  8 -1 -1</clus>
<clus scale="   80.190">  7  9 -1 -1</clus>
<clus scale="  100.022">  1  5  2 -1</clus>
<clus scale="  236.908">  2  5  1 -1</clus>
</clustering>
</event>
<event>
 9    2  0.2147756E-005  0.4936195E+03  0.7546771E-02  0.1043691E+00
         21   -1    0    0  501  502  0.00000000000E+00  0.00000000000E+00  0.70158685270E+03  0.70158685270E+03  0.00000000000E+00 0. -1.
          2   -1    0    0  502    0 -0.00000000000E+00 -0.00000000000E+00 -0.20338364710E+03  0.20338364710E+03  0.00000000000E+00 0. -1.
         24    2    1    2    0    0  0.17445641415E+03  0.93219329495E+02  0.31073276202E+03  0.37695022590E+03  0.80073338766E+02 0.  0.
         23    2    1    2    0    0 -0.99039964987E+02  0.37279088041E+01  0.32007373824E+03  0.34727171492E+03  0.91255871609E+02 0.  0.
        -11    1    3    3    0    0  0.39178911856E+02  0.18604463875E+01  0.21236224687E+02  0.44602977859E+02  0.00000000000E+00 0.  1.
         12    1    3    3    0    0  0.13527750229E+03  0.91358883108E+02  0.28949653733E+03  0.33234724804E+03  0.00000000000E+00 0. -1.
        -11    1    4    4    0    0 -0.25748507930E+02  0.42083456949E+02  0.15446858540E+03  0.16215593386E+03  0.00000000000E+00 0.  1.
         11    1    4    4    0    0 -0.73291457057E+02 -0.38355548145E+02  0.16560515284E+03  0.18511578106E+03  0.00000000000E+00 0. -1.
          1    1    1    2  501    0 -0.75416449161E+02 -0.96947238299E+02 -0.13260329467E+03  0.18074855898E+03  0.00000000000E+00 0. -1.
<scales pt_clust_5="13000.00000" pt_clust_6="13000.00000" pt_clust_7="13000.00000" pt_clust_8="13000.00000" pt_clust_9="13000.00000"></scales>
<clustering>
<clus scale="   80.073">  5  6 -1 -1</clus>
<clus scale="   91.256">  7  8 -1 -1</clus>
<clus scale="  122.827">  7  9 -1 -1</clus>
<clus scale="  213.393">  2  5  1 -1</clus>
<clus scale="  493.620">  1  5  2 -1</clus>
</clustering>
</event>
<event>
 9    2  0.2147756E-005  0.2069582E+03  0.7546771E-02  0.1173806E+00
         21   -1    0    0  501  502  0.00000000000E+00  0.00000000000E+00  0.58123027551E+02  0.58123027551E+02  0.00000000000E+00 0. -1.
          2   -1    0    0  502    0 -0.00000000000E+00 -0.00000000000E+00 -0.42457368964E+03  0.42457368964E+03  0.00000000000E+00 0. -1.
         24    2    1    2    0    0  0.59156931924E+02 -0.30123413468E+02 -0.87400340927E+02  0.13527652513E+03  0.79081957637E+02 0.  0.
         23    2    1    2    0    0  0.30319555035E+02  0.59371752840E+02 -0.20905331537E+03  0.23011252865E+03  0.69312385062E+02 0.  0.
        -13    1    3    3    0    0  0.40916934200E+02 -0.52015736557E+02 -0.83452977896E+02  0.10650930416E+03  0.00000000000E+00 0.  1.
         14    1    3    3    0    0  0.18239997725E+02  0.21892323090E+02 -0.39473630316E+01  0.28767220967E+02  0.00000000000E+00 0. -1.
        -13    1    4    4    0    0 -0.19945747149E+02  0.33352445648E+02 -0.99075965897E+02  0.10642492884E+03  0.00000000000E+00 0.  1.
         13    1    4    4    0    0  0.50265302184E+02  0.26019307192E+02 -0.10997734947E+03  0.12368759981E+03  0.00000000000E+00 0. -1.
          1    1    1    2  501    0 -0.89476486959E+02 -0.29248339372E+02 -0.69997005795E+02  0.11730766341E+03  0.00000000000E+00 0. -1.
<scales pt_clust_5="13000.00000" pt_clust_6="13000.00000" pt_clust_7="13000.00000" pt_clust_8="13000.00000" pt_clust_9="13000.00000"></scales>
<clustering>
<clus scale="   69.312">  7  8 -1 -1</clus>
<clus scale="   79.082">  5  6 -1 -1</clus>
<clus scale="   94.136">  7  9 -1 -1</clus>
<clus scale="  103.252">  2  5  1 -1</clus>
<clus scale="  206.958">  1  5  2 -1</clus>
</clustering>
</event>
<event>
 9    2  0.2147756E-005  0.3489426E+03  0.7546771E-02  0.1078451E+00
          2   -1    0    0  502    0 -0.00000000000E+00  0.00000000000E+00  0.86543100507E+03  0.86543100507E+03  0.00000000000E+00 0. -1.
         21   -1    0    0  501  502  0.00000000000E+00 -0.00000000000E+00 -0.97612495481E+02  0.97612495481E+02  0.00000000000E+00 0. -1.
         24    2    1    2    0    0  0.14787953535E+03  0.15414747311E+03  0.25268001858E+03  0.34084690323E+03  0.81851201629E+02 0.  0.
         23    2    1    2    0    0  0.31064740981E+02  0.15013781097E+01  0.78207418201E+02  0.12504834850E+03  0.92484684855E+02 0.  0.
        -13    1    3    3    0    0  0.24120026601E+02  0.66303670811E+02  0.12027450408E+03  0.13944141701E+03  0.00000000000E+00 0.  1.
         14    1    3    3    0    0  0.12375950875E+03  0.87843802304E+02  0.13240551450E+03  0.20140548622E+03  0.00000000000E+00 0. -1.
        -13    1    4    4    0    0  0.53478870575E+02 -0.26803979654E+02  0.37344982324E+02  0.70520143420E+02  0.00000000000E+00 0.  1.
         13    1    4    4    0    0 -0.22414129594E+02  0.28305357763E+02  0.40862435877E+02  0.54528205081E+02  0.00000000000E+00 0. -1.
          1    1    1    2  501    0 -0.17894427633E+03 -0.15564885122E+03  0.43693107281E+03  0.49714824882E+03  0.00000000000E+00 0. -1.
<scales pt_clust_5="13000.00000" pt_clust_6="13000.00000" pt_clust_7="13000.00000" pt_clust_8="13000.00000" pt_clust_9="13000.00000"></scales>
<clustering>
<clus scale="   81.851">  5  6 -1 -1</clus>
<clus scale="   92.485">  7  8 -1 -1</clus>
<clus scale="  228.756">  1  5  2 -1</clus>
<clus scale="   64.415">  7  9 -1 -1</clus>
<clus scale="  348.943">  2  5  1 -1</clus>
</clustering>
</event>
<event>
 9    2  0.2147756E-005  0.1312314E+03  0.7546771E-02  0.1241357E+00
         21   -1    0    0  501  502  0.00000000000E+00  0.00000000000E+00  0.18085132952E+02  0.18085132952E+02  0.00000000000E+00 0.  1.
          2   -1    0    0  502    0 -0.00000000000E+00 -0.00000000000E+00 -0.70778397948E+03  0.70778397948E+03  0.00000000000E+00 0. -1.
         24    2    1    2    0    0  0.38818800642E+01  0.52865319350E+02 -0.28682287894E+03  0.30215845116E+03  0.78883171486E+02 0.  0.
         23    2    1    2    0    0  0.23014092919E+02 -0.22988474846E+02 -0.23561748252E+03  0.25168909278E+03  0.82302386985E+02 0.  0.
        -13    1    3    3    0    0  0.15794685849E+02  0.70208725267E+02 -0.24486179045E+03  0.25521762014E+03  0.00000000000E+00 0.  1.
         14    1    3    3    0    0 -0.11912805785E+02 -0.17343405917E+02 -0.41961088484E+02  0.46940831024E+02  0.00000000000E+00 0. -1.
        -11    1    4    4    0    0  0.26923422261E+02 -0.49890656924E+02 -0.11720052948E+03  0.13019182934E+03  0.00000000000E+00 0.  1.
         11    1    4    4    0    0 -0.39093293420E+01  0.26902182078E+02 -0.11841695304E+03  0.12149726344E+03  0.00000000000E+00 0. -1.
          1    1    1    2  501    0 -0.26895972983E+02 -0.29876844504E+02 -0.16725848507E+03  0.17202156850E+03  0.00000000000E+00 0. -1.
<scales pt_clust_5="13000.00000" pt_clust_6="13000.00000" pt_clust_7="13000.00000" pt_clust_8="13000.00000" pt_clust_9="13000.00000"></scales>
<clustering>
<clus scale="   78.883">  5  6 -1 -1</clus>
<clus scale="   82.302">  7  8 -1 -1</clus>
<clus scale="   40.200">  7  9 -1 -1</clus>
<clus scale="   95.039">  2  5  1 -1</clus>
<clus scale="  131.231">  1  5  2 -1</clus>
</clustering>
</event>
<event>
 9    2  0.2147756E-005  0.4066673E+03  0.7546771E-02  0.1071503E+00
         21   -1    0    0  501  502  0.00000000000E+00  0.00000000000E+00  0.19231756314E+03  0.19231756314E+03  0.00000000000E+00 0. -1.
          2   -1    0    0  502    0 -0.00000000000E+00 -0.00000000000E+00 -0.94392525213E+03  0.94392525213E+03  0.00000000000E+00 0. -1.
         24    2    1    2    0    0  0.26925519782E+02  0.15190116168E+03 -0.70572357118E+03  0.72699515571E+03  0.81714447760E+02 0.  0.
         23    2    1    2    0    0  0.10743843757E+02  0.10000038856E+03 -0.72454523097E+02  0.15316298917E+03  0.89965190179E+02 0.  0.
        -11    1    3    3    0    0  0.87819657842E+01  0.78711121792E+02 -0.19087480125E+03  0.20665370398E+03  0.00000000000E+00 0.  1.
         12    1    3    3    0    0  0.18143553998E+02  0.73190039892E+02 -0.51484876993E+03  0.52034145173E+03  0.00000000000E+00 0. -1.
        -11    1    4    4    0    0  0.45248796987E+02  0.82171074912E+02 -0.37884047061E+02  0.10116689282E+03  0.00000000000E+00 0. -1.
         11    1    4    4    0    0 -0.34504953230E+02  0.17829313651E+02 -0.34570476037E+02  0.51996096354E+02  0.00000000000E+00 0.  1.
          1    1    1    2  501    0 -0.37669363539E+02 -0.25190155025E+03  0.26570405295E+02  0.25608467038E+03  0.00000000000E+00 0. -1.
<scales pt_clust_5="13000.00000" pt_clust_6="13000.00000" pt_clust_7="13000.00000" pt_clust_8="13000.00000" pt_clust_9="13000.00000"></scales>
<clustering>
<clus scale="   81.714">  5  6 -1 -1</clus>
<clus scale="   89.965">  7  8 -1 -1</clus>
<clus scale="  174.574">  2  5  1 -1</clus>
<clus scale="  176.948">  7  9 -1 -1</clus>
<clus scale="  406.667">  1  5  2 -1</clus>
</clustering>
</event>
<event>
 9    2  0.2147756E-005  0.1293672E+04  0.7546771E-02  0.9763414E-01
          2   -1    0    0  502    0 -0.00000000000E+00  0.00000000000E+00  0.15125177531E+04  0.15125177531E+04  0.00000000000E+00 0. -1.
         21   -1    0    0  501  502  0.00000000000E+00 -0.00000000000E+00 -0.32009597996E+03  0.32009597996E+03  0.00000000000E+00 0. -1.
         24    2    1    2    0    0  0.51238806040E+02  0.31427090085E+00  0.11347464107E+03  0.14806189984E+03  0.80126886934E+02 0.  0.
         23    2    1    2    0    0  0.59231639452E+03 -0.11312975726E+03  0.34017482220E+03  0.69830888345E+03  0.90990844884E+02 0.  0.
        -11    1    3    3    0    0  0.22031908204E+02  0.86509340142E+01 -0.63020829183E+01  0.24494078622E+02  0.00000000000E+00 0.  1.
         12    1    3    3    0    0  0.29206897835E+02 -0.83366631134E+01  0.11977672398E+03  0.12356782122E+03  0.00000000000E+00 0. -1.
        -11    1    4    4    0    0  0.10082405639E+03 -0.15916666038E+01  0.92129898704E+02  0.13658675626E+03  0.00000000000E+00 0.  1.
         11    1    4    4    0    0  0.49149233813E+03 -0.11153809066E+03  0.24804492350E+03  0.56172212720E+03  0.00000000000E+00 0. -1.
          1    1    1    2  501    0 -0.64355520056E+03  0.11281548636E+03  0.73877230988E+03  0.98624294977E+03  0.00000000000E+00 0. -1.
<scales pt_clust_5="13000.00000" pt_clust_6="13000.00000" pt_clust_7="13000.00000" pt_clust_8="13000.00000" pt_clust_9="13000.00000"></scales>
<clustering>
<clus scale="   80.127">  5  6 -1 -1</clus>
<clus scale="   90.991">  7  8 -1 -1</clus>
<clus scale="   95.110">  1  5  2 -1</clus>
<clus scale="  621.926">  7  9 -1 -1</clus>
<clus scale=" 1293.672">  2  5  1 -1</clus>
</clustering>
</event>
<event>
 9    2  0.2147756E-005  0.1128827E+04  0.7546771E-02  0.9303482E-01
         -1   -1    0    0    0  501 -0.00000000000E+00  0.00000000000E+00  0.95822827768E+03  0.95822827768E+03  0.00000000000E+00 0.  1.
         21   -1    0    0  501  502  0.00000000000E+00 -0.00000000000E+00 -0.89905176268E+03  0.89905176268E+03  0.00000000000E+00 0.  1.
         24    2    1    2    0    0 -0.30237894205E+03  0.63530399791E+03  0.15315274663E+03  0.72454773826E+03  0.80432996066E+02 0.  0.
         23    2    1    2    0    0  0.93859186721E+02  0.20851378616E+03  0.52688380683E+02  0.25124523494E+03  0.89780602972E+02 0.  0.
        -11    1    3    3    0    0 -0.58832662320E+02  0.12776322505E+03  0.64187213413E+02  0.15461152026E+03  0.00000000000E+00 0.  1.
         12    1    3    3    0    0 -0.24354627973E+03  0.50754077286E+03  0.88965533221E+02  0.56993621800E+03  0.00000000000E+00 0. -1.
        -13    1    4    4    0    0  0.93832005423E+02  0.14709936017E+03  0.68539900116E+01  0.17461284083E+03  0.00000000000E+00 0.  1.
         13    1    4    4    0    0  0.27181297653E-01  0.61414425989E+02  0.45834390671E+02  0.76632394107E+02  0.00000000000E+00 0. -1.
         -2    1    1    2    0  502  0.20851975533E+03 -0.84381778407E+03 -0.14666461231E+03  0.88148706716E+03  0.00000000000E+00 0.  1.
<scales pt_clust_5="13000.00000" pt_clust_6="13000.00000" pt_clust_7="13000.00000" pt_clust_8="13000.00000" pt_clust_9="13000.00000"></scales>
<clustering>
<clus scale="   80.433">  5  6 -1 -1</clus>
<clus scale="   89.781">  7  8 -1 -1</clus>
<clus scale="  708.176">  1  5  2 -1</clus>
<clus scale="  394.437">  7  9 -1 -1</clus>
<clus scale=" 1128.827">  2  5  1 -1</clus>
</clustering>
</event>
<event>
 9    2  0.2147756E-005  0.3601704E+03  0.7546771E-02  0.1113386E+00
          4   -1    0    0  502    0 -0.00000000000E+00  0.00000000000E+00  0.37805340761E+03  0.37805340761E+03  0.00000000000E+00 0. -1.
         21   -1    0    0  501  502  0.00000000000E+00 -0.00000000000E+00 -0.13285306226E+03  0.13285306226E+03  0.00000000000E+00 0. -1.
         24    2    1    2    0    0  0.27620508637E+02  0.14945305022E+02  0.18915025604E+02  0.85550428350E+02  0.77297108340E+02 0.  0.
         23    2    1    2    0    0 -0.87298651250E+01 -0.14078896661E+03  0.82881795801E+01  0.17293528823E+03  0.99700432943E+02 0.  0.
        -11    1    3    3    0    0  0.33536547112E+01 -0.29856270029E+02  0.17093465043E+02  0.34566318970E+02  0.00000000000E+00 0.  1.
         12    1    3    3    0    0  0.24266853925E+02  0.44801575051E+02  0.18215605613E+01  0.50984109381E+02  0.00000000000E+00 0. -1.
        -11    1    4    4    0    0  0.27900398474E+02 -0.36047432697E+02  0.36553895697E+02  0.58429760651E+02  0.00000000000E+00 0.  1.
         11    1    4    4    0    0 -0.36630263599E+02 -0.10474153392E+03 -0.28265716117E+02  0.11450552758E+03  0.00000000000E+00 0. -1.
          3    1    1    2  501    0 -0.18890643512E+02  0.12584366159E+03  0.21799714016E+03  0.25242075329E+03  0.00000000000E+00 0. -1.
<scales pt_clust_5="13000.00000" pt_clust_6="13000.00000" pt_clust_7="13000.00000" pt_clust_8="13000.00000" pt_clust_9="13000.00000"></scales>
<clustering>
<clus scale="   77.297">  5  6 -1 -1</clus>
<clus scale="   83.433">  1  5  2 -1</clus>
<clus scale="   99.700">  7  8 -1 -1</clus>
<clus scale="  136.637">  7  9 -1 -1</clus>
<clus scale="  360.170">  2  5  1 -1</clus>
</clustering>
</event>
<event>
 9    2  0.2147756E-005  0.3094340E+03  0.7546771E-02  0.1119317E+00
          2   -1    0    0  502    0 -0.00000000000E+00  0.00000000000E+00  0.23122893771E+03  0.23122893771E+03  0.00000000000E+00 0. -1.
         21   -1    0    0  501  502  0.00000000000E+00 -0.00000000000E+00 -0.21152306941E+03  0.21152306941E+03  0.00000000000E+00 0. -1.
         24    2    1    2    0    0  0.78417603408E+02  0.11101549680E+02  0.64029375512E+02  0.13015967380E+03  0.81050692945E+02 0.  0.
         23    2    1    2    0    0  0.56005809798E+02  0.88956346631E+02 -0.20275597606E+01  0.13976240592E+03  0.92084400265E+02 0.  0.
        -11    1    3    3    0    0  0.12322862732E+02 -0.24675630618E+02 -0.50953571913E+01  0.28048214866E+02  0.00000000000E+00 0.  1.
         12    1    3    3    0    0  0.66094740677E+02  0.35777180297E+02  0.69124732703E+02  0.10211145894E+03  0.00000000000E+00 0. -1.
        -11    1    4    4    0    0  0.24127502321E+02  0.84471239744E+02  0.31458134976E+02  0.93312062287E+02  0.00000000000E+00 0.  1.
         11    1    4    4    0    0  0.31878307478E+02  0.44851068878E+01 -0.33485694737E+02  0.46450343631E+02  0.00000000000E+00 0. -1.
          1    1    1    2  501    0 -0.13442341321E+03 -0.10005789631E+03 -0.42295947447E+02  0.17282992739E+03  0.00000000000E+00 0. -1.
<scales pt_clust_5="13000.00000" pt_clust_6="13000.00000" pt_clust_7="13000.00000" pt_clust_8="13000.00000" pt_clust_9="13000.00000"></scales>
<clustering>
<clus scale="   81.051">  5  6 -1 -1</clus>
<clus scale="   92.084">  7  8 -1 -1</clus>
<clus scale="  113.322">  1  5  2 -1</clus>
<clus scale="  135.008">  7  9 -1 -1</clus>
<clus scale="  309.434">  2  5  1 -1</clus>
</clustering>
</event>
<event>
 9    2  0.2147756E-005  0.2523008E+03  0.7546771E-02  0.1117805E+00
          2   -1    0    0  502    0 -0.00000000000E+00  0.00000000000E+00  0.11700859872E+03  0.11700859872E+03  0.00000000000E+00 0. -1.
         21   -1    0    0  501  502  0.00000000000E+00 -0.00000000000E+00 -0.47085804807E+03  0.47085804807E+03  0.00000000000E+00 0.  1.
         24    2    1    2    0    0  0.19944755554E+03 -0.31303709341E+02 -0.16197008367E+03  0.27089128427E+03  0.79928281976E+02 0.  0.
         23    2    1    2    0    0 -0.12165301780E+03  0.22376553627E+02 -0.18275979420E+03  0.23814103755E+03  0.89497734574E+02 0.  0.
        -11    1    3    3    0    0  0.16675872054E+03 -0.54726314609E+02 -0.14318036654E+03  0.22650399058E+03  0.00000000000E+00 0.  1.
         12    1    3    3    0    0  0.32688835004E+02  0.23422605268E+02 -0.18789717135E+02  0.44387293694E+02  0.00000000000E+00 0. -1.
        -13    1    4    4    0    0 -0.71396587096E+02  0.51713518144E+02 -0.75311296466E+02  0.11594633234E+03  0.00000000000E+00 0.  1.
         13    1    4    4    0    0 -0.50256430707E+02 -0.29336964518E+02 -0.10744849774E+03  0.12219470521E+03  0.00000000000E+00 0. -1.
          1    1    1    2  501    0 -0.77794537738E+02  0.89271557145E+01 -0.91195714778E+01  0.78834324979E+02  0.00000000000E+00 0. -1.
<scales pt_clust_5="13000.00000" pt_clust_6="13000.00000" pt_clust_7="13000.00000" pt_clust_8="13000.00000" pt_clust_9="13000.00000"></scales>
<clustering>
<clus scale="   79.928">  5  6 -1 -1</clus>
<clus scale="   89.498">  7  8 -1 -1</clus>
<clus scale="   78.305">  7  9 -1 -1</clus>
<clus scale="  217.135">  1  5  2 -1</clus>
<clus scale="  252.301">  2  5  1 -1</clus>
</clustering>
</event>
<event>
 9    2  0.2147756E-005  0.1615576E+03  0.7546771E-02  0.1204802E+00
         21   -1    0    0  501  502  0.00000000000E+00  0.00000000000E+00  0.29023695653E+02  0.29023695653E+02  0.00000000000E+00 0.  1.
          2   -1    0    0  502    0 -0.00000000000E+00 -0.00000000000E+00 -0.67873430103E+03  0.67873430103E+03  0.00000000000E+00 0. -1.
         24    2    1    2    0    0  0.43164889099E+02 -0.61017716044E+02 -0.35770342589E+03  0.37403796831E+03  0.79789043875E+02 0.  0.
         23    2    1    2    0    0 -0.66095139518E+02  0.61774564442E+02 -0.26442399579E+03  0.29784244169E+03  0.10298255308E+03 0.  0.
        -11    1    3    3    0    0 -0.21024800301E+02 -0.49459881085E+00 -0.74440306636E+02  0.77354030973E+02  0.00000000000E+00 0.  1.
         12    1    3    3    0    0  0.64189689401E+02 -0.60523117233E+02 -0.28326311925E+03  0.29668393733E+03  0.00000000000E+00 0. -1.
        -13    1    4    4    0    0  0.10256090351E+01  0.42382281880E+02 -0.19423702939E+03  0.19880979171E+03  0.00000000000E+00 0. -1.
         13    1    4    4    0    0 -0.67120748553E+02  0.19392282563E+02 -0.70186966401E+02  0.99032649980E+02  0.00000000000E+00 0.  1.
          1    1    1    2  501    0  0.22930250419E+02 -0.75684839858E+00 -0.27583183698E+02  0.35877586690E+02  0.00000000000E+00 0. -1.
<scales pt_clust_5="13000.00000" pt_clust_6="13000.00000" pt_clust_7="13000.00000" pt_clust_8="13000.00000" pt_clust_9="13000.00000"></scales>
<clustering>
<clus scale="   79.789">  5  6 -1 -1</clus>
<clus scale="  102.983">  7  8 -1 -1</clus>
<clus scale="   22.943">  7  9 -1 -1</clus>
<clus scale="  109.328">  2  5  1 -1</clus>
<clus scale="  161.558">  1  5  2 -1</clus>
</clustering>
</event>
<event>
 9    2  0.2147756E-005  0.2805100E+03  0.7546771E-02  0.1100949E+00
          4   -1    0    0  502    0 -0.00000000000E+00  0.00000000000E+00  0.14368972605E+04  0.14368972605E+04  0.00000000000E+00 0. -1.
         21   -1    0    0  501  502  0.00000000000E+00 -0.00000000000E+00 -0.52277184211E+02  0.52277184211E+02  0.00000000000E+00 0. -1.
         24    2    1    2    0    0  0.27620491110E+02  0.22733275401E+03  0.86777757164E+03  0.90111657698E+03  0.80809027198E+02 0.  0.
         23    2    1    2    0    0  0.31602266061E+02 -0.12483582393E+03  0.35979623129E+03  0.39139448115E+03  0.84579108958E+02 0.  0.
        -13    1    3    3    0    0 -0.20618234844E+02  0.17167701658E+02  0.81163685689E+02  0.85483246680E+02  0.00000000000E+00 0.  1.
         14    1    3    3    0    0  0.48238725955E+02  0.21016505235E+03  0.78661388595E+03  0.81563333030E+03  0.00000000000E+00 0. -1.
        -13    1    4    4    0    0  0.54243309290E+02 -0.98098704904E+02  0.21556624934E+03  0.24297016352E+03  0.00000000000E+00 0. -1.
         13    1    4    4    0    0 -0.22641043230E+02 -0.26737119026E+02  0.14422998194E+03  0.14842431763E+03  0.00000000000E+00 0.  1.
          3    1    1    2  501    0 -0.59222757171E+02 -0.10249693008E+03  0.15704627332E+03  0.19666338654E+03  0.00000000000E+00 0. -1.
<scales pt_clust_5="13000.00000" pt_clust_6="13000.00000" pt_clust_7="13000.00000" pt_clust_8="13000.00000" pt_clust_9="13000.00000"></scales>
<clustering>
<clus scale="   80.809">  5  6 -1 -1</clus>
<clus scale="   84.579">  7  8 -1 -1</clus>
<clus scale="  118.376">  7  9 -1 -1</clus>
<clus scale="  242.844">  1  5  2 -1</clus>
<clus scale="  280.510">  2  5  1 -1</clus>
</clustering>
</event>
<event>
 9    2  0.2147756E-005  0.4504459E+03  0.7546771E-02  0.1085426E+00
         21   -1    0    0  501  502  0.00000000000E+00  0.00000000000E+00  0.60856809930E+03  0.60856809930E+03  0.00000000000E+00 0. -1.
          4   -1    0    0  502    0 -0.00000000000E+00 -0.00000000000E+00 -0.32825954236E+03  0.32825954236E+03  0.00000000000E+00 0. -1.
         24    2    1    2    0    0  0.33217507151E+02 -0.50558586738E+01 -0.23582584264E+03  0.25177564971E+03  0.81536404398E+02 0.  0.
         23    2    1    2    0    0  0.73502157931E+02 -0.14549240747E+03  0.64086807641E+02  0.19678885314E+03  0.89711347969E+02 0.  0.
        -13    1    3    3    0    0 -0.73856696084E+01  0.31826350343E+02 -0.10338417183E+03  0.10842394421E+03  0.00000000000E+00 0.  1.
         14    1    3    3    0    0  0.40603176759E+02 -0.36882209016E+02 -0.13244167080E+03  0.14335170550E+03  0.00000000000E+00 0. -1.
        -13    1    4    4    0    0  0.81920880335E+02 -0.96384239356E+02  0.15927303009E+02  0.12749365166E+03  0.00000000000E+00 0. -1.
         13    1    4    4    0    0 -0.84187224039E+01 -0.49108168113E+02  0.48159504632E+02  0.69295201484E+02  0.00000000000E+00 0.  1.
          3    1    1    2  501    0 -0.10671966508E+03  0.15054826614E+03  0.45204759193E+03  0.48826313882E+03  0.00000000000E+00 0. -1.
<scales pt_clust_5="13000.00000" pt_clust_6="13000.00000" pt_clust_7="13000.00000" pt_clust_8="13000.00000" pt_clust_9="13000.00000"></scales>
<clustering>
<clus scale="   81.536">  5  6 -1 -1</clus>
<clus scale="   88.188">  2  5  1 -1</clus>
<clus scale="   89.711">  7  8 -1 -1</clus>
<clus scale="  179.609">  7  9 -1 -1</clus>
<clus scale="  450.446">  1  5  2 -1</clus>
</clustering>
</event>
<event>
 9    2  0.2147756E-005  0.2185315E+03  0.7546771E-02  0.1151035E+00
         21   -1    0    0  501  502  0.00000000000E+00  0.00000000000E+00  0.75117800728E+03  0.75117800728E+03  0.00000000000E+00 0.  1.
          2   -1    0    0  502    0 -0.00000000000E+00 -0.00000000000E+00 -0.87124056573E+02  0.87124056573E+02  0.00000000000E+00 0. -1.
         24    2    1    2    0    0  0.11930806397E+03 -0.32599539445E+02  0.58863639722E+03  0.60712283979E+03  0.82511758925E+02 0.  0.
         23    2    1    2    0    0 -0.43489260344E+01  0.31780430443E+02  0.65758660857E+02  0.11581212069E+03  0.89773809685E+02 0.  0.
        -11    1    3    3    0    0  0.99950165704E+02 -0.58782503613E+02  0.44747626860E+03  0.46225580507E+03  0.00000000000E+00 0.  1.
         12    1    3    3    0    0  0.19357898262E+02  0.26182964168E+02  0.14116012862E+03  0.14486703472E+03  0.00000000000E+00 0. -1.
        -13    1    4    4    0    0  0.18212461319E+02  0.57254671447E+02  0.50639745242E+02  0.78575918372E+02  0.00000000000E+00 0.  1.
         13    1    4    4    0    0 -0.22561387353E+02 -0.25474241004E+02  0.15118915614E+02  0.37236202323E+02  0.00000000000E+00 0. -1.
          1    1    1    2  501    0 -0.11495913793E+03  0.81910900123E+00  0.96588926316E+01  0.11536710337E+03  0.00000000000E+00 0. -1.
<scales pt_clust_5="13000.00000" pt_clust_6="13000.00000" pt_clust_7="13000.00000" pt_clust_8="13000.00000" pt_clust_9="13000.00000"></scales>
<clustering>
<clus scale="   82.512">  5  6 -1 -1</clus>
<clus scale="   89.774">  7  8 -1 -1</clus>
<clus scale="  114.962">  7  9 -1 -1</clus>
<clus scale="  148.679">  2  5  1 -1</clus>
<clus scale="  218.532">  1  5  2 -1</clus>
</clustering>
</event>
<event>
 9    2  0.2212737E-005  0.4068721E+03  0.7546771E-02  0.1061935E+00
         21   -1    0    0  501  502  0.00000000000E+00  0.00000000000E+00  0.40798396204E+03  0.40798396204E+03  0.00000000000E+00 0. -1.
          2   -1    0    0  502    0 -0.00000000000E+00 -0.00000000000E+00 -0.96660657332E+03  0.96660657332E+03  0.00000000000E+00 0. -1.
         24    2    1    2    0    0  0.49427631093E+02  0.20637040465E+03  0.32808626070E+03  0.39898942124E+03  0.80747316784E+02 0.  0.
         23    2    1    2    0    0  0.46563191849E+02  0.48029440689E+02 -0.14006363724E+03  0.18098634837E+03  0.93076730774E+02 0.  0.
        -13    1    3    3    0    0 -0.56318765526E+01  0.30877614255E+02  0.10642289894E+03  0.11095484899E+03  0.00000000000E+00 0.  1.
         14    1    3    3    0    0  0.55059507646E+02  0.17549279040E+03  0.22166336176E+03  0.28803457225E+03  0.00000000000E+00 0. -1.
        -13    1    4    4    0    0  0.40034757126E+02 -0.67184409543E+01 -0.11197854118E+03  0.11910966759E+03  0.00000000000E+00 0.  1.
         13    1    4    4    0    0  0.65284347232E+01  0.54747881643E+02 -0.28085096055E+02  0.61876680783E+02  0.00000000000E+00 0. -1.
          1    1    1    2  501    0 -0.95990822942E+02 -0.25439984534E+03 -0.74664523474E+03  0.79461476576E+03  0.00000000000E+00 0. -1.
<scales pt_clust_5="13000.00000" pt_clust_6="13000.00000" pt_clust_7="13000.00000" pt_clust_8="13000.00000" pt_clust_9="13000.00000"></scales>
<clustering>
<clus scale="   80.747">  5  6 -1 -1</clus>
<clus scale="   93.077">  7  8 -1 -1</clus>
<clus scale="  227.051">  2  5  1 -1</clus>
<clus scale="  100.121">  7  9 -1 -1</clus>
<clus scale="  406.872">  1  5  2 -1</clus>
</clustering>
</event>
<event>
 9    2  0.2147756E-005  0.1581196E+03  0.7546771E-02  0.1198371E+00
          2   -1    0    0  502    0 -0.00000000000E+00  0.00000000000E+00  0.61947572295E+03  0.61947572295E+03  0.00000000000E+00 0. -1.
         21   -1    0    0  501  502  0.00000000000E+00 -0.00000000000E+00 -0.41974418049E+02  0.41974418049E+02  0.00000000000E+00 0.  1.
         24    2    1    2    0    0 -0.10804019208E+03  0.33639762872E+00  0.12957934697E+03  0.18643867030E+03  0.79345915808E+02 0.  0.
         23    2    1    2    0    0  0.68904284608E+02  0.19877945652E+01  0.37497007522E+03  0.39219240095E+03  0.91981358354E+02 0.  0.
        -13    1    3    3    0    0 -0.12008344424E+03 -0.53349884747E+01  0.12126023137E+03  0.17074114734E+03  0.00000000000E+00 0.  1.
         14    1    3    3    0    0  0.12043252159E+02  0.56713861034E+01  0.83191156007E+01  0.15697522966E+02  0.00000000000E+00 0. -1.
        -13    1    4    4    0    0  0.49827806657E+02  0.32545493908E+02  0.32606543467E+03  0.33145239052E+03  0.00000000000E+00 0. -1.
         13    1    4    4    0    0  0.19076477951E+02 -0.30557699342E+02  0.48904640549E+02  0.60740010433E+02  0.00000000000E+00 0.  1.
          1    1    1    2  501    0  0.39135907472E+02 -0.23241921939E+01  0.72951882707E+02  0.82819069746E+02  0.00000000000E+00 0. -1.
<scales pt_clust_5="13000.00000" pt_clust_6="13000.00000" pt_clust_7="13000.00000" pt_clust_8="13000.00000" pt_clust_9="13000.00000"></scales>
<clustering>
<clus scale="   79.346">  5  6 -1 -1</clus>
<clus scale="   91.981">  7  8 -1 -1</clus>
<clus scale="   39.205">  7  9 -1 -1</clus>
<clus scale="  134.047">  1  5  2 -1</clus>
<clus scale="  158.120">  2  5  1 -1</clus>
</clustering>
</event>
<event>
 9    2  0.2147756E-005  0.4666488E+03  0.7546771E-02  0.1056328E+00
         21   -1    0    0  501  502  0.00000000000E+00  0.00000000000E+00  0.89982700544E+02  0.89982700544E+02  0.00000000000E+00 0. -1.
         -1   -1    0    0    0  501 -0.00000000000E+00 -0.00000000000E+00 -0.18103243129E+04  0.18103243129E+04  0.00000000000E+00 0.  1.
         24    2    1    2    0    0 -0.15465597342E+03 -0.22277434058E+02 -0.77382789411E+02  0.19236239094E+03  0.81243086903E+02 0.  0.
         23    2    1    2    0    0 -0.33523390182E+02  0.52601669755E+02 -0.11094740335E+03  0.16412143900E+03  0.10361354679E+03 0.  0.
        -13    1    3    3    0    0 -0.27935006907E+01 -0.23963453279E+02 -0.13023094150E+02  0.27416267441E+02  0.00000000000E+00 0.  1.
         14    1    3    3    0    0 -0.15186247273E+03  0.16860192210E+01 -0.64359695261E+02  0.16494612350E+03  0.00000000000E+00 0. -1.
        -13    1    4    4    0    0  0.28034394686E+02  0.26628159930E+02 -0.51686685380E+01  0.39008990260E+02  0.00000000000E+00 0. -1.
         13    1    4    4    0    0 -0.61557784868E+02  0.25973509825E+02 -0.10577873481E+03  0.12511244874E+03  0.00000000000E+00 0.  1.
         -2    1    1    2    0  502  0.18817936360E+03 -0.30324235698E+02 -0.15320114196E+04  0.15438231835E+04  0.00000000000E+00 0.  1.
<scales pt_clust_5="13000.00000" pt_clust_6="13000.00000" pt_clust_7="13000.00000" pt_clust_8="13000.00000" pt_clust_9="13000.00000"></scales>
<clustering>
<clus scale="   81.243">  5  6 -1 -1</clus>
<clus scale="  103.614">  7  8 -1 -1</clus>
<clus scale="  176.111">  2  5  1 -1</clus>
<clus scale="   68.659">  7  9 -1 -1</clus>
<clus scale="  466.649">  1  5  2 -1</clus>
</clustering>
</event>
<event>
 9    2  0.2147756E-005  0.2708040E+03  0.7546771E-02  0.1133130E+00
         21   -1    0    0  501  502  0.00000000000E+00  0.00000000000E+00  0.18094708352E+03  0.18094708352E+03  0.00000000000E+00 0.  1.
         -1   -1    0    0    0  501 -0.00000000000E+00 -0.00000000000E+00 -0.21174853047E+03  0.21174853047E+03  0.00000000000E+00 0.  1.
         24    2    1    2    0    0 -0.64540726894E+02  0.63127764358E+02 -0.18960293395E+02  0.12163282932E+03  0.79274411892E+02 0.  0.
         23    2    1    2    0    0  0.21694588236E+02  0.77749253466E+02  0.37597448956E+01  0.12299012082E+03  0.92719105717E+02 0.  0.
        -13    1    3    3    0    0 -0.47783793551E+02  0.81754795494E+02 -0.18976497284E+02  0.96577662850E+02  0.00000000000E+00 0.  1.
         14    1    3    3    0    0 -0.16756933343E+02 -0.18627031136E+02  0.16203889123E-01  0.25055166465E+02  0.00000000000E+00 0. -1.
        -11    1    4    4    0    0 -0.13509915257E+02  0.21497122737E+02  0.40001132024E+02  0.47378630831E+02  0.00000000000E+00 0.  1.
         11    1    4    4    0    0  0.35204503492E+02  0.56252130729E+02 -0.36241387128E+02  0.75611489991E+02  0.00000000000E+00 0. -1.
         -2    1    1    2    0  502  0.42846138659E+02 -0.14087701782E+03 -0.15600898450E+02  0.14807266386E+03  0.00000000000E+00 0.  1.
<scales pt_clust_5="13000.00000" pt_clust_6="13000.00000" pt_clust_7="13000.00000" pt_clust_8="13000.00000" pt_clust_9="13000.00000"></scales>
<clustering>
<clus scale="   79.274">  5  6 -1 -1</clus>
<clus scale="   92.719">  7  8 -1 -1</clus>
<clus scale="  120.146">  2  5  1 -1</clus>
<clus scale="  104.500">  7  9 -1 -1</clus>
<clus scale="  270.804">  1  5  2 -1</clus>
</clustering>
</event>
<event>
 9    2  0.2147756E-005  0.5643855E+03  0.7546771E-02  0.1052383E+00
          2   -1    0    0  502    0 -0.00000000000E+00  0.00000000000E+00  0.64298301757E+03  0.64298301757E+03  0.00000000000E+00 0. -1.
         21   -1    0    0  501  502  0.00000000000E+00 -0.00000000000E+00 -0.18482295075E+03  0.18482295075E+03  0.00000000000E+00 0.  1.
         24    2    1    2    0    0 -0.64954708624E+02 -0.44246224459E+02  0.14358215875E+03  0.18167115443E+03  0.78814525879E+02 0.  0.
         23    2    1    2    0    0 -0.36450175938E+02 -0.22087097359E+03  0.29816033161E+02  0.24406590845E+03  0.92555764460E+02 0.  0.
        -11    1    3    3    0    0 -0.36775381404E+02 -0.65572991198E+02  0.87267339312E+02  0.11518608580E+03  0.00000000000E+00 0.  1.
         12    1    3    3    0    0 -0.28179327219E+02  0.21326766738E+02  0.56314819439E+02  0.66485068628E+02  0.00000000000E+00 0. -1.
        -11    1    4    4    0    0 -0.25099579825E+02 -0.18587039943E+03  0.59522526354E+02  0.19677582533E+03  0.00000000000E+00 0.  1.
         11    1    4    4    0    0 -0.11350596113E+02 -0.35000574161E+02 -0.29706493194E+02  0.47290083121E+02  0.00000000000E+00 0. -1.
          1    1    1    2  501    0  0.10140488456E+03  0.26511719805E+03  0.28476187491E+03  0.40206890544E+03  0.00000000000E+00 0. -1.
<scales pt_clust_5="13000.00000" pt_clust_6="13000.00000" pt_clust_7="13000.00000" pt_clust_8="13000.00000" pt_clust_9="13000.00000"></scales>
<clustering>
<clus scale="   78.815">  5  6 -1 -1</clus>
<clus scale="   92.556">  7  8 -1 -1</clus>
<clus scale="  111.304">  1  5  2 -1</clus>
<clus scale="  239.868">  7  9 -1 -1</clus>
<clus scale="  564.385">  2  5  1 -1</clus>
</clustering>
</event>
<event>
 9    2  0.2147756E-005  0.3805484E+03  0.7546771E-02  0.1106683E+00
         21   -1    0    0  501  502  0.00000000000E+00  0.00000000000E+00  0.15332050753E+03  0.15332050753E+03  0.00000000000E+00 0.  1.
         -1   -1    0    0    0  501 -0.00000000000E+00 -0.00000000000E+00 -0.37777282109E+03  0.37777282109E+03  0.00000000000E+00 0.  1.
         24    2    1    2    0    0 -0.20856011327E+02 -0.11951815248E+02 -0.10038322848E+03  0.13083059679E+03  0.80386773789E+02 0.  0.
         23    2    1    2    0    0 -0.80705359560E+02 -0.34036679010E+01 -0.22441542952E+03  0.25666645136E+03  0.94817942560E+02 0.  0.
        -13    1    3    3    0    0  0.18299141083E+02 -0.32762848881E+02 -0.31941558346E+02  0.49280076915E+02  0.00000000000E+00 0.  1.
         14    1    3    3    0    0 -0.39155152410E+02  0.20811033634E+02 -0.68441670134E+02  0.81550519875E+02  0.00000000000E+00 0. -1.
        -13    1    4    4    0    0 -0.63255764902E+02  0.19327285235E+02 -0.21729518256E+03  0.22713879482E+03  0.00000000000E+00 0.  1.
         13    1    4    4    0    0 -0.17449594658E+02 -0.22730953136E+02 -0.71202469607E+01  0.29527656544E+02  0.00000000000E+00 0. -1.
         -2    1    1    2    0  502  0.10156137089E+03  0.15355483149E+02  0.10034634445E+03  0.14359628047E+03  0.00000000000E+00 0.  1.
<scales pt_clust_5="13000.00000" pt_clust_6="13000.00000" pt_clust_7="13000.00000" pt_clust_8="13000.00000" pt_clust_9="13000.00000"></scales>
<clustering>
<clus scale="   80.387">  5  6 -1 -1</clus>
<clus scale="   83.904">  2  5  1 -1</clus>
<clus scale="   94.818">  7  8 -1 -1</clus>
<clus scale="  100.870">  7  9 -1 -1</clus>
<clus scale="  380.548">  1  5  2 -1</clus>
</clustering>
</event>
<event>
 9    2  0.2147756E-005  0.2923831E+03  0.7546771E-02  0.1124378E+00
         21   -1    0    0  501  502  0.00000000000E+00  0.00000000000E+00  0.66627362387E+02  0.66627362387E+02  0.00000000000E+00 0. -1.
          2   -1    0    0  502    0 -0.00000000000E+00 -0.00000000000E+00 -0.66137049402E+03  0.66137049402E+03  0.00000000000E+00 0. -1.
         24    2    1    2    0    0  0.32196105855E+02  0.79881682821E+02 -0.24519023783E+03  0.27228404571E+03  0.81256854104E+02 0.  0.
         23    2    1    2    0    0  0.57006640079E+02  0.49052093091E+02 -0.81910857570E+02  0.14553110968E+03  0.93883174456E+02 0.  0.
        -13    1    3    3    0    0 -0.95776075538E+01  0.64250086668E+02 -0.91237128412E+02  0.11200007948E+03  0.00000000000E+00 0.  1.
         14    1    3    3    0    0  0.41773713409E+02  0.15631596153E+02 -0.15395310942E+03  0.16028396623E+03  0.00000000000E+00 0. -1.
        -11    1    4    4    0    0 -0.21578765997E+02  0.13302982614E+02 -0.44975336734E+02  0.51627448152E+02  0.00000000000E+00 0.  1.
         11    1    4    4    0    0  0.78585406077E+02  0.35749110477E+02 -0.36935520836E+02  0.93903661523E+02  0.00000000000E+00 0. -1.
          1    1    1    2  501    0 -0.89202745934E+02 -0.12893377591E+03 -0.26764203623E+03  0.31018270102E+03  0.00000000000E+00 0. -1.
<scales pt_clust_5="13000.00000" pt_clust_6="13000.00000" pt_clust_7="13000.00000" pt_clust_8="13000.00000" pt_clust_9="13000.00000"></scales>
<clustering>
<clus scale="   81.257">  5  6 -1 -1</clus>
<clus scale="   93.883">  7  8 -1 -1</clus>
<clus scale="  118.408">  2  5  1 -1</clus>
<clus scale="   97.457">  7  9 -1 -1</clus>
<clus scale="  292.383">  1  5  2 -1</clus>
</clustering>
</event>
<event>
 9    2  0.2147756E-005  0.2023584E+03  0.7546771E-02  0.1174042E+00
         21   -1    0    0  501  502  0.00000000000E+00  0.00000000000E+00  0.13663062776E+03  0.13663062776E+03  0.00000000000E+00 0. -1.
          4   -1    0    0  502    0 -0.00000000000E+00 -0.00000000000E+00 -0.30276876769E+03  0.30276876769E+03  0.00000000000E+00 0. -1.
         24    2    1    2    0    0 -0.65957549984E+02  0.33736356640E+02 -0.20570936585E+03  0.23320818672E+03  0.81124441418E+02 0.  0.
         23    2    1    2    0    0 -0.11179645984E+02 -0.59928314905E+02 -0.14838870062E+02  0.10822884747E+03  0.88186756079E+02 0.  0.
        -13    1    3    3    0    0  0.62049467222E+01  0.25410466307E+02 -0.17511467620E+02  0.31477685111E+02  0.00000000000E+00 0.  1.
         14    1    3    3    0    0 -0.72162496707E+02  0.83258903331E+01 -0.18819789823E+03  0.20173050161E+03  0.00000000000E+00 0. -1.
        -11    1    4    4    0    0  0.32035901722E+02 -0.54935654255E+02 -0.11210946284E+02  0.64574843587E+02  0.00000000000E+00 0. -1.
         11    1    4    4    0    0 -0.43215547706E+02 -0.49926606499E+01 -0.36279237778E+01  0.43654003881E+02  0.00000000000E+00 0.  1.
          3    1    1    2  501    0  0.77137195969E+02  0.26191958265E+02  0.54410095981E+02  0.97962361264E+02  0.00000000000E+00 0. -1.
<scales pt_clust_5="13000.00000" pt_clust_6="13000.00000" pt_clust_7="13000.00000" pt_clust_8="13000.00000" pt_clust_9="13000.00000"></scales>
<clustering>
<clus scale="   81.124">  5  6 -1 -1</clus>
<clus scale="   88.187">  7  8 -1 -1</clus>
<clus scale="   81.463">  7  9 -1 -1</clus>
<clus scale="  109.862">  2  5  1 -1</clus>
<clus scale="  202.358">  1  5  2 -1</clus>
</clustering>
</event>
<event>
 9    2  0.2147756E-005  0.1580274E+03  0.7546771E-02  0.1214352E+00
         21   -1    0    0  501  502  0.00000000000E+00  0.00000000000E+00  0.22833971778E+03  0.22833971778E+03  0.00000000000E+00 0.  1.
          2   -1    0    0  502    0 -0.00000000000E+00 -0.00000000000E+00 -0.71026227679E+02  0.71026227679E+02  0.00000000000E+00 0. -1.
         24    2    1    2    0    0  0.40814108240E+02 -0.24684751059E+02  0.44087753472E+02  0.10496240427E+03  0.82451488394E+02 0.  0.
         23    2    1    2    0    0 -0.27151817137E+02  0.57161534562E+01  0.13360915499E+03  0.16338822823E+03  0.89857727784E+02 0.  0.
        -11    1    3    3    0    0  0.57495890465E+02 -0.32600612814E+02  0.10905769882E+02  0.66988903506E+02  0.00000000000E+00 0.  1.
         12    1    3    3    0    0 -0.16681782226E+02  0.79158617551E+01  0.33181983590E+02  0.37973500767E+02  0.00000000000E+00 0. -1.
        -13    1    4    4    0    0 -0.57480081505E+02 -0.90960082365E+00  0.11093617462E+03  0.12494647647E+03  0.00000000000E+00 0.  1.
         13    1    4    4    0    0  0.30328264368E+02  0.66257542799E+01  0.22672980373E+02  0.38441751760E+02  0.00000000000E+00 0. -1.
          1    1    1    2  501    0 -0.13662291102E+02  0.18968597602E+02 -0.20383418366E+02  0.31015312951E+02  0.00000000000E+00 0. -1.
<scales pt_clust_5="13000.00000" pt_clust_6="13000.00000" pt_clust_7="13000.00000" pt_clust_8="13000.00000" pt_clust_9="13000.00000"></scales>
<clustering>
<clus scale="   82.451">  5  6 -1 -1</clus>
<clus scale="   89.858">  7  8 -1 -1</clus>
<clus scale="   23.377">  7  9 -1 -1</clus>
<clus scale="   95.254">  2  5  1 -1</clus>
<clus scale="  158.027">  1  5  2 -1</clus>
</clustering>
</event>
<event>
 9    2  0.2147756E-005  0.3523286E+03  0.7546771E-02  0.1088787E+00
         21   -1    0    0  501  502  0.00000000000E+00  0.00000000000E+00  0.22754883476E+03  0.22754883476E+03  0.00000000000E+00 0. -1.
          2   -1    0    0  502    0 -0.00000000000E+00 -0.00000000000E+00 -0.29896814312E+03  0.29896814312E+03  0.00000000000E+00 0. -1.
         24    2    1    2    0    0  0.28836852316E+02  0.14447045966E+03 -0.96579555222E+01  0.16881609875E+03  0.81867706256E+02 0.  0.
         23    2    1    2    0    0 -0.98833617176E+02  0.18185945502E+01 -0.12443542147E+03  0.18383865392E+03  0.92417992773E+02 0.  0.
        -11    1    3    3    0    0  0.21117533113E+02  0.10416408349E+03 -0.44265791511E+02  0.11513282239E+03  0.00000000000E+00 0.  1.
         12    1    3    3    0    0  0.77193192029E+01  0.40306376170E+02  0.34607835989E+02  0.53683276360E+02  0.00000000000E+00 0. -1.
        -11    1    4    4    0    0 -0.60672274369E+02 -0.36963876004E+02 -0.10350638367E+03  0.12554291883E+03  0.00000000000E+00 0. -1.
         11    1    4    4    0    0 -0.38161342807E+02  0.38782470554E+02 -0.20929037802E+02  0.58295735097E+02  0.00000000000E+00 0.  1.
          1    1    1    2  501    0  0.69996764861E+02 -0.14628905421E+03  0.62674068641E+02  0.17386222520E+03  0.00000000000E+00 0. -1.
<scales pt_clust_5="13000.00000" pt_clust_6="13000.00000" pt_clust_7="13000.00000" pt_clust_8="13000.00000" pt_clust_9="13000.00000"></scales>
<clustering>
<clus scale="   81.868">  5  6 -1 -1</clus>
<clus scale="   92.418">  7  8 -1 -1</clus>
<clus scale="  162.173">  7  9 -1 -1</clus>
<clus scale="  168.540">  2  5  1 -1</clus>
<clus scale="  352.329">  1  5  2 -1</clus>
</clustering>
</event>
<event>
 9    2  0.2147756E-005  0.3030938E+03  0.7546771E-02  0.1133345E+00
         21   -1    0    0  501  502  0.00000000000E+00  0.00000000000E+00  0.63234532229E+03  0.63234532229E+03  0.00000000000E+00 0. -1.
          2   -1    0    0  502    0 -0.00000000000E+00 -0.00000000000E+00 -0.43538744558E+03  0.43538744558E+03  0.00000000000E+00 0. -1.
         24    2    1    2    0    0 -0.23387502955E+02 -0.15941364344E+02 -0.39424915772E+03  0.40335965427E+03  0.80408394683E+02 0.  0.
         23    2    1    2    0    0 -0.74580429873E+02  0.15761590689E+02  0.73796447686E+02  0.13776940735E+03  0.87885298249E+02 0.  0.
        -13    1    3    3    0    0  0.27097518679E+02 -0.20057448218E+02 -0.13004909193E+03  0.13434784352E+03  0.00000000000E+00 0.  1.
         14    1    3    3    0    0 -0.50485021634E+02  0.41160838739E+01 -0.26420006579E+03  0.26901181075E+03  0.00000000000E+00 0. -1.
        -13    1    4    4    0    0 -0.81001513066E+02 -0.14081243299E+02  0.37561789608E+02  0.90390345559E+02  0.00000000000E+00 0. -1.
         13    1    4    4    0    0  0.64210831923E+01  0.29842833988E+02  0.36234658078E+02  0.47379061787E+02  0.00000000000E+00 0.  1.
          1    1    1    2  501    0  0.97967932829E+02  0.17977365495E+00  0.51741058674E+03  0.52660370626E+03  0.00000000000E+00 0. -1.
<scales pt_clust_5="13000.00000" pt_clust_6="13000.00000" pt_clust_7="13000.00000" pt_clust_8="13000.00000" pt_clust_9="13000.00000"></scales>
<clustering>
<clus scale="   80.408">  5  6 -1 -1</clus>
<clus scale="   85.244">  2  5  1 -1</clus>
<clus scale="   87.885">  7  8 -1 -1</clus>
<clus scale="   95.047">  7  9 -1 -1</clus>
<clus scale="  303.094">  1  5  2 -1</clus>
</clustering>
</event>
<event>
 9    2  0.2147756E-005  0.8039794E+03  0.7546771E-02  0.1017520E+00
          2   -1    0    0  502    0 -0.00000000000E+00  0.00000000000E+00  0.12177860704E+04  0.12177860704E+04  0.00000000000E+00 0. -1.
         21   -1    0    0  501  502  0.00000000000E+00 -0.00000000000E+00 -0.17665101134E+03  0.17665101134E+03  0.00000000000E+00 0. -1.
         24    2    1    2    0    0 -0.72784584787E+02 -0.20188847253E+01  0.22257626474E+03  0.24708298787E+03  0.78791735545E+02 0.  0.
         23    2    1    2    0    0 -0.17437943595E+03  0.52463741677E+02  0.86691587556E+03  0.89050171593E+03  0.91046904965E+02 0.  0.
        -13    1    3    3    0    0 -0.90915465645E+01 -0.29075794929E+02  0.11659596308E+03  0.12051006877E+03  0.00000000000E+00 0.  1.
         14    1    3    3    0    0 -0.63693038223E+02  0.27056910204E+02  0.10598030166E+03  0.12657291909E+03  0.00000000000E+00 0. -1.
        -11    1    4    4    0    0 -0.42406765963E+02  0.70765440788E+01  0.75569263032E+02  0.86943227400E+02  0.00000000000E+00 0.  1.
         11    1    4    4    0    0 -0.13197266999E+03  0.45387197598E+02  0.79134661252E+03  0.80355848853E+03  0.00000000000E+00 0. -1.
          1    1    1    2  501    0  0.24716402074E+03 -0.50444856951E+02 -0.48357081244E+02  0.25685237793E+03  0.00000000000E+00 0. -1.
<scales pt_clust_5="13000.00000" pt_clust_6="13000.00000" pt_clust_7="13000.00000" pt_clust_8="13000.00000" pt_clust_9="13000.00000"></scales>
<clustering>
<clus scale="   78.792">  5  6 -1 -1</clus>
<clus scale="   91.047">  7  8 -1 -1</clus>
<clus scale="  107.284">  1  5  2 -1</clus>
<clus scale="  244.745">  7  9 -1 -1</clus>
<clus scale="  803.979">  2  5  1 -1</clus>
</clustering>
</event>
<event>
 9    2  0.2147756E-005  0.2315768E+03  0.7546771E-02  0.1146502E+00
         21   -1    0    0  501  502  0.00000000000E+00  0.00000000000E+00  0.97790645181E+03  0.97790645181E+03  0.00000000000E+00 0. -1.
         -1   -1    0    0    0  501 -0.00000000000E+00 -0.00000000000E+00 -0.36754708196E+02  0.36754708196E+02  0.00000000000E+00 0.  1.
         24    2    1    2    0    0  0.36536329646E+02  0.10770166528E+03  0.46172977693E+03  0.48223910320E+03  0.80159925512E+02 0.  0.
         23    2    1    2    0    0 -0.11294276484E+02  0.97511366621E+00  0.10490902428E+03  0.14164367005E+03  0.94490816283E+02 0.  0.
        -11    1    3    3    0    0  0.29518049645E+02 -0.10675952615E+01  0.81118743180E+02  0.86329053682E+02  0.00000000000E+00 0.  1.
         12    1    3    3    0    0  0.70182800009E+01  0.10876926055E+03  0.38061103375E+03  0.39591004951E+03  0.00000000000E+00 0. -1.
        -11    1    4    4    0    0 -0.35542214150E+02 -0.30065091821E+02  0.86355415485E+02  0.98104110599E+02  0.00000000000E+00 0.  1.
         11    1    4    4    0    0  0.24247937666E+02  0.31040205487E+02  0.18553608792E+02  0.43539559448E+02  0.00000000000E+00 0. -1.
         -2    1    1    2    0  502 -0.25242053162E+02 -0.10867677895E+03  0.37451294241E+03  0.39077838677E+03  0.00000000000E+00 0.  1.
<scales pt_clust_5="13000.00000" pt_clust_6="13000.00000" pt_clust_7="13000.00000" pt_clust_8="13000.00000" pt_clust_9="13000.00000"></scales>
<clustering>
<clus scale="   80.160">  5  6 -1 -1</clus>
<clus scale="   94.491">  7  8 -1 -1</clus>
<clus scale="  111.570">  7  9 -1 -1</clus>
<clus scale="  139.141">  2  5  1 -1</clus>
<clus scale="  231.577">  1  5  2 -1</clus>
</clustering>
</event>
<event>
 9    2  0.2147756E-005  0.1494103E+03  0.7546771E-02  0.1220865E+00
         21   -1    0    0  501  502  0.00000000000E+00  0.00000000000E+00  0.13045751470E+03  0.13045751470E+03  0.00000000000E+00 0.  1.
         -1   -1    0    0    0  501 -0.00000000000E+00 -0.00000000000E+00 -0.12273285472E+03  0.12273285472E+03  0.00000000000E+00 0.  1.
         24    2    1    2    0    0 -0.11960644973E+02 -0.53493628726E+02  0.28610780832E+02  0.10232727094E+03  0.81533234063E+02 0.  0.
         23    2    1    2    0    0 -0.27142794192E+02  0.13497999615E+02 -0.88378310311E+01  0.93645176544E+02  0.88161128409E+02 0.  0.
        -11    1    3    3    0    0 -0.27071533568E+02 -0.65312819514E+02  0.38754989097E+02  0.80626183728E+02  0.00000000000E+00 0.  1.
         12    1    3    3    0    0  0.15110888596E+02  0.11819190788E+02 -0.10144208265E+02  0.21701087216E+02  0.00000000000E+00 0. -1.
        -11    1    4    4    0    0  0.25638088382E+02 -0.15616109222E+02  0.79852813393E+01  0.31063469884E+02  0.00000000000E+00 0. -1.
         11    1    4    4    0    0 -0.52780882574E+02  0.29114108837E+02 -0.16823112370E+02  0.62581706660E+02  0.00000000000E+00 0.  1.
         -2    1    1    2    0  502  0.39103439164E+02  0.39995629112E+02 -0.12048289818E+02  0.57217921930E+02  0.00000000000E+00 0.  1.
<scales pt_clust_5="13000.00000" pt_clust_6="13000.00000" pt_clust_7="13000.00000" pt_clust_8="13000.00000" pt_clust_9="13000.00000"></scales>
<clustering>
<clus scale="   81.533">  5  6 -1 -1</clus>
<clus scale="   88.161">  7  8 -1 -1</clus>
<clus scale="   55.935">  7  9 -1 -1</clus>
<clus scale="   98.246">  2  5  1 -1</clus>
<clus scale="  149.410">  1  5  2 -1</clus>
</clustering>
</event>
<event>
 9    2  0.2147756E-005  0.4932480E+03  0.7546771E-02  0.1046248E+00
         -1   -1    0    0    0  501 -0.00000000000E+00  0.00000000000E+00  0.47197362873E+03  0.47197362873E+03  0.00000000000E+00 0.  1.
         21   -1    0    0  501  502  0.00000000000E+00 -0.00000000000E+00 -0.25397790618E+03  0.25397790618E+03  0.00000000000E+00 0.  1.
         24    2    1    2    0    0  0.83479946845E+02  0.16130988807E+03  0.75320189155E+02  0.21248301468E+03  0.80536445903E+02 0.  0.
         23    2    1    2    0    0  0.82168936923E+02  0.39576945232E+02  0.20812125591E+03  0.24499465729E+03  0.91596157946E+02 0.  0.
        -13    1    3    3    0    0  0.74982854912E+02  0.11922939835E+03  0.89960337029E+02  0.16712552229E+03  0.00000000000E+00 0.  1.
         14    1    3    3    0    0  0.84970919335E+01  0.42080489716E+02 -0.14640147874E+02  0.45357492389E+02  0.00000000000E+00 0. -1.
        -11    1    4    4    0    0  0.58444204919E+02 -0.93130713036E+01  0.48948512060E+02  0.76801140738E+02  0.00000000000E+00 0. -1.
         11    1    4    4    0    0  0.23724732004E+02  0.48890016536E+02  0.15917274385E+03  0.16819351655E+03  0.00000000000E+00 0.  1.
         -2    1    1    2    0  502 -0.16564888377E+03 -0.20088683330E+03 -0.65445722509E+02  0.26847386294E+03  0.00000000000E+00 0.  1.
<scales pt_clust_5="13000.00000" pt_clust_6="13000.00000" pt_clust_7="13000.00000" pt_clust_8="13000.00000" pt_clust_9="13000.00000"></scales>
<clustering>
<clus scale="   80.536">  5  6 -1 -1</clus>
<clus scale="   91.596">  7  8 -1 -1</clus>
<clus scale="  198.685">  1  5  2 -1</clus>
<clus scale="  205.772">  7  9 -1 -1</clus>
<clus scale="  493.248">  2  5  1 -1</clus>
</clustering>
</event>
<event>
 9    2  0.2147756E-005  0.3511806E+03  0.7546771E-02  0.1090315E+00
         21   -1    0    0  501  502  0.00000000000E+00  0.00000000000E+00  0.58754161534E+02  0.58754161534E+02  0.00000000000E+00 0. -1.
          2   -1    0    0  502    0 -0.00000000000E+00 -0.00000000000E+00 -0.12126015077E+04  0.12126015077E+04  0.00000000000E+00 0. -1.
         24    2    1    2    0    0 -0.13052713137E+03  0.56449491214E+02 -0.53951028632E+03  0.56372732708E+03  0.80580848647E+02 0.  0.
         23    2    1    2    0    0 -0.23371655969E+02  0.91915746955E+02 -0.27391724818E+03  0.30565479973E+03  0.96950806617E+02 0.  0.
        -11    1    3    3    0    0 -0.45109751467E+02  0.92736719321E+01 -0.67353588513E+02  0.81592870731E+02  0.00000000000E+00 0.  1.
         12    1    3    3    0    0 -0.85417379907E+02  0.47175819281E+02 -0.47215669780E+03  0.48213445635E+03  0.00000000000E+00 0. -1.
        -11    1    4    4    0    0 -0.20705159026E+02 -0.12543139232E+02 -0.21170010078E+02  0.32159031061E+02  0.00000000000E+00 0.  1.
         11    1    4    4    0    0 -0.26664969434E+01  0.10445888619E+03 -0.25274723811E+03  0.27349576867E+03  0.00000000000E+00 0. -1.
          1    1    1    2  501    0  0.15389878734E+03 -0.14836523817E+03 -0.34041981171E+03  0.40197354247E+03  0.00000000000E+00 0. -1.
<scales pt_clust_5="13000.00000" pt_clust_6="13000.00000" pt_clust_7="13000.00000" pt_clust_8="13000.00000" pt_clust_9="13000.00000"></scales>
<clustering>
<clus scale="   80.581">  5  6 -1 -1</clus>
<clus scale="   96.951">  7  8 -1 -1</clus>
<clus scale="  163.454">  2  5  1 -1</clus>
<clus scale="  141.797">  7  9 -1 -1</clus>
<clus scale="  351.181">  1  5  2 -1</clus>
</clustering>
</event>
<event>
 9    2  0.2147756E-005  0.2565564E+03  0.7546771E-02  0.1134561E+00
         21   -1    0    0  501  502  0.00000000000E+00  0.00000000000E+00  0.23234199561E+03  0.23234199561E+03  0.00000000000E+00 0. -1.
          2   -1    0    0  502    0 -0.00000000000E+00 -0.00000000000E+00 -0.18987740847E+03  0.18987740847E+03  0.00000000000E+00 0. -1.
         24    2    1    2    0    0  0.80707587794E+02  0.75484442883E+02 -0.55896416908E+02  0.14745391952E+03  0.80041446231E+02 0.  0.
         23    2    1    2    0    0  0.36882726609E+02  0.23645439483E+02  0.30762562812E+02  0.10676618432E+03  0.92375540669E+02 0.  0.
        -13    1    3    3    0    0  0.23275346931E+02  0.31091981648E+02  0.18927459262E+02  0.43205344712E+02  0.00000000000E+00 0.  1.
         14    1    3    3    0    0  0.57432240864E+02  0.44392461236E+02 -0.74823876170E+02  0.10424857481E+03  0.00000000000E+00 0. -1.
        -13    1    4    4    0    0 -0.21691574250E+02  0.35708994864E+02  0.18619622109E+02  0.45742180044E+02  0.00000000000E+00 0.  1.
         13    1    4    4    0    0  0.58574300859E+02 -0.12063555381E+02  0.12142940703E+02  0.61024004281E+02  0.00000000000E+00 0. -1.
          1    1    1    2  501    0 -0.11759031440E+03 -0.99129882367E+02  0.67598441237E+02  0.16799930023E+03  0.00000000000E+00 0. -1.
<scales pt_clust_5="13000.00000" pt_clust_6="13000.00000" pt_clust_7="13000.00000" pt_clust_8="13000.00000" pt_clust_9="13000.00000"></scales>
<clustering>
<clus scale="   80.041">  5  6 -1 -1</clus>
<clus scale="   92.376">  7  8 -1 -1</clus>
<clus scale="  136.449">  2  5  1 -1</clus>
<clus scale="   91.046">  7  9 -1 -1</clus>
<clus scale="  256.556">  1  5  2 -1</clus>
</clustering>
</event>
<event>
 9    2  0.2147756E-005  0.4044216E+03  0.7546771E-02  0.1081849E+00
          2   -1    0    0  502    0 -0.00000000000E+00  0.00000000000E+00  0.57646317621E+02  0.57646317621E+02  0.00000000000E+00 0. -1.
         21   -1    0    0  501  502  0.00000000000E+00 -0.00000000000E+00 -0.14708120470E+04  0.14708120470E+04  0.00000000000E+00 0. -1.
         24    2    1    2    0    0  0.58700343738E+02  0.89654985791E+02 -0.66098493249E+03  0.67444852439E+03  0.80597668974E+02 0.  0.
         23    2    1    2    0    0  0.51550770150E+02  0.93556005658E+02 -0.11419962284E+03  0.18114911619E+03  0.91450753653E+02 0.  0.
        -13    1    3    3    0    0 -0.11313441760E+02  0.51336939927E+02 -0.31670218855E+03  0.32103543667E+03  0.00000000000E+00 0.  1.
         14    1    3    3    0    0  0.70013785498E+02  0.38318045864E+02 -0.34428274394E+03  0.35341308772E+03  0.00000000000E+00 0. -1.
        -11    1    4    4    0    0  0.46380717887E+02  0.15808441738E+02 -0.84660527900E+02  0.97818621980E+02  0.00000000000E+00 0.  1.
         11    1    4    4    0    0  0.51700522626E+01  0.77747563921E+02 -0.29539094936E+02  0.83330494212E+02  0.00000000000E+00 0. -1.
          1    1    1    2  501    0 -0.11025111389E+03 -0.18321099145E+03 -0.63798117401E+03  0.67286072400E+03  0.00000000000E+00 0. -1.
<scales pt_clust_5="13000.00000" pt_clust_6="13000.00000" pt_clust_7="13000.00000" pt_clust_8="13000.00000" pt_clust_9="13000.00000"></scales>
<clustering>
<clus scale="   80.598">  5  6 -1 -1</clus>
<clus scale="   91.451">  7  8 -1 -1</clus>
<clus scale="  134.089">  1  5  2 -1</clus>
<clus scale="  177.152">  7  9 -1 -1</clus>
<clus scale="  404.422">  2  5  1 -1</clus>
</clustering>
</event>
<event>
 9    2  0.2147756E-005  0.2393572E+03  0.7546771E-02  0.1132673E+00
          2   -1    0    0  502    0 -0.00000000000E+00  0.00000000000E+00  0.16690158237E+04  0.16690158237E+04  0.00000000000E+00 0. -1.
         21   -1    0    0  501  502  0.00000000000E+00 -0.00000000000E+00 -0.28818870513E+02  0.28818870513E+02  0.00000000000E+00 0.  1.
         24    2    1    2    0    0  0.13676228750E+03 -0.76499719695E+02  0.43756239833E+03  0.47161214250E+03  0.80006438003E+02 0.  0.
         23    2    1    2    0    0 -0.67040225839E+02 -0.15754062057E+02  0.45270386788E+03  0.46742879752E+03  0.93841922451E+02 0.  0.
        -11    1    3    3    0    0  0.14237897577E+03 -0.64704815386E+02  0.35362371388E+03  0.38666292413E+03  0.00000000000E+00 0.  1.
         12    1    3    3    0    0 -0.56166882657E+01 -0.11794904309E+02  0.83938684452E+02  0.84949218374E+02  0.00000000000E+00 0. -1.
        -11    1    4    4    0    0  0.18959810695E+02  0.80516604550E+01  0.37906918764E+02  0.43142069351E+02  0.00000000000E+00 0.  1.
         11    1    4    4    0    0 -0.86000036534E+02 -0.23805722512E+02  0.41479694911E+03  0.42428672817E+03  0.00000000000E+00 0. -1.
          1    1    1    2  501    0 -0.69722061663E+02  0.92253781752E+02  0.74993068698E+03  0.75879375420E+03  0.00000000000E+00 0. -1.
<scales pt_clust_5="13000.00000" pt_clust_6="13000.00000" pt_clust_7="13000.00000" pt_clust_8="13000.00000" pt_clust_9="13000.00000"></scales>
<clustering>
<clus scale="   80.006">  5  6 -1 -1</clus>
<clus scale="   93.842">  7  8 -1 -1</clus>
<clus scale="  115.637">  7  9 -1 -1</clus>
<clus scale="  175.947">  1  5  2 -1</clus>
<clus scale="  239.357">  2  5  1 -1</clus>
</clustering>
</event>
<event>
 9    2  0.2147756E-005  0.3111645E+03  0.7546771E-02  0.1098308E+00
          2   -1    0    0  502    0 -0.00000000000E+00  0.00000000000E+00  0.28046060221E+03  0.28046060221E+03  0.00000000000E+00 0. -1.
         21   -1    0    0  501  502  0.00000000000E+00 -0.00000000000E+00 -0.27023705439E+03  0.27023705439E+03  0.00000000000E+00 0. -1.
         24    2    1    2    0    0  0.87791977669E+02  0.15042465747E+03  0.11477480939E+03  0.22243810090E+03  0.77268641395E+02 0.  0.
         23    2    1    2    0    0 -0.34006787863E+02  0.45082676092E+02 -0.59658367347E+02  0.12057870421E+03  0.88267739354E+02 0.  0.
        -11    1    3    3    0    0  0.61708877770E+02  0.97077261082E+02  0.29900793840E+02  0.11885300874E+03  0.00000000000E+00 0.  1.
         12    1    3    3    0    0  0.26083099899E+02  0.53347396393E+02  0.84874015550E+02  0.10358509216E+03  0.00000000000E+00 0. -1.
        -11    1    4    4    0    0  0.16148392541E+01  0.41657705227E+02 -0.71600395846E+02  0.82852814049E+02  0.00000000000E+00 0. -1.
         11    1    4    4    0    0 -0.35621627118E+02  0.34249708646E+01  0.11942028499E+02  0.37725890163E+02  0.00000000000E+00 0.  1.
          1    1    1    2  501    0 -0.53785189806E+02 -0.19550733357E+03 -0.44892894228E+02  0.20768085148E+03  0.00000000000E+00 0. -1.
<scales pt_clust_5="13000.00000" pt_clust_6="13000.00000" pt_clust_7="13000.00000" pt_clust_8="13000.00000" pt_clust_9="13000.00000"></scales>
<clustering>
<clus scale="   77.269">  5  6 -1 -1</clus>
<clus scale="   88.268">  7  8 -1 -1</clus>
<clus scale="  190.540">  1  5  2 -1</clus>
<clus scale="   86.637">  7  9 -1 -1</clus>
<clus scale="  311.165">  2  5  1 -1</clus>
</clustering>
</event>
<event>
 9    2  0.2147756E-005  0.2574114E+03  0.7546771E-02  0.1147244E+00
         21   -1    0    0  501  502  0.00000000000E+00  0.00000000000E+00  0.69945602215E+03  0.69945602215E+03  0.00000000000E+00 0. -1.
         -1   -1    0    0    0  501 -0.00000000000E+00 -0.00000000000E+00 -0.46422254683E+02  0.46422254683E+02  0.00000000000E+00 0.  1.
         24    2    1    2    0    0 -0.83345562478E+01  0.45263487021E+02  0.13860764834E+03  0.17064367454E+03  0.88254945464E+02 0.  0.
         23    2    1    2    0    0  0.40461840655E+02 -0.11633813938E+03  0.44558798227E+03  0.47120356030E+03  0.91172485278E+02 0.  0.
        -11    1    3    3    0    0  0.18275342687E+02  0.54750320387E+02  0.45954615843E+02  0.73779485293E+02  0.00000000000E+00 0.  1.
         12    1    3    3    0    0 -0.26609898934E+02 -0.94868333668E+01  0.92653032494E+02  0.96864189249E+02  0.00000000000E+00 0. -1.
        -13    1    4    4    0    0  0.61357926843E+02 -0.11495868711E+03  0.40627070499E+03  0.42665698243E+03  0.00000000000E+00 0. -1.
         13    1    4    4    0    0 -0.20896086188E+02 -0.13794522682E+01  0.39317277278E+02  0.44546577860E+02  0.00000000000E+00 0.  1.
         -2    1    1    2    0  502 -0.32127284407E+02  0.71074652360E+02  0.68838136863E+02  0.10403104199E+03  0.00000000000E+00 0.  1.
<scales pt_clust_5="13000.00000" pt_clust_6="13000.00000" pt_clust_7="13000.00000" pt_clust_8="13000.00000" pt_clust_9="13000.00000"></scales>
<clustering>
<clus scale="   88.255">  5  6 -1 -1</clus>
<clus scale="   91.172">  7  8 -1 -1</clus>
<clus scale="   77.999">  7  9 -1 -1</clus>
<clus scale="   99.535">  2  5  1 -1</clus>
<clus scale="  257.411">  1  5  2 -1</clus>
</clustering>
</event>
<event>
 9    2  0.2147756E-005  0.3332386E+03  0.7546771E-02  0.1093693E+00
          2   -1    0    0  502    0 -0.00000000000E+00  0.00000000000E+00  0.14498453154E+04  0.14498453154E+04  0.00000000000E+00 0. -1.
         21   -1    0    0  501  502  0.00000000000E+00 -0.00000000000E+00 -0.50384137993E+02  0.50384137993E+02  0.00000000000E+00 0. -1.
         24    2    1    2    0    0  0.11053219670E+03 -0.10867471922E+03  0.26294825475E+03  0.31586905188E+03  0.81264458146E+02 0.  0.
         23    2    1    2    0    0  0.62421143108E+02  0.11376406754E+03  0.48807388582E+03  0.51323303378E+03  0.91396754726E+02 0.  0.
        -11    1    3    3    0    0  0.78679709671E+01 -0.47458206112E+02  0.12151857662E+03  0.13069411141E+03  0.00000000000E+00 0.  1.
         12    1    3    3    0    0  0.10266422573E+03 -0.61216513112E+02  0.14142967813E+03  0.18517494047E+03  0.00000000000E+00 0. -1.
        -11    1    4    4    0    0  0.36361412451E+02  0.11961545860E+03  0.32940145285E+03  0.35232843682E+03  0.00000000000E+00 0. -1.
         11    1    4    4    0    0  0.26059730658E+02 -0.58513910573E+01  0.15867243297E+03  0.16090459696E+03  0.00000000000E+00 0.  1.
          1    1    1    2  501    0 -0.17295333981E+03 -0.50893483175E+01  0.64843903686E+03  0.67112736775E+03  0.00000000000E+00 0. -1.
<scales pt_clust_5="13000.00000" pt_clust_6="13000.00000" pt_clust_7="13000.00000" pt_clust_8="13000.00000" pt_clust_9="13000.00000"></scales>
<clustering>
<clus scale="   81.264">  5  6 -1 -1</clus>
<clus scale="   91.397">  7  8 -1 -1</clus>
<clus scale="  173.028">  7  9 -1 -1</clus>
<clus scale="  175.019">  1  5  2 -1</clus>
<clus scale="  333.239">  2  5  1 -1</clus>
</clustering>
</event>
<event>
 9    2  0.2147756E-005  0.4757696E+03  0.7546771E-02  0.1038437E+00
         21   -1    0    0  501  502  0.00000000000E+00  0.00000000000E+00  0.56802809033E+02  0.56802809033E+02  0.00000000000E+00 0. -1.
          2   -1    0    0  502    0 -0.00000000000E+00 -0.00000000000E+00 -0.24986743187E+04  0.24986743187E+04  0.00000000000E+00 0. -1.
         24    2    1    2    0    0 -0.13730522458E+03 -0.22723987326E+03 -0.92115143855E+03  0.96207001847E+03  0.81043587064E+02 0.  0.
         23    2    1    2    0    0 -0.60206172358E+02  0.20875386931E+02 -0.12072257591E+03  0.16456490673E+03  0.91908123817E+02 0.  0.
        -11    1    3    3    0    0 -0.13731911334E+02 -0.92482376179E+02 -0.35635400320E+03  0.36841516105E+03  0.00000000000E+00 0.  1.
         12    1    3    3    0    0 -0.12357331325E+03 -0.13475749708E+03 -0.56479743534E+03  0.59365485742E+03  0.00000000000E+00 0. -1.
        -13    1    4    4    0    0 -0.32610870174E+02  0.34188879900E+02 -0.82107048518E+01  0.47955855080E+02  0.00000000000E+00 0. -1.
         13    1    4    4    0    0 -0.27595302184E+02 -0.13313492969E+02 -0.11251187106E+03  0.11660905165E+03  0.00000000000E+00 0.  1.
          1    1    1    2  501    0  0.19751139694E+03  0.20636448633E+03 -0.13999974952E+04  0.14288422025E+04  0.00000000000E+00 0. -1.
<scales pt_clust_5="13000.00000" pt_clust_6="13000.00000" pt_clust_7="13000.00000" pt_clust_8="13000.00000" pt_clust_9="13000.00000"></scales>
<clustering>
<clus scale="   81.044">  5  6 -1 -1</clus>
<clus scale="   91.908">  7  8 -1 -1</clus>
<clus scale="  277.595">  2  5  1 -1</clus>
<clus scale="   72.785">  7  9 -1 -1</clus>
<clus scale="  475.770">  1  5  2 -1</clus>
</clustering>
</event>
<event>
 9    2  0.2147756E-005  0.2443209E+03  0.7546771E-02  0.1121161E+00
         -1   -1    0    0    0  501 -0.00000000000E+00  0.00000000000E+00  0.56966603589E+03  0.56966603589E+03  0.00000000000E+00 0.  1.
         21   -1    0    0  501  502  0.00000000000E+00 -0.00000000000E+00 -0.19853204485E+03  0.19853204485E+03  0.00000000000E+00 0.  1.
         24    2    1    2    0    0 -0.26944465868E+02  0.20240636556E+03  0.45869669374E+03  0.50866013090E+03  0.81474725316E+02 0.  0.
         23    2    1    2    0    0 -0.43731382768E+01 -0.11907406107E+03 -0.82063967177E+02  0.17034545356E+03  0.89918421252E+02 0.  0.
        -11    1    3    3    0    0 -0.39320731755E+02  0.19132214788E+03  0.36968898030E+03  0.41811508747E+03  0.00000000000E+00 0.  1.
         12    1    3    3    0    0  0.12376265888E+02  0.11084217678E+02  0.89007713435E+02  0.90545043430E+02  0.00000000000E+00 0. -1.
        -11    1    4    4    0    0  0.29160451790E+02 -0.99985120252E+02 -0.80662635874E+02  0.13173388724E+03  0.00000000000E+00 0.  1.
         11    1    4    4    0    0 -0.33533590066E+02 -0.19088940822E+02 -0.14013313030E+01  0.38611566323E+02  0.00000000000E+00 0. -1.
         -2    1    1    2    0  502  0.31317604145E+02 -0.83332304488E+02 -0.54987355174E+01  0.89192496281E+02  0.00000000000E+00 0.  1.
<scales pt_clust_5="13000.00000" pt_clust_6="13000.00000" pt_clust_7="13000.00000" pt_clust_8="13000.00000" pt_clust_9="13000.00000"></scales>
<clustering>
<clus scale="   81.475">  5  6 -1 -1</clus>
<clus scale="   89.918">  7  8 -1 -1</clus>
<clus scale="   89.023">  7  9 -1 -1</clus>
<clus scale="  219.846">  1  5  2 -1</clus>
<clus scale="  244.321">  2  5  1 -1</clus>
</clustering>
</event>
<event>
 9    2  0.2147756E-005  0.3742541E+03  0.7546771E-02  0.1107507E+00
          2   -1    0    0  502    0 -0.00000000000E+00  0.00000000000E+00  0.19586925457E+03  0.19586925457E+03  0.00000000000E+00 0. -1.
         21   -1    0    0  501  502  0.00000000000E+00 -0.00000000000E+00 -0.29077959843E+03  0.29077959843E+03  0.00000000000E+00 0. -1.
         24    2    1    2    0    0  0.22137298471E+02 -0.25656377440E+02  0.31029995035E+02  0.91772794622E+02  0.79442278127E+02 0.  0.
         23    2    1    2    0    0  0.93026754293E+02  0.15314596061E+03 -0.83904074356E+02  0.21800491770E+03  0.91534628321E+02 0.  0.
        -11    1    3    3    0    0 -0.23414383517E+02 -0.18114100067E+02  0.34512946964E+02  0.45469742520E+02  0.00000000000E+00 0.  1.
         12    1    3    3    0    0  0.45551681987E+02 -0.75422773733E+01 -0.34829519295E+01  0.46303052102E+02  0.00000000000E+00 0. -1.
        -11    1    4    4    0    0  0.27437871100E+02  0.10884609156E+03 -0.81684388655E+02  0.13882596216E+03  0.00000000000E+00 0. -1.
         11    1    4    4    0    0  0.65588883193E+02  0.44299869053E+02 -0.22196857004E+01  0.79178955546E+02  0.00000000000E+00 0.  1.
          1    1    1    2  501    0 -0.11516405276E+03 -0.12748958317E+03 -0.42036264542E+02  0.17687114067E+03  0.00000000000E+00 0. -1.
<scales pt_clust_5="13000.00000" pt_clust_6="13000.00000" pt_clust_7="13000.00000" pt_clust_8="13000.00000" pt_clust_9="13000.00000"></scales>
<clustering>
<clus scale="   79.442">  5  6 -1 -1</clus>
<clus scale="   86.368">  1  5  2 -1</clus>
<clus scale="   91.535">  7  8 -1 -1</clus>
<clus scale="  174.724">  7  9 -1 -1</clus>
<clus scale="  374.254">  2  5  1 -1</clus>
</clustering>
</event>
<event>
 9    2  0.2147756E-005  0.1631523E+03  0.7546771E-02  0.1210499E+00
         21   -1    0    0  501  502  0.00000000000E+00  0.00000000000E+00  0.25468729604E+03  0.25468729604E+03  0.00000000000E+00 0. -1.
          4   -1    0    0  502    0 -0.00000000000E+00 -0.00000000000E+00 -0.67791934897E+02  0.67791934897E+02  0.00000000000E+00 0. -1.
         24    2    1    2    0    0 -0.30770999351E+02 -0.37499969877E+02  0.37158049344E+02  0.10102957617E+03  0.80455903997E+02 0.  0.
         23    2    1    2    0    0 -0.23100883491E+02 -0.40402689295E+01  0.93258848427E+02  0.13303252958E+03  0.91926419088E+02 0.  0.
        -13    1    3    3    0    0  0.12665910318E+02 -0.15545617837E+02 -0.18367509097E+02  0.27192956966E+02  0.00000000000E+00 0.  1.
         14    1    3    3    0    0 -0.43436909669E+02 -0.21954352039E+02  0.55525558441E+02  0.73836619203E+02  0.00000000000E+00 0. -1.
        -11    1    4    4    0    0 -0.14511275121E+02  0.16990732352E+02 -0.11991361391E+02  0.25358525973E+02  0.00000000000E+00 0.  1.
         11    1    4    4    0    0 -0.85896083696E+01 -0.21031001282E+02  0.10525020982E+03  0.10767400361E+03  0.00000000000E+00 0. -1.
          3    1    1    2  501    0  0.53871882842E+02  0.41540238806E+02  0.56478463370E+02  0.88417125183E+02  0.00000000000E+00 0. -1.
<scales pt_clust_5="13000.00000" pt_clust_6="13000.00000" pt_clust_7="13000.00000" pt_clust_8="13000.00000" pt_clust_9="13000.00000"></scales>
<clustering>
<clus scale="   80.456">  5  6 -1 -1</clus>
<clus scale="   91.926">  7  8 -1 -1</clus>
<clus scale="   68.028">  7  9 -1 -1</clus>
<clus scale="   93.948">  2  5  1 -1</clus>
<clus scale="  163.152">  1  5  2 -1</clus>
</clustering>
</event>
<event>
 9    2  0.2147756E-005  0.2227384E+03  0.7546771E-02  0.1163465E+00
         -1   -1    0    0    0  501 -0.00000000000E+00  0.00000000000E+00  0.34304753944E+03  0.34304753944E+03  0.00000000000E+00 0.  1.
         21   -1    0    0  501  502  0.00000000000E+00 -0.00000000000E+00 -0.78316295349E+02  0.78316295349E+02  0.00000000000E+00 0.  1.
         24    2    1    2    0    0 -0.57479044533E+02 -0.37295137786E+02  0.80081321011E+02  0.13204047528E+03  0.79541820907E+02 0.  0.
         23    2    1    2    0    0 -0.90461131873E+01  0.19110208233E+02  0.20140570594E+03  0.21835122039E+03  0.81645360158E+02 0.  0.
        -13    1    3    3    0    0 -0.72316482707E+02 -0.11425829140E+02  0.44754850015E+02  0.85809206047E+02  0.00000000000E+00 0.  1.
         14    1    3    3    0    0  0.14837438174E+02 -0.25869308646E+02  0.35326470996E+02  0.46231269228E+02  0.00000000000E+00 0. -1.
        -13    1    4    4    0    0  0.28255338816E+02 -0.14114721975E+02  0.52265854459E+02  0.61068069319E+02  0.00000000000E+00 0. -1.
         13    1    4    4    0    0 -0.37301452003E+02  0.33224930208E+02  0.14913985148E+03  0.15728315107E+03  0.00000000000E+00 0.  1.
         -2    1    1    2    0  502  0.66525157721E+02  0.18184929553E+02 -0.16755782865E+02  0.70972139125E+02  0.00000000000E+00 0.  1.
<scales pt_clust_5="13000.00000" pt_clust_6="13000.00000" pt_clust_7="13000.00000" pt_clust_8="13000.00000" pt_clust_9="13000.00000"></scales>
<clustering>
<clus scale="   79.542">  5  6 -1 -1</clus>
<clus scale="   81.645">  7  8 -1 -1</clus>
<clus scale="   68.966">  7  9 -1 -1</clus>
<clus scale="  104.984">  1  5  2 -1</clus>
<clus scale="  222.738">  2  5  1 -1</clus>
</clustering>
</event>
<event>
 9    2  0.2147756E-005  0.9400418E+03  0.7546771E-02  0.9987121E-01
          2   -1    0    0  502    0 -0.00000000000E+00  0.00000000000E+00  0.13199299243E+04  0.13199299243E+04  0.00000000000E+00 0. -1.
         21   -1    0    0  501  502  0.00000000000E+00 -0.00000000000E+00 -0.21838662132E+03  0.21838662132E+03  0.00000000000E+00 0.  1.
         24    2    1    2    0    0 -0.68887842370E+02 -0.61444427055E+02  0.21408343490E+03  0.24554295149E+03  0.77062776269E+02 0.  0.
         23    2    1    2    0    0  0.33027215653E+03  0.15603077185E+03  0.14300278449E+02  0.37643522579E+03  0.89853670540E+02 0.  0.
        -13    1    3    3    0    0 -0.82047093627E+02 -0.36372697727E+02  0.14070627066E+03  0.16689204090E+03  0.00000000000E+00 0.  1.
         14    1    3    3    0    0  0.13159251257E+02 -0.25071729329E+02  0.73377164235E+02  0.78650910588E+02  0.00000000000E+00 0. -1.
        -11    1    4    4    0    0  0.28361285709E+03  0.11621607980E+03 -0.18160437555E+02  0.30703783383E+03  0.00000000000E+00 0.  1.
         11    1    4    4    0    0  0.46659299435E+02  0.39814692051E+02  0.32460716005E+02  0.69397391957E+02  0.00000000000E+00 0. -1.
          1    1    1    2  501    0 -0.26138431416E+03 -0.94586344799E+02  0.87315958965E+03  0.91633836835E+03  0.00000000000E+00 0. -1.
<scales pt_clust_5="13000.00000" pt_clust_6="13000.00000" pt_clust_7="13000.00000" pt_clust_8="13000.00000" pt_clust_9="13000.00000"></scales>
<clustering>
<clus scale="   77.063">  5  6 -1 -1</clus>
<clus scale="   89.854">  7  8 -1 -1</clus>
<clus scale="  120.248">  1  5  2 -1</clus>
<clus scale="  349.439">  7  9 -1 -1</clus>
<clus scale="  940.042">  2  5  1 -1</clus>
</clustering>
</event>
<event>
 9    2  0.2147756E-005  0.2453054E+03  0.7546771E-02  0.1143819E+00
          2   -1    0    0  502    0 -0.00000000000E+00  0.00000000000E+00  0.59201246241E+02  0.59201246241E+02  0.00000000000E+00 0. -1.
         21   -1    0    0  501  502  0.00000000000E+00 -0.00000000000E+00 -0.60110489501E+03  0.60110489501E+03  0.00000000000E+00 0.  1.
         24    2    1    2    0    0  0.60073305415E+02  0.74722889998E+02 -0.24674975855E+03  0.27652162583E+03  0.79915291972E+02 0.  0.
         23    2    1    2    0    0 -0.28521769417E+02  0.33711100536E+02 -0.23961326033E+03  0.25793463940E+03  0.84651249531E+02 0.  0.
        -11    1    3    3    0    0  0.78531841212E+02  0.68492566166E+02 -0.21998868021E+03  0.24342042052E+03  0.00000000000E+00 0.  1.
         12    1    3    3    0    0 -0.18458535798E+02  0.62303238328E+01 -0.26761078336E+02  0.33101205304E+02  0.00000000000E+00 0. -1.
        -11    1    4    4    0    0 -0.14310943565E+02  0.61919248797E+02 -0.17001390084E+03  0.18150350673E+03  0.00000000000E+00 0.  1.
         11    1    4    4    0    0 -0.14210825852E+02 -0.28208148260E+02 -0.69599359490E+02  0.76431132669E+02  0.00000000000E+00 0. -1.
          1    1    1    2  501    0 -0.31551535998E+02 -0.10843399053E+03 -0.55540629890E+02  0.12584987603E+03  0.00000000000E+00 0. -1.
<scales pt_clust_5="13000.00000" pt_clust_6="13000.00000" pt_clust_7="13000.00000" pt_clust_8="13000.00000" pt_clust_9="13000.00000"></scales>
<clustering>
<clus scale="   79.915">  5  6 -1 -1</clus>
<clus scale="   84.651">  7  8 -1 -1</clus>
<clus scale="  112.931">  7  9 -1 -1</clus>
<clus scale="  124.815">  1  5  2 -1</clus>
<clus scale="  245.305">  2  5  1 -1</clus>
</clustering>
</event>
<event>
 9    2  0.2147756E-005  0.4472263E+03  0.7546771E-02  0.1034057E+00
         21   -1    0    0  501  502  0.00000000000E+00  0.00000000000E+00  0.29402439525E+03  0.29402439525E+03  0.00000000000E+00 0. -1.
          2   -1    0    0  502    0 -0.00000000000E+00 -0.00000000000E+00 -0.72390350909E+03  0.72390350909E+03  0.00000000000E+00 0. -1.
         24    2    1    2    0    0  0.27226323226E+03 -0.25140912937E+03 -0.42577816827E+03  0.57068285043E+03  0.84012196890E+02 0.  0.
         23    2    1    2    0    0 -0.45615510433E+02  0.39184761250E+02 -0.70576106094E+02  0.12971187579E+03  0.90708123474E+02 0.  0.
        -11    1    3    3    0    0  0.77821433950E+02 -0.62039510268E+02 -0.63682615426E+02  0.11815477952E+03  0.00000000000E+00 0.  1.
         12    1    3    3    0    0  0.19444179831E+03 -0.18936961911E+03 -0.36209555284E+03  0.45252807091E+03  0.00000000000E+00 0. -1.
        -11    1    4    4    0    0  0.42023069626E+01  0.24181145889E+02  0.15575666659E+02  0.29068687487E+02  0.00000000000E+00 0. -1.
         11    1    4    4    0    0 -0.49817817395E+02  0.15003615361E+02 -0.86151772753E+02  0.10064318831E+03  0.00000000000E+00 0.  1.
          1    1    1    2  501    0 -0.22664772183E+03  0.21222436813E+03  0.66475160526E+02  0.31753317811E+03  0.00000000000E+00 0. -1.
<scales pt_clust_5="13000.00000" pt_clust_6="13000.00000" pt_clust_7="13000.00000" pt_clust_8="13000.00000" pt_clust_9="13000.00000"></scales>
<clustering>
<clus scale="   84.012">  5  6 -1 -1</clus>
<clus scale="   90.708">  7  8 -1 -1</clus>
<clus scale="  310.497">  7  9 -1 -1</clus>
<clus scale="  379.989">  2  5  1 -1</clus>
<clus scale="  447.226">  1  5  2 -1</clus>
</clustering>
</event>
<event>
 9    2  0.2147756E-005  0.4727793E+03  0.7546771E-02  0.1084266E+00
         21   -1    0    0  501  502  0.00000000000E+00  0.00000000000E+00  0.35387934057E+03  0.35387934057E+03  0.00000000000E+00 0. -1.
          2   -1    0    0  502    0 -0.00000000000E+00 -0.00000000000E+00 -0.26674777944E+03  0.26674777944E+03  0.00000000000E+00 0. -1.
         24    2    1    2    0    0  0.26254477960E+02 -0.80845127716E+01 -0.86543967089E+02  0.11695711098E+03  0.73718726315E+02 0.  0.
         23    2    1    2    0    0 -0.16306520554E+03 -0.16117363272E+03  0.13789744516E+03  0.28311261011E+03  0.92573449101E+02 0.  0.
        -13    1    3    3    0    0 -0.12725153846E+02 -0.30888902758E+02 -0.33855207247E+02  0.47562894274E+02  0.00000000000E+00 0.  1.
         14    1    3    3    0    0  0.38979631807E+02  0.22804389987E+02 -0.52688759842E+02  0.69394216705E+02  0.00000000000E+00 0. -1.
        -13    1    4    4    0    0 -0.36131937875E+02  0.65467837178E+01  0.16515873313E+02  0.40263524224E+02  0.00000000000E+00 0.  1.
         13    1    4    4    0    0 -0.12693326766E+03 -0.16772041644E+03  0.12138157185E+03  0.24284908588E+03  0.00000000000E+00 0. -1.
          1    1    1    2  501    0  0.13681072758E+03  0.16925814550E+03  0.35778083059E+02  0.22055739893E+03  0.00000000000E+00 0. -1.
<scales pt_clust_5="13000.00000" pt_clust_6="13000.00000" pt_clust_7="13000.00000" pt_clust_8="13000.00000" pt_clust_9="13000.00000"></scales>
<clustering>
<clus scale="   73.719">  5  6 -1 -1</clus>
<clus scale="   78.671">  2  5  1 -1</clus>
<clus scale="   92.573">  7  8 -1 -1</clus>
<clus scale="  223.813">  7  9 -1 -1</clus>
<clus scale="  472.779">  1  5  2 -1</clus>
</clustering>
</event>
<event>
 9    2  0.2147756E-005  0.2479604E+03  0.7546771E-02  0.1163725E+00
          2   -1    0    0  502    0 -0.00000000000E+00  0.00000000000E+00  0.53174930433E+03  0.53174930433E+03  0.00000000000E+00 0. -1.
         21   -1    0    0  501  502  0.00000000000E+00 -0.00000000000E+00 -0.90589239187E+02  0.90589239187E+02  0.00000000000E+00 0. -1.
         24    2    1    2    0    0 -0.24961795097E+02 -0.14565098845E+01  0.35011352946E+03  0.35819116345E+03  0.71387768050E+02 0.  0.
         23    2    1    2    0    0 -0.25330669325E+02  0.81455199921E+02 -0.14315933198E+02  0.12261868251E+03  0.86912616767E+02 0.  0.
        -11    1    3    3    0    0 -0.16831751593E+02 -0.29312245990E+02  0.84690169420E+02  0.91186295149E+02  0.00000000000E+00 0.  1.
         12    1    3    3    0    0 -0.81300435036E+01  0.27855736105E+02  0.26542336004E+03  0.26700486830E+03  0.00000000000E+00 0. -1.
        -11    1    4    4    0    0 -0.34506133531E+02  0.40808085981E+02  0.30411380382E+02  0.61488415083E+02  0.00000000000E+00 0.  1.
         11    1    4    4    0    0  0.91754642061E+01  0.40647113941E+02 -0.44727313579E+02  0.61130267422E+02  0.00000000000E+00 0. -1.
          1    1    1    2  501    0  0.50292464422E+02 -0.79998690037E+02  0.10536246888E+03  0.14152869757E+03  0.00000000000E+00 0. -1.
<scales pt_clust_5="13000.00000" pt_clust_6="13000.00000" pt_clust_7="13000.00000" pt_clust_8="13000.00000" pt_clust_9="13000.00000"></scales>
<clustering>
<clus scale="   71.388">  5  6 -1 -1</clus>
<clus scale="   75.640">  1  5  2 -1</clus>
<clus scale="   86.913">  7  8 -1 -1</clus>
<clus scale="   87.453">  7  9 -1 -1</clus>
<clus scale="  247.960">  2  5  1 -1</clus>
</clustering>
</event>
<event>
 9    2  0.2147756E-005  0.1345754E+03  0.7546771E-02  0.1231534E+00
         21   -1    0    0  501  502  0.00000000000E+00  0.00000000000E+00  0.69303852010E+02  0.69303852010E+02  0.00000000000E+00 0. -1.
          2   -1    0    0  502    0 -0.00000000000E+00 -0.00000000000E+00 -0.27357961685E+03  0.27357961685E+03  0.00000000000E+00 0. -1.
         24    2    1    2    0    0 -0.53121272370E+02  0.46973461215E+02 -0.17447735687E+03  0.20504846028E+03  0.81081115957E+02 0.  0.
         23    2    1    2    0    0  0.29760937286E+02 -0.29580015780E+01  0.30136407148E+01  0.78171816569E+02  0.72161539021E+02 0.  0.
        -11    1    3    3    0    0 -0.67412182855E+02  0.43021535201E+02 -0.94901331015E+02  0.12410285056E+03  0.00000000000E+00 0.  1.
         12    1    3    3    0    0  0.14290910485E+02  0.39519260135E+01 -0.79576025859E+02  0.80945609721E+02  0.00000000000E+00 0. -1.
        -13    1    4    4    0    0  0.19825361196E+02  0.24075913868E+02 -0.23479547443E+02  0.39038234120E+02  0.00000000000E+00 0.  1.
         13    1    4    4    0    0  0.99355760900E+01 -0.27033915446E+02  0.26493188157E+02  0.39133582449E+02  0.00000000000E+00 0. -1.
          1    1    1    2  501    0  0.23360335084E+02 -0.44015459637E+02 -0.32812048680E+02  0.59663192010E+02  0.00000000000E+00 0. -1.
<scales pt_clust_5="13000.00000" pt_clust_6="13000.00000" pt_clust_7="13000.00000" pt_clust_8="13000.00000" pt_clust_9="13000.00000"></scales>
<clustering>
<clus scale="   72.162">  7  8 -1 -1</clus>
<clus scale="   49.830">  7  9 -1 -1</clus>
<clus scale="   81.081">  5  6 -1 -1</clus>
<clus scale="  107.715">  2  5  1 -1</clus>
<clus scale="  134.575">  1  5  2 -1</clus>
</clustering>
</event>
<event>
 9    2  0.2147756E-005  0.1695036E+03  0.7546771E-02  0.1191476E+00
         21   -1    0    0  501  502  0.00000000000E+00  0.00000000000E+00  0.42768453085E+02  0.42768453085E+02  0.00000000000E+00 0. -1.
          2   -1    0    0  502    0 -0.00000000000E+00 -0.00000000000E+00 -0.53230962913E+03  0.53230962913E+03  0.00000000000E+00 0. -1.
         24    2    1    2    0    0 -0.93994413008E+02  0.27534136216E+02 -0.26570062912E+03  0.29430047101E+03  0.80142776276E+02 0.  0.
         23    2    1    2    0    0  0.41875538937E+02 -0.35941003019E+01 -0.18823524550E+03  0.21327027943E+03  0.91023217481E+02 0.  0.
        -11    1    3    3    0    0 -0.43393727107E+02 -0.22786877510E+02 -0.65831075987E+02  0.82073064428E+02  0.00000000000E+00 0.  1.
         12    1    3    3    0    0 -0.50600685901E+02  0.50321013726E+02 -0.19986955313E+03  0.21222740658E+03  0.00000000000E+00 0. -1.
        -13    1    4    4    0    0  0.64599006832E+02  0.15219641600E+02 -0.98190351221E+02  0.11851588183E+03  0.00000000000E+00 0. -1.
         13    1    4    4    0    0 -0.22723467895E+02 -0.18813741902E+02 -0.90044894281E+02  0.94754397595E+02  0.00000000000E+00 0.  1.
          1    1    1    2  501    0  0.52118874071E+02 -0.23940035915E+02 -0.35605301428E+02  0.67507331778E+02  0.00000000000E+00 0. -1.
<scales pt_clust_5="13000.00000" pt_clust_6="13000.00000" pt_clust_7="13000.00000" pt_clust_8="13000.00000" pt_clust_9="13000.00000"></scales>
<clustering>
<clus scale="   80.143">  5  6 -1 -1</clus>
<clus scale="   91.023">  7  8 -1 -1</clus>
<clus scale="   57.354">  7  9 -1 -1</clus>
<clus scale="  126.554">  2  5  1 -1</clus>
<clus scale="  169.504">  1  5  2 -1</clus>
</clustering>
</event>
<event>
 9    2  0.2147756E-005  0.3470547E+03  0.7546771E-02  0.1116843E+00
         21   -1    0    0  501  502  0.00000000000E+00  0.00000000000E+00  0.47541275405E+03  0.47541275405E+03  0.00000000000E+00 0. -1.
          2   -1    0    0  502    0 -0.00000000000E+00 -0.00000000000E+00 -0.10146061746E+03  0.10146061746E+03  0.00000000000E+00 0. -1.
         24    2    1    2    0    0  0.27638810916E+02  0.15835982389E+02  0.36916931865E+02  0.93096871604E+02  0.79306276152E+02 0.  0.
         23    2    1    2    0    0 -0.11176327309E+03  0.10900920351E+03  0.10867897951E+03  0.21026267726E+03  0.89583688258E+02 0.  0.
        -11    1    3    3    0    0  0.26858097717E+02 -0.18669836041E+02  0.46888754403E+02  0.57170582297E+02  0.00000000000E+00 0.  1.
         12    1    3    3    0    0  0.78071319898E+00  0.34505818431E+02 -0.99718225376E+01  0.35926289307E+02  0.00000000000E+00 0. -1.
        -11    1    4    4    0    0 -0.87294999317E+02  0.12003073199E+03  0.10775786632E+03  0.18341088103E+03  0.00000000000E+00 0.  1.
         11    1    4    4    0    0 -0.24468273773E+02 -0.11021528475E+02  0.92111318340E+00  0.26851796231E+02  0.00000000000E+00 0. -1.
          1    1    1    2  501    0  0.84124462174E+02 -0.12484518590E+03  0.22835622522E+03  0.27351382264E+03  0.00000000000E+00 0. -1.
<scales pt_clust_5="13000.00000" pt_clust_6="13000.00000" pt_clust_7="13000.00000" pt_clust_8="13000.00000" pt_clust_9="13000.00000"></scales>
<clustering>
<clus scale="   79.306">  5  6 -1 -1</clus>
<clus scale="   85.464">  2  5  1 -1</clus>
<clus scale="   89.584">  7  8 -1 -1</clus>
<clus scale="  151.570">  7  9 -1 -1</clus>
<clus scale="  347.055">  1  5  2 -1</clus>
</clustering>
</event>
<event>
 9    2  0.2147756E-005  0.2513317E+03  0.7546771E-02  0.1126456E+00
          2   -1    0    0  502    0 -0.00000000000E+00  0.00000000000E+00  0.25500645526E+03  0.25500645526E+03  0.00000000000E+00 0. -1.
         21   -1    0    0  501  502  0.00000000000E+00 -0.00000000000E+00 -0.43278414833E+03  0.43278414833E+03  0.00000000000E+00 0.  1.
         24    2    1    2    0    0 -0.15467256611E+03 -0.28393231511E+01  0.17873438125E+03  0.25159286591E+03  0.86147122256E+02 0.  0.
         23    2    1    2    0    0  0.69975312313E+02 -0.46417488299E+02 -0.93566829439E+02  0.15559114460E+03  0.91666379622E+02 0.  0.
        -11    1    3    3    0    0 -0.36179614920E+02 -0.20601850612E+02  0.70407400205E+01  0.42225262633E+02  0.00000000000E+00 0.  1.
         12    1    3    3    0    0 -0.11849295119E+03  0.17762527460E+02  0.17169364123E+03  0.20936760328E+03  0.00000000000E+00 0. -1.
        -13    1    4    4    0    0  0.78458215563E+02 -0.66210129107E+02 -0.79850234789E+02  0.13005972775E+03  0.00000000000E+00 0.  1.
         13    1    4    4    0    0 -0.84829032502E+01  0.19792640808E+02 -0.13716594650E+02  0.25531416852E+02  0.00000000000E+00 0. -1.
          1    1    1    2  501    0  0.84697253799E+02  0.49256811450E+02 -0.26294524488E+03  0.28060659308E+03  0.00000000000E+00 0. -1.
<scales pt_clust_5="13000.00000" pt_clust_6="13000.00000" pt_clust_7="13000.00000" pt_clust_8="13000.00000" pt_clust_9="13000.00000"></scales>
<clustering>
<clus scale="   86.147">  5  6 -1 -1</clus>
<clus scale="   91.666">  7  8 -1 -1</clus>
<clus scale="   97.979">  7  9 -1 -1</clus>
<clus scale="  177.068">  1  5  2 -1</clus>
<clus scale="  251.332">  2  5  1 -1</clus>
</clustering>
</event>
<event>
 9    2  0.2147756E-005  0.1721619E+03  0.7546771E-02  0.1210295E+00
          2   -1    0    0  502    0 -0.00000000000E+00  0.00000000000E+00  0.60417783459E+03  0.60417783459E+03  0.00000000000E+00 0. -1.
         21   -1    0    0  501  502  0.00000000000E+00 -0.00000000000E+00 -0.26374915401E+02  0.26374915401E+02  0.00000000000E+00 0. -1.
         24    2    1    2    0    0 -0.29069323687E+00 -0.43731344006E+01  0.18445954343E+03  0.20118257455E+03  0.80186634370E+02 0.  0.
         23    2    1    2    0    0  0.14857732261E+02 -0.52035351596E+02  0.31575268402E+03  0.33234218277E+03  0.88448510202E+02 0.  0.
        -13    1    3    3    0    0 -0.17695754041E+02  0.29715475971E+02  0.46128614286E+02  0.57654126298E+02  0.00000000000E+00 0.  1.
         14    1    3    3    0    0  0.17405060804E+02 -0.34088610372E+02  0.13833092915E+03  0.14352844825E+03  0.00000000000E+00 0. -1.
        -11    1    4    4    0    0 -0.15743076219E+02 -0.45380925811E+02  0.28292346825E+03  0.28697205747E+03  0.00000000000E+00 0.  1.
         11    1    4    4    0    0  0.30600808480E+02 -0.66544257848E+01  0.32829215765E+02  0.45370125302E+02  0.00000000000E+00 0. -1.
          1    1    1    2  501    0 -0.14567039024E+02  0.56408485997E+02  0.77590691738E+02  0.97027992676E+02  0.00000000000E+00 0. -1.
<scales pt_clust_5="13000.00000" pt_clust_6="13000.00000" pt_clust_7="13000.00000" pt_clust_8="13000.00000" pt_clust_9="13000.00000"></scales>
<clustering>
<clus scale="   80.187">  5  6 -1 -1</clus>
<clus scale="   80.306">  1  5  2 -1</clus>
<clus scale="   88.449">  7  8 -1 -1</clus>
<clus scale="   57.377">  7  9 -1 -1</clus>
<clus scale="  172.162">  2  5  1 -1</clus>
</clustering>
</event>
<event>
 9    2  0.2147756E-005  0.3010005E+03  0.7546771E-02  0.1122922E+00
          2   -1    0    0  502    0 -0.00000000000E+00  0.00000000000E+00  0.14079566030E+04  0.14079566030E+04  0.00000000000E+00 0. -1.
         21   -1    0    0  501  502  0.00000000000E+00 -0.00000000000E+00 -0.46064448455E+02  0.46064448455E+02  0.00000000000E+00 0.  1.
         24    2    1    2    0    0 -0.41834466654E+02  0.48724425907E+01  0.87068391584E+03  0.87792486083E+03  0.10434422200E+03 0.  0.
         23    2    1    2    0    0  0.67522594962E+02 -0.99172605015E+02  0.44293697633E+03  0.46708923972E+03  0.87090105354E+02 0.  0.
        -11    1    3    3    0    0  0.21994182082E+02  0.92735342554E+01  0.57905979381E+02  0.62632618747E+02  0.00000000000E+00 0.  1.
         12    1    3    3    0    0 -0.63828648736E+02 -0.44010916647E+01  0.81277793646E+03  0.81529224209E+03  0.00000000000E+00 0. -1.
        -11    1    4    4    0    0  0.42186520741E+01 -0.61156308051E+02  0.30006901223E+03  0.30626671896E+03  0.00000000000E+00 0.  1.
         11    1    4    4    0    0  0.63303942888E+02 -0.38016296965E+02  0.14286796409E+03  0.16082252076E+03  0.00000000000E+00 0. -1.
          1    1    1    2  501    0 -0.25688128308E+02  0.94300162425E+02  0.48271262345E+02  0.10900695087E+03  0.00000000000E+00 0. -1.
<scales pt_clust_5="13000.00000" pt_clust_6="13000.00000" pt_clust_7="13000.00000" pt_clust_8="13000.00000" pt_clust_9="13000.00000"></scales>
<clustering>
<clus scale="   87.090">  7  8 -1 -1</clus>
<clus scale="   97.736">  7  9 -1 -1</clus>
<clus scale="  104.344">  5  6 -1 -1</clus>
<clus scale="  112.524">  1  5  2 -1</clus>
<clus scale="  301.000">  2  5  1 -1</clus>
</clustering>
</event>
<event>
 9    2  0.2147756E-005  0.1959118E+03  0.7546771E-02  0.1179398E+00
         21   -1    0    0  501  502  0.00000000000E+00  0.00000000000E+00  0.62181475665E+02  0.62181475665E+02  0.00000000000E+00 0. -1.
          2   -1    0    0  502    0 -0.00000000000E+00 -0.00000000000E+00 -0.37510290923E+03  0.37510290923E+03  0.00000000000E+00 0. -1.
         24    2    1    2    0    0  0.68062303784E+02 -0.20358599632E+02 -0.13687551910E+03  0.17389569840E+03  0.80360789067E+02 0.  0.
         23    2    1    2    0    0 -0.28755221554E+02  0.52479414829E+02 -0.36964825828E+02  0.11533348496E+03  0.91402749729E+02 0.  0.
        -13    1    3    3    0    0  0.21815308265E+02  0.24340011696E+02 -0.14730201211E+02  0.35851397069E+02  0.00000000000E+00 0.  1.
         14    1    3    3    0    0  0.46246995518E+02 -0.44698611329E+02 -0.12214531789E+03  0.13804430133E+03  0.00000000000E+00 0. -1.
        -13    1    4    4    0    0 -0.55468230718E+02  0.57757477396E+02 -0.17793410922E+02  0.82032044265E+02  0.00000000000E+00 0. -1.
         13    1    4    4    0    0  0.26713009164E+02 -0.52780625672E+01 -0.19171414907E+02  0.33301440699E+02  0.00000000000E+00 0.  1.
          1    1    1    2  501    0 -0.39307082230E+02 -0.32120815196E+02 -0.13908108864E+03  0.14805520153E+03  0.00000000000E+00 0. -1.
<scales pt_clust_5="13000.00000" pt_clust_6="13000.00000" pt_clust_7="13000.00000" pt_clust_8="13000.00000" pt_clust_9="13000.00000"></scales>
<clustering>
<clus scale="   80.361">  5  6 -1 -1</clus>
<clus scale="   91.403">  7  8 -1 -1</clus>
<clus scale="   50.762">  7  9 -1 -1</clus>
<clus scale="  107.260">  2  5  1 -1</clus>
<clus scale="  195.912">  1  5  2 -1</clus>
</clustering>
</event>
<event>
 9    2  0.2147756E-005  0.3091944E+03  0.7546771E-02  0.1102063E+00
          2   -1    0    0  502    0 -0.00000000000E+00  0.00000000000E+00  0.13526124565E+04  0.13526124565E+04  0.00000000000E+00 0. -1.
         21   -1    0    0  501  502  0.00000000000E+00 -0.00000000000E+00 -0.90096382339E+02  0.90096382339E+02  0.00000000000E+00 0. -1.
         24    2    1    2    0    0  0.85537206519E+02 -0.12976256492E+03  0.38625624418E+02  0.18036615957E+03  0.82976356289E+02 0.  0.
         23    2    1    2    0    0  0.33184554898E+02 -0.10549711104E+02  0.19995011380E+03  0.22203685741E+03  0.90043361497E+02 0.  0.
        -11    1    3    3    0    0  0.62868896156E+02 -0.37711004982E+02  0.43842370450E+02  0.85421141688E+02  0.00000000000E+00 0.  1.
         12    1    3    3    0    0  0.22668310363E+02 -0.92051559934E+02 -0.52167460322E+01  0.94945017879E+02  0.00000000000E+00 0. -1.
        -11    1    4    4    0    0  0.59727770902E+02  0.96766795201E+01  0.15215520789E+03  0.16374447176E+03  0.00000000000E+00 0.  1.
         11    1    4    4    0    0 -0.26543216004E+02 -0.20226390624E+02  0.47794905916E+02  0.58292385652E+02  0.00000000000E+00 0. -1.
          1    1    1    2  501    0 -0.11872176142E+03  0.14031227602E+03  0.10239403360E+04  0.10403058219E+04  0.00000000000E+00 0. -1.
<scales pt_clust_5="13000.00000" pt_clust_6="13000.00000" pt_clust_7="13000.00000" pt_clust_8="13000.00000" pt_clust_9="13000.00000"></scales>
<clustering>
<clus scale="   82.976">  5  6 -1 -1</clus>
<clus scale="   90.043">  7  8 -1 -1</clus>
<clus scale="  176.182">  1  5  2 -1</clus>
<clus scale="   57.764">  7  9 -1 -1</clus>
<clus scale="  309.194">  2  5  1 -1</clus>
</clustering>
</event>
<event>
 9    2  0.2147756E-005  0.5973941E+03  0.7546771E-02  0.1009494E+00
          2   -1    0    0  502    0 -0.00000000000E+00  0.00000000000E+00  0.40533552487E+03  0.40533552487E+03  0.00000000000E+00 0. -1.
         21   -1    0    0  501  502  0.00000000000E+00 -0.00000000000E+00 -0.65116597767E+03  0.65116597767E+03  0.00000000000E+00 0. -1.
         24    2    1    2    0    0  0.70197103577E+02  0.31743125974E+03 -0.30951315588E+03  0.45572262868E+03  0.78705035527E+02 0.  0.
         23    2    1    2    0    0  0.13425425527E+03  0.54662623234E+02  0.34106182019E+02  0.17518636163E+03  0.92275794294E+02 0.  0.
        -11    1    3    3    0    0  0.29627920737E+02  0.22880295014E+03 -0.25563271990E+03  0.34434966409E+03  0.00000000000E+00 0.  1.
         12    1    3    3    0    0  0.40569182840E+02  0.88628309598E+02 -0.53880435983E+02  0.11137296458E+03  0.00000000000E+00 0. -1.
        -11    1    4    4    0    0  0.40979445935E+02  0.56977724824E+02 -0.11852988891E+02  0.71177731496E+02  0.00000000000E+00 0.  1.
         11    1    4    4    0    0  0.93274809332E+02 -0.23151015903E+01  0.45959170910E+02  0.10400863013E+03  0.00000000000E+00 0. -1.
          1    1    1    2  501    0 -0.20445135884E+03 -0.37209388297E+03  0.29576521062E+02  0.42559251224E+03  0.00000000000E+00 0. -1.
<scales pt_clust_5="13000.00000" pt_clust_6="13000.00000" pt_clust_7="13000.00000" pt_clust_8="13000.00000" pt_clust_9="13000.00000"></scales>
<clustering>
<clus scale="   78.705">  5  6 -1 -1</clus>
<clus scale="   92.276">  7  8 -1 -1</clus>
<clus scale="  334.492">  1  5  2 -1</clus>
<clus scale="  219.922">  7  9 -1 -1</clus>
<clus scale="  597.394">  2  5  1 -1</clus>
</clustering>
</event>
<event>
 9    2  0.2147756E-005  0.3563655E+03  0.7546771E-02  0.1113537E+00
          2   -1    0    0  502    0 -0.00000000000E+00  0.00000000000E+00  0.41630059593E+03  0.41630059593E+03  0.00000000000E+00 0. -1.
         21   -1    0    0  501  502  0.00000000000E+00 -0.00000000000E+00 -0.15753433499E+03  0.15753433499E+03  0.00000000000E+00 0. -1.
         24    2    1    2    0    0 -0.23870559906E+02 -0.16177693969E+02  0.19332293249E+03  0.21151024792E+03  0.80816504098E+02 0.  0.
         23    2    1    2    0    0  0.45768887247E+02 -0.15065065574E+03  0.13470841071E+01  0.18227034802E+03  0.91816414751E+02 0.  0.
        -11    1    3    3    0    0  0.32514234342E+01  0.23689046734E+02  0.18707486953E+02  0.30359722621E+02  0.00000000000E+00 0.  1.
         12    1    3    3    0    0 -0.27121983340E+02 -0.39866740703E+02  0.17461544554E+03  0.18115052530E+03  0.00000000000E+00 0. -1.
        -11    1    4    4    0    0  0.62723895622E+02 -0.61355283306E+02 -0.17438063923E+02  0.89458615823E+02  0.00000000000E+00 0.  1.
         11    1    4    4    0    0 -0.16955008376E+02 -0.89295372438E+02  0.18785148030E+02  0.92811732202E+02  0.00000000000E+00 0. -1.
          1    1    1    2  501    0 -0.21898327341E+02  0.16682834971E+03  0.64096244345E+02  0.18005433499E+03  0.00000000000E+00 0. -1.
<scales pt_clust_5="13000.00000" pt_clust_6="13000.00000" pt_clust_7="13000.00000" pt_clust_8="13000.00000" pt_clust_9="13000.00000"></scales>
<clustering>
<clus scale="   80.817">  5  6 -1 -1</clus>
<clus scale="   85.807">  1  5  2 -1</clus>
<clus scale="   91.816">  7  8 -1 -1</clus>
<clus scale="  161.549">  7  9 -1 -1</clus>
<clus scale="  356.365">  2  5  1 -1</clus>
</clustering>
</event>
<event>
 9    2  0.2147756E-005  0.1958893E+03  0.7546771E-02  0.1188297E+00
         21   -1    0    0  501  502  0.00000000000E+00  0.00000000000E+00  0.35774097565E+02  0.35774097565E+02  0.00000000000E+00 0.  1.
         -3   -1    0    0    0  501 -0.00000000000E+00 -0.00000000000E+00 -0.78420227803E+03  0.78420227803E+03  0.00000000000E+00 0.  1.
         24    2    1    2    0    0  0.21773103114E+02  0.27281638751E+02 -0.65943459425E+02  0.10993552893E+03  0.80739859100E+02 0.  0.
         23    2    1    2    0    0 -0.84209293703E+02 -0.21790342171E+01 -0.48003395643E+03  0.49669902999E+03  0.95819485159E+02 0.  0.
        -13    1    3    3    0    0 -0.28758920739E+02 -0.26343349480E+01 -0.17163838691E+02  0.33594829979E+02  0.00000000000E+00 0.  1.
         14    1    3    3    0    0  0.50532023853E+02  0.29915973699E+02 -0.48779620735E+02  0.76340698949E+02  0.00000000000E+00 0. -1.
        -11    1    4    4    0    0  0.16614675664E+00 -0.36491901793E+02 -0.13925129045E+03  0.14395349386E+03  0.00000000000E+00 0. -1.
         11    1    4    4    0    0 -0.84375440460E+02  0.34312867576E+02 -0.34078266597E+03  0.35274553613E+03  0.00000000000E+00 0.  1.
         -4    1    1    2    0  502  0.62436190589E+02 -0.25102604534E+02 -0.20245076462E+03  0.21334181668E+03  0.00000000000E+00 0.  1.
<scales pt_clust_5="13000.00000" pt_clust_6="13000.00000" pt_clust_7="13000.00000" pt_clust_8="13000.00000" pt_clust_9="13000.00000"></scales>
<clustering>
<clus scale="   80.740">  5  6 -1 -1</clus>
<clus scale="   87.962">  2  5  1 -1</clus>
<clus scale="   95.819">  7  8 -1 -1</clus>
<clus scale="   70.992">  7  9 -1 -1</clus>
<clus scale="  195.889">  1  5  2 -1</clus>
</clustering>
</event>
<event>
 9    2  0.2147756E-005  0.3539492E+03  0.7546771E-02  0.1094482E+00
         21   -1    0    0  501  502  0.00000000000E+00  0.00000000000E+00  0.75095875542E+02  0.75095875542E+02  0.00000000000E+00 0.  1.
          2   -1    0    0  502    0 -0.00000000000E+00 -0.00000000000E+00 -0.10689894786E+04  0.10689894786E+04  0.00000000000E+00 0. -1.
         24    2    1    2    0    0 -0.11288712374E+03 -0.86333399013E+01 -0.58977071468E+03  0.60687465384E+03  0.87460347068E+02 0.  0.
         23    2    1    2    0    0  0.10681578672E+03 -0.38423756047E+02 -0.15681631591E+02  0.14588239647E+03  0.90276036179E+02 0.  0.
        -11    1    3    3    0    0 -0.10911758772E+03  0.23880566194E+01 -0.58355072665E+03  0.59366977465E+03  0.00000000000E+00 0.  1.
         12    1    3    3    0    0 -0.37695360228E+01 -0.11021396521E+02 -0.62199880293E+01  0.13204879181E+02  0.00000000000E+00 0. -1.
        -11    1    4    4    0    0  0.80928762471E+02 -0.56974154236E+02 -0.39033138512E+02  0.10639128135E+03  0.00000000000E+00 0. -1.
         11    1    4    4    0    0  0.25887024248E+02  0.18550398189E+02  0.23351506920E+02  0.39491115112E+02  0.00000000000E+00 0.  1.
          1    1    1    2  501    0  0.60713370197E+01  0.47057095949E+02 -0.38844125678E+03  0.39132830383E+03  0.00000000000E+00 0. -1.
<scales pt_clust_5="13000.00000" pt_clust_6="13000.00000" pt_clust_7="13000.00000" pt_clust_8="13000.00000" pt_clust_9="13000.00000"></scales>
<clustering>
<clus scale="   87.460">  5  6 -1 -1</clus>
<clus scale="   90.276">  7  8 -1 -1</clus>
<clus scale="   47.447">  7  9 -1 -1</clus>
<clus scale="  143.064">  2  5  1 -1</clus>
<clus scale="  353.949">  1  5  2 -1</clus>
</clustering>
</event>
<event>
 9    2  0.2674285E-005  0.5686043E+03  0.7546771E-02  0.1043572E+00
          2   -1    0    0  502    0 -0.00000000000E+00  0.00000000000E+00  0.13299070759E+04  0.13299070759E+04  0.00000000000E+00 0. -1.
         21   -1    0    0  501  502  0.00000000000E+00 -0.00000000000E+00 -0.14971357169E+03  0.14971357169E+03  0.00000000000E+00 0. -1.
         24    2    1    2    0    0 -0.95086456779E+02 -0.61815730896E+02  0.75948488955E+03  0.77229714215E+03  0.82237214622E+02 0.  0.
         23    2    1    2    0    0 -0.90925753975E+02  0.46692642894E+02  0.48977506753E+03  0.50832746213E+03  0.89830375421E+02 0.  0.
        -13    1    3    3    0    0 -0.12686328568E+02 -0.24708596099E+02  0.51007639962E+02  0.58079574622E+02  0.00000000000E+00 0.  1.
         14    1    3    3    0    0 -0.82400128211E+02 -0.37107134797E+02  0.70847724959E+03  0.71421756753E+03  0.00000000000E+00 0. -1.
        -13    1    4    4    0    0 -0.48211420074E+01  0.43680594006E+02  0.24307037575E+03  0.24701102257E+03  0.00000000000E+00 0.  1.
         13    1    4    4    0    0 -0.86104611967E+02  0.30120488887E+01  0.24670469178E+03  0.26131643956E+03  0.00000000000E+00 0. -1.
          1    1    1    2  501    0  0.18601221075E+03  0.15123088002E+02 -0.69066452865E+02  0.19899604331E+03  0.00000000000E+00 0. -1.
<scales pt_clust_5="13000.00000" pt_clust_6="13000.00000" pt_clust_7="13000.00000" pt_clust_8="13000.00000" pt_clust_9="13000.00000"></scales>
<clustering>
<clus scale="   82.237">  5  6 -1 -1</clus>
<clus scale="   89.830">  7  8 -1 -1</clus>
<clus scale="  140.091">  1  5  2 -1</clus>
<clus scale="  175.243">  7  9 -1 -1</clus>
<clus scale="  568.604">  2  5  1 -1</clus>
</clustering>
</event>
<event>
 9    2  0.2147756E-005  0.1259594E+03  0.7546771E-02  0.1253705E+00
         21   -1    0    0  501  502  0.00000000000E+00  0.00000000000E+00  0.20777513010E+03  0.20777513010E+03  0.00000000000E+00 0.  1.
          2   -1    0    0  502    0 -0.00000000000E+00 -0.00000000000E+00 -0.58097177524E+02  0.58097177524E+02  0.00000000000E+00 0. -1.
         24    2    1    2    0    0 -0.18482530679E+02  0.35365358594E+01  0.22473178670E+02  0.86856005763E+02  0.81760693193E+02 0.  0.
         23    2    1    2    0    0 -0.70380590775E+01  0.18438473573E+02  0.10354399537E+03  0.13785765779E+03  0.88847415552E+02 0.  0.
        -13    1    3    3    0    0  0.29107881433E+02  0.15848464360E+02  0.17413983268E+02  0.37439142583E+02  0.00000000000E+00 0.  1.
         14    1    3    3    0    0 -0.47590412112E+02 -0.12311928500E+02  0.50591954015E+01  0.49416863180E+02  0.00000000000E+00 0. -1.
        -13    1    4    4    0    0  0.40717592299E+02  0.30632332129E+01  0.45411048786E+02  0.61069379170E+02  0.00000000000E+00 0. -1.
         13    1    4    4    0    0 -0.47755651377E+02  0.15375240360E+02  0.58132946584E+02  0.76788278618E+02  0.00000000000E+00 0.  1.
          1    1    1    2  501    0  0.25520589757E+02 -0.21975009432E+02  0.23660778539E+02  0.41158644076E+02  0.00000000000E+00 0. -1.
<scales pt_clust_5="13000.00000" pt_clust_6="13000.00000" pt_clust_7="13000.00000" pt_clust_8="13000.00000" pt_clust_9="13000.00000"></scales>
<clustering>
<clus scale="   81.761">  5  6 -1 -1</clus>
<clus scale="   83.898">  2  5  1 -1</clus>
<clus scale="   88.847">  7  8 -1 -1</clus>
<clus scale="   28.346">  7  9 -1 -1</clus>
<clus scale="  125.959">  1  5  2 -1</clus>
</clustering>
</event>
<event>
 9    2  0.2147756E-005  0.2264064E+03  0.7546771E-02  0.1161078E+00
         21   -1    0    0  501  502  0.00000000000E+00  0.00000000000E+00  0.57197961730E+02  0.57197961730E+02  0.00000000000E+00 0. -1.
          2   -1    0    0  502    0 -0.00000000000E+00 -0.00000000000E+00 -0.49010003237E+03  0.49010003237E+03  0.00000000000E+00 0. -1.
         24    2    1    2    0    0  0.65528712973E+02 -0.26630563892E+02 -0.10611531418E+03  0.14974365088E+03  0.78482494344E+02 0.  0.
         23    2    1    2    0    0 -0.89510546323E+02  0.91076411144E+02 -0.20450966063E+03  0.25726862148E+03  0.89754619597E+02 0.  0.
        -11    1    3    3    0    0  0.16060981825E+02 -0.17882217560E+02  0.77783979782E+01  0.25263260224E+02  0.00000000000E+00 0.  1.
         12    1    3    3    0    0  0.49467731148E+02 -0.87483463317E+01 -0.11389371216E+03  0.12448039066E+03  0.00000000000E+00 0. -1.
        -11    1    4    4    0    0 -0.10389319084E+03  0.67687581894E+02 -0.18806374491E+03  0.22526290417E+03  0.00000000000E+00 0. -1.
         11    1    4    4    0    0  0.14382644514E+02  0.23388829250E+02 -0.16445915716E+02  0.32005717311E+02  0.00000000000E+00 0.  1.
          1    1    1    2  501    0  0.23981833350E+02 -0.64445847252E+02 -0.12227709583E+03  0.14028572174E+03  0.00000000000E+00 0. -1.
<scales pt_clust_5="13000.00000" pt_clust_6="13000.00000" pt_clust_7="13000.00000" pt_clust_8="13000.00000" pt_clust_9="13000.00000"></scales>
<clustering>
<clus scale="   78.482">  5  6 -1 -1</clus>
<clus scale="   89.755">  7  8 -1 -1</clus>
<clus scale="   68.763">  7  9 -1 -1</clus>
<clus scale="  105.654">  2  5  1 -1</clus>
<clus scale="  226.406">  1  5  2 -1</clus>
</clustering>
</event>
<event>
 9    2  0.2147756E-005  0.7211607E+03  0.7546771E-02  0.9957592E-01
         21   -1    0    0  501  502  0.00000000000E+00  0.00000000000E+00  0.20189637793E+03  0.20189637793E+03  0.00000000000E+00 0. -1.
          2   -1    0    0  502    0 -0.00000000000E+00 -0.00000000000E+00 -0.13281114690E+04  0.13281114690E+04  0.00000000000E+00 0. -1.
         24    2    1    2    0    0  0.14636993980E+03 -0.23989722407E+03 -0.47781833900E+03  0.56021863878E+03  0.80992103019E+02 0.  0.
         23    2    1    2    0    0 -0.16566639409E+01 -0.21706739844E+03 -0.16776892917E+03  0.29099490750E+03  0.97008363531E+02 0.  0.
        -13    1    3    3    0    0  0.53590668039E+02 -0.41025854856E+02 -0.70830186018E+02  0.97836576590E+02  0.00000000000E+00 0.  1.
         14    1    3    3    0    0  0.92779271761E+02 -0.19887136922E+03 -0.40698815299E+03  0.46238206219E+03  0.00000000000E+00 0. -1.
        -11    1    4    4    0    0 -0.47631766034E+02 -0.80576785360E+02 -0.70908972452E+02  0.11742864152E+03  0.00000000000E+00 0.  1.
         11    1    4    4    0    0  0.45975102094E+02 -0.13649061308E+03 -0.96859956715E+02  0.17356626598E+03  0.00000000000E+00 0. -1.
          1    1    1    2  501    0 -0.14471327586E+03  0.45696462251E+03 -0.48062782287E+03  0.67879430062E+03  0.00000000000E+00 0. -1.
<scales pt_clust_5="13000.00000" pt_clust_6="13000.00000" pt_clust_7="13000.00000" pt_clust_8="13000.00000" pt_clust_9="13000.00000"></scales>
<clustering>
<clus scale="   80.992">  5  6 -1 -1</clus>
<clus scale="   97.008">  7  8 -1 -1</clus>
<clus scale="  292.463">  2  5  1 -1</clus>
<clus scale="  287.850">  7  9 -1 -1</clus>
<clus scale="  721.161">  1  5  2 -1</clus>
</clustering>
</event>
<event>
 9    2  0.2147756E-005  0.2697073E+03  0.7546771E-02  0.1145668E+00
         -3   -1    0    0    0  501 -0.00000000000E+00  0.00000000000E+00  0.10826034724E+03  0.10826034724E+03  0.00000000000E+00 0.  1.
         21   -1    0    0  501  502  0.00000000000E+00 -0.00000000000E+00 -0.30526507374E+03  0.30526507374E+03  0.00000000000E+00 0.  1.
         24    2    1    2    0    0 -0.57824284716E+01  0.41708553063E+02 -0.23643469669E+02  0.92907042944E+02  0.79370429588E+02 0.  0.
         23    2    1    2    0    0 -0.10312700803E+03 -0.47574399800E+02 -0.48106995914E+02  0.15453314873E+03  0.93100524708E+02 0.  0.
        -11    1    3    3    0    0 -0.11823597216E+02  0.47657628429E+02 -0.47054102539E+02  0.68008349225E+02  0.00000000000E+00 0.  1.
         12    1    3    3    0    0  0.60411687446E+01 -0.59490753663E+01  0.23410632870E+02  0.24898693718E+02  0.00000000000E+00 0. -1.
        -13    1    4    4    0    0 -0.27477584351E+02 -0.63758471366E+02 -0.20445471181E+02  0.72375255471E+02  0.00000000000E+00 0.  1.
         13    1    4    4    0    0 -0.75649423675E+02  0.16184071566E+02 -0.27661524733E+02  0.82157893262E+02  0.00000000000E+00 0. -1.
         -4    1    1    2    0  502  0.10890943650E+03  0.58658467376E+01 -0.12525426092E+03  0.16608522931E+03  0.00000000000E+00 0.  1.
<scales pt_clust_5="13000.00000" pt_clust_6="13000.00000" pt_clust_7="13000.00000" pt_clust_8="13000.00000" pt_clust_9="13000.00000"></scales>
<clustering>
<clus scale="   79.370">  5  6 -1 -1</clus>
<clus scale="   89.848">  1  5  2 -1</clus>
<clus scale="   93.101">  7  8 -1 -1</clus>
<clus scale="  108.713">  7  9 -1 -1</clus>
<clus scale="  269.707">  2  5  1 -1</clus>
</clustering>
</event>
<event>
 9    2  0.2147756E-005  0.3397185E+03  0.7546771E-02  0.1111823E+00
         21   -1    0    0  501  502  0.00000000000E+00  0.00000000000E+00  0.30041061323E+03  0.30041061323E+03  0.00000000000E+00 0.  1.
         -1   -1    0    0    0  501 -0.00000000000E+00 -0.00000000000E+00 -0.19708060389E+03  0.19708060389E+03  0.00000000000E+00 0.  1.
         24    2    1    2    0    0  0.45847584520E+02 -0.49343903507E+02 -0.61023022229E+02  0.12010471386E+03  0.78514401413E+02 0.  0.
         23    2    1    2    0    0  0.74125987538E+02  0.52820265182E+02  0.21212106388E+03  0.24820628808E+03  0.91248963039E+02 0.  0.
        -13    1    3    3    0    0  0.52191844789E+02 -0.47747852493E+02 -0.75960725502E+02  0.10379729235E+03  0.00000000000E+00 0.  1.
         14    1    3    3    0    0 -0.63442602690E+01 -0.15960510144E+01  0.14937703273E+02  0.16307421509E+02  0.00000000000E+00 0. -1.
        -11    1    4    4    0    0  0.41848398956E+02  0.55174239035E+00  0.16652150688E+03  0.17170033538E+03  0.00000000000E+00 0. -1.
         11    1    4    4    0    0  0.32277588582E+02  0.52268522792E+02  0.45599557000E+02  0.76505952697E+02  0.00000000000E+00 0.  1.
         -2    1    1    2    0  502 -0.11997357206E+03 -0.34763616753E+01 -0.47768032324E+02  0.12918021518E+03  0.00000000000E+00 0.  1.
<scales pt_clust_5="13000.00000" pt_clust_6="13000.00000" pt_clust_7="13000.00000" pt_clust_8="13000.00000" pt_clust_9="13000.00000"></scales>
<clustering>
<clus scale="   78.514">  5  6 -1 -1</clus>
<clus scale="   91.249">  7  8 -1 -1</clus>
<clus scale="  103.447">  2  5  1 -1</clus>
<clus scale="   93.184">  7  9 -1 -1</clus>
<clus scale="  339.718">  1  5  2 -1</clus>
</clustering>
</event>
<event>
 9    2  0.2147756E-005  0.2128168E+03  0.7546771E-02  0.1164970E+00
          2   -1    0    0  502    0 -0.00000000000E+00  0.00000000000E+00  0.34167385124E+03  0.34167385124E+03  0.00000000000E+00 0. -1.
         21   -1    0    0  501  502  0.00000000000E+00 -0.00000000000E+00 -0.79348904470E+02  0.79348904470E+02  0.00000000000E+00 0. -1.
         24    2    1    2    0    0 -0.56877109980E+02 -0.59101064870E+02  0.84987544765E+02  0.14400371862E+03  0.82378678693E+02 0.  0.
         23    2    1    2    0    0  0.95798492804E+02  0.68392195572E+01  0.16342594239E+03  0.21038793905E+03  0.91273874168E+02 0.  0.
        -11    1    3    3    0    0 -0.62426213097E+02 -0.11486108536E+02  0.68310240846E+02  0.93248333901E+02  0.00000000000E+00 0.  1.
         12    1    3    3    0    0  0.55491031169E+01 -0.47614956334E+02  0.16677303919E+02  0.50755384720E+02  0.00000000000E+00 0. -1.
        -11    1    4    4    0    0  0.42393473414E+02  0.44294129226E+02  0.11056955785E+03  0.12643102307E+03  0.00000000000E+00 0.  1.
         11    1    4    4    0    0  0.53405019390E+02 -0.37454909669E+02  0.52856384535E+02  0.83956915978E+02  0.00000000000E+00 0. -1.
          1    1    1    2  501    0 -0.38921382825E+02  0.52261845313E+02  0.13911459615E+02  0.66631098033E+02  0.00000000000E+00 0. -1.
<scales pt_clust_5="13000.00000" pt_clust_6="13000.00000" pt_clust_7="13000.00000" pt_clust_8="13000.00000" pt_clust_9="13000.00000"></scales>
<clustering>
<clus scale="   82.379">  5  6 -1 -1</clus>
<clus scale="   91.274">  7  8 -1 -1</clus>
<clus scale="   65.163">  7  9 -1 -1</clus>
<clus scale="  116.251">  1  5  2 -1</clus>
<clus scale="  212.817">  2  5  1 -1</clus>
</clustering>
</event>
<event>
 9    2  0.2147756E-005  0.6211490E+03  0.7546771E-02  0.1039834E+00
         21   -1    0    0  501  502  0.00000000000E+00  0.00000000000E+00  0.10422708200E+04  0.10422708200E+04  0.00000000000E+00 0. -1.
          2   -1    0    0  502    0 -0.00000000000E+00 -0.00000000000E+00 -0.37015146690E+03  0.37015146690E+03  0.00000000000E+00 0. -1.
         24    2    1    2    0    0  0.64770296192E+02  0.65504138317E+02 -0.26346896174E+03  0.28941226138E+03  0.76534827560E+02 0.  0.
         23    2    1    2    0    0 -0.19198824289E+02 -0.28678482750E+03  0.21765267840E+03  0.37036570014E+03  0.84758075030E+02 0.  0.
        -11    1    3    3    0    0  0.24334814011E+02  0.67613490584E+00 -0.13101016823E+02  0.27645559737E+02  0.00000000000E+00 0.  1.
         12    1    3    3    0    0  0.40435482181E+02  0.64828003411E+02 -0.25036794492E+03  0.26176670164E+03  0.00000000000E+00 0. -1.
        -11    1    4    4    0    0 -0.29843811722E+02 -0.19937113536E+03  0.19260769167E+03  0.27881396235E+03  0.00000000000E+00 0. -1.
         11    1    4    4    0    0  0.10644987433E+02 -0.87413692139E+02  0.25044986740E+02  0.91551737786E+02  0.00000000000E+00 0.  1.
          1    1    1    2  501    0 -0.45571471903E+02  0.22128068919E+03  0.71793563648E+03  0.75264432542E+03  0.00000000000E+00 0. -1.
<scales pt_clust_5="13000.00000" pt_clust_6="13000.00000" pt_clust_7="13000.00000" pt_clust_8="13000.00000" pt_clust_9="13000.00000"></scales>
<clustering>
<clus scale="   76.535">  5  6 -1 -1</clus>
<clus scale="   84.758">  7  8 -1 -1</clus>
<clus scale="  119.765">  2  5  1 -1</clus>
<clus scale="  235.814">  7  9 -1 -1</clus>
<clus scale="  621.149">  1  5  2 -1</clus>
</clustering>
</event>
<event>
 9    2  0.2147756E-005  0.7714501E+03  0.7546771E-02  0.1030741E+00
          2   -1    0    0  502    0 -0.00000000000E+00  0.00000000000E+00  0.18267243466E+04  0.18267243466E+04  0.00000000000E+00 0. -1.
         21   -1    0    0  501  502  0.00000000000E+00 -0.00000000000E+00 -0.99819502388E+02  0.99819502388E+02  0.00000000000E+00 0. -1.
         24    2    1    2    0    0 -0.22293345983E+02  0.14464014300E+01  0.14028811988E+03  0.16231942547E+03  0.78535049215E+02 0.  0.
         23    2    1    2    0    0  0.37641301249E+03  0.19107806987E+02  0.58062539488E+03  0.69752776155E+03  0.85832771705E+02 0.  0.
        -13    1    3    3    0    0 -0.11296445140E+02  0.38659609316E+02  0.51168450376E+02  0.65118241524E+02  0.00000000000E+00 0.  1.
         14    1    3    3    0    0 -0.10996900843E+02 -0.37213207886E+02  0.89119669501E+02  0.97201183950E+02  0.00000000000E+00 0. -1.
        -13    1    4    4    0    0  0.13743511237E+03  0.31486995531E+02  0.27810420843E+03  0.31180409193E+03  0.00000000000E+00 0.  1.
         13    1    4    4    0    0  0.23897790012E+03 -0.12379188545E+02  0.30252118645E+03  0.38572366962E+03  0.00000000000E+00 0. -1.
          1    1    1    2  501    0 -0.35411966651E+03 -0.20554208417E+02  0.10059913294E+04  0.10666966619E+04  0.00000000000E+00 0. -1.
<scales pt_clust_5="13000.00000" pt_clust_6="13000.00000" pt_clust_7="13000.00000" pt_clust_8="13000.00000" pt_clust_9="13000.00000"></scales>
<clustering>
<clus scale="   78.535">  5  6 -1 -1</clus>
<clus scale="   81.651">  1  5  2 -1</clus>
<clus scale="   85.833">  7  8 -1 -1</clus>
<clus scale="  368.434">  7  9 -1 -1</clus>
<clus scale="  771.450">  2  5  1 -1</clus>
</clustering>
</event>
<event>
 9    2  0.2147756E-005  0.2241837E+03  0.7546771E-02  0.1160730E+00
         21   -1    0    0  501  502  0.00000000000E+00  0.00000000000E+00  0.80735763153E+02  0.80735763153E+02  0.00000000000E+00 0. -1.
          2   -1    0    0  502    0 -0.00000000000E+00 -0.00000000000E+00 -0.68537151904E+03  0.68537151904E+03  0.00000000000E+00 0. -1.
         24    2    1    2    0    0 -0.29302797762E+02 -0.63597615638E+02 -0.51185885026E+03  0.52348439195E+03  0.84457772628E+02 0.  0.
         23    2    1    2    0    0  0.32952855169E+01 -0.51613562507E+02 -0.61994275787E+02  0.12056726128E+03  0.89545270786E+02 0.  0.
        -13    1    3    3    0    0  0.19677138066E+02 -0.56549078545E+02 -0.30092734939E+03  0.30682610329E+03  0.00000000000E+00 0.  1.
         14    1    3    3    0    0 -0.48979935827E+02 -0.70485370929E+01 -0.21093150087E+03  0.21665828866E+03  0.00000000000E+00 0. -1.
        -11    1    4    4    0    0 -0.15218255174E+02 -0.68025280891E+02 -0.21204028083E+02  0.72860448378E+02  0.00000000000E+00 0. -1.
         11    1    4    4    0    0  0.18513540691E+02  0.16411718384E+02 -0.40790247704E+02  0.47706812899E+02  0.00000000000E+00 0.  1.
          1    1    1    2  501    0  0.26007512245E+02  0.11521117815E+03 -0.30782629847E+02  0.12205562897E+03  0.00000000000E+00 0. -1.
<scales pt_clust_5="13000.00000" pt_clust_6="13000.00000" pt_clust_7="13000.00000" pt_clust_8="13000.00000" pt_clust_9="13000.00000"></scales>
<clustering>
<clus scale="   84.458">  5  6 -1 -1</clus>
<clus scale="   89.545">  7  8 -1 -1</clus>
<clus scale="  109.711">  2  5  1 -1</clus>
<clus scale="   87.154">  7  9 -1 -1</clus>
<clus scale="  224.184">  1  5  2 -1</clus>
</clustering>
</event>
<event>
 9    2  0.2147756E-005  0.2030978E+03  0.7546771E-02  0.1162982E+00
         -1   -1    0    0    0  501 -0.00000000000E+00  0.00000000000E+00  0.85713618334E+02  0.85713618334E+02  0.00000000000E+00 0.  1.
         21   -1    0    0  501  502  0.00000000000E+00 -0.00000000000E+00 -0.34578355622E+03  0.34578355622E+03  0.00000000000E+00 0. -1.
         24    2    1    2    0    0 -0.10957872023E+03 -0.33023113933E+02 -0.88782168996E+02  0.16581275659E+03  0.80706720520E+02 0.  0.
         23    2    1    2    0    0  0.12743073145E+03 -0.33224468896E+01 -0.12557436174E+03  0.20461552498E+03  0.99241940559E+02 0.  0.
        -11    1    3    3    0    0 -0.97181396760E+02 -0.39370177472E+02 -0.35437585519E+02  0.11067997659E+03  0.00000000000E+00 0.  1.
         12    1    3    3    0    0 -0.12397323468E+02  0.63470635395E+01 -0.53344583477E+02  0.55132780005E+02  0.00000000000E+00 0. -1.
        -13    1    4    4    0    0  0.10820883526E+03 -0.30958444187E+02 -0.12850490846E+03  0.17082473121E+03  0.00000000000E+00 0. -1.
         13    1    4    4    0    0  0.19221896188E+02  0.27635997298E+02  0.29305467172E+01  0.33790793772E+02  0.00000000000E+00 0.  1.
         -2    1    1    2    0  502 -0.17852011222E+02  0.36345560822E+02 -0.45713407148E+02  0.61068892976E+02  0.00000000000E+00 0.  1.
<scales pt_clust_5="13000.00000" pt_clust_6="13000.00000" pt_clust_7="13000.00000" pt_clust_8="13000.00000" pt_clust_9="13000.00000"></scales>
<clustering>
<clus scale="   80.707">  5  6 -1 -1</clus>
<clus scale="   99.242">  7  8 -1 -1</clus>
<clus scale="   40.493">  7  9 -1 -1</clus>
<clus scale="  140.041">  1  5  2 -1</clus>
<clus scale="  203.098">  2  5  1 -1</clus>
</clustering>
</event>
<event>
 9    2  0.2147756E-005  0.2982936E+03  0.7546771E-02  0.1133021E+00
         -1   -1    0    0    0  501 -0.00000000000E+00  0.00000000000E+00  0.53003695669E+03  0.53003695669E+03  0.00000000000E+00 0.  1.
         21   -1    0    0  501  502  0.00000000000E+00 -0.00000000000E+00 -0.84194077612E+02  0.84194077612E+02  0.00000000000E+00 0.  1.
         24    2    1    2    0    0  0.40685735553E+02 -0.10534551634E+02  0.16808767326E+02  0.91689787685E+02  0.79738175619E+02 0.  0.
         23    2    1    2    0    0  0.72578890214E+02 -0.25134782406E+02  0.66549200429E+02  0.14110122803E+03  0.97884155424E+02 0.  0.
        -11    1    3    3    0    0  0.40034536104E+02  0.16841978112E+02 -0.18328465184E+02  0.47141796145E+02  0.00000000000E+00 0.  1.
         12    1    3    3    0    0  0.65119944889E+00 -0.27376529747E+02  0.35137232510E+02  0.44547991539E+02  0.00000000000E+00 0. -1.
        -13    1    4    4    0    0  0.95425485961E+02 -0.26165425522E+02  0.64556377607E+02  0.11814473646E+03  0.00000000000E+00 0.  1.
         13    1    4    4    0    0 -0.22846595747E+02  0.10306431160E+01  0.19928228219E+01  0.22956491571E+02  0.00000000000E+00 0. -1.
         -2    1    1    2    0  502 -0.11326462577E+03  0.35669334040E+02  0.36248491133E+03  0.38144001859E+03  0.00000000000E+00 0.  1.
<scales pt_clust_5="13000.00000" pt_clust_6="13000.00000" pt_clust_7="13000.00000" pt_clust_8="13000.00000" pt_clust_9="13000.00000"></scales>
<clustering>
<clus scale="   79.738">  5  6 -1 -1</clus>
<clus scale="   90.136">  1  5  2 -1</clus>
<clus scale="   97.884">  7  8 -1 -1</clus>
<clus scale="   85.953">  7  9 -1 -1</clus>
<clus scale="  298.294">  2  5  1 -1</clus>
</clustering>
</event>
<event>
 9    2  0.2147756E-005  0.6007832E+03  0.7546771E-02  0.1047399E+00
         21   -1    0    0  501  502  0.00000000000E+00  0.00000000000E+00  0.33135590530E+03  0.33135590530E+03  0.00000000000E+00 0. -1.
          2   -1    0    0  502    0 -0.00000000000E+00 -0.00000000000E+00 -0.38364621609E+03  0.38364621609E+03  0.00000000000E+00 0. -1.
         24    2    1    2    0    0  0.66341364625E+02  0.13863052306E+02 -0.41309098964E+02  0.11411860010E+03  0.81995441044E+02 0.  0.
         23    2    1    2    0    0  0.16995964129E+03 -0.19716832591E+03 -0.92909884441E+02  0.29080079665E+03  0.90394846603E+02 0.  0.
        -11    1    3    3    0    0 -0.71253960638E+01 -0.22546378905E+02 -0.37864801042E+01  0.23946772275E+02  0.00000000000E+00 0.  1.
         12    1    3    3    0    0  0.73466760688E+02  0.36409431211E+02 -0.37522618860E+02  0.90171827825E+02  0.00000000000E+00 0. -1.
        -11    1    4    4    0    0  0.82457339899E+02 -0.96797356748E+02  0.21802912263E+01  0.12717584223E+03  0.00000000000E+00 0.  1.
         11    1    4    4    0    0  0.87502301389E+02 -0.10037096917E+03 -0.95090175667E+02  0.16362495442E+03  0.00000000000E+00 0. -1.
          1    1    1    2  501    0 -0.23630100591E+03  0.18330527361E+03  0.81928672617E+02  0.31008272465E+03  0.00000000000E+00 0. -1.
<scales pt_clust_5="13000.00000" pt_clust_6="13000.00000" pt_clust_7="13000.00000" pt_clust_8="13000.00000" pt_clust_9="13000.00000"></scales>
<clustering>
<clus scale="   81.995">  5  6 -1 -1</clus>
<clus scale="   90.395">  7  8 -1 -1</clus>
<clus scale="  106.380">  2  5  1 -1</clus>
<clus scale="  283.340">  7  9 -1 -1</clus>
<clus scale="  600.783">  1  5  2 -1</clus>
</clustering>
</event>
<event>
 9    2  0.2147756E-005  0.2735944E+03  0.7546771E-02  0.1127828E+00
         21   -1    0    0  501  502  0.00000000000E+00  0.00000000000E+00  0.73174780741E+02  0.73174780741E+02  0.00000000000E+00 0. -1.
          2   -1    0    0  502    0 -0.00000000000E+00 -0.00000000000E+00 -0.10078610667E+04  0.10078610667E+04  0.00000000000E+00 0. -1.
         24    2    1    2    0    0  0.10510804120E+03 -0.15400389917E+02 -0.72308992008E+03  0.73516464137E+03  0.79518205876E+02 0.  0.
         23    2    1    2    0    0 -0.60739096163E+02  0.28422096188E+01 -0.25754228646E+03  0.28077636143E+03  0.93861706061E+02 0.  0.
        -13    1    3    3    0    0  0.49116802974E+02 -0.28119116857E+02 -0.17156655127E+03  0.18066052856E+03  0.00000000000E+00 0.  1.
         14    1    3    3    0    0  0.55991238228E+02  0.12718726940E+02 -0.55152336882E+03  0.55450411281E+03  0.00000000000E+00 0. -1.
        -11    1    4    4    0    0 -0.73255641897E+02  0.31794237509E+02 -0.17300884461E+03  0.19055005359E+03  0.00000000000E+00 0.  1.
         11    1    4    4    0    0  0.12516545734E+02 -0.28952027890E+02 -0.84533441855E+02  0.90226307848E+02  0.00000000000E+00 0. -1.
          1    1    1    2  501    0 -0.44368945038E+02  0.12558180298E+02  0.45945920601E+02  0.65094844620E+02  0.00000000000E+00 0. -1.
<scales pt_clust_5="13000.00000" pt_clust_6="13000.00000" pt_clust_7="13000.00000" pt_clust_8="13000.00000" pt_clust_9="13000.00000"></scales>
<clustering>
<clus scale="   79.518">  5  6 -1 -1</clus>
<clus scale="   93.862">  7  8 -1 -1</clus>
<clus scale="   46.112">  7  9 -1 -1</clus>
<clus scale="  132.695">  2  5  1 -1</clus>
<clus scale="  273.594">  1  5  2 -1</clus>
</clustering>
</event>
<event>
 9    2  0.2147756E-005  0.2300604E+03  0.7546771E-02  0.1149921E+00
         21   -1    0    0  501  502  0.00000000000E+00  0.00000000000E+00  0.23770872839E+03  0.23770872839E+03  0.00000000000E+00 0. -1.
          2   -1    0    0  502    0 -0.00000000000E+00 -0.00000000000E+00 -0.13974627451E+03  0.13974627451E+03  0.00000000000E+00 0. -1.
         24    2    1    2    0    0  0.17137666633E+02 -0.98840556112E+02  0.10225036344E+02  0.13123224319E+03  0.83989256062E+02 0.  0.
         23    2    1    2    0    0  0.20624180319E+02 -0.27099643214E+02  0.37381318821E+02  0.10542990631E+03  0.92511375900E+02 0.  0.
        -13    1    3    3    0    0 -0.25748116354E+02 -0.53750875597E+01  0.10700401991E+02  0.28396402322E+02  0.00000000000E+00 0.  1.
         14    1    3    3    0    0  0.42885782987E+02 -0.93465468552E+02 -0.47536564673E+00  0.10283584087E+03  0.00000000000E+00 0. -1.
        -11    1    4    4    0    0 -0.26559706935E+02 -0.25647646446E+02 -0.10301903036E+02  0.38332088475E+02  0.00000000000E+00 0. -1.
         11    1    4    4    0    0  0.47183887255E+02 -0.14519967680E+01  0.47683221857E+02  0.67097817832E+02  0.00000000000E+00 0.  1.
          1    1    1    2  501    0 -0.37761846953E+02  0.12594019933E+03  0.50356098710E+02  0.14079285340E+03  0.00000000000E+00 0. -1.
<scales pt_clust_5="13000.00000" pt_clust_6="13000.00000" pt_clust_7="13000.00000" pt_clust_8="13000.00000" pt_clust_9="13000.00000"></scales>
<clustering>
<clus scale="   83.989">  5  6 -1 -1</clus>
<clus scale="   92.511">  7  8 -1 -1</clus>
<clus scale="  130.833">  2  5  1 -1</clus>
<clus scale="   74.958">  7  9 -1 -1</clus>
<clus scale="  230.060">  1  5  2 -1</clus>
</clustering>
</event>
<event>
 9    2  0.2147756E-005  0.5763834E+03  0.7546771E-02  0.1056371E+00
          2   -1    0    0  502    0 -0.00000000000E+00  0.00000000000E+00  0.58362103239E+03  0.58362103239E+03  0.00000000000E+00 0. -1.
         21   -1    0    0  501  502  0.00000000000E+00 -0.00000000000E+00 -0.25911839170E+03  0.25911839170E+03  0.00000000000E+00 0. -1.
         24    2    1    2    0    0 -0.12856294072E+02  0.54385174672E+02  0.24339019440E+03  0.26067669272E+03  0.74769779178E+02 0.  0.
         23    2    1    2    0    0 -0.11084306213E+03  0.10467605949E+03  0.25905322572E+03  0.31324136332E+03  0.88138051289E+02 0.  0.
        -13    1    3    3    0    0  0.20600758581E+02  0.38430819915E+01  0.19146611895E+02  0.28385793636E+02  0.00000000000E+00 0.  1.
         14    1    3    3    0    0 -0.33457052652E+02  0.50542092681E+02  0.22424358250E+03  0.23229089908E+03  0.00000000000E+00 0. -1.
        -13    1    4    4    0    0 -0.69111664234E+02  0.10519379229E+03  0.23065267854E+03  0.26275999351E+03  0.00000000000E+00 0. -1.
         13    1    4    4    0    0 -0.41731397901E+02 -0.51773280526E+00  0.28400547180E+02  0.50481369812E+02  0.00000000000E+00 0.  1.
          1    1    1    2  501    0  0.12369935621E+03 -0.15906123416E+03 -0.17794077943E+03  0.26882136805E+03  0.00000000000E+00 0. -1.
<scales pt_clust_5="13000.00000" pt_clust_6="13000.00000" pt_clust_7="13000.00000" pt_clust_8="13000.00000" pt_clust_9="13000.00000"></scales>
<clustering>
<clus scale="   74.770">  5  6 -1 -1</clus>
<clus scale="   88.138">  7  8 -1 -1</clus>
<clus scale="   93.346">  1  5  2 -1</clus>
<clus scale="  194.561">  7  9 -1 -1</clus>
<clus scale="  576.383">  2  5  1 -1</clus>
</clustering>
</event>
<event>
 9    2  0.2147756E-005  0.1916914E+03  0.7546771E-02  0.1195090E+00
          2   -1    0    0  502    0 -0.00000000000E+00  0.00000000000E+00  0.75249062363E+03  0.75249062363E+03  0.00000000000E+00 0. -1.
         21   -1    0    0  501  502  0.00000000000E+00 -0.00000000000E+00 -0.53050960037E+02  0.53050960037E+02  0.00000000000E+00 0. -1.
         24    2    1    2    0    0  0.17324319766E+02  0.31425939253E+01  0.56656523873E+03  0.57230090149E+03  0.78880568964E+02 0.  0.
         23    2    1    2    0    0  0.38993187963E+02  0.48761012725E+02  0.10118084188E+03  0.15035443927E+03  0.92036892478E+02 0.  0.
        -13    1    3    3    0    0 -0.99185883887E+01 -0.29844509391E+02  0.13474382639E+03  0.13836535653E+03  0.00000000000E+00 0.  1.
         14    1    3    3    0    0  0.27242908155E+02  0.32987103317E+02  0.43182141233E+03  0.43393554496E+03  0.00000000000E+00 0. -1.
        -11    1    4    4    0    0  0.48992616778E+01 -0.26313014344E+02  0.13436533116E+02  0.29948587798E+02  0.00000000000E+00 0.  1.
         11    1    4    4    0    0  0.34093926285E+02  0.75074027069E+02  0.87744308760E+02  0.12040585148E+03  0.00000000000E+00 0. -1.
          1    1    1    2  501    0 -0.56317507729E+02 -0.51903606650E+02  0.31693582990E+02  0.82886242905E+02  0.00000000000E+00 0. -1.
<scales pt_clust_5="13000.00000" pt_clust_6="13000.00000" pt_clust_7="13000.00000" pt_clust_8="13000.00000" pt_clust_9="13000.00000"></scales>
<clustering>
<clus scale="   78.881">  5  6 -1 -1</clus>
<clus scale="   80.822">  1  5  2 -1</clus>
<clus scale="   92.037">  7  8 -1 -1</clus>
<clus scale="   71.995">  7  9 -1 -1</clus>
<clus scale="  191.691">  2  5  1 -1</clus>
</clustering>
</event>
<event>
 9    2  0.2147756E-005  0.2994904E+03  0.7546771E-02  0.1100903E+00
         21   -1    0    0  501  502  0.00000000000E+00  0.00000000000E+00  0.28897597485E+03  0.28897597485E+03  0.00000000000E+00 0. -1.
          2   -1    0    0  502    0 -0.00000000000E+00 -0.00000000000E+00 -0.63533783267E+03  0.63533783267E+03  0.00000000000E+00 0. -1.
         24    2    1    2    0    0 -0.73456271691E+02  0.16765026491E+03 -0.53451309096E+03  0.57062557444E+03  0.80042904853E+02 0.  0.
         23    2    1    2    0    0 -0.28663845458E+02  0.32125103066E+01  0.93312828281E+02  0.13319576311E+03  0.90564292794E+02 0.  0.
        -11    1    3    3    0    0  0.17166566285E+02  0.23087508074E+02 -0.90302871943E+02  0.94775169260E+02  0.00000000000E+00 0.  1.
         12    1    3    3    0    0 -0.90622837976E+02  0.14456275683E+03 -0.44421021902E+03  0.47585040518E+03  0.00000000000E+00 0. -1.
        -11    1    4    4    0    0  0.76331294902E+01  0.40875331161E+02  0.51754672394E+02  0.66389784440E+02  0.00000000000E+00 0. -1.
         11    1    4    4    0    0 -0.36296974948E+02 -0.37662820855E+02  0.41558155887E+02  0.66805978669E+02  0.00000000000E+00 0.  1.
          1    1    1    2  501    0  0.10212011715E+03 -0.17086277521E+03  0.94838404866E+02  0.22049246998E+03  0.00000000000E+00 0. -1.
<scales pt_clust_5="13000.00000" pt_clust_6="13000.00000" pt_clust_7="13000.00000" pt_clust_8="13000.00000" pt_clust_9="13000.00000"></scales>
<clustering>
<clus scale="   80.043">  5  6 -1 -1</clus>
<clus scale="   90.564">  7  8 -1 -1</clus>
<clus scale="  199.054">  7  9 -1 -1</clus>
<clus scale="  199.773">  2  5  1 -1</clus>
<clus scale="  299.490">  1  5  2 -1</clus>
</clustering>
</event>
<event>
 9    2  0.2147756E-005  0.2190008E+03  0.7546771E-02  0.1159531E+00
         21   -1    0    0  501  502  0.00000000000E+00  0.00000000000E+00  0.32442707898E+03  0.32442707898E+03  0.00000000000E+00 0.  1.
         -3   -1    0    0    0  501 -0.00000000000E+00 -0.00000000000E+00 -0.11723123678E+03  0.11723123678E+03  0.00000000000E+00 0.  1.
         24    2    1    2    0    0 -0.31816987792E+02 -0.83293819349E+02  0.18563787669E+03  0.22159903970E+03  0.81820120243E+02 0.  0.
         23    2    1    2    0    0  0.93678360947E+02  0.66772941455E+02 -0.13851827883E+02  0.14689082410E+03  0.90281670609E+02 0.  0.
        -13    1    3    3    0    0 -0.32114354619E+02 -0.24930438177E+02  0.14471558355E+03  0.15031785869E+03  0.00000000000E+00 0.  1.
         14    1    3    3    0    0  0.29736682698E+00 -0.58363381172E+02  0.40922293147E+02  0.71281181004E+02  0.00000000000E+00 0. -1.
        -11    1    4    4    0    0  0.77041152583E+02  0.31170942905E+02  0.29676487115E+02  0.88247723826E+02  0.00000000000E+00 0. -1.
         11    1    4    4    0    0  0.16637208364E+02  0.35601998550E+02 -0.43528314998E+02  0.58643100271E+02  0.00000000000E+00 0.  1.
         -4    1    1    2    0  502 -0.61861373154E+02  0.16520877894E+02  0.35409793393E+02  0.73168451966E+02  0.00000000000E+00 0.  1.
<scales pt_clust_5="13000.00000" pt_clust_6="13000.00000" pt_clust_7="13000.00000" pt_clust_8="13000.00000" pt_clust_9="13000.00000"></scales>
<clustering>
<clus scale="   81.820">  5  6 -1 -1</clus>
<clus scale="   90.282">  7  8 -1 -1</clus>
<clus scale="   64.029">  7  9 -1 -1</clus>
<clus scale="  121.015">  2  5  1 -1</clus>
<clus scale="  219.001">  1  5  2 -1</clus>
</clustering>
</event>
<event>
 9    2  0.2147756E-005  0.1951087E+03  0.7546771E-02  0.1185865E+00
         21   -1    0    0  501  502  0.00000000000E+00  0.00000000000E+00  0.53782410459E+02  0.53782410459E+02  0.00000000000E+00 0. -1.
          2   -1    0    0  502    0 -0.00000000000E+00 -0.00000000000E+00 -0.38849416407E+03  0.38849416407E+03  0.00000000000E+00 0. -1.
         24    2    1    2    0    0  0.23977566329E+02  0.43502793597E+02 -0.11154636106E+03  0.14584748629E+03  0.79758898277E+02 0.  0.
         23    2    1    2    0    0 -0.21918862816E+01  0.12579111883E+02 -0.21712423111E+03  0.23596181106E+03  0.91498667338E+02 0.  0.
        -13    1    3    3    0    0  0.18182738900E+02 -0.21713826516E+02 -0.37754637122E+02  0.47196555807E+02  0.00000000000E+00 0.  1.
         14    1    3    3    0    0  0.57948274290E+01  0.65216620113E+02 -0.73791723936E+02  0.98650930484E+02  0.00000000000E+00 0. -1.
        -11    1    4    4    0    0 -0.39692629285E+02 -0.36716980768E+00 -0.16897048183E+03  0.17357034125E+03  0.00000000000E+00 0.  1.
         11    1    4    4    0    0  0.37500743003E+02  0.12946281691E+02 -0.48153749280E+02  0.62391469811E+02  0.00000000000E+00 0. -1.
          1    1    1    2  501    0 -0.21785680047E+02 -0.56081905480E+02 -0.60411614454E+01  0.60467277176E+02  0.00000000000E+00 0. -1.
<scales pt_clust_5="13000.00000" pt_clust_6="13000.00000" pt_clust_7="13000.00000" pt_clust_8="13000.00000" pt_clust_9="13000.00000"></scales>
<clustering>
<clus scale="   79.759">  5  6 -1 -1</clus>
<clus scale="   91.499">  7  8 -1 -1</clus>
<clus scale="   60.165">  7  9 -1 -1</clus>
<clus scale="   93.962">  2  5  1 -1</clus>
<clus scale="  195.109">  1  5  2 -1</clus>
</clustering>
</event>
<event>
 9    2  0.2147756E-005  0.3285720E+03  0.7546771E-02  0.1113522E+00
         21   -1    0    0  501  502  0.00000000000E+00  0.00000000000E+00  0.57621069606E+02  0.57621069606E+02  0.00000000000E+00 0.  1.
          2   -1    0    0  502    0 -0.00000000000E+00 -0.00000000000E+00 -0.90933496985E+03  0.90933496985E+03  0.00000000000E+00 0. -1.
         24    2    1    2    0    0  0.55847315645E+02 -0.47494398769E+02 -0.10761256668E+03  0.15353957509E+03  0.81359056243E+02 0.  0.
         23    2    1    2    0    0 -0.61717655157E+02  0.14716424878E+03 -0.25788263632E+03  0.31705252385E+03  0.92479531206E+02 0.  0.
        -11    1    3    3    0    0  0.73357755236E+02 -0.44059835923E+02 -0.65374233025E+02  0.10768667391E+03  0.00000000000E+00 0.  1.
         12    1    3    3    0    0 -0.17510439591E+02 -0.34345628465E+01 -0.42238333655E+02  0.45852901180E+02  0.00000000000E+00 0. -1.
        -13    1    4    4    0    0 -0.23740990503E+02  0.37637845705E+02 -0.13391301893E+02  0.46471163378E+02  0.00000000000E+00 0. -1.
         13    1    4    4    0    0 -0.37976664653E+02  0.10952640307E+03 -0.24449133442E+03  0.27058136047E+03  0.00000000000E+00 0.  1.
          1    1    1    2  501    0  0.58703395118E+01 -0.99669850008E+02 -0.48621869725E+03  0.49636394051E+03  0.00000000000E+00 0. -1.
<scales pt_clust_5="13000.00000" pt_clust_6="13000.00000" pt_clust_7="13000.00000" pt_clust_8="13000.00000" pt_clust_9="13000.00000"></scales>
<clustering>
<clus scale="   81.359">  5  6 -1 -1</clus>
<clus scale="   92.480">  7  8 -1 -1</clus>
<clus scale="   99.843">  7  9 -1 -1</clus>
<clus scale="  109.517">  2  5  1 -1</clus>
<clus scale="  328.572">  1  5  2 -1</clus>
</clustering>
</event>
<event>
 9    2  0.2147756E-005  0.2568102E+03  0.7546771E-02  0.1154197E+00
         -1   -1    0    0    0  501 -0.00000000000E+00  0.00000000000E+00  0.27349631843E+03  0.27349631843E+03  0.00000000000E+00 0.  1.
         21   -1    0    0  501  502  0.00000000000E+00 -0.00000000000E+00 -0.14659889516E+03  0.14659889516E+03  0.00000000000E+00 0.  1.
         24    2    1    2    0    0 -0.20682632071E+02  0.19435267663E+02  0.13906127745E+03  0.16299708087E+03  0.80153032307E+02 0.  0.
         23    2    1    2    0    0 -0.24443978086E+02  0.34919747922E+02  0.88671374683E+02  0.13397777680E+03  0.90942482523E+02 0.  0.
        -11    1    3    3    0    0 -0.19135381016E+02  0.25126747144E+02  0.14852497056E+03  0.15184591897E+03  0.00000000000E+00 0.  1.
         12    1    3    3    0    0 -0.15472510552E+01 -0.56914794805E+01 -0.94636931080E+01  0.11151161901E+02  0.00000000000E+00 0. -1.
        -13    1    4    4    0    0  0.20749515580E+02  0.46981006500E+02  0.60557497082E+02  0.79403827498E+02  0.00000000000E+00 0. -1.
         13    1    4    4    0    0 -0.45193493666E+02 -0.12061258578E+02  0.28113877601E+02  0.54573949298E+02  0.00000000000E+00 0.  1.
         -2    1    1    2    0  502  0.45126610157E+02 -0.54355015585E+02 -0.10083522887E+03  0.12312035593E+03  0.00000000000E+00 0.  1.
<scales pt_clust_5="13000.00000" pt_clust_6="13000.00000" pt_clust_7="13000.00000" pt_clust_8="13000.00000" pt_clust_9="13000.00000"></scales>
<clustering>
<clus scale="   80.153">  5  6 -1 -1</clus>
<clus scale="   85.029">  1  5  2 -1</clus>
<clus scale="   90.942">  7  8 -1 -1</clus>
<clus scale="   68.084">  7  9 -1 -1</clus>
<clus scale="  256.810">  2  5  1 -1</clus>
</clustering>
</event>
<event>
 9    2  0.2147756E-005  0.2616859E+03  0.7546771E-02  0.1153030E+00
         -1   -1    0    0    0  501 -0.00000000000E+00  0.00000000000E+00  0.65310263839E+03  0.65310263839E+03  0.00000000000E+00 0.  1.
         21   -1    0    0  501  502  0.00000000000E+00 -0.00000000000E+00 -0.72303150680E+02  0.72303150680E+02  0.00000000000E+00 0.  1.
         24    2    1    2    0    0 -0.19452876460E+02  0.18797257903E+00 -0.60812099065E+01  0.82826244838E+02  0.80279237563E+02 0.  0.
         23    2    1    2    0    0 -0.33215238209E+02 -0.84484686331E+02  0.47255889521E+03  0.49108914599E+03  0.98059806252E+02 0.  0.
        -11    1    3    3    0    0 -0.42587337894E+02 -0.10897487337E+02 -0.25347545001E+02  0.50743813581E+02  0.00000000000E+00 0.  1.
         12    1    3    3    0    0  0.23134461434E+02  0.11085459916E+02  0.19266335094E+02  0.32082431257E+02  0.00000000000E+00 0. -1.
        -11    1    4    4    0    0  0.30887888659E+02 -0.32997818268E+02  0.10277254577E+03  0.11227249815E+03  0.00000000000E+00 0. -1.
         11    1    4    4    0    0 -0.64103126868E+02 -0.51486868062E+02  0.36978634943E+03  0.37881664785E+03  0.00000000000E+00 0.  1.
         -2    1    1    2    0  502  0.52668114668E+02  0.84296713752E+02  0.11432180241E+03  0.15149039824E+03  0.00000000000E+00 0.  1.
<scales pt_clust_5="13000.00000" pt_clust_6="13000.00000" pt_clust_7="13000.00000" pt_clust_8="13000.00000" pt_clust_9="13000.00000"></scales>
<clustering>
<clus scale="   80.279">  5  6 -1 -1</clus>
<clus scale="   82.603">  1  5  2 -1</clus>
<clus scale="   98.060">  7  8 -1 -1</clus>
<clus scale="   97.270">  7  9 -1 -1</clus>
<clus scale="  261.686">  2  5  1 -1</clus>
</clustering>
</event>
<event>
 9    2  0.2147756E-005  0.2179149E+03  0.7546771E-02  0.1176647E+00
          2   -1    0    0  502    0 -0.00000000000E+00  0.00000000000E+00  0.18554545071E+03  0.18554545071E+03  0.00000000000E+00 0. -1.
         21   -1    0    0  501  502  0.00000000000E+00 -0.00000000000E+00 -0.13112128823E+03  0.13112128823E+03  0.00000000000E+00 0. -1.
         24    2    1    2    0    0  0.45862654766E+01  0.16428710704E+02  0.53610080336E+02  0.98750346163E+02  0.81158202218E+02 0.  0.
         23    2    1    2    0    0  0.43769527275E+02  0.65073478436E+02  0.49066247396E+01  0.12306051034E+03  0.94707365744E+02 0.  0.
        -11    1    3    3    0    0  0.28908645632E+02 -0.21946588321E+02  0.15569727522E+02  0.39494036845E+02  0.00000000000E+00 0.  1.
         12    1    3    3    0    0 -0.24322380156E+02  0.38375299026E+02  0.38040352814E+02  0.59256309318E+02  0.00000000000E+00 0. -1.
        -13    1    4    4    0    0  0.31139646689E+02  0.89878848505E+02  0.32584982154E+01  0.95176167265E+02  0.00000000000E+00 0. -1.
         13    1    4    4    0    0  0.12629880586E+02 -0.24805370070E+02  0.16481265242E+01  0.27884343079E+02  0.00000000000E+00 0.  1.
          1    1    1    2  501    0 -0.48355792751E+02 -0.81502189140E+02 -0.40925425901E+01  0.94855882433E+02  0.00000000000E+00 0. -1.
<scales pt_clust_5="13000.00000" pt_clust_6="13000.00000" pt_clust_7="13000.00000" pt_clust_8="13000.00000" pt_clust_9="13000.00000"></scales>
<clustering>
<clus scale="   81.158">  5  6 -1 -1</clus>
<clus scale="   82.931">  1  5  2 -1</clus>
<clus scale="   94.707">  7  8 -1 -1</clus>
<clus scale="   87.953">  7  9 -1 -1</clus>
<clus scale="  217.915">  2  5  1 -1</clus>
</clustering>
</event>
<event>
 9    2  0.2147756E-005  0.2895782E+03  0.7546771E-02  0.1129740E+00
          4   -1    0    0  502    0 -0.00000000000E+00  0.00000000000E+00  0.41474629579E+02  0.41474629579E+02  0.00000000000E+00 0. -1.
         21   -1    0    0  501  502  0.00000000000E+00 -0.00000000000E+00 -0.10150400179E+04  0.10150400179E+04  0.00000000000E+00 0. -1.
         24    2    1    2    0    0  0.62606107033E+02  0.30647822149E+02 -0.15479307957E+03  0.18804264394E+03  0.80872274700E+02 0.  0.
         23    2    1    2    0    0  0.81061557245E+02 -0.65675248241E+02 -0.45759824157E+03  0.47819770879E+03  0.91611591604E+02 0.  0.
        -13    1    3    3    0    0 -0.19813031330E+02  0.63819816495E+01 -0.32103162046E+02  0.38260931949E+02  0.00000000000E+00 0.  1.
         14    1    3    3    0    0  0.82419138362E+02  0.24265840499E+02 -0.12268991753E+03  0.14978171199E+03  0.00000000000E+00 0. -1.
        -11    1    4    4    0    0  0.55317887619E+02 -0.78262596777E+02 -0.42070216930E+03  0.43148049550E+03  0.00000000000E+00 0. -1.
         11    1    4    4    0    0  0.25743669627E+02  0.12587348536E+02 -0.36896072265E+02  0.46717213290E+02  0.00000000000E+00 0.  1.
          3    1    1    2  501    0 -0.14366766428E+03  0.35027426092E+02 -0.36117406722E+03  0.39027429478E+03  0.00000000000E+00 0. -1.
<scales pt_clust_5="13000.00000" pt_clust_6="13000.00000" pt_clust_7="13000.00000" pt_clust_8="13000.00000" pt_clust_9="13000.00000"></scales>
<clustering>
<clus scale="   80.872">  5  6 -1 -1</clus>
<clus scale="   91.612">  7  8 -1 -1</clus>
<clus scale="  106.767">  1  5  2 -1</clus>
<clus scale="  119.404">  7  9 -1 -1</clus>
<clus scale="  289.578">  2  5  1 -1</clus>
</clustering>
</event>
<event>
 9    2  0.2147756E-005  0.4044286E+03  0.7546771E-02  0.1060185E+00
         21   -1    0    0  501  502  0.00000000000E+00  0.00000000000E+00  0.17812142681E+03  0.17812142681E+03  0.00000000000E+00 0. -1.
          2   -1    0    0  502    0 -0.00000000000E+00 -0.00000000000E+00 -0.60275797559E+03  0.60275797559E+03  0.00000000000E+00 0. -1.
         24    2    1    2    0    0  0.22711847983E+03  0.31596015843E+02 -0.21999298260E+03  0.32762285497E+03  0.79741523751E+02 0.  0.
         23    2    1    2    0    0  0.54440325133E+02  0.31567685265E+02 -0.30582811022E+02  0.11626669553E+03  0.92856709004E+02 0.  0.
        -13    1    3    3    0    0  0.10109143168E+03 -0.77855727333E+01 -0.14130392294E+03  0.17391633431E+03  0.00000000000E+00 0.  1.
         14    1    3    3    0    0  0.12602704815E+03  0.39381588576E+02 -0.78689059661E+02  0.15370652066E+03  0.00000000000E+00 0. -1.
        -13    1    4    4    0    0  0.69366046600E+02  0.50928170547E+01 -0.44780454533E+02  0.82721667746E+02  0.00000000000E+00 0. -1.
         13    1    4    4    0    0 -0.14925721468E+02  0.26474868210E+02  0.14197643511E+02  0.33545027789E+02  0.00000000000E+00 0.  1.
          1    1    1    2  501    0 -0.28155880496E+03 -0.63163701108E+02 -0.17406075516E+03  0.33698985189E+03  0.00000000000E+00 0. -1.
<scales pt_clust_5="13000.00000" pt_clust_6="13000.00000" pt_clust_7="13000.00000" pt_clust_8="13000.00000" pt_clust_9="13000.00000"></scales>
<clustering>
<clus scale="   79.742">  5  6 -1 -1</clus>
<clus scale="   92.857">  7  8 -1 -1</clus>
<clus scale="  242.775">  2  5  1 -1</clus>
<clus scale="  112.004">  7  9 -1 -1</clus>
<clus scale="  404.429">  1  5  2 -1</clus>
</clustering>
</event>
<event>
 9    2  0.2147756E-005  0.3396267E+03  0.7546771E-02  0.1109087E+00
         -1   -1    0    0    0  501 -0.00000000000E+00  0.00000000000E+00  0.13230954244E+04  0.13230954244E+04  0.00000000000E+00 0.  1.
         21   -1    0    0  501  502  0.00000000000E+00 -0.00000000000E+00 -0.42261227794E+02  0.42261227794E+02  0.00000000000E+00 0. -1.
         24    2    1    2    0    0  0.54321379960E+02 -0.55509660863E+02  0.52679123587E+03  0.53835780027E+03  0.79296785251E+02 0.  0.
         23    2    1    2    0    0  0.35593573016E+02  0.74899812125E+02  0.86224573100E+02  0.15287566170E+03  0.95180915301E+02 0.  0.
        -11    1    3    3    0    0  0.47687399607E+02  0.64599908299E+01  0.20333640958E+03  0.20895338003E+03  0.00000000000E+00 0.  1.
         12    1    3    3    0    0  0.66339803528E+01 -0.61969651693E+02  0.32345482628E+03  0.32940442024E+03  0.00000000000E+00 0. -1.
        -11    1    4    4    0    0 -0.32764504597E+02  0.21772887911E+02  0.21943039094E+02  0.45045181475E+02  0.00000000000E+00 0.  1.
         11    1    4    4    0    0  0.68358077613E+02  0.53126924214E+02  0.64281534005E+02  0.10783048022E+03  0.00000000000E+00 0. -1.
         -2    1    1    2    0  502 -0.89914952976E+02 -0.19390151263E+02  0.66781838768E+03  0.67412319027E+03  0.00000000000E+00 0.  1.
<scales pt_clust_5="13000.00000" pt_clust_6="13000.00000" pt_clust_7="13000.00000" pt_clust_8="13000.00000" pt_clust_9="13000.00000"></scales>
<clustering>
<clus scale="   79.297">  5  6 -1 -1</clus>
<clus scale="   95.181">  7  8 -1 -1</clus>
<clus scale="   91.982">  7  9 -1 -1</clus>
<clus scale="  110.996">  1  5  2 -1</clus>
<clus scale="  339.627">  2  5  1 -1</clus>
</clustering>
</event>
<event>
 9    2  0.2147756E-005  0.2774019E+03  0.7546771E-02  0.1134030E+00
         21   -1    0    0  501  502  0.00000000000E+00  0.00000000000E+00  0.41709203385E+02  0.41709203385E+02  0.00000000000E+00 0.  1.
          2   -1    0    0  502    0 -0.00000000000E+00 -0.00000000000E+00 -0.98449394248E+03  0.98449394248E+03  0.00000000000E+00 0. -1.
         24    2    1    2    0    0 -0.53585213538E+02 -0.40300951368E+02 -0.14529707130E+03  0.18184635397E+03  0.86378907915E+02 0.  0.
         23    2    1    2    0    0 -0.24941385473E+02 -0.60635694048E+02 -0.16884513266E+03  0.20283822621E+03  0.91301188859E+02 0.  0.
        -11    1    3    3    0    0  0.14422592267E+02 -0.35440824765E+02 -0.33281297063E+02  0.50712010036E+02  0.00000000000E+00 0.  1.
         12    1    3    3    0    0 -0.68007805804E+02 -0.48601266036E+01 -0.11201577424E+03  0.13113434394E+03  0.00000000000E+00 0. -1.
        -11    1    4    4    0    0 -0.44774668812E+02 -0.40688119410E+01 -0.37815094476E+02  0.58747830326E+02  0.00000000000E+00 0.  1.
         11    1    4    4    0    0  0.19833283339E+02 -0.56566882107E+02 -0.13103003819E+03  0.14409039589E+03  0.00000000000E+00 0. -1.
          1    1    1    2  501    0  0.78526599010E+02  0.10093664542E+03 -0.62864253512E+03  0.64151856568E+03  0.00000000000E+00 0. -1.
<scales pt_clust_5="13000.00000" pt_clust_6="13000.00000" pt_clust_7="13000.00000" pt_clust_8="13000.00000" pt_clust_9="13000.00000"></scales>
<clustering>
<clus scale="   86.379">  5  6 -1 -1</clus>
<clus scale="   91.301">  7  8 -1 -1</clus>
<clus scale="  109.347">  2  5  1 -1</clus>
<clus scale="   78.998">  7  9 -1 -1</clus>
<clus scale="  277.402">  1  5  2 -1</clus>
</clustering>
</event>
<event>
 9    2  0.2147756E-005  0.6069175E+03  0.7546771E-02  0.1024750E+00
         -3   -1    0    0    0  501 -0.00000000000E+00  0.00000000000E+00  0.27651338082E+03  0.27651338082E+03  0.00000000000E+00 0.  1.
         21   -1    0    0  501  502  0.00000000000E+00 -0.00000000000E+00 -0.60629952756E+03  0.60629952756E+03  0.00000000000E+00 0.  1.
         24    2    1    2    0    0 -0.20020238488E+02  0.17896395963E+03 -0.14824073993E+03  0.24932449977E+03  0.88082236683E+02 0.  0.
         23    2    1    2    0    0  0.20694291398E+03  0.27871186234E+02 -0.25386639571E+03  0.34547592691E+03  0.10631696259E+03 0.  0.
        -13    1    3    3    0    0  0.23247218893E+01  0.17582392923E+03 -0.14170856999E+03  0.22583351663E+03  0.00000000000E+00 0.  1.
         14    1    3    3    0    0 -0.22344960378E+02  0.31400303945E+01 -0.65321699318E+01  0.23490983146E+02  0.00000000000E+00 0. -1.
        -11    1    4    4    0    0  0.20103390947E+02 -0.12945735255E+00 -0.99482459503E+02  0.10149346203E+03  0.00000000000E+00 0. -1.
         11    1    4    4    0    0  0.18683952303E+03  0.28000643586E+02 -0.15438393621E+03  0.24398246488E+03  0.00000000000E+00 0.  1.
         -4    1    1    2    0  502 -0.18692267549E+03 -0.20683514586E+03  0.72320988902E+02  0.28801248169E+03  0.00000000000E+00 0.  1.
<scales pt_clust_5="13000.00000" pt_clust_6="13000.00000" pt_clust_7="13000.00000" pt_clust_8="13000.00000" pt_clust_9="13000.00000"></scales>
<clustering>
<clus scale="   88.082">  5  6 -1 -1</clus>
<clus scale="  106.317">  7  8 -1 -1</clus>
<clus scale="  200.468">  1  5  2 -1</clus>
<clus scale="  212.784">  7  9 -1 -1</clus>
<clus scale="  606.917">  2  5  1 -1</clus>
</clustering>
</event>
<event>
 9    2  0.2151678E-005  0.4651444E+03  0.7546771E-02  0.1059540E+00
         21   -1    0    0  501  502  0.00000000000E+00  0.00000000000E+00  0.20311348957E+03  0.20311348957E+03  0.00000000000E+00 0. -1.
          2   -1    0    0  502    0 -0.00000000000E+00 -0.00000000000E+00 -0.50619401055E+03  0.50619401055E+03  0.00000000000E+00 0. -1.
         24    2    1    2    0    0  0.10013746680E+03  0.98589820220E+02 -0.14575490524E+03  0.21827729187E+03  0.81566039724E+02 0.  0.
         23    2    1    2    0    0  0.12274645138E+03  0.67675052502E+02 -0.13012944889E+03  0.21163643527E+03  0.90607412526E+02 0.  0.
        -11    1    3    3    0    0  0.55341172064E+02  0.26307173176E+02 -0.16328709145E+02  0.63414031793E+02  0.00000000000E+00 0.  1.
         12    1    3    3    0    0  0.44796294739E+02  0.72282647044E+02 -0.12942619610E+03  0.15486326008E+03  0.00000000000E+00 0. -1.
        -11    1    4    4    0    0  0.10562315684E+03  0.17078674398E+02 -0.11281815075E+03  0.15548590778E+03  0.00000000000E+00 0.  1.
         11    1    4    4    0    0  0.17123294542E+02  0.50596378104E+02 -0.17311298140E+02  0.56150527482E+02  0.00000000000E+00 0. -1.
          1    1    1    2  501    0 -0.22288391818E+03 -0.16626487272E+03 -0.27196166841E+02  0.27939377297E+03  0.00000000000E+00 0. -1.
<scales pt_clust_5="13000.00000" pt_clust_6="13000.00000" pt_clust_7="13000.00000" pt_clust_8="13000.00000" pt_clust_9="13000.00000"></scales>
<clustering>
<clus scale="   81.566">  5  6 -1 -1</clus>
<clus scale="   90.607">  7  8 -1 -1</clus>
<clus scale="  162.482">  2  5  1 -1</clus>
<clus scale="  212.429">  7  9 -1 -1</clus>
<clus scale="  465.144">  1  5  2 -1</clus>
</clustering>
</event>
<event>
 9    2  0.2147756E-005  0.1841909E+03  0.7546771E-02  0.1197340E+00
          2   -1    0    0  502    0 -0.00000000000E+00  0.00000000000E+00  0.59810314839E+03  0.59810314839E+03  0.00000000000E+00 0. -1.
         21   -1    0    0  501  502  0.00000000000E+00 -0.00000000000E+00 -0.14559529814E+03  0.14559529814E+03  0.00000000000E+00 0.  1.
         24    2    1    2    0    0 -0.97073868814E+01 -0.38474817546E+02  0.53492423817E+03  0.54190955403E+03  0.77119901631E+02 0.  0.
         23    2    1    2    0    0  0.69875441493E+01  0.33695139704E+01 -0.11938737997E+03  0.15073368574E+03  0.91690338214E+02 0.  0.
        -13    1    3    3    0    0  0.22820558772E+02 -0.18302524942E+02  0.76695787247E+02  0.82085346459E+02  0.00000000000E+00 0.  1.
         14    1    3    3    0    0 -0.32527945653E+02 -0.20172292604E+02  0.45822845092E+03  0.45982420758E+03  0.00000000000E+00 0. -1.
        -11    1    4    4    0    0 -0.34015197847E+02 -0.11074039650E+02 -0.93565595661E+02  0.10017079779E+03  0.00000000000E+00 0.  1.
         11    1    4    4    0    0  0.41002741997E+02  0.14443553620E+02 -0.25821784309E+02  0.50562887945E+02  0.00000000000E+00 0. -1.
          1    1    1    2  501    0  0.27198427321E+01  0.35105303575E+02  0.36970992056E+02  0.51055206759E+02  0.00000000000E+00 0. -1.
<scales pt_clust_5="13000.00000" pt_clust_6="13000.00000" pt_clust_7="13000.00000" pt_clust_8="13000.00000" pt_clust_9="13000.00000"></scales>
<clustering>
<clus scale="   77.120">  5  6 -1 -1</clus>
<clus scale="   86.730">  1  5  2 -1</clus>
<clus scale="   91.690">  7  8 -1 -1</clus>
<clus scale="    8.065">  7  9 -1 -1</clus>
<clus scale="  184.191">  2  5  1 -1</clus>
</clustering>
</event>
<event>
 9    2  0.2147756E-005  0.3655667E+03  0.7546771E-02  0.1101222E+00
          2   -1    0    0  502    0 -0.00000000000E+00  0.00000000000E+00  0.62964044831E+03  0.62964044831E+03  0.00000000000E+00 0. -1.
         21   -1    0    0  501  502  0.00000000000E+00 -0.00000000000E+00 -0.93345888741E+02  0.93345888741E+02  0.00000000000E+00 0. -1.
         24    2    1    2    0    0 -0.43505424376E+02 -0.57225959819E+02  0.19231570516E+03  0.22102968142E+03  0.81861206880E+02 0.  0.
         23    2    1    2    0    0  0.37793732510E+02  0.19878084946E+03  0.17828389567E+03  0.28395383556E+03  0.88895674487E+02 0.  0.
        -11    1    3    3    0    0  0.10329294996E+02 -0.19459836017E+02  0.12499044673E+03  0.12691726173E+03  0.00000000000E+00 0.  1.
         12    1    3    3    0    0 -0.53834719372E+02 -0.37766123802E+02  0.67325258432E+02  0.94112419690E+02  0.00000000000E+00 0. -1.
        -13    1    4    4    0    0 -0.29388004472E+02  0.60372323682E+02  0.55503116866E+02  0.87115258454E+02  0.00000000000E+00 0. -1.
         13    1    4    4    0    0  0.67181736982E+02  0.13840852578E+03  0.12278077881E+03  0.19683857710E+03  0.00000000000E+00 0.  1.
          1    1    1    2  501    0  0.57116918661E+01 -0.14155488964E+03  0.16569495874E+03  0.21800282007E+03  0.00000000000E+00 0. -1.
<scales pt_clust_5="13000.00000" pt_clust_6="13000.00000" pt_clust_7="13000.00000" pt_clust_8="13000.00000" pt_clust_9="13000.00000"></scales>
<clustering>
<clus scale="   81.861">  5  6 -1 -1</clus>
<clus scale="   88.896">  7  8 -1 -1</clus>
<clus scale="  108.944">  1  5  2 -1</clus>
<clus scale="  168.097">  7  9 -1 -1</clus>
<clus scale="  365.567">  2  5  1 -1</clus>
</clustering>
</event>
<event>
 9    2  0.2147756E-005  0.1441013E+04  0.7546771E-02  0.9518271E-01
         21   -1    0    0  501  502  0.00000000000E+00  0.00000000000E+00  0.25970403190E+03  0.25970403190E+03  0.00000000000E+00 0. -1.
          2   -1    0    0  502    0 -0.00000000000E+00 -0.00000000000E+00 -0.25620278475E+04  0.25620278475E+04  0.00000000000E+00 0. -1.
         24    2    1    2    0    0  0.10302504126E+03  0.89097876953E+02 -0.43608919104E+03  0.46390470701E+03  0.80505924206E+02 0.  0.
         23    2    1    2    0    0  0.37371867199E+03  0.52918293957E+03 -0.95655602036E+03  0.11590482524E+04  0.93237341777E+02 0.  0.
        -11    1    3    3    0    0  0.56892652682E+02  0.21432194700E+02 -0.29114200955E+03  0.29742189332E+03  0.00000000000E+00 0.  1.
         12    1    3    3    0    0  0.46132388580E+02  0.67665682253E+02 -0.14494718149E+03  0.16648281369E+03  0.00000000000E+00 0. -1.
        -13    1    4    4    0    0  0.14211758299E+02  0.24774142649E+02 -0.86002314080E+02  0.90620804703E+02  0.00000000000E+00 0.  1.
         13    1    4    4    0    0  0.35950691369E+03  0.50440879692E+03 -0.87055370628E+03  0.10684274477E+04  0.00000000000E+00 0. -1.
          1    1    1    2  501    0 -0.47674371325E+03 -0.61828081652E+03 -0.90967860424E+03  0.11987789201E+04  0.00000000000E+00 0. -1.
<scales pt_clust_5="13000.00000" pt_clust_6="13000.00000" pt_clust_7="13000.00000" pt_clust_8="13000.00000" pt_clust_9="13000.00000"></scales>
<clustering>
<clus scale="   80.506">  5  6 -1 -1</clus>
<clus scale="   93.237">  7  8 -1 -1</clus>
<clus scale="  158.221">  2  5  1 -1</clus>
<clus scale="  714.249">  7  9 -1 -1</clus>
<clus scale=" 1441.013">  1  5  2 -1</clus>
</clustering>
</event>
<event>
 9    2  0.2147756E-005  0.5567645E+03  0.7546771E-02  0.1033552E+00
         21   -1    0    0  501  502  0.00000000000E+00  0.00000000000E+00  0.15083277163E+03  0.15083277163E+03  0.00000000000E+00 0. -1.
          2   -1    0    0  502    0 -0.00000000000E+00 -0.00000000000E+00 -0.10457743407E+04  0.10457743407E+04  0.00000000000E+00 0. -1.
         24    2    1    2    0    0 -0.16720864024E+03  0.75046706029E+02 -0.41860326009E+03  0.46388283640E+03  0.79798866466E+02 0.  0.
         23    2    1    2    0    0  0.28576391713E+01 -0.19413844552E+03 -0.48387889066E+03  0.52962096643E+03  0.93068174633E+02 0.  0.
        -11    1    3    3    0    0 -0.46095690315E+02  0.24603464319E+02 -0.48796902653E+02  0.71493222271E+02  0.00000000000E+00 0.  1.
         12    1    3    3    0    0 -0.12111294993E+03  0.50443241710E+02 -0.36980635744E+03  0.39238961413E+03  0.00000000000E+00 0. -1.
        -11    1    4    4    0    0  0.94242325700E+01 -0.12074878186E+03 -0.18012356464E+03  0.21705663551E+03  0.00000000000E+00 0. -1.
         11    1    4    4    0    0 -0.65665933987E+01 -0.73389663664E+02 -0.30375532602E+03  0.31256433093E+03  0.00000000000E+00 0.  1.
          1    1    1    2  501    0  0.16435100107E+03  0.11909173949E+03  0.75405816582E+01  0.20310330953E+03  0.00000000000E+00 0. -1.
<scales pt_clust_5="13000.00000" pt_clust_6="13000.00000" pt_clust_7="13000.00000" pt_clust_8="13000.00000" pt_clust_9="13000.00000"></scales>
<clustering>
<clus scale="   79.799">  5  6 -1 -1</clus>
<clus scale="   93.068">  7  8 -1 -1</clus>
<clus scale="  199.896">  2  5  1 -1</clus>
<clus scale="  189.932">  7  9 -1 -1</clus>
<clus scale="  556.764">  1  5  2 -1</clus>
</clustering>
</event>
<event>
 9    2  0.2147756E-005  0.1950833E+03  0.7546771E-02  0.1191934E+00
          2   -1    0    0  502    0 -0.00000000000E+00  0.00000000000E+00  0.16914220770E+04  0.16914220770E+04  0.00000000000E+00 0. -1.
         21   -1    0    0  501  502  0.00000000000E+00 -0.00000000000E+00 -0.13059669018E+02  0.13059669018E+02  0.00000000000E+00 0. -1.
         24    2    1    2    0    0 -0.14328969789E+02 -0.18734750400E+02  0.82606363598E+03  0.83014159251E+03  0.78724981235E+02 0.  0.
         23    2    1    2    0    0  0.45189810388E+02 -0.49130722345E+02  0.37960322219E+03  0.39580154829E+03  0.90023955107E+02 0.  0.
        -11    1    3    3    0    0 -0.10448122421E+02  0.19188851834E+02  0.75171023625E+02  0.78281914192E+02  0.00000000000E+00 0.  1.
         12    1    3    3    0    0 -0.38808473677E+01 -0.37923602234E+02  0.75089261236E+03  0.75185967831E+03  0.00000000000E+00 0. -1.
        -11    1    4    4    0    0 -0.80507607514E+01 -0.45831182144E+02  0.89908004619E+02  0.10123616597E+03  0.00000000000E+00 0.  1.
         11    1    4    4    0    0  0.53240571140E+02 -0.32995402016E+01  0.28969521757E+03  0.29456538232E+03  0.00000000000E+00 0. -1.
          1    1    1    2  501    0 -0.30860840599E+02  0.67865472746E+02  0.47269554977E+03  0.47853860518E+03  0.00000000000E+00 0. -1.
<scales pt_clust_5="13000.00000" pt_clust_6="13000.00000" pt_clust_7="13000.00000" pt_clust_8="13000.00000" pt_clust_9="13000.00000"></scales>
<clustering>
<clus scale="   78.725">  5  6 -1 -1</clus>
<clus scale="   82.182">  1  5  2 -1</clus>
<clus scale="   90.024">  7  8 -1 -1</clus>
<clus scale="   69.378">  7  9 -1 -1</clus>
<clus scale="  195.083">  2  5  1 -1</clus>
</clustering>
</event>
<event>
 9    2  0.2147756E-005  0.2641102E+03  0.7546771E-02  0.1144820E+00
         -1   -1    0    0    0  501 -0.00000000000E+00  0.00000000000E+00  0.72121180443E+03  0.72121180443E+03  0.00000000000E+00 0.  1.
         21   -1    0    0  501  502  0.00000000000E+00 -0.00000000000E+00 -0.71190491632E+02  0.71190491632E+02  0.00000000000E+00 0.  1.
         24    2    1    2    0    0  0.55942762868E+02 -0.34177056637E+00  0.77478259479E+01  0.97946100991E+02  0.80023123959E+02 0.  0.
         23    2    1    2    0    0  0.45905821696E+02  0.67207338467E+02  0.19176171012E+03  0.22776036337E+03  0.92076375078E+02 0.  0.
        -13    1    3    3    0    0  0.37564170911E+02  0.24702950658E+02  0.34720967108E+02  0.56805354187E+02  0.00000000000E+00 0.  1.
         14    1    3    3    0    0  0.18378591957E+02 -0.25044721224E+02 -0.26973141160E+02  0.41140746804E+02  0.00000000000E+00 0. -1.
        -13    1    4    4    0    0  0.22309253163E+02  0.83289888000E+02  0.10198177764E+03  0.13354846008E+03  0.00000000000E+00 0. -1.
         13    1    4    4    0    0  0.23596568533E+02 -0.16082549533E+02  0.89779932480E+02  0.94211903293E+02  0.00000000000E+00 0.  1.
         -2    1    1    2    0  502 -0.10184858456E+03 -0.66865567900E+02  0.45051177674E+03  0.46669583170E+03  0.00000000000E+00 0.  1.
<scales pt_clust_5="13000.00000" pt_clust_6="13000.00000" pt_clust_7="13000.00000" pt_clust_8="13000.00000" pt_clust_9="13000.00000"></scales>
<clustering>
<clus scale="   80.023">  5  6 -1 -1</clus>
<clus scale="   92.076">  7  8 -1 -1</clus>
<clus scale="   97.639">  1  5  2 -1</clus>
<clus scale="   92.358">  7  9 -1 -1</clus>
<clus scale="  264.110">  2  5  1 -1</clus>
</clustering>
</event>
<event>
 9    2  0.2147756E-005  0.3770851E+03  0.7546771E-02  0.1103171E+00
         21   -1    0    0  501  502  0.00000000000E+00  0.00000000000E+00  0.10452483674E+03  0.10452483674E+03  0.00000000000E+00 0. -1.
          2   -1    0    0  502    0 -0.00000000000E+00 -0.00000000000E+00 -0.54419849681E+03  0.54419849681E+03  0.00000000000E+00 0. -1.
         24    2    1    2    0    0 -0.26204493337E+02 -0.44008433346E+02 -0.13071874111E+03  0.16123350290E+03  0.79280738548E+02 0.  0.
         23    2    1    2    0    0  0.64327037545E+02 -0.80337029055E+02  0.14064639088E+02  0.13927042096E+03  0.92770847175E+02 0.  0.
        -11    1    3    3    0    0 -0.40327347170E+02 -0.65943553501E+01 -0.24284765048E+02  0.47534516572E+02  0.00000000000E+00 0.  1.
         12    1    3    3    0    0  0.14122853833E+02 -0.37414077996E+02 -0.10643397606E+03  0.11369898633E+03  0.00000000000E+00 0. -1.
        -13    1    4    4    0    0  0.44852497645E+01 -0.19959137031E+02 -0.35423256567E+02  0.40905888602E+02  0.00000000000E+00 0.  1.
         13    1    4    4    0    0  0.59841787781E+02 -0.60377892024E+02  0.49487895655E+02  0.98364532360E+02  0.00000000000E+00 0. -1.
          1    1    1    2  501    0 -0.38122544208E+02  0.12434546240E+03 -0.32301955805E+03  0.34821940968E+03  0.00000000000E+00 0. -1.
<scales pt_clust_5="13000.00000" pt_clust_6="13000.00000" pt_clust_7="13000.00000" pt_clust_8="13000.00000" pt_clust_9="13000.00000"></scales>
<clustering>
<clus scale="   79.281">  5  6 -1 -1</clus>
<clus scale="   92.771">  7  8 -1 -1</clus>
<clus scale="   94.387">  2  5  1 -1</clus>
<clus scale="  106.012">  7  9 -1 -1</clus>
<clus scale="  377.085">  1  5  2 -1</clus>
</clustering>
</event>
<event>
 9    2  0.2147756E-005  0.1891174E+03  0.7546771E-02  0.1182747E+00
         21   -1    0    0  501  502  0.00000000000E+00  0.00000000000E+00  0.65527762772E+03  0.65527762772E+03  0.00000000000E+00 0.  1.
          2   -1    0    0  502    0 -0.00000000000E+00 -0.00000000000E+00 -0.35993807930E+02  0.35993807930E+02  0.00000000000E+00 0. -1.
         24    2    1    2    0    0  0.76159856539E+02  0.65505306837E+01  0.15937738826E+03  0.19399956007E+03  0.79946508482E+02 0.  0.
         23    2    1    2    0    0  0.48172944096E+01 -0.47794944971E+02  0.20942721586E+03  0.23081692973E+03  0.84315675986E+02 0.  0.
        -11    1    3    3    0    0  0.76216767574E+02  0.26685038368E+01  0.66921899114E+02  0.10146258992E+03  0.00000000000E+00 0.  1.
         12    1    3    3    0    0 -0.56911035510E-01  0.38820268468E+01  0.92455489148E+02  0.92536970152E+02  0.00000000000E+00 0. -1.
        -11    1    4    4    0    0 -0.11897328533E+02 -0.16954853341E+02  0.24141144235E+01  0.20852851759E+02  0.00000000000E+00 0. -1.
         11    1    4    4    0    0  0.16714622942E+02 -0.30840091629E+02  0.20701310144E+03  0.20996407797E+03  0.00000000000E+00 0.  1.
          1    1    1    2  501    0 -0.80977150948E+02  0.41244414287E+02  0.25047921566E+03  0.26645494585E+03  0.00000000000E+00 0. -1.
<scales pt_clust_5="13000.00000" pt_clust_6="13000.00000" pt_clust_7="13000.00000" pt_clust_8="13000.00000" pt_clust_9="13000.00000"></scales>
<clustering>
<clus scale="   79.947">  5  6 -1 -1</clus>
<clus scale="   84.316">  7  8 -1 -1</clus>
<clus scale="   90.876">  7  9 -1 -1</clus>
<clus scale="  110.610">  2  5  1 -1</clus>
<clus scale="  189.117">  1  5  2 -1</clus>
</clustering>
</event>
<event>
 9    2  0.2147756E-005  0.1269057E+03  0.7546771E-02  0.1257296E+00
         -1   -1    0    0    0  501 -0.00000000000E+00  0.00000000000E+00  0.29360552009E+03  0.29360552009E+03  0.00000000000E+00 0.  1.
         21   -1    0    0  501  502  0.00000000000E+00 -0.00000000000E+00 -0.38426675859E+02  0.38426675859E+02  0.00000000000E+00 0. -1.
         24    2    1    2    0    0  0.11549230873E+02 -0.18434286171E+02  0.14531591578E+03  0.16417834058E+03  0.73243460440E+02 0.  0.
         23    2    1    2    0    0 -0.11778651501E+02 -0.11961532112E+02  0.63085306519E+02  0.11206761767E+03  0.91091054168E+02 0.  0.
        -11    1    3    3    0    0  0.30423212295E+02 -0.34016218457E+02  0.12247432651E+03  0.13070055707E+03  0.00000000000E+00 0.  1.
         12    1    3    3    0    0 -0.18873981422E+02  0.15581932286E+02  0.22841589267E+02  0.33477783510E+02  0.00000000000E+00 0. -1.
        -11    1    4    4    0    0  0.46608420787E+01 -0.46626149554E+02  0.12348076305E+02  0.48458190840E+02  0.00000000000E+00 0.  1.
         11    1    4    4    0    0 -0.16439493580E+02  0.34664617442E+02  0.50737230214E+02  0.63609426828E+02  0.00000000000E+00 0. -1.
         -2    1    1    2    0  502  0.22942062792E+00  0.30395818283E+02  0.46777621936E+02  0.55786237702E+02  0.00000000000E+00 0.  1.
<scales pt_clust_5="13000.00000" pt_clust_6="13000.00000" pt_clust_7="13000.00000" pt_clust_8="13000.00000" pt_clust_9="13000.00000"></scales>
<clustering>
<clus scale="   73.243">  5  6 -1 -1</clus>
<clus scale="   76.406">  1  5  2 -1</clus>
<clus scale="   91.091">  7  8 -1 -1</clus>
<clus scale="   24.012">  7  9 -1 -1</clus>
<clus scale="  126.906">  2  5  1 -1</clus>
</clustering>
</event>
<event>
 9    2  0.2147756E-005  0.2326154E+03  0.7546771E-02  0.1167042E+00
         21   -1    0    0  501  502  0.00000000000E+00  0.00000000000E+00  0.19911238989E+03  0.19911238989E+03  0.00000000000E+00 0.  1.
          4   -1    0    0  502    0 -0.00000000000E+00 -0.00000000000E+00 -0.12782716639E+03  0.12782716639E+03  0.00000000000E+00 0. -1.
         24    2    1    2    0    0  0.15946673922E+02 -0.14947334670E+02  0.33645343731E+02  0.91298594774E+02  0.82010395865E+02 0.  0.
         23    2    1    2    0    0 -0.62266058572E+02  0.29662858736E+02  0.10663816282E+03  0.15124430809E+03  0.82135228263E+02 0.  0.
        -13    1    3    3    0    0 -0.32685309908E+02  0.81340649271E+00  0.62101807759E+01  0.33279985865E+02  0.00000000000E+00 0.  1.
         14    1    3    3    0    0  0.48631983830E+02 -0.15760741163E+02  0.27435162955E+02  0.58018608908E+02  0.00000000000E+00 0. -1.
        -11    1    4    4    0    0 -0.12858598987E+01  0.29944639114E+02  0.18815648231E+01  0.30031235964E+02  0.00000000000E+00 0. -1.
         11    1    4    4    0    0 -0.60980198673E+02 -0.28178037826E+00  0.10475659800E+03  0.12121307213E+03  0.00000000000E+00 0.  1.
          3    1    1    2  501    0  0.46319384649E+02 -0.14715524066E+02 -0.68998283051E+02  0.84396653410E+02  0.00000000000E+00 0. -1.
<scales pt_clust_5="13000.00000" pt_clust_6="13000.00000" pt_clust_7="13000.00000" pt_clust_8="13000.00000" pt_clust_9="13000.00000"></scales>
<clustering>
<clus scale="   82.010">  5  6 -1 -1</clus>
<clus scale="   82.135">  7  8 -1 -1</clus>
<clus scale="   48.601">  7  9 -1 -1</clus>
<clus scale="   84.873">  2  5  1 -1</clus>
<clus scale="  232.615">  1  5  2 -1</clus>
</clustering>
</event>
<event>
 9    2  0.2147756E-005  0.2096996E+03  0.7546771E-02  0.1159140E+00
         21   -1    0    0  501  502  0.00000000000E+00  0.00000000000E+00  0.73776066805E+03  0.73776066805E+03  0.00000000000E+00 0. -1.
          4   -1    0    0  502    0 -0.00000000000E+00 -0.00000000000E+00 -0.53354978010E+02  0.53354978010E+02  0.00000000000E+00 0. -1.
         24    2    1    2    0    0 -0.85337305429E+02  0.68234039193E+02  0.10311173613E+03  0.17315400723E+03  0.86092626212E+02 0.  0.
         23    2    1    2    0    0  0.16076053799E+02  0.18803452430E+02  0.29042770184E+03  0.30655222581E+03  0.94942128826E+02 0.  0.
        -13    1    3    3    0    0 -0.15367869430E+02 -0.19921973314E+02  0.29011842828E+02  0.38402388673E+02  0.00000000000E+00 0.  1.
         14    1    3    3    0    0 -0.69969435998E+02  0.88156012507E+02  0.74099893304E+02  0.13475161855E+03  0.00000000000E+00 0. -1.
        -11    1    4    4    0    0  0.29901791762E+02 -0.23731368776E+02  0.55225262683E+02  0.67135122350E+02  0.00000000000E+00 0.  1.
         11    1    4    4    0    0 -0.13825737963E+02  0.42534821206E+02  0.23520243916E+03  0.23941710346E+03  0.00000000000E+00 0. -1.
          3    1    1    2  501    0  0.69261251629E+02 -0.87037491623E+02  0.29086625207E+03  0.31140941302E+03  0.00000000000E+00 0. -1.
<scales pt_clust_5="13000.00000" pt_clust_6="13000.00000" pt_clust_7="13000.00000" pt_clust_8="13000.00000" pt_clust_9="13000.00000"></scales>
<clustering>
<clus scale="   86.093">  5  6 -1 -1</clus>
<clus scale="   94.942">  7  8 -1 -1</clus>
<clus scale="  111.232">  7  9 -1 -1</clus>
<clus scale="  139.105">  2  5  1 -1</clus>
<clus scale="  209.700">  1  5  2 -1</clus>
</clustering>
</event>
<event>
 9    2  0.2147756E-005  0.2290805E+03  0.7546771E-02  0.1149737E+00
         21   -1    0    0  501  502  0.00000000000E+00  0.00000000000E+00  0.64837313188E+02  0.64837313188E+02  0.00000000000E+00 0.  1.
          2   -1    0    0  502    0 -0.00000000000E+00 -0.00000000000E+00 -0.77218204675E+03  0.77218204675E+03  0.00000000000E+00 0. -1.
         24    2    1    2    0    0 -0.87096919377E+02 -0.61106944411E+02 -0.52182249517E+02  0.14296191423E+03  0.79969930202E+02 0.  0.
         23    2    1    2    0    0  0.19982798160E+02  0.42883854733E+02 -0.13371780099E+03  0.16799571573E+03  0.90020958566E+02 0.  0.
        -11    1    3    3    0    0 -0.94994711978E+02 -0.70741727911E+02 -0.38696820491E+02  0.12460269374E+03  0.00000000000E+00 0.  1.
         12    1    3    3    0    0  0.78977926013E+01  0.96347834997E+01 -0.13485429026E+02  0.18359220492E+02  0.00000000000E+00 0. -1.
        -13    1    4    4    0    0  0.53326317752E+02  0.31422990182E+02 -0.59633060182E+02  0.85948835615E+02  0.00000000000E+00 0.  1.
         13    1    4    4    0    0 -0.33343519592E+02  0.11460864551E+02 -0.74084740812E+02  0.82046880112E+02  0.00000000000E+00 0. -1.
          1    1    1    2  501    0  0.67114121217E+02  0.18223089678E+02 -0.52144468305E+03  0.52606172997E+03  0.00000000000E+00 0. -1.
<scales pt_clust_5="13000.00000" pt_clust_6="13000.00000" pt_clust_7="13000.00000" pt_clust_8="13000.00000" pt_clust_9="13000.00000"></scales>
<clustering>
<clus scale="   79.970">  5  6 -1 -1</clus>
<clus scale="   90.021">  7  8 -1 -1</clus>
<clus scale="   69.544">  7  9 -1 -1</clus>
<clus scale="  133.098">  2  5  1 -1</clus>
<clus scale="  229.080">  1  5  2 -1</clus>
</clustering>
</event>
<event>
 9    2  0.2147756E-005  0.2112944E+03  0.7546771E-02  0.1171427E+00
         21   -1    0    0  501  502  0.00000000000E+00  0.00000000000E+00  0.19585932593E+03  0.19585932593E+03  0.00000000000E+00 0.  1.
          2   -1    0    0  502    0 -0.00000000000E+00 -0.00000000000E+00 -0.13303025363E+03  0.13303025363E+03  0.00000000000E+00 0. -1.
         24    2    1    2    0    0  0.42138410125E+02  0.49258245778E+02  0.57644566117E+02  0.11753153711E+03  0.79301613022E+02 0.  0.
         23    2    1    2    0    0  0.40130657433E+02  0.15425664841E+02 -0.17366152416E+02  0.10430319682E+03  0.93429935328E+02 0.  0.
        -13    1    3    3    0    0  0.22437091075E+02  0.63255413454E+01  0.65609131595E+02  0.69627535342E+02  0.00000000000E+00 0.  1.
         14    1    3    3    0    0  0.19701319050E+02  0.42932704432E+02 -0.79645654778E+01  0.47904001769E+02  0.00000000000E+00 0. -1.
        -13    1    4    4    0    0  0.10264855715E+02  0.52155751746E+02  0.19067820316E+01  0.53190464566E+02  0.00000000000E+00 0.  1.
         13    1    4    4    0    0  0.29865801718E+02 -0.36730086904E+02 -0.19272934448E+02  0.51112732254E+02  0.00000000000E+00 0. -1.
          1    1    1    2  501    0 -0.82269067558E+02 -0.64683910619E+02  0.22550658597E+02  0.10705484563E+03  0.00000000000E+00 0. -1.
<scales pt_clust_5="13000.00000" pt_clust_6="13000.00000" pt_clust_7="13000.00000" pt_clust_8="13000.00000" pt_clust_9="13000.00000"></scales>
<clustering>
<clus scale="   79.302">  5  6 -1 -1</clus>
<clus scale="   93.430">  7  8 -1 -1</clus>
<clus scale="  102.424">  2  5  1 -1</clus>
<clus scale="   78.769">  7  9 -1 -1</clus>
<clus scale="  211.294">  1  5  2 -1</clus>
</clustering>
</event>
<event>
 9    2  0.2147756E-005  0.3113790E+03  0.7546771E-02  0.1122228E+00
          2   -1    0    0  502    0 -0.00000000000E+00  0.00000000000E+00  0.27704143733E+03  0.27704143733E+03  0.00000000000E+00 0. -1.
         21   -1    0    0  501  502  0.00000000000E+00 -0.00000000000E+00 -0.16636656800E+03  0.16636656800E+03  0.00000000000E+00 0. -1.
         24    2    1    2    0    0 -0.46608944861E+02  0.42525139443E+02  0.79564943908E+02  0.13047874736E+03  0.81934986345E+02 0.  0.
         23    2    1    2    0    0 -0.77411505242E+02  0.41479926007E+02  0.87406772990E+02  0.15290657798E+03  0.89595492186E+02 0.  0.
        -13    1    3    3    0    0 -0.81798572888E+00  0.34778495171E+02  0.76378601071E+02  0.83927966308E+02  0.00000000000E+00 0.  1.
         14    1    3    3    0    0 -0.45790959132E+02  0.77466442717E+01  0.31863428372E+01  0.46550781050E+02  0.00000000000E+00 0. -1.
        -11    1    4    4    0    0 -0.21589677767E+02  0.62244394480E+02  0.47270603766E+02  0.81086304704E+02  0.00000000000E+00 0.  1.
         11    1    4    4    0    0 -0.55821827475E+02 -0.20764468472E+02  0.40136169224E+02  0.71820273277E+02  0.00000000000E+00 0. -1.
          1    1    1    2  501    0  0.12402045010E+03 -0.84005065451E+02 -0.56296847564E+02  0.16002267999E+03  0.00000000000E+00 0. -1.
<scales pt_clust_5="13000.00000" pt_clust_6="13000.00000" pt_clust_7="13000.00000" pt_clust_8="13000.00000" pt_clust_9="13000.00000"></scales>
<clustering>
<clus scale="   81.935">  5  6 -1 -1</clus>
<clus scale="   89.595">  7  8 -1 -1</clus>
<clus scale="  103.412">  1  5  2 -1</clus>
<clus scale="  130.997">  7  9 -1 -1</clus>
<clus scale="  311.379">  2  5  1 -1</clus>
</clustering>
</event>
<event>
 9    2  0.2147756E-005  0.4915779E+03  0.7546771E-02  0.1032418E+00
          2   -1    0    0  502    0 -0.00000000000E+00  0.00000000000E+00  0.10558528857E+04  0.10558528857E+04  0.00000000000E+00 0. -1.
         21   -1    0    0  501  502  0.00000000000E+00 -0.00000000000E+00 -0.14882024940E+03  0.14882024940E+03  0.00000000000E+00 0. -1.
         24    2    1    2    0    0  0.61607403028E+02 -0.28314812071E+03  0.31618123453E+03  0.43606778729E+03  0.78842955754E+02 0.  0.
         23    2    1    2    0    0  0.16261607542E+02 -0.21084796289E+02 -0.73149517559E+01  0.93013579742E+02  0.88820093350E+02 0.  0.
        -11    1    3    3    0    0  0.91618732666E+01 -0.53334239602E+02  0.20368734268E+02  0.57821850294E+02  0.00000000000E+00 0.  1.
         12    1    3    3    0    0  0.52445529762E+02 -0.22981388111E+03  0.29581250026E+03  0.37824593700E+03  0.00000000000E+00 0. -1.
        -13    1    4    4    0    0  0.51418506116E+02 -0.16733593994E+02 -0.16282206711E+02  0.56471109379E+02  0.00000000000E+00 0.  1.
         13    1    4    4    0    0 -0.35156898574E+02 -0.43512022956E+01  0.89672549555E+01  0.36542470363E+02  0.00000000000E+00 0. -1.
          1    1    1    2  501    0 -0.77869010570E+02  0.30423291700E+03  0.59816635354E+03  0.67559176808E+03  0.00000000000E+00 0. -1.
<scales pt_clust_5="13000.00000" pt_clust_6="13000.00000" pt_clust_7="13000.00000" pt_clust_8="13000.00000" pt_clust_9="13000.00000"></scales>
<clustering>
<clus scale="   78.843">  5  6 -1 -1</clus>
<clus scale="   88.820">  7  8 -1 -1</clus>
<clus scale="  300.308">  1  5  2 -1</clus>
<clus scale="   43.837">  7  9 -1 -1</clus>
<clus scale="  491.578">  2  5  1 -1</clus>
</clustering>
</event>
<event>
 9    2  0.2147756E-005  0.9785709E+03  0.7546771E-02  0.9819998E-01
         21   -1    0    0  501  502  0.00000000000E+00  0.00000000000E+00  0.29942534585E+03  0.29942534585E+03  0.00000000000E+00 0.  1.
         -3   -1    0    0    0  501 -0.00000000000E+00 -0.00000000000E+00 -0.11458091270E+04  0.11458091270E+04  0.00000000000E+00 0.  1.
         24    2    1    2    0    0 -0.11663204070E+03 -0.11543478867E+03 -0.67420846939E+02  0.19448102586E+03  0.79681085991E+02 0.  0.
         23    2    1    2    0    0 -0.43653198198E+02 -0.25917633588E+03 -0.79490617153E+03  0.84298017754E+03  0.98294371164E+02 0.  0.
        -11    1    3    3    0    0 -0.12713042962E+03 -0.10039142785E+03 -0.50911543395E+02  0.16980156116E+03  0.00000000000E+00 0.  1.
         12    1    3    3    0    0  0.10498388916E+02 -0.15043360824E+02 -0.16509303545E+02  0.24679464707E+02  0.00000000000E+00 0. -1.
        -11    1    4    4    0    0  0.29078258312E+02 -0.69493762701E+02 -0.26387858024E+03  0.27442090531E+03  0.00000000000E+00 0. -1.
         11    1    4    4    0    0 -0.72731456510E+02 -0.18968257317E+03 -0.53102759128E+03  0.56855927223E+03  0.00000000000E+00 0.  1.
         -4    1    1    2    0  502  0.16028523890E+03  0.37461112455E+03  0.15943237341E+02  0.40777326943E+03  0.00000000000E+00 0.  1.
<scales pt_clust_5="13000.00000" pt_clust_6="13000.00000" pt_clust_7="13000.00000" pt_clust_8="13000.00000" pt_clust_9="13000.00000"></scales>
<clustering>
<clus scale="   79.681">  5  6 -1 -1</clus>
<clus scale="   98.294">  7  8 -1 -1</clus>
<clus scale="  182.421">  2  5  1 -1</clus>
<clus scale="  378.305">  7  9 -1 -1</clus>
<clus scale="  978.571">  1  5  2 -1</clus>
</clustering>
</event>
<event>
 9    2  0.2147756E-005  0.1908301E+03  0.7546771E-02  0.1195705E+00
         21   -1    0    0  501  502  0.00000000000E+00  0.00000000000E+00  0.19476769067E+03  0.19476769067E+03  0.00000000000E+00 0. -1.
          2   -1    0    0  502    0 -0.00000000000E+00 -0.00000000000E+00 -0.99812535767E+02  0.99812535767E+02  0.00000000000E+00 0. -1.
         24    2    1    2    0    0  0.88240369023E+01  0.13546152600E+01  0.59792763993E+02  0.10053760613E+03  0.80330174969E+02 0.  0.
         23    2    1    2    0    0 -0.24915947536E+02 -0.18065539876E+02  0.90507471358E+02  0.13403193360E+03  0.93945668774E+02 0.  0.
        -11    1    3    3    0    0  0.15174366222E+02  0.38975725145E+02  0.38486981019E+02  0.56838510262E+02  0.00000000000E+00 0.  1.
         12    1    3    3    0    0 -0.63503293201E+01 -0.37621109885E+02  0.21305782974E+02  0.43699095867E+02  0.00000000000E+00 0. -1.
        -11    1    4    4    0    0 -0.19973583086E+02  0.34929659609E+02  0.61281548187E+02  0.73310662866E+02  0.00000000000E+00 0. -1.
         11    1    4    4    0    0 -0.49423644500E+01 -0.52995199485E+02  0.29225923171E+02  0.60721270738E+02  0.00000000000E+00 0.  1.
          1    1    1    2  501    0  0.16091910633E+02  0.16710924616E+02 -0.55345080446E+02  0.60010686706E+02  0.00000000000E+00 0. -1.
<scales pt_clust_5="13000.00000" pt_clust_6="13000.00000" pt_clust_7="13000.00000" pt_clust_8="13000.00000" pt_clust_9="13000.00000"></scales>
<clustering>
<clus scale="   80.330">  5  6 -1 -1</clus>
<clus scale="   80.825">  2  5  1 -1</clus>
<clus scale="   93.946">  7  8 -1 -1</clus>
<clus scale="   28.623">  7  9 -1 -1</clus>
<clus scale="  190.830">  1  5  2 -1</clus>
</clustering>
</event>
<event>
 9    2  0.2147756E-005  0.5961747E+03  0.7546771E-02  0.1017440E+00
         21   -1    0    0  501  502  0.00000000000E+00  0.00000000000E+00  0.28513828819E+03  0.28513828819E+03  0.00000000000E+00 0.  1.
         -3   -1    0    0    0  501 -0.00000000000E+00 -0.00000000000E+00 -0.66631604286E+03  0.66631604286E+03  0.00000000000E+00 0.  1.
         24    2    1    2    0    0 -0.37645898248E+02  0.24853600310E+03 -0.19111503203E+03  0.32571632452E+03  0.79867453328E+02 0.  0.
         23    2    1    2    0    0 -0.19888104492E+03  0.10827984776E+02 -0.14468645752E+03  0.27179778772E+03  0.11519093340E+03 0.  0.
        -13    1    3    3    0    0  0.13534510614E+02  0.11168505887E+03 -0.11536465622E+03  0.16113888189E+03  0.00000000000E+00 0.  1.
         14    1    3    3    0    0 -0.51180408861E+02  0.13685094424E+03 -0.75750375810E+02  0.16457744264E+03  0.00000000000E+00 0. -1.
        -13    1    4    4    0    0 -0.13256239491E+03  0.59114448362E+02 -0.71231533872E+02  0.16168252215E+03  0.00000000000E+00 0.  1.
         13    1    4    4    0    0 -0.66318650005E+02 -0.48286463586E+02 -0.73454923650E+02  0.11011526557E+03  0.00000000000E+00 0. -1.
         -4    1    1    2    0  502  0.23652694316E+03 -0.25936398788E+03 -0.45376265130E+02  0.35394021881E+03  0.00000000000E+00 0.  1.
<scales pt_clust_5="13000.00000" pt_clust_6="13000.00000" pt_clust_7="13000.00000" pt_clust_8="13000.00000" pt_clust_9="13000.00000"></scales>
<clustering>
<clus scale="   79.867">  5  6 -1 -1</clus>
<clus scale="  115.191">  7  8 -1 -1</clus>
<clus scale="  263.754">  2  5  1 -1</clus>
<clus scale="  257.938">  7  9 -1 -1</clus>
<clus scale="  596.175">  1  5  2 -1</clus>
</clustering>
</event>
<event>
 9    2  0.2147756E-005  0.2130674E+03  0.7546771E-02  0.1176583E+00
         21   -1    0    0  501  502  0.00000000000E+00  0.00000000000E+00  0.37157912621E+02  0.37157912621E+02  0.00000000000E+00 0. -1.
          2   -1    0    0  502    0 -0.00000000000E+00 -0.00000000000E+00 -0.69805499242E+03  0.69805499242E+03  0.00000000000E+00 0. -1.
         24    2    1    2    0    0  0.98914863533E+01 -0.37849067178E+02 -0.92808317039E+02  0.12848187590E+03  0.79773525271E+02 0.  0.
         23    2    1    2    0    0  0.47435740582E+02  0.27512890579E+02 -0.52103367241E+03  0.53184826061E+03  0.91538931054E+02 0.  0.
        -13    1    3    3    0    0 -0.34744366745E+02 -0.21976632235E+02 -0.37351878619E+02  0.55545532865E+02  0.00000000000E+00 0.  1.
         14    1    3    3    0    0  0.44635853098E+02 -0.15872434943E+02 -0.55456438420E+02  0.72936343033E+02  0.00000000000E+00 0. -1.
        -11    1    4    4    0    0  0.65558126967E+02  0.45591817158E+02 -0.42645050669E+03  0.43386232431E+03  0.00000000000E+00 0. -1.
         11    1    4    4    0    0 -0.18122386385E+02 -0.18078926580E+02 -0.94583165720E+02  0.97985936298E+02  0.00000000000E+00 0.  1.
          1    1    1    2  501    0 -0.57327226935E+02  0.10336176599E+02 -0.47055090348E+02  0.74882768528E+02  0.00000000000E+00 0. -1.
<scales pt_clust_5="13000.00000" pt_clust_6="13000.00000" pt_clust_7="13000.00000" pt_clust_8="13000.00000" pt_clust_9="13000.00000"></scales>
<clustering>
<clus scale="   79.774">  5  6 -1 -1</clus>
<clus scale="   88.849">  2  5  1 -1</clus>
<clus scale="   91.539">  7  8 -1 -1</clus>
<clus scale="   56.664">  7  9 -1 -1</clus>
<clus scale="  213.067">  1  5  2 -1</clus>
</clustering>
</event>
<event>
 9    2  0.2147756E-005  0.4708684E+03  0.7546771E-02  0.1035412E+00
         21   -1    0    0  501  502  0.00000000000E+00  0.00000000000E+00  0.72254087200E+02  0.72254087200E+02  0.00000000000E+00 0. -1.
          2   -1    0    0  502    0 -0.00000000000E+00 -0.00000000000E+00 -0.21345827283E+04  0.21345827283E+04  0.00000000000E+00 0. -1.
         24    2    1    2    0    0  0.17049545539E+03  0.24982523920E+03 -0.89551974992E+03  0.94859992923E+03  0.80030324239E+02 0.  0.
         23    2    1    2    0    0 -0.22195992467E+03 -0.99629339333E+02 -0.97832902488E+03  0.10117981313E+04  0.86113670476E+02 0.  0.
        -13    1    3    3    0    0  0.22774079271E+02  0.69162617261E+01 -0.34947202137E+02  0.42282387588E+02  0.00000000000E+00 0.  1.
         14    1    3    3    0    0  0.14772137612E+03  0.24290897747E+03 -0.86057254778E+03  0.90631754164E+03  0.00000000000E+00 0. -1.
        -13    1    4    4    0    0 -0.77817281089E+02 -0.41252962854E+02 -0.52986464761E+03  0.53713488154E+03  0.00000000000E+00 0.  1.
         13    1    4    4    0    0 -0.14414264358E+03 -0.58376376479E+02 -0.44846437727E+03  0.47466324980E+03  0.00000000000E+00 0. -1.
          1    1    1    2  501    0  0.51464469278E+02 -0.15019589987E+03 -0.18847986636E+03  0.24643875498E+03  0.00000000000E+00 0. -1.
<scales pt_clust_5="13000.00000" pt_clust_6="13000.00000" pt_clust_7="13000.00000" pt_clust_8="13000.00000" pt_clust_9="13000.00000"></scales>
<clustering>
<clus scale="   80.030">  5  6 -1 -1</clus>
<clus scale="   86.114">  7  8 -1 -1</clus>
<clus scale="  158.768">  7  9 -1 -1</clus>
<clus scale="  312.868">  2  5  1 -1</clus>
<clus scale="  470.868">  1  5  2 -1</clus>
</clustering>
</event>
<event>
 9    2  0.2147756E-005  0.2143104E+03  0.7546771E-02  0.1176839E+00
         21   -1    0    0  501  502  0.00000000000E+00  0.00000000000E+00  0.43553220043E+02  0.43553220043E+02  0.00000000000E+00 0. -1.
          2   -1    0    0  502    0 -0.00000000000E+00 -0.00000000000E+00 -0.80711142394E+03  0.80711142394E+03  0.00000000000E+00 0. -1.
         24    2    1    2    0    0 -0.40230769546E+01 -0.31330294085E+02 -0.51590534555E+03  0.52315754462E+03  0.80856159042E+02 0.  0.
         23    2    1    2    0    0  0.33269851581E+02 -0.63018727573E+02 -0.13494468440E+03  0.17763967732E+03  0.90926036213E+02 0.  0.
        -11    1    3    3    0    0  0.19967563859E+02  0.16990377106E+02 -0.86769106150E+02  0.90643556322E+02  0.00000000000E+00 0.  1.
         12    1    3    3    0    0 -0.23990640814E+02 -0.48320671191E+02 -0.42913623940E+03  0.43251398830E+03  0.00000000000E+00 0. -1.
        -13    1    4    4    0    0  0.23292210791E+02 -0.86430239129E+02 -0.97431499713E+02  0.13230876938E+03  0.00000000000E+00 0. -1.
         13    1    4    4    0    0  0.99776407904E+01  0.23411511555E+02 -0.37513184686E+02  0.45330907936E+02  0.00000000000E+00 0.  1.
          1    1    1    2  501    0 -0.29246774627E+02  0.94349021659E+02 -0.11270817395E+03  0.14986742204E+03  0.00000000000E+00 0. -1.
<scales pt_clust_5="13000.00000" pt_clust_6="13000.00000" pt_clust_7="13000.00000" pt_clust_8="13000.00000" pt_clust_9="13000.00000"></scales>
<clustering>
<clus scale="   80.856">  5  6 -1 -1</clus>
<clus scale="   86.807">  2  5  1 -1</clus>
<clus scale="   90.926">  7  8 -1 -1</clus>
<clus scale="   85.869">  7  9 -1 -1</clus>
<clus scale="  214.310">  1  5  2 -1</clus>
</clustering>
</event>
<event>
 9    2  0.2147756E-005  0.3150937E+03  0.7546771E-02  0.1093522E+00
         21   -1    0    0  501  502  0.00000000000E+00  0.00000000000E+00  0.63717895734E+03  0.63717895734E+03  0.00000000000E+00 0.  1.
         -3   -1    0    0    0  501 -0.00000000000E+00 -0.00000000000E+00 -0.17737604522E+03  0.17737604522E+03  0.00000000000E+00 0.  1.
         24    2    1    2    0    0  0.70860510670E+02 -0.17410221504E+03 -0.51240673410E+02  0.21418047466E+03  0.88965588071E+02 0.  0.
         23    2    1    2    0    0 -0.77476644286E+02 -0.19880590335E+02  0.19560443263E+03  0.23000314511E+03  0.90788129268E+02 0.  0.
        -13    1    3    3    0    0  0.34466938343E+02 -0.15240045221E+03 -0.65570470421E+02  0.16945015274E+03  0.00000000000E+00 0.  1.
         14    1    3    3    0    0  0.36393572327E+02 -0.21701762823E+02  0.14329797010E+02  0.44730321917E+02  0.00000000000E+00 0. -1.
        -13    1    4    4    0    0 -0.85236849814E+02 -0.14081917176E+01  0.19140600966E+03  0.20953177349E+03  0.00000000000E+00 0.  1.
         13    1    4    4    0    0  0.77602055279E+01 -0.18472398618E+02  0.41984229699E+01  0.20471371619E+02  0.00000000000E+00 0. -1.
         -4    1    1    2    0  502  0.66161336162E+01  0.19398280537E+03  0.31543915290E+03  0.37037138278E+03  0.00000000000E+00 0.  1.
<scales pt_clust_5="13000.00000" pt_clust_6="13000.00000" pt_clust_7="13000.00000" pt_clust_8="13000.00000" pt_clust_9="13000.00000"></scales>
<clustering>
<clus scale="   88.966">  5  6 -1 -1</clus>
<clus scale="   90.788">  7  8 -1 -1</clus>
<clus scale="  194.096">  7  9 -1 -1</clus>
<clus scale="  207.961">  2  5  1 -1</clus>
<clus scale="  315.094">  1  5  2 -1</clus>
</clustering>
</event>
<event>
 9    2  0.2147756E-005  0.3609287E+03  0.7546771E-02  0.1103571E+00
          2   -1    0    0  502    0 -0.00000000000E+00  0.00000000000E+00  0.94662671093E+03  0.94662671093E+03  0.00000000000E+00 0. -1.
         21   -1    0    0  501  502  0.00000000000E+00 -0.00000000000E+00 -0.59541619267E+02  0.59541619267E+02  0.00000000000E+00 0. -1.
         24    2    1    2    0    0  0.58501210307E+02  0.40277446454E+02  0.13508924012E+03  0.17204165312E+03  0.79401280305E+02 0.  0.
         23    2    1    2    0    0  0.87005884090E+02  0.97444708438E+02  0.31986167490E+03  0.35780782054E+03  0.93002420920E+02 0.  0.
        -11    1    3    3    0    0  0.64641313518E+02  0.44964335483E+02  0.14154603506E+03  0.16197398223E+03  0.00000000000E+00 0.  1.
         12    1    3    3    0    0 -0.61401032110E+01 -0.46868890289E+01 -0.64567949449E+01  0.10067670891E+02  0.00000000000E+00 0. -1.
        -11    1    4    4    0    0  0.52936775586E+02  0.56822747976E+02  0.28241811780E+03  0.29290121229E+03  0.00000000000E+00 0.  1.
         11    1    4    4    0    0  0.34069108504E+02  0.40621960462E+02  0.37443557101E+02  0.64906608250E+02  0.00000000000E+00 0. -1.
          1    1    1    2  501    0 -0.14550709440E+03 -0.13772215489E+03  0.43213417664E+03  0.47631885653E+03  0.00000000000E+00 0. -1.
<scales pt_clust_5="13000.00000" pt_clust_6="13000.00000" pt_clust_7="13000.00000" pt_clust_8="13000.00000" pt_clust_9="13000.00000"></scales>
<clustering>
<clus scale="   79.401">  5  6 -1 -1</clus>
<clus scale="   93.002">  7  8 -1 -1</clus>
<clus scale="  106.533">  1  5  2 -1</clus>
<clus scale="  160.279">  7  9 -1 -1</clus>
<clus scale="  360.929">  2  5  1 -1</clus>
</clustering>
</event>
<event>
 9    2  0.2147756E-005  0.2253207E+03  0.7546771E-02  0.1161242E+00
         -1   -1    0    0    0  501 -0.00000000000E+00  0.00000000000E+00  0.23632145768E+03  0.23632145768E+03  0.00000000000E+00 0.  1.
         21   -1    0    0  501  502  0.00000000000E+00 -0.00000000000E+00 -0.11692488743E+03  0.11692488743E+03  0.00000000000E+00 0.  1.
         24    2    1    2    0    0  0.63858486396E+02  0.30176221234E+02  0.30818293209E+02  0.11113990275E+03  0.80086204637E+02 0.  0.
         23    2    1    2    0    0 -0.16984554598E+02 -0.47325735672E+02  0.13712864885E+03  0.17247591796E+03  0.91735901306E+02 0.  0.
        -13    1    3    3    0    0  0.33851208531E+02 -0.20619610455E+02 -0.81088216831E+01  0.40457701904E+02  0.00000000000E+00 0.  1.
         14    1    3    3    0    0  0.30007277865E+02  0.50795831689E+02  0.38927114892E+02  0.70682200841E+02  0.00000000000E+00 0. -1.
        -13    1    4    4    0    0 -0.42452624158E+02 -0.53927617901E+01  0.10615367222E+03  0.11445483522E+03  0.00000000000E+00 0. -1.
         13    1    4    4    0    0  0.25468069560E+02 -0.41932973881E+02  0.30974976626E+02  0.58021082743E+02  0.00000000000E+00 0.  1.
         -2    1    1    2    0  502 -0.46873931797E+02  0.17149514437E+02 -0.48550371806E+02  0.69630524413E+02  0.00000000000E+00 0.  1.
<scales pt_clust_5="13000.00000" pt_clust_6="13000.00000" pt_clust_7="13000.00000" pt_clust_8="13000.00000" pt_clust_9="13000.00000"></scales>
<clustering>
<clus scale="   80.086">  5  6 -1 -1</clus>
<clus scale="   91.736">  7  8 -1 -1</clus>
<clus scale="   49.913">  7  9 -1 -1</clus>
<clus scale="  106.782">  1  5  2 -1</clus>
<clus scale="  225.321">  2  5  1 -1</clus>
</clustering>
</event>
<event>
 9    2  0.2147756E-005  0.2387151E+03  0.7546771E-02  0.1156457E+00
          2   -1    0    0  502    0 -0.00000000000E+00  0.00000000000E+00  0.24129636190E+03  0.24129636190E+03  0.00000000000E+00 0. -1.
         21   -1    0    0  501  502  0.00000000000E+00 -0.00000000000E+00 -0.16968370293E+03  0.16968370293E+03  0.00000000000E+00 0. -1.
         24    2    1    2    0    0  0.32792539561E+02  0.53598810485E+02  0.13094192033E+03  0.16500274498E+03  0.78306680537E+02 0.  0.
         23    2    1    2    0    0 -0.22302702851E+02  0.66857626913E+02 -0.45776369525E+02  0.12430780492E+03  0.91594768006E+02 0.  0.
        -11    1    3    3    0    0  0.40340139841E+02 -0.29538536206E+01  0.35548232113E+02  0.53849131283E+02  0.00000000000E+00 0.  1.
         12    1    3    3    0    0 -0.75476002803E+01  0.56552664106E+02  0.95393688214E+02  0.11115361370E+03  0.00000000000E+00 0. -1.
        -11    1    4    4    0    0  0.26531673645E+02  0.50680359268E+02 -0.45122935778E+02  0.72859507651E+02  0.00000000000E+00 0. -1.
         11    1    4    4    0    0 -0.48834376496E+02  0.16177267645E+02 -0.65343374759E+00  0.51448297269E+02  0.00000000000E+00 0.  1.
          1    1    1    2  501    0 -0.10489836710E+02 -0.12045643740E+03 -0.13552891835E+02  0.12166951492E+03  0.00000000000E+00 0. -1.
<scales pt_clust_5="13000.00000" pt_clust_6="13000.00000" pt_clust_7="13000.00000" pt_clust_8="13000.00000" pt_clust_9="13000.00000"></scales>
<clustering>
<clus scale="   78.307">  5  6 -1 -1</clus>
<clus scale="   91.595">  7  8 -1 -1</clus>
<clus scale="  100.400">  1  5  2 -1</clus>
<clus scale="   89.813">  7  9 -1 -1</clus>
<clus scale="  238.715">  2  5  1 -1</clus>
</clustering>
</event>
<event>
 9    2  0.2147756E-005  0.1513055E+03  0.7546771E-02  0.1221876E+00
          2   -1    0    0  502    0 -0.00000000000E+00  0.00000000000E+00  0.39946717884E+03  0.39946717884E+03  0.00000000000E+00 0. -1.
         21   -1    0    0  501  502  0.00000000000E+00 -0.00000000000E+00 -0.28119279624E+03  0.28119279624E+03  0.00000000000E+00 0.  1.
         24    2    1    2    0    0  0.55328188714E+01 -0.38281065143E+02  0.37303218650E+03  0.38435796425E+03  0.84154503655E+02 0.  0.
         23    2    1    2    0    0  0.10216799616E+02  0.88564285153E+01 -0.88920242271E+02  0.12713949558E+03  0.89860016306E+02 0.  0.
        -11    1    3    3    0    0 -0.38460956324E+02 -0.14762166180E+02  0.20399989223E+03  0.20811805002E+03  0.00000000000E+00 0.  1.
         12    1    3    3    0    0  0.43993775195E+02 -0.23518898962E+02  0.16903229427E+03  0.17623991423E+03  0.00000000000E+00 0. -1.
        -13    1    4    4    0    0 -0.38234677183E+02  0.16818106028E+02 -0.40730597672E+02  0.58341415961E+02  0.00000000000E+00 0.  1.
         13    1    4    4    0    0  0.48451476799E+02 -0.79616775126E+01 -0.48189644600E+02  0.68798079620E+02  0.00000000000E+00 0. -1.
          1    1    1    2  501    0 -0.15749618488E+02  0.29424636627E+02 -0.16583756162E+03  0.16916251526E+03  0.00000000000E+00 0. -1.
<scales pt_clust_5="13000.00000" pt_clust_6="13000.00000" pt_clust_7="13000.00000" pt_clust_8="13000.00000" pt_clust_9="13000.00000"></scales>
<clustering>
<clus scale="   84.155">  5  6 -1 -1</clus>
<clus scale="   89.860">  7  8 -1 -1</clus>
<clus scale="   33.375">  7  9 -1 -1</clus>
<clus scale="   92.618">  1  5  2 -1</clus>
<clus scale="  151.305">  2  5  1 -1</clus>
</clustering>
</event>
<event>
 9    2  0.2147756E-005  0.4181321E+03  0.7546771E-02  0.1066109E+00
          2   -1    0    0  502    0 -0.00000000000E+00  0.00000000000E+00  0.91510741103E+03  0.91510741103E+03  0.00000000000E+00 0. -1.
         21   -1    0    0  501  502  0.00000000000E+00 -0.00000000000E+00 -0.99840063331E+02  0.99840063331E+02  0.00000000000E+00 0. -1.
         24    2    1    2    0    0 -0.16075164126E+03  0.45093275181E+02  0.25964057900E+03  0.31956589841E+03  0.82671878682E+02 0.  0.
         23    2    1    2    0    0  0.41585225977E+02  0.14211846060E+03  0.13871449923E+03  0.22308430836E+03  0.92724907528E+02 0.  0.
        -11    1    3    3    0    0 -0.16215867368E+03  0.26322821722E+02  0.24786111228E+03  0.29736082017E+03  0.00000000000E+00 0.  1.
         12    1    3    3    0    0  0.14070324138E+01  0.18770453459E+02  0.11779466727E+02  0.22205078240E+02  0.00000000000E+00 0. -1.
        -13    1    4    4    0    0  0.47115074323E+02  0.35972411336E+02  0.85974083764E+02  0.10442886423E+03  0.00000000000E+00 0.  1.
         13    1    4    4    0    0 -0.55298483466E+01  0.10614604926E+03  0.52740415466E+02  0.11865544413E+03  0.00000000000E+00 0. -1.
          1    1    1    2  501    0  0.11916641529E+03 -0.18721173578E+03  0.41691226947E+03  0.47229726760E+03  0.00000000000E+00 0. -1.
<scales pt_clust_5="13000.00000" pt_clust_6="13000.00000" pt_clust_7="13000.00000" pt_clust_8="13000.00000" pt_clust_9="13000.00000"></scales>
<clustering>
<clus scale="   82.672">  5  6 -1 -1</clus>
<clus scale="   92.725">  7  8 -1 -1</clus>
<clus scale="  186.304">  1  5  2 -1</clus>
<clus scale="  155.237">  7  9 -1 -1</clus>
<clus scale="  418.132">  2  5  1 -1</clus>
</clustering>
</event>
<event>
 9    2  0.2147756E-005  0.4111291E+03  0.7546771E-02  0.1057295E+00
          2   -1    0    0  502    0 -0.00000000000E+00  0.00000000000E+00  0.84764024686E+03  0.84764024686E+03  0.00000000000E+00 0. -1.
         21   -1    0    0  501  502  0.00000000000E+00 -0.00000000000E+00 -0.14341689379E+03  0.14341689379E+03  0.00000000000E+00 0. -1.
         24    2    1    2    0    0  0.21106199279E+03 -0.10891917146E+03  0.42727189806E+03  0.49534625722E+03  0.79975552234E+02 0.  0.
         23    2    1    2    0    0  0.93710955681E+01 -0.57958186409E+02  0.17946405698E+03  0.20255121399E+03  0.73298552082E+02 0.  0.
        -13    1    3    3    0    0  0.80803622896E+02 -0.84837412519E+02  0.22254955975E+03  0.25150530527E+03  0.00000000000E+00 0.  1.
         14    1    3    3    0    0  0.13025836990E+03 -0.24081758938E+02  0.20472233832E+03  0.24384095195E+03  0.00000000000E+00 0. -1.
        -11    1    4    4    0    0 -0.10835033457E+02 -0.63168992057E+02  0.88778827010E+02  0.10949611698E+03  0.00000000000E+00 0. -1.
         11    1    4    4    0    0  0.20206129026E+02  0.52108056479E+01  0.90685229970E+02  0.93055097015E+02  0.00000000000E+00 0.  1.
          1    1    1    2  501    0 -0.22043308836E+03  0.16687735787E+03  0.97487398022E+02  0.29315966944E+03  0.00000000000E+00 0. -1.
<scales pt_clust_5="13000.00000" pt_clust_6="13000.00000" pt_clust_7="13000.00000" pt_clust_8="13000.00000" pt_clust_9="13000.00000"></scales>
<clustering>
<clus scale="   73.299">  7  8 -1 -1</clus>
<clus scale="   79.976">  5  6 -1 -1</clus>
<clus scale="  250.613">  1  5  2 -1</clus>
<clus scale="  159.481">  7  9 -1 -1</clus>
<clus scale="  411.129">  2  5  1 -1</clus>
</clustering>
</event>
<event>
 9    2  0.2147756E-005  0.4399242E+03  0.7546771E-02  0.1050440E+00
         -1   -1    0    0    0  501 -0.00000000000E+00  0.00000000000E+00  0.18971377315E+04  0.18971377315E+04  0.00000000000E+00 0.  1.
         21   -1    0    0  501  502  0.00000000000E+00 -0.00000000000E+00 -0.75261340344E+02  0.75261340344E+02  0.00000000000E+00 0.  1.
         24    2    1    2    0    0  0.45163957780E+02 -0.23034406195E+03  0.30674984888E+03  0.39469767071E+03  0.81194898332E+02 0.  0.
         23    2    1    2    0    0 -0.70225259098E+02 -0.15234385575E+02  0.14375327209E+03  0.18428779101E+03  0.90184883203E+02 0.  0.
        -11    1    3    3    0    0  0.67426362765E+02 -0.15089900548E+03  0.21721496259E+03  0.27294535025E+03  0.00000000000E+00 0.  1.
         12    1    3    3    0    0 -0.22262404984E+02 -0.79445056477E+02  0.89534886288E+02  0.12175232046E+03  0.00000000000E+00 0. -1.
        -13    1    4    4    0    0 -0.94562357040E+01  0.23724880853E+02  0.25042018541E+01  0.25662451015E+02  0.00000000000E+00 0. -1.
         13    1    4    4    0    0 -0.60769023394E+02 -0.38959266428E+02  0.14124907024E+03  0.15862533999E+03  0.00000000000E+00 0.  1.
         -2    1    1    2    0  502  0.25061301318E+02  0.24557844753E+03  0.13713732702E+04  0.13934136101E+04  0.00000000000E+00 0.  1.
<scales pt_clust_5="13000.00000" pt_clust_6="13000.00000" pt_clust_7="13000.00000" pt_clust_8="13000.00000" pt_clust_9="13000.00000"></scales>
<clustering>
<clus scale="   81.195">  5  6 -1 -1</clus>
<clus scale="   90.185">  7  8 -1 -1</clus>
<clus scale="  246.854">  7  9 -1 -1</clus>
<clus scale="  248.376">  1  5  2 -1</clus>
<clus scale="  439.924">  2  5  1 -1</clus>
</clustering>
</event>
<event>
 9    2  0.2147756E-005  0.5192901E+03  0.7546771E-02  0.1028926E+00
         21   -1    0    0  501  502  0.00000000000E+00  0.00000000000E+00  0.12949667450E+03  0.12949667450E+03  0.00000000000E+00 0. -1.
          2   -1    0    0  502    0 -0.00000000000E+00 -0.00000000000E+00 -0.12844761685E+04  0.12844761685E+04  0.00000000000E+00 0. -1.
         24    2    1    2    0    0 -0.14035468308E+03  0.23130920892E+03 -0.28845494511E+03  0.40376148453E+03  0.81324620119E+02 0.  0.
         23    2    1    2    0    0 -0.45602647149E+02  0.38924015883E+02 -0.32599418796E+02  0.11408790322E+03  0.91425637087E+02 0.  0.
        -13    1    3    3    0    0 -0.23263348775E+02  0.11346603884E+03 -0.10600798792E+03  0.15701407220E+03  0.00000000000E+00 0.  1.
         14    1    3    3    0    0 -0.11709133430E+03  0.11784317009E+03 -0.18244695719E+03  0.24674741233E+03  0.00000000000E+00 0. -1.
        -11    1    4    4    0    0 -0.20666287815E+02 -0.69513965483E+01 -0.53556183286E+02  0.57824580709E+02  0.00000000000E+00 0.  1.
         11    1    4    4    0    0 -0.24936359334E+02  0.45875412431E+02  0.20956764490E+02  0.56263322515E+02  0.00000000000E+00 0. -1.
          1    1    1    2  501    0  0.18595733022E+03 -0.27023322480E+03 -0.83392513007E+03  0.89612345524E+03  0.00000000000E+00 0. -1.
<scales pt_clust_5="13000.00000" pt_clust_6="13000.00000" pt_clust_7="13000.00000" pt_clust_8="13000.00000" pt_clust_9="13000.00000"></scales>
<clustering>
<clus scale="   81.325">  5  6 -1 -1</clus>
<clus scale="   91.426">  7  8 -1 -1</clus>
<clus scale="  282.519">  2  5  1 -1</clus>
<clus scale="   80.311">  7  9 -1 -1</clus>
<clus scale="  519.290">  1  5  2 -1</clus>
</clustering>
</event>
<event>
 9    2  0.2147756E-005  0.1710358E+03  0.7546771E-02  0.1205378E+00
         21   -1    0    0  501  502  0.00000000000E+00  0.00000000000E+00  0.23670329649E+03  0.23670329649E+03  0.00000000000E+00 0.  1.
          2   -1    0    0  502    0 -0.00000000000E+00 -0.00000000000E+00 -0.79529456359E+02  0.79529456359E+02  0.00000000000E+00 0. -1.
         24    2    1    2    0    0  0.31738884636E+02  0.30215062377E+02  0.11809927271E+02  0.91769151568E+02  0.79760867629E+02 0.  0.
         23    2    1    2    0    0  0.93529667520E+01  0.27251661312E+02  0.10604546258E+03  0.14361247195E+03  0.92459563779E+02 0.  0.
        -13    1    3    3    0    0  0.68830490755E+01  0.55196906057E+02  0.47373737645E+01  0.55825778212E+02  0.00000000000E+00 0.  1.
         14    1    3    3    0    0  0.24855835560E+02 -0.24981843680E+02  0.70725535063E+01  0.35943373355E+02  0.00000000000E+00 0. -1.
        -13    1    4    4    0    0  0.49649992332E+02  0.41483357663E+01  0.62643985112E+02  0.80041234992E+02  0.00000000000E+00 0. -1.
         13    1    4    4    0    0 -0.40297025580E+02  0.23103325546E+02  0.43401477468E+02  0.63571236958E+02  0.00000000000E+00 0.  1.
          1    1    1    2  501    0 -0.41091851388E+02 -0.57466723689E+02  0.39318450282E+02  0.80851129334E+02  0.00000000000E+00 0. -1.
<scales pt_clust_5="13000.00000" pt_clust_6="13000.00000" pt_clust_7="13000.00000" pt_clust_8="13000.00000" pt_clust_9="13000.00000"></scales>
<clustering>
<clus scale="   79.761">  5  6 -1 -1</clus>
<clus scale="   91.006">  2  5  1 -1</clus>
<clus scale="   92.460">  7  8 -1 -1</clus>
<clus scale="   48.243">  7  9 -1 -1</clus>
<clus scale="  171.036">  1  5  2 -1</clus>
</clustering>
</event>
<event>
 9    2  0.2147756E-005  0.1984108E+03  0.7546771E-02  0.1187170E+00
         21   -1    0    0  501  502  0.00000000000E+00  0.00000000000E+00  0.95571106090E+03  0.95571106090E+03  0.00000000000E+00 0.  1.
         -3   -1    0    0    0  501 -0.00000000000E+00 -0.00000000000E+00 -0.34858321538E+02  0.34858321538E+02  0.00000000000E+00 0.  1.
         24    2    1    2    0    0 -0.30569373489E+02 -0.14607638047E+02  0.56095228702E+02  0.10334201184E+03  0.79906364217E+02 0.  0.
         23    2    1    2    0    0 -0.33620611323E+02  0.21168034926E+02  0.52556755156E+03  0.54195469385E+03  0.12615549026E+03 0.  0.
        -13    1    3    3    0    0  0.49738196778E+01 -0.41039689141E+02  0.18697698482E+02  0.45371785236E+02  0.00000000000E+00 0.  1.
         14    1    3    3    0    0 -0.35543193167E+02  0.26432051094E+02  0.37397530220E+02  0.57970226600E+02  0.00000000000E+00 0. -1.
        -13    1    4    4    0    0 -0.66440817168E+02 -0.24487301140E+02  0.21565168241E+03  0.22697942248E+03  0.00000000000E+00 0.  1.
         13    1    4    4    0    0  0.32820205845E+02  0.45655336066E+02  0.30991586915E+03  0.31497527137E+03  0.00000000000E+00 0. -1.
         -4    1    1    2    0  502  0.64189984812E+02 -0.65603968788E+01  0.33918995910E+03  0.34527267676E+03  0.00000000000E+00 0.  1.
<scales pt_clust_5="13000.00000" pt_clust_6="13000.00000" pt_clust_7="13000.00000" pt_clust_8="13000.00000" pt_clust_9="13000.00000"></scales>
<clustering>
<clus scale="   79.906">  5  6 -1 -1</clus>
<clus scale="   86.792">  2  5  1 -1</clus>
<clus scale="  126.155">  7  8 -1 -1</clus>
<clus scale="   56.895">  7  9 -1 -1</clus>
<clus scale="  198.411">  1  5  2 -1</clus>
</clustering>
</event>
<event>
 9    2  0.2147756E-005  0.1336652E+04  0.7546771E-02  0.9602574E-01
         21   -1    0    0  501  502  0.00000000000E+00  0.00000000000E+00  0.33681690231E+03  0.33681690231E+03  0.00000000000E+00 0. -1.
          2   -1    0    0  502    0 -0.00000000000E+00 -0.00000000000E+00 -0.16600564674E+04  0.16600564674E+04  0.00000000000E+00 0. -1.
         24    2    1    2    0    0  0.11732126192E+03  0.42176727727E+02 -0.67256391499E+02  0.16271619420E+03  0.80062368173E+02 0.  0.
         23    2    1    2    0    0 -0.66238390488E+03 -0.29997900279E+03 -0.71964702592E+03  0.10271802483E+04  0.92019459693E+02 0.  0.
        -11    1    3    3    0    0  0.52312264885E+02 -0.21203834960E+02 -0.34721994757E+02  0.66270601282E+02  0.00000000000E+00 0.  1.
         12    1    3    3    0    0  0.65008997032E+02  0.63380562687E+02 -0.32534396742E+02  0.96445592916E+02  0.00000000000E+00 0. -1.
        -13    1    4    4    0    0 -0.51251839082E+02 -0.37172991507E+02 -0.34073039189E+02  0.71899612701E+02  0.00000000000E+00 0.  1.
         13    1    4    4    0    0 -0.61113206580E+03 -0.26280601129E+03 -0.68557398673E+03  0.95528063557E+03  0.00000000000E+00 0. -1.
          1    1    1    2  501    0  0.54506264297E+03  0.25780227507E+03 -0.53633614765E+03  0.80697692722E+03  0.00000000000E+00 0. -1.
<scales pt_clust_5="13000.00000" pt_clust_6="13000.00000" pt_clust_7="13000.00000" pt_clust_8="13000.00000" pt_clust_9="13000.00000"></scales>
<clustering>
<clus scale="   80.062">  5  6 -1 -1</clus>
<clus scale="   92.019">  7  8 -1 -1</clus>
<clus scale="  148.166">  2  5  1 -1</clus>
<clus scale="  656.920">  7  9 -1 -1</clus>
<clus scale=" 1336.652">  1  5  2 -1</clus>
</clustering>
</event>
<event>
 9    2  0.2147756E-005  0.7864398E+03  0.7546771E-02  0.1019412E+00
         21   -1    0    0  501  502  0.00000000000E+00  0.00000000000E+00  0.81727429904E+03  0.81727429904E+03  0.00000000000E+00 0. -1.
          2   -1    0    0  502    0 -0.00000000000E+00 -0.00000000000E+00 -0.24497520057E+03  0.24497520057E+03  0.00000000000E+00 0. -1.
         24    2    1    2    0    0 -0.41505718155E+02  0.44379225342E+02  0.77294834660E+02  0.13299345417E+03  0.89557395589E+02 0.  0.
         23    2    1    2    0    0 -0.27252779386E+03  0.15662271777E+03  0.23560391578E+02  0.32819186212E+03  0.91393282945E+02 0.  0.
        -13    1    3    3    0    0 -0.41685063945E+02  0.94009180920E+01  0.86798076059E+02  0.96746719968E+02  0.00000000000E+00 0.  1.
         14    1    3    3    0    0  0.17934579049E+00  0.34978307250E+02 -0.95032413988E+01  0.36246734199E+02  0.00000000000E+00 0. -1.
        -13    1    4    4    0    0 -0.31665169140E+02  0.48528085131E+02 -0.18563584105E+02  0.60846237665E+02  0.00000000000E+00 0.  1.
         13    1    4    4    0    0 -0.24086262472E+03  0.10809463264E+03  0.42123975682E+02  0.26734562446E+03  0.00000000000E+00 0. -1.
          1    1    1    2  501    0  0.31403351201E+03 -0.20100194311E+03  0.47144387223E+03  0.60106418332E+03  0.00000000000E+00 0. -1.
<scales pt_clust_5="13000.00000" pt_clust_6="13000.00000" pt_clust_7="13000.00000" pt_clust_8="13000.00000" pt_clust_9="13000.00000"></scales>
<clustering>
<clus scale="   89.557">  5  6 -1 -1</clus>
<clus scale="   91.393">  7  8 -1 -1</clus>
<clus scale="  108.226">  2  5  1 -1</clus>
<clus scale="  355.305">  7  9 -1 -1</clus>
<clus scale="  786.440">  1  5  2 -1</clus>
</clustering>
</event>
<event>
 9    2  0.2147756E-005  0.3244302E+03  0.7546771E-02  0.1118162E+00
         21   -1    0    0  501  502  0.00000000000E+00  0.00000000000E+00  0.22444918469E+03  0.22444918469E+03  0.00000000000E+00 0. -1.
          2   -1    0    0  502    0 -0.00000000000E+00 -0.00000000000E+00 -0.20182157007E+03  0.20182157007E+03  0.00000000000E+00 0. -1.
         24    2    1    2    0    0 -0.58247194394E+02  0.17372109755E+02  0.33057380829E+01  0.10126567310E+03  0.80927639239E+02 0.  0.
         23    2    1    2    0    0 -0.40213118833E+02  0.11905554830E+03  0.24965713231E+01  0.15591921573E+03  0.92267277285E+02 0.  0.
        -13    1    3    3    0    0 -0.53607581781E+01  0.41992773131E+02 -0.37723030051E+01  0.42501305786E+02  0.00000000000E+00 0.  1.
         14    1    3    3    0    0 -0.52886436216E+02 -0.24620663376E+02  0.70780410880E+01  0.58764367319E+02  0.00000000000E+00 0. -1.
        -13    1    4    4    0    0  0.30004124628E+02  0.29727096080E+02 -0.89485565539E+00  0.42246283892E+02  0.00000000000E+00 0.  1.
         13    1    4    4    0    0 -0.70217243461E+02  0.89328452217E+02  0.33914269785E+01  0.11367293183E+03  0.00000000000E+00 0. -1.
          1    1    1    2  501    0  0.98460313227E+02 -0.13642765805E+03  0.16825305219E+02  0.16908586593E+03  0.00000000000E+00 0. -1.
<scales pt_clust_5="13000.00000" pt_clust_6="13000.00000" pt_clust_7="13000.00000" pt_clust_8="13000.00000" pt_clust_9="13000.00000"></scales>
<clustering>
<clus scale="   80.928">  5  6 -1 -1</clus>
<clus scale="   92.267">  7  8 -1 -1</clus>
<clus scale="  101.212">  2  5  1 -1</clus>
<clus scale="  145.428">  7  9 -1 -1</clus>
<clus scale="  324.430">  1  5  2 -1</clus>
</clustering>
</event>
<event>
 9    2  0.2147756E-005  0.2892023E+03  0.7546771E-02  0.1129447E+00
         -3   -1    0    0    0  501 -0.00000000000E+00  0.00000000000E+00  0.10709724339E+03  0.10709724339E+03  0.00000000000E+00 0.  1.
         21   -1    0    0  501  502  0.00000000000E+00 -0.00000000000E+00 -0.78466705797E+03  0.78466705797E+03  0.00000000000E+00 0.  1.
         24    2    1    2    0    0 -0.20710956723E+02  0.69512261449E+02  0.42319460576E+02  0.11595600599E+03  0.79962243351E+02 0.  0.
         23    2    1    2    0    0 -0.88246796306E+02  0.39920709037E+02 -0.29249027446E+03  0.32136657990E+03  0.91349646695E+02 0.  0.
        -13    1    3    3    0    0 -0.39068673118E+02  0.76792044544E+02  0.42795026523E+02  0.96201837921E+02  0.00000000000E+00 0.  1.
         14    1    3    3    0    0  0.18357716395E+02 -0.72797830942E+01 -0.47556594666E+00  0.19754168070E+02  0.00000000000E+00 0. -1.
        -11    1    4    4    0    0 -0.72222206967E+02  0.56841065609E+02 -0.28047061079E+03  0.29514524803E+03  0.00000000000E+00 0.  1.
         11    1    4    4    0    0 -0.16024589339E+02 -0.16920356572E+02 -0.12019663673E+02  0.26221331865E+02  0.00000000000E+00 0. -1.
         -4    1    1    2    0  502  0.10895775303E+03 -0.10943297049E+03 -0.42739900069E+03  0.45444171548E+03  0.00000000000E+00 0.  1.
<scales pt_clust_5="13000.00000" pt_clust_6="13000.00000" pt_clust_7="13000.00000" pt_clust_8="13000.00000" pt_clust_9="13000.00000"></scales>
<clustering>
<clus scale="   79.962">  5  6 -1 -1</clus>
<clus scale="   91.350">  7  8 -1 -1</clus>
<clus scale="  107.958">  1  5  2 -1</clus>
<clus scale="  124.650">  7  9 -1 -1</clus>
<clus scale="  289.202">  2  5  1 -1</clus>
</clustering>
</event>
<event>
 9    2  0.2147756E-005  0.4819241E+03  0.7546771E-02  0.1073175E+00
          2   -1    0    0  502    0 -0.00000000000E+00  0.00000000000E+00  0.15561817051E+04  0.15561817051E+04  0.00000000000E+00 0. -1.
         21   -1    0    0  501  502  0.00000000000E+00 -0.00000000000E+00 -0.55273752887E+02  0.55273752887E+02  0.00000000000E+00 0.  1.
         24    2    1    2    0    0  0.75707572062E+01 -0.38521092416E+02  0.34087352534E+03  0.35529833616E+03  0.92200631626E+02 0.  0.
         23    2    1    2    0    0 -0.20991373896E+03  0.62223626442E+02  0.36360661617E+03  0.43408550084E+03  0.91021388801E+02 0.  0.
        -11    1    3    3    0    0  0.25543628224E+02 -0.61690846658E+02  0.27825553658E+03  0.28615447077E+03  0.00000000000E+00 0.  1.
         12    1    3    3    0    0 -0.17972871018E+02  0.23169754242E+02  0.62617988766E+02  0.69143865392E+02  0.00000000000E+00 0. -1.
        -13    1    4    4    0    0 -0.19008016946E+03  0.28398516226E+02  0.33244176382E+03  0.38399801156E+03  0.00000000000E+00 0.  1.
         13    1    4    4    0    0 -0.19833569500E+02  0.33825110217E+02  0.31164852350E+02  0.50087489279E+02  0.00000000000E+00 0. -1.
          1    1    1    2  501    0  0.20234298175E+03 -0.23702534026E+02  0.79642781066E+03  0.82207162095E+03  0.00000000000E+00 0. -1.
<scales pt_clust_5="13000.00000" pt_clust_6="13000.00000" pt_clust_7="13000.00000" pt_clust_8="13000.00000" pt_clust_9="13000.00000"></scales>
<clustering>
<clus scale="   91.021">  7  8 -1 -1</clus>
<clus scale="   92.201">  5  6 -1 -1</clus>
<clus scale="  100.211">  1  5  2 -1</clus>
<clus scale="  213.241">  7  9 -1 -1</clus>
<clus scale="  481.924">  2  5  1 -1</clus>
</clustering>
</event>
<event>
 9    2  0.2147756E-005  0.2566300E+03  0.7546771E-02  0.1151121E+00
          4   -1    0    0  502    0 -0.00000000000E+00  0.00000000000E+00  0.45961132639E+02  0.45961132639E+02  0.00000000000E+00 0. -1.
         21   -1    0    0  501  502  0.00000000000E+00 -0.00000000000E+00 -0.98596108960E+03  0.98596108960E+03  0.00000000000E+00 0.  1.
         24    2    1    2    0    0 -0.14631044079E+02 -0.42712705399E+02 -0.47381865086E+02  0.10314560323E+03  0.79721588498E+02 0.  0.
         23    2    1    2    0    0  0.78830457330E+02 -0.40114769534E+02 -0.68025662483E+03  0.69196583388E+03  0.90797598569E+02 0.  0.
        -11    1    3    3    0    0  0.24143073128E+02  0.72279945993E+01 -0.19254811845E+01  0.25275271785E+02  0.00000000000E+00 0.  1.
         12    1    3    3    0    0 -0.38774117207E+02 -0.49940699999E+02 -0.45456383901E+02  0.77870331442E+02  0.00000000000E+00 0. -1.
        -13    1    4    4    0    0 -0.10298591140E+02  0.17565186939E+02 -0.94922518512E+02  0.97081827817E+02  0.00000000000E+00 0. -1.
         13    1    4    4    0    0  0.89129048470E+02 -0.57679956473E+02 -0.58533410631E+03  0.59488400607E+03  0.00000000000E+00 0.  1.
          3    1    1    2  501    0 -0.64199413251E+02  0.82827474933E+02 -0.21236146705E+03  0.23681078513E+03  0.00000000000E+00 0. -1.
<scales pt_clust_5="13000.00000" pt_clust_6="13000.00000" pt_clust_7="13000.00000" pt_clust_8="13000.00000" pt_clust_9="13000.00000"></scales>
<clustering>
<clus scale="   79.722">  5  6 -1 -1</clus>
<clus scale="   90.798">  7  8 -1 -1</clus>
<clus scale="   91.619">  1  5  2 -1</clus>
<clus scale="   91.651">  7  9 -1 -1</clus>
<clus scale="  256.630">  2  5  1 -1</clus>
</clustering>
</event>
<event>
 9    2  0.2147756E-005  0.4387467E+03  0.7546771E-02  0.1067249E+00
          2   -1    0    0  502    0 -0.00000000000E+00  0.00000000000E+00  0.29556067223E+03  0.29556067223E+03  0.00000000000E+00 0. -1.
         21   -1    0    0  501  502  0.00000000000E+00 -0.00000000000E+00 -0.31663425601E+03  0.31663425601E+03  0.00000000000E+00 0. -1.
         24    2    1    2    0    0  0.31470522539E+01 -0.13655116180E+03 -0.69044826801E+02  0.17083355206E+03  0.75899872689E+02 0.  0.
         23    2    1    2    0    0 -0.14964388264E+03  0.18606952143E+03  0.11425430308E+03  0.27311502910E+03  0.67250389802E+02 0.  0.
        -11    1    3    3    0    0  0.73298528434E+01 -0.13317386376E+03 -0.37099580750E+02  0.13843909717E+03  0.00000000000E+00 0.  1.
         12    1    3    3    0    0 -0.41828005895E+01 -0.33772980421E+01 -0.31945246050E+02  0.32394454897E+02  0.00000000000E+00 0. -1.
        -11    1    4    4    0    0 -0.24862163036E+02  0.43179481770E+02  0.55355215769E+02  0.74476806521E+02  0.00000000000E+00 0.  1.
         11    1    4    4    0    0 -0.12478171961E+03  0.14289003966E+03  0.58899087315E+02  0.19863822258E+03  0.00000000000E+00 0. -1.
          1    1    1    2  501    0  0.14649683039E+03 -0.49518359626E+02 -0.66283060060E+02  0.16824634708E+03  0.00000000000E+00 0. -1.
<scales pt_clust_5="13000.00000" pt_clust_6="13000.00000" pt_clust_7="13000.00000" pt_clust_8="13000.00000" pt_clust_9="13000.00000"></scales>
<clustering>
<clus scale="   67.250">  7  8 -1 -1</clus>
<clus scale="   75.900">  5  6 -1 -1</clus>
<clus scale="  154.640">  7  9 -1 -1</clus>
<clus scale="  156.259">  1  5  2 -1</clus>
<clus scale="  438.747">  2  5  1 -1</clus>
</clustering>
</event>
<event>
 9    2  0.2147756E-005  0.1999592E+03  0.7546771E-02  0.1188629E+00
         -3   -1    0    0    0  501 -0.00000000000E+00  0.00000000000E+00  0.50899895074E+02  0.50899895074E+02  0.00000000000E+00 0.  1.
         21   -1    0    0  501  502  0.00000000000E+00 -0.00000000000E+00 -0.42515198323E+03  0.42515198323E+03  0.00000000000E+00 0.  1.
         24    2    1    2    0    0  0.76999739756E+01 -0.91143432806E+01 -0.17730909437E+03  0.19539152564E+03  0.81221748901E+02 0.  0.
         23    2    1    2    0    0  0.66551938818E+02 -0.13528229673E+02 -0.74160998589E+02  0.13539696771E+03  0.90665934034E+02 0.  0.
        -11    1    3    3    0    0  0.15467716096E+02 -0.31607661157E+02 -0.16478469467E+03  0.16850011894E+03  0.00000000000E+00 0.  1.
         12    1    3    3    0    0 -0.77677421200E+01  0.22493317877E+02 -0.12524399701E+02  0.26891406706E+02  0.00000000000E+00 0. -1.
        -11    1    4    4    0    0  0.15700153994E+02 -0.24645940712E+02  0.14472080308E+02  0.32609175664E+02  0.00000000000E+00 0.  1.
         11    1    4    4    0    0  0.50851784824E+02  0.11117711039E+02 -0.88633078897E+02  0.10278779204E+03  0.00000000000E+00 0. -1.
         -4    1    1    2    0  502 -0.74251912794E+02  0.22642572953E+02 -0.12278199520E+03  0.14526338496E+03  0.00000000000E+00 0.  1.
<scales pt_clust_5="13000.00000" pt_clust_6="13000.00000" pt_clust_7="13000.00000" pt_clust_8="13000.00000" pt_clust_9="13000.00000"></scales>
<clustering>
<clus scale="   81.222">  5  6 -1 -1</clus>
<clus scale="   82.093">  1  5  2 -1</clus>
<clus scale="   90.666">  7  8 -1 -1</clus>
<clus scale="   74.956">  7  9 -1 -1</clus>
<clus scale="  199.959">  2  5  1 -1</clus>
</clustering>
</event>
<event>
 9    2  0.2147756E-005  0.5295046E+03  0.7546771E-02  0.1053903E+00
         21   -1    0    0  501  502  0.00000000000E+00  0.00000000000E+00  0.35424788400E+03  0.35424788400E+03  0.00000000000E+00 0. -1.
          2   -1    0    0  502    0 -0.00000000000E+00 -0.00000000000E+00 -0.54280795279E+03  0.54280795279E+03  0.00000000000E+00 0. -1.
         24    2    1    2    0    0  0.93525083844E+02  0.37834221899E+02 -0.32547116490E+03  0.35013743117E+03  0.80538015068E+02 0.  0.
         23    2    1    2    0    0  0.12578684737E+03 -0.43471841341E+01 -0.12882656177E+03  0.20074560529E+03  0.88663893696E+02 0.  0.
        -11    1    3    3    0    0  0.77720204516E+02 -0.63280667893E+01 -0.15759044196E+03  0.17582725049E+03  0.00000000000E+00 0.  1.
         12    1    3    3    0    0  0.15804879328E+02  0.44162288688E+02 -0.16788072294E+03  0.17431018067E+03  0.00000000000E+00 0. -1.
        -13    1    4    4    0    0  0.98115836230E+02  0.22484406018E+02 -0.12714266456E+03  0.16216511025E+03  0.00000000000E+00 0. -1.
         13    1    4    4    0    0  0.27671011140E+02 -0.26831590152E+02 -0.16838972137E+01  0.38580495038E+02  0.00000000000E+00 0.  1.
          1    1    1    2  501    0 -0.21931193121E+03 -0.33487037765E+02  0.26573765788E+03  0.34617280033E+03  0.00000000000E+00 0. -1.
<scales pt_clust_5="13000.00000" pt_clust_6="13000.00000" pt_clust_7="13000.00000" pt_clust_8="13000.00000" pt_clust_9="13000.00000"></scales>
<clustering>
<clus scale="   80.538">  5  6 -1 -1</clus>
<clus scale="   88.664">  7  8 -1 -1</clus>
<clus scale="  129.092">  2  5  1 -1</clus>
<clus scale="  202.648">  7  9 -1 -1</clus>
<clus scale="  529.505">  1  5  2 -1</clus>
</clustering>
</event>
<event>
 9    2  0.2147756E-005  0.2919408E+03  0.7546771E-02  0.1118015E+00
          2   -1    0    0  502    0 -0.00000000000E+00  0.00000000000E+00  0.89979674440E+03  0.89979674440E+03  0.00000000000E+00 0. -1.
         21   -1    0    0  501  502  0.00000000000E+00 -0.00000000000E+00 -0.51711874529E+02  0.51711874529E+02  0.00000000000E+00 0. -1.
         24    2    1    2    0    0  0.87588709683E+01  0.10893024972E+03  0.28157572270E+03  0.31420015946E+03  0.86569829994E+02 0.  0.
         23    2    1    2    0    0 -0.92525145798E+02  0.23815957695E+02  0.19910401452E+03  0.23777763978E+03  0.88134527490E+02 0.  0.
        -13    1    3    3    0    0  0.28090118759E+02  0.48693343491E+02  0.53831733682E+02  0.77832846687E+02  0.00000000000E+00 0.  1.
         14    1    3    3    0    0 -0.19331247791E+02  0.60236906232E+02  0.22774398902E+03  0.23636731277E+03  0.00000000000E+00 0. -1.
        -13    1    4    4    0    0 -0.15006203132E+02  0.23231970964E+02  0.13316261172E+03  0.13600438143E+03  0.00000000000E+00 0.  1.
         13    1    4    4    0    0 -0.77518942665E+02  0.58398673134E+00  0.65941402799E+02  0.10177325835E+03  0.00000000000E+00 0. -1.
          1    1    1    2  501    0  0.83766274829E+02 -0.13274620742E+03  0.36740513265E+03  0.39953081969E+03  0.00000000000E+00 0. -1.
<scales pt_clust_5="13000.00000" pt_clust_6="13000.00000" pt_clust_7="13000.00000" pt_clust_8="13000.00000" pt_clust_9="13000.00000"></scales>
<clustering>
<clus scale="   86.570">  5  6 -1 -1</clus>
<clus scale="   88.135">  7  8 -1 -1</clus>
<clus scale="  139.416">  1  5  2 -1</clus>
<clus scale="  109.525">  7  9 -1 -1</clus>
<clus scale="  291.941">  2  5  1 -1</clus>
</clustering>
</event>
<event>
 9    2  0.3672185E-005  0.2993424E+03  0.7546771E-02  0.1127226E+00
         21   -1    0    0  501  502  0.00000000000E+00  0.00000000000E+00  0.50560072434E+03  0.50560072434E+03  0.00000000000E+00 0. -1.
          2   -1    0    0  502    0 -0.00000000000E+00 -0.00000000000E+00 -0.13161330588E+03  0.13161330588E+03  0.00000000000E+00 0. -1.
         24    2    1    2    0    0  0.63343612047E+02 -0.12973435071E+01 -0.53051557771E+02  0.11570836679E+03  0.80992975466E+02 0.  0.
         23    2    1    2    0    0  0.45365209620E+02 -0.83036221738E+02  0.10954958800E+03  0.17548648799E+03  0.99203724076E+02 0.  0.
        -11    1    3    3    0    0  0.14131211741E+02  0.22353577930E+02  0.13445317857E+02  0.29667324851E+02  0.00000000000E+00 0.  1.
         12    1    3    3    0    0  0.49212400306E+02 -0.23650921437E+02 -0.66496875629E+02  0.86041041934E+02  0.00000000000E+00 0. -1.
        -13    1    4    4    0    0 -0.20221268765E+02  0.22038357123E+01 -0.21137144226E+01  0.20450535224E+02  0.00000000000E+00 0.  1.
         13    1    4    4    0    0  0.65586478385E+02 -0.85240057450E+02  0.11166330242E+03  0.15503595276E+03  0.00000000000E+00 0. -1.
          1    1    1    2  501    0 -0.10870882167E+03  0.84333565245E+02  0.31748938823E+03  0.34601917544E+03  0.00000000000E+00 0. -1.
<scales pt_clust_5="13000.00000" pt_clust_6="13000.00000" pt_clust_7="13000.00000" pt_clust_8="13000.00000" pt_clust_9="13000.00000"></scales>
<clustering>
<clus scale="   80.993">  5  6 -1 -1</clus>
<clus scale="   99.204">  7  8 -1 -1</clus>
<clus scale="  102.830">  2  5  1 -1</clus>
<clus scale="  122.762">  7  9 -1 -1</clus>
<clus scale="  299.342">  1  5  2 -1</clus>
</clustering>
</event>
<event>
 9    2  0.2147756E-005  0.2819216E+03  0.7546771E-02  0.1129046E+00
         21   -1    0    0  501  502  0.00000000000E+00  0.00000000000E+00  0.32438104612E+03  0.32438104612E+03  0.00000000000E+00 0. -1.
          2   -1    0    0  502    0 -0.00000000000E+00 -0.00000000000E+00 -0.23223022550E+03  0.23223022550E+03  0.00000000000E+00 0. -1.
         24    2    1    2    0    0  0.85970606610E+02  0.46187372810E-01 -0.14602215481E+03  0.18755006423E+03  0.80384137502E+02 0.  0.
         23    2    1    2    0    0 -0.72627060990E+02  0.69947296638E+02  0.17704961134E+02  0.13736467452E+03  0.91587520235E+02 0.  0.
        -13    1    3    3    0    0  0.30690883535E+02 -0.31676617217E+02 -0.24815946034E+02  0.50607999250E+02  0.00000000000E+00 0.  1.
         14    1    3    3    0    0  0.55279723075E+02  0.31722804590E+02 -0.12120620878E+03  0.13694206498E+03  0.00000000000E+00 0. -1.
        -11    1    4    4    0    0  0.19268660706E+02  0.68758907293E+01 -0.96180751527E+01  0.22606780584E+02  0.00000000000E+00 0. -1.
         11    1    4    4    0    0 -0.91895721696E+02  0.63071405909E+02  0.27323036287E+02  0.11475789394E+03  0.00000000000E+00 0.  1.
          1    1    1    2  501    0 -0.13343545620E+02 -0.69993484011E+02  0.22046801429E+03  0.23169653286E+03  0.00000000000E+00 0. -1.
<scales pt_clust_5="13000.00000" pt_clust_6="13000.00000" pt_clust_7="13000.00000" pt_clust_8="13000.00000" pt_clust_9="13000.00000"></scales>
<clustering>
<clus scale="   80.384">  5  6 -1 -1</clus>
<clus scale="   91.588">  7  8 -1 -1</clus>
<clus scale="   71.254">  7  9 -1 -1</clus>
<clus scale="  117.697">  2  5  1 -1</clus>
<clus scale="  281.922">  1  5  2 -1</clus>
</clustering>
</event>
<event>
 9    2  0.2147756E-005  0.1835948E+03  0.7546771E-02  0.1193022E+00
          2   -1    0    0  502    0 -0.00000000000E+00  0.00000000000E+00  0.30481585549E+03  0.30481585549E+03  0.00000000000E+00 0. -1.
         21   -1    0    0  501  502  0.00000000000E+00 -0.00000000000E+00 -0.22105700090E+03  0.22105700090E+03  0.00000000000E+00 0.  1.
         24    2    1    2    0    0 -0.45462540806E+02  0.26553288471E+02  0.25638880524E+03  0.27386460408E+03  0.80589590958E+02 0.  0.
         23    2    1    2    0    0  0.58543013721E+02 -0.75839760716E+02 -0.12387658380E+03  0.18145936219E+03  0.91668633399E+02 0.  0.
        -11    1    3    3    0    0 -0.58391861369E+02  0.29019519789E+02  0.11771937434E+03  0.13457188822E+03  0.00000000000E+00 0.  1.
         12    1    3    3    0    0  0.12929320562E+02 -0.24662313186E+01  0.13866943090E+03  0.13929271586E+03  0.00000000000E+00 0. -1.
        -13    1    4    4    0    0  0.81310493758E+02 -0.69258453740E+02 -0.87648592107E+02  0.13816803360E+03  0.00000000000E+00 0.  1.
         13    1    4    4    0    0 -0.22767480037E+02 -0.65813069768E+01 -0.36227991695E+02  0.43291328589E+02  0.00000000000E+00 0. -1.
          1    1    1    2  501    0 -0.13080472915E+02  0.49286472246E+02 -0.48753366852E+02  0.70548890122E+02  0.00000000000E+00 0. -1.
<scales pt_clust_5="13000.00000" pt_clust_6="13000.00000" pt_clust_7="13000.00000" pt_clust_8="13000.00000" pt_clust_9="13000.00000"></scales>
<clustering>
<clus scale="   80.590">  5  6 -1 -1</clus>
<clus scale="   91.669">  7  8 -1 -1</clus>
<clus scale="   50.993">  7  9 -1 -1</clus>
<clus scale="   96.263">  1  5  2 -1</clus>
<clus scale="  183.595">  2  5  1 -1</clus>
</clustering>
</event>
<event>
 9    2  0.2147756E-005  0.4410788E+03  0.7546771E-02  0.1071675E+00
          2   -1    0    0  502    0 -0.00000000000E+00  0.00000000000E+00  0.30679034952E+03  0.30679034952E+03  0.00000000000E+00 0. -1.
         21   -1    0    0  501  502  0.00000000000E+00 -0.00000000000E+00 -0.37406162063E+03  0.37406162063E+03  0.00000000000E+00 0. -1.
         24    2    1    2    0    0 -0.90738787162E+02  0.62020123431E+02  0.13841342946E+03  0.19417269863E+03  0.80403583446E+02 0.  0.
         23    2    1    2    0    0 -0.50007448229E+02  0.11096566755E+03 -0.21369179741E+03  0.26352528824E+03  0.94695665193E+02 0.  0.
        -11    1    3    3    0    0 -0.12359947931E+02  0.44857751428E+02  0.18894593736E+02  0.50219436959E+02  0.00000000000E+00 0.  1.
         12    1    3    3    0    0 -0.78378839230E+02  0.17162372003E+02  0.11951883572E+03  0.14395326167E+03  0.00000000000E+00 0. -1.
        -13    1    4    4    0    0 -0.32414625799E+02  0.10395186907E+02 -0.96769986819E+01  0.35389435995E+02  0.00000000000E+00 0.  1.
         13    1    4    4    0    0 -0.17592822430E+02  0.10057048065E+03 -0.20401479873E+03  0.22813585224E+03  0.00000000000E+00 0. -1.
          1    1    1    2  501    0  0.14074623539E+03 -0.17298579098E+03  0.80070968437E+01  0.22315398329E+03  0.00000000000E+00 0. -1.
<scales pt_clust_5="13000.00000" pt_clust_6="13000.00000" pt_clust_7="13000.00000" pt_clust_8="13000.00000" pt_clust_9="13000.00000"></scales>
<clustering>
<clus scale="   80.404">  5  6 -1 -1</clus>
<clus scale="   94.696">  7  8 -1 -1</clus>
<clus scale="  136.179">  1  5  2 -1</clus>
<clus scale="  138.725">  7  9 -1 -1</clus>
<clus scale="  441.079">  2  5  1 -1</clus>
</clustering>
</event>
<event>
 9    2  0.2147756E-005  0.2241618E+03  0.7546771E-02  0.1172938E+00
          2   -1    0    0  502    0 -0.00000000000E+00  0.00000000000E+00  0.37319863142E+03  0.37319863142E+03  0.00000000000E+00 0. -1.
         21   -1    0    0  501  502  0.00000000000E+00 -0.00000000000E+00 -0.63151470977E+02  0.63151470977E+02  0.00000000000E+00 0. -1.
         24    2    1    2    0    0  0.12359059878E+02  0.55071903314E+01  0.83550339838E+02  0.11768205539E+03  0.81763875691E+02 0.  0.
         23    2    1    2    0    0  0.70093280253E+02 -0.18389509778E+02  0.56584530858E+02  0.12936794464E+03  0.91011065052E+02 0.  0.
        -11    1    3    3    0    0 -0.27051004073E+02  0.25854359855E+02  0.47864924721E+02  0.60755705604E+02  0.00000000000E+00 0.  1.
         12    1    3    3    0    0  0.39410063951E+02 -0.20347169523E+02  0.35685415117E+02  0.56926349789E+02  0.00000000000E+00 0. -1.
        -11    1    4    4    0    0 -0.55582152562E+01  0.24560185830E+02 -0.72898722747E+00  0.25191822229E+02  0.00000000000E+00 0.  1.
         11    1    4    4    0    0  0.75651495509E+02 -0.42949695608E+02  0.57313518086E+02  0.10417612241E+03  0.00000000000E+00 0. -1.
          1    1    1    2  501    0 -0.82452340131E+02  0.12882319446E+02  0.16991228975E+03  0.18930010236E+03  0.00000000000E+00 0. -1.
<scales pt_clust_5="13000.00000" pt_clust_6="13000.00000" pt_clust_7="13000.00000" pt_clust_8="13000.00000" pt_clust_9="13000.00000"></scales>
<clustering>
<clus scale="   81.764">  5  6 -1 -1</clus>
<clus scale="   82.876">  1  5  2 -1</clus>
<clus scale="   91.011">  7  8 -1 -1</clus>
<clus scale="   76.121">  7  9 -1 -1</clus>
<clus scale="  224.162">  2  5  1 -1</clus>
</clustering>
</event>
<event>
 9    2  0.2147756E-005  0.1999407E+03  0.7546771E-02  0.1189360E+00
         21   -1    0    0  501  502  0.00000000000E+00  0.00000000000E+00  0.55065387974E+02  0.55065387974E+02  0.00000000000E+00 0. -1.
          2   -1    0    0  502    0 -0.00000000000E+00 -0.00000000000E+00 -0.35887764952E+03  0.35887764952E+03  0.00000000000E+00 0. -1.
         24    2    1    2    0    0  0.43187969245E+01  0.13258058605E+02 -0.77455068940E+02  0.11192670850E+03  0.79585628387E+02 0.  0.
         23    2    1    2    0    0  0.21197449977E+02 -0.66437830725E+02 -0.21345267225E+03  0.24163674914E+03  0.89235407811E+02 0.  0.
        -13    1    3    3    0    0  0.12889841190E+01  0.22251034837E+02 -0.91943881704E+02  0.94606804270E+02  0.00000000000E+00 0.  1.
         14    1    3    3    0    0  0.30298128055E+01 -0.89929762324E+01  0.14488812764E+02  0.17319904228E+02  0.00000000000E+00 0. -1.
        -13    1    4    4    0    0 -0.24060842961E+02  0.84292177222E+01 -0.55492067788E+02  0.61068367121E+02  0.00000000000E+00 0.  1.
         13    1    4    4    0    0  0.45258292938E+02 -0.74867048447E+02 -0.15796060446E+03  0.18056838202E+03  0.00000000000E+00 0. -1.
          1    1    1    2  501    0 -0.25516246901E+02  0.53179772121E+02 -0.12904520364E+02  0.60379579864E+02  0.00000000000E+00 0. -1.
<scales pt_clust_5="13000.00000" pt_clust_6="13000.00000" pt_clust_7="13000.00000" pt_clust_8="13000.00000" pt_clust_9="13000.00000"></scales>
<clustering>
<clus scale="   79.586">  5  6 -1 -1</clus>
<clus scale="   80.798">  2  5  1 -1</clus>
<clus scale="   89.235">  7  8 -1 -1</clus>
<clus scale="   60.398">  7  9 -1 -1</clus>
<clus scale="  199.941">  1  5  2 -1</clus>
</clustering>
</event>
<event>
 9    2  0.2147756E-005  0.2313342E+03  0.7546771E-02  0.1151210E+00
          2   -1    0    0  502    0 -0.00000000000E+00  0.00000000000E+00  0.11006758007E+04  0.11006758007E+04  0.00000000000E+00 0. -1.
         21   -1    0    0  501  502  0.00000000000E+00 -0.00000000000E+00 -0.30263925324E+02  0.30263925324E+02  0.00000000000E+00 0.  1.
         24    2    1    2    0    0  0.54191168265E+02 -0.78925919235E+02  0.26429701744E+03  0.29228801904E+03  0.80083638783E+02 0.  0.
         23    2    1    2    0    0 -0.47214957791E+02 -0.22390652543E+02  0.21938442997E+03  0.24319699810E+03  0.91020097851E+02 0.  0.
        -13    1    3    3    0    0  0.56492694371E+02 -0.76182025119E+02  0.14702516575E+03  0.17496149529E+03  0.00000000000E+00 0.  1.
         14    1    3    3    0    0 -0.23015261067E+01 -0.27438941157E+01  0.11727185169E+03  0.11732652375E+03  0.00000000000E+00 0. -1.
        -11    1    4    4    0    0 -0.36476158134E+02  0.27986714170E+02  0.59332748779E+02  0.75060917660E+02  0.00000000000E+00 0. -1.
         11    1    4    4    0    0 -0.10738799657E+02 -0.50377366713E+02  0.16005168119E+03  0.16813608044E+03  0.00000000000E+00 0.  1.
          1    1    1    2  501    0 -0.69762104739E+01  0.10131657178E+03  0.58673042797E+03  0.59545470889E+03  0.00000000000E+00 0. -1.
<scales pt_clust_5="13000.00000" pt_clust_6="13000.00000" pt_clust_7="13000.00000" pt_clust_8="13000.00000" pt_clust_9="13000.00000"></scales>
<clustering>
<clus scale="   80.084">  5  6 -1 -1</clus>
<clus scale="   91.020">  7  8 -1 -1</clus>
<clus scale="  101.557">  7  9 -1 -1</clus>
<clus scale="  124.817">  1  5  2 -1</clus>
<clus scale="  231.334">  2  5  1 -1</clus>
</clustering>
</event>
<event>
 9    2  0.2147756E-005  0.3241342E+03  0.7546771E-02  0.1090885E+00
         21   -1    0    0  501  502  0.00000000000E+00  0.00000000000E+00  0.11288490628E+03  0.11288490628E+03  0.00000000000E+00 0. -1.
          2   -1    0    0  502    0 -0.00000000000E+00 -0.00000000000E+00 -0.78363990761E+03  0.78363990761E+03  0.00000000000E+00 0. -1.
         24    2    1    2    0    0 -0.52857714069E+02 -0.17993824732E+03 -0.74580300231E+02  0.21793272539E+03  0.82223724241E+02 0.  0.
         23    2    1    2    0    0 -0.75604657692E+02  0.87943340948E+02 -0.40225400763E+03  0.42845037044E+03  0.91166538787E+02 0.  0.
        -11    1    3    3    0    0  0.20387240336E+02 -0.20473214121E+02 -0.58979375741E+01  0.29488603436E+02  0.00000000000E+00 0.  1.
         12    1    3    3    0    0 -0.73244954405E+02 -0.15946503320E+03 -0.68682362657E+02  0.18844412196E+03  0.00000000000E+00 0. -1.
        -13    1    4    4    0    0 -0.47550192750E+02 -0.73363466343E+00 -0.80245943275E+02  0.93278992610E+02  0.00000000000E+00 0.  1.
         13    1    4    4    0    0 -0.28054464942E+02  0.88676975611E+02 -0.32200806435E+03  0.33517137783E+03  0.00000000000E+00 0. -1.
          1    1    1    2  501    0  0.12846237176E+03  0.91994906376E+02 -0.19392069347E+03  0.25014171806E+03  0.00000000000E+00 0. -1.
<scales pt_clust_5="13000.00000" pt_clust_6="13000.00000" pt_clust_7="13000.00000" pt_clust_8="13000.00000" pt_clust_9="13000.00000"></scales>
<clustering>
<clus scale="   82.224">  5  6 -1 -1</clus>
<clus scale="   91.167">  7  8 -1 -1</clus>
<clus scale="  158.005">  7  9 -1 -1</clus>
<clus scale="  204.774">  2  5  1 -1</clus>
<clus scale="  324.134">  1  5  2 -1</clus>
</clustering>
</event>
<event>
 9    2  0.2147756E-005  0.2125261E+03  0.7546771E-02  0.1168227E+00
         21   -1    0    0  501  502  0.00000000000E+00  0.00000000000E+00  0.12169800050E+03  0.12169800050E+03  0.00000000000E+00 0.  1.
         -1   -1    0    0    0  501 -0.00000000000E+00 -0.00000000000E+00 -0.21632572277E+03  0.21632572277E+03  0.00000000000E+00 0.  1.
         24    2    1    2    0    0 -0.81835749344E+01  0.42696840274E+02 -0.56336805653E+02  0.12207572509E+03  0.99189999075E+02 0.  0.
         23    2    1    2    0    0  0.59820508331E+02  0.35294901515E+02 -0.45654833949E+02  0.12212203185E+03  0.89471802883E+02 0.  0.
        -13    1    3    3    0    0  0.20980286334E+02 -0.25586355401E+02 -0.10055854932E+02  0.34582570983E+02  0.00000000000E+00 0.  1.
         14    1    3    3    0    0 -0.29163861268E+02  0.68283195675E+02 -0.46280950721E+02  0.87493154105E+02  0.00000000000E+00 0. -1.
        -13    1    4    4    0    0  0.13445800868E+02 -0.29115127950E+02 -0.23380074711E+02  0.39687631953E+02  0.00000000000E+00 0. -1.
         13    1    4    4    0    0  0.46374707463E+02  0.64410029465E+02 -0.22274759238E+02  0.82434399901E+02  0.00000000000E+00 0.  1.
         -2    1    1    2    0  502 -0.51636933397E+02 -0.77991741788E+02  0.73639173351E+01  0.93825966322E+02  0.00000000000E+00 0.  1.
<scales pt_clust_5="13000.00000" pt_clust_6="13000.00000" pt_clust_7="13000.00000" pt_clust_8="13000.00000" pt_clust_9="13000.00000"></scales>
<clustering>
<clus scale="   89.472">  7  8 -1 -1</clus>
<clus scale="   93.537">  7  9 -1 -1</clus>
<clus scale="   99.190">  5  6 -1 -1</clus>
<clus scale="  108.299">  2  5  1 -1</clus>
<clus scale="  212.526">  1  5  2 -1</clus>
</clustering>
</event>
<event>
 9    2  0.2147756E-005  0.1860954E+03  0.7546771E-02  0.1193148E+00
         21   -1    0    0  501  502  0.00000000000E+00  0.00000000000E+00  0.99739209335E+02  0.99739209335E+02  0.00000000000E+00 0.  1.
          4   -1    0    0  502    0 -0.00000000000E+00 -0.00000000000E+00 -0.21361353918E+03  0.21361353918E+03  0.00000000000E+00 0. -1.
         24    2    1    2    0    0  0.36831414727E+02  0.21835258308E+02  0.53619181741E+01  0.92335107452E+02  0.81631429521E+02 0.  0.
         23    2    1    2    0    0  0.53683512721E+01  0.14114560305E+02 -0.67675795817E+01  0.95628602114E+02  0.94185929951E+02 0.  0.
        -11    1    3    3    0    0  0.35744544730E+02  0.40645958560E+02  0.29554772556E+02  0.61670503533E+02  0.00000000000E+00 0.  1.
         12    1    3    3    0    0  0.10868699969E+01 -0.18810700252E+02 -0.24192854382E+02  0.30664603919E+02  0.00000000000E+00 0. -1.
        -13    1    4    4    0    0 -0.30535745980E+02  0.36852515313E+02  0.11734682117E+02  0.49277199919E+02  0.00000000000E+00 0.  1.
         13    1    4    4    0    0  0.35904097252E+02 -0.22737955008E+02 -0.18502261698E+02  0.46351402195E+02  0.00000000000E+00 0. -1.
          3    1    1    2  501    0 -0.42199765999E+02 -0.35949818613E+02 -0.11246866844E+03  0.12538903895E+03  0.00000000000E+00 0. -1.
<scales pt_clust_5="13000.00000" pt_clust_6="13000.00000" pt_clust_7="13000.00000" pt_clust_8="13000.00000" pt_clust_9="13000.00000"></scales>
<clustering>
<clus scale="   81.631">  5  6 -1 -1</clus>
<clus scale="   92.179">  2  5  1 -1</clus>
<clus scale="   94.186">  7  8 -1 -1</clus>
<clus scale="   26.431">  7  9 -1 -1</clus>
<clus scale="  186.095">  1  5  2 -1</clus>
</clustering>
</event>
<event>
 9    2  0.2147756E-005  0.1194361E+03  0.7546771E-02  0.1262961E+00
          2   -1    0    0  502    0 -0.00000000000E+00  0.00000000000E+00  0.90325719644E+02  0.90325719644E+02  0.00000000000E+00 0. -1.
         21   -1    0    0  501  502  0.00000000000E+00 -0.00000000000E+00 -0.22683394503E+03  0.22683394503E+03  0.00000000000E+00 0. -1.
         24    2    1    2    0    0  0.48756350731E+01  0.47741676467E+01  0.49739159617E+02  0.95906263853E+02  0.81715744828E+02 0.  0.
         23    2    1    2    0    0 -0.14639834170E+02  0.17912431899E+02 -0.12951777061E+03  0.15938038140E+03  0.89955950948E+02 0.  0.
        -13    1    3    3    0    0 -0.34965018005E+02  0.18671351180E+02  0.27155455876E+02  0.48047795193E+02  0.00000000000E+00 0.  1.
         14    1    3    3    0    0  0.39840653078E+02 -0.13897183534E+02  0.22583703741E+02  0.47858468661E+02  0.00000000000E+00 0. -1.
        -11    1    4    4    0    0  0.30362925528E+02  0.33306023565E+02 -0.57166764594E+02  0.72795861328E+02  0.00000000000E+00 0. -1.
         11    1    4    4    0    0 -0.45002759698E+02 -0.15393591666E+02 -0.72351006019E+02  0.86584520076E+02  0.00000000000E+00 0.  1.
          1    1    1    2  501    0  0.97641990968E+01 -0.22686599546E+02 -0.56729614391E+02  0.61873019418E+02  0.00000000000E+00 0. -1.
<scales pt_clust_5="13000.00000" pt_clust_6="13000.00000" pt_clust_7="13000.00000" pt_clust_8="13000.00000" pt_clust_9="13000.00000"></scales>
<clustering>
<clus scale="   81.716">  5  6 -1 -1</clus>
<clus scale="   82.000">  1  5  2 -1</clus>
<clus scale="   89.956">  7  8 -1 -1</clus>
<clus scale="   24.355">  7  9 -1 -1</clus>
<clus scale="  119.436">  2  5  1 -1</clus>
</clustering>
</event>
<event>
 9    2  0.2147756E-005  0.1566810E+03  0.7546771E-02  0.1220564E+00
         21   -1    0    0  501  502  0.00000000000E+00  0.00000000000E+00  0.41571526946E+03  0.41571526946E+03  0.00000000000E+00 0. -1.
         -1   -1    0    0    0  501 -0.00000000000E+00 -0.00000000000E+00 -0.24804923418E+03  0.24804923418E+03  0.00000000000E+00 0.  1.
         24    2    1    2    0    0 -0.23289776444E+02 -0.17671679820E+02 -0.22511410017E+03  0.24088725701E+03  0.80595350625E+02 0.  0.
         23    2    1    2    0    0 -0.32008949857E+02 -0.65217895587E+01  0.26003740185E+03  0.27705575845E+03  0.89851746324E+02 0.  0.
        -11    1    3    3    0    0  0.22323716642E+01 -0.37704420986E+02 -0.18726018356E+03  0.19103136704E+03  0.00000000000E+00 0.  1.
         12    1    3    3    0    0 -0.25522148108E+02  0.20032741166E+02 -0.37853916605E+02  0.49855889974E+02  0.00000000000E+00 0. -1.
        -13    1    4    4    0    0 -0.58164575544E+02  0.16309501623E+02  0.15143835110E+03  0.16304199421E+03  0.00000000000E+00 0. -1.
         13    1    4    4    0    0  0.26155625687E+02 -0.22831291181E+02  0.10859905075E+03  0.11401376424E+03  0.00000000000E+00 0.  1.
         -2    1    1    2    0  502  0.55298726302E+02  0.24193469379E+02  0.13274273359E+03  0.14582148817E+03  0.00000000000E+00 0.  1.
<scales pt_clust_5="13000.00000" pt_clust_6="13000.00000" pt_clust_7="13000.00000" pt_clust_8="13000.00000" pt_clust_9="13000.00000"></scales>
<clustering>
<clus scale="   80.595">  5  6 -1 -1</clus>
<clus scale="   85.734">  2  5  1 -1</clus>
<clus scale="   89.852">  7  8 -1 -1</clus>
<clus scale="   48.102">  7  9 -1 -1</clus>
<clus scale="  156.681">  1  5  2 -1</clus>
</clustering>
</event>
<event>
 9    2  0.2147756E-005  0.3773163E+03  0.7546771E-02  0.1084992E+00
          2   -1    0    0  502    0 -0.00000000000E+00  0.00000000000E+00  0.92565954162E+03  0.92565954162E+03  0.00000000000E+00 0. -1.
         21   -1    0    0  501  502  0.00000000000E+00 -0.00000000000E+00 -0.77815801658E+02  0.77815801658E+02  0.00000000000E+00 0. -1.
         24    2    1    2    0    0  0.60422130795E+02  0.11349515892E+03  0.32501386346E+03  0.35871286052E+03  0.80677877239E+02 0.  0.
         23    2    1    2    0    0  0.85669387204E+02 -0.34053150700E+02  0.44093331231E+03  0.45939578800E+03  0.90130145627E+02 0.  0.
        -13    1    3    3    0    0  0.68189301686E+00  0.36719553428E+02  0.28024085989E+02  0.46196752890E+02  0.00000000000E+00 0.  1.
         14    1    3    3    0    0  0.59740237778E+02  0.76775605488E+02  0.29698977747E+03  0.31251610763E+03  0.00000000000E+00 0. -1.
        -13    1    4    4    0    0  0.12536661737E+02  0.20112732874E+02  0.28624221132E+02  0.37162291998E+02  0.00000000000E+00 0.  1.
         13    1    4    4    0    0  0.73132725466E+02 -0.54165883574E+02  0.41230909117E+03  0.42223349600E+03  0.00000000000E+00 0. -1.
          1    1    1    2  501    0 -0.14609151800E+03 -0.79442008215E+02  0.81896564203E+02  0.18536669477E+03  0.00000000000E+00 0. -1.
<scales pt_clust_5="13000.00000" pt_clust_6="13000.00000" pt_clust_7="13000.00000" pt_clust_8="13000.00000" pt_clust_9="13000.00000"></scales>
<clustering>
<clus scale="   80.678">  5  6 -1 -1</clus>
<clus scale="   90.130">  7  8 -1 -1</clus>
<clus scale="  151.792">  1  5  2 -1</clus>
<clus scale="  142.658">  7  9 -1 -1</clus>
<clus scale="  377.316">  2  5  1 -1</clus>
</clustering>
</event>
<event>
 9    2  0.2147756E-005  0.2931218E+03  0.7546771E-02  0.1110954E+00
         21   -1    0    0  501  502  0.00000000000E+00  0.00000000000E+00  0.65671196648E+03  0.65671196648E+03  0.00000000000E+00 0.  1.
          2   -1    0    0  502    0 -0.00000000000E+00 -0.00000000000E+00 -0.57146923041E+03  0.57146923041E+03  0.00000000000E+00 0. -1.
         24    2    1    2    0    0 -0.33093222024E+02 -0.14005263281E+03 -0.52552928672E+03  0.55071321580E+03  0.79963201262E+02 0.  0.
         23    2    1    2    0    0  0.11816887774E+03  0.13170750293E+03  0.49522654799E+03  0.53373814725E+03  0.91193892319E+02 0.  0.
        -13    1    3    3    0    0 -0.43231254421E+02 -0.67119483911E+02 -0.17240347668E+03  0.18999190838E+03  0.00000000000E+00 0.  1.
         14    1    3    3    0    0  0.10138032397E+02 -0.72933148898E+02 -0.35312581004E+03  0.36072130742E+03  0.00000000000E+00 0. -1.
        -11    1    4    4    0    0  0.52077151803E+02  0.93961782836E+02  0.18149017749E+03  0.21090170909E+03  0.00000000000E+00 0. -1.
         11    1    4    4    0    0  0.66091725940E+02  0.37745720089E+02  0.31373637050E+03  0.32283643815E+03  0.00000000000E+00 0.  1.
          1    1    1    2  501    0 -0.85075655719E+02  0.83451298836E+01  0.11554547480E+03  0.14372983384E+03  0.00000000000E+00 0. -1.
<scales pt_clust_5="13000.00000" pt_clust_6="13000.00000" pt_clust_7="13000.00000" pt_clust_8="13000.00000" pt_clust_9="13000.00000"></scales>
<clustering>
<clus scale="   79.963">  5  6 -1 -1</clus>
<clus scale="   91.194">  7  8 -1 -1</clus>
<clus scale="   85.484">  7  9 -1 -1</clus>
<clus scale="  164.633">  2  5  1 -1</clus>
<clus scale="  293.122">  1  5  2 -1</clus>
</clustering>
</event>
<event>
 9    2  0.2147756E-005  0.3621397E+03  0.7546771E-02  0.1097963E+00
         21   -1    0    0  501  502  0.00000000000E+00  0.00000000000E+00  0.10465538916E+03  0.10465538916E+03  0.00000000000E+00 0. -1.
          2   -1    0    0  502    0 -0.00000000000E+00 -0.00000000000E+00 -0.71339424187E+03  0.71339424187E+03  0.00000000000E+00 0. -1.
         24    2    1    2    0    0 -0.78774474096E+02  0.47373864321E+02 -0.35633145141E+03  0.37662620228E+03  0.80159167828E+02 0.  0.
         23    2    1    2    0    0  0.61521472560E+02 -0.17639652020E+03 -0.23209820953E+03  0.30967755571E+03  0.84439242758E+02 0.  0.
        -13    1    3    3    0    0 -0.21414745267E+02  0.23081343509E+01 -0.12006330529E+02  0.24659091058E+02  0.00000000000E+00 0.  1.
         14    1    3    3    0    0 -0.57359728829E+02  0.45065729970E+02 -0.34432512088E+03  0.35196711122E+03  0.00000000000E+00 0. -1.
        -11    1    4    4    0    0  0.82564257259E+02 -0.14979625171E+03 -0.19627535364E+03  0.26034551667E+03  0.00000000000E+00 0. -1.
         11    1    4    4    0    0 -0.21042784699E+02 -0.26600268492E+02 -0.35822855891E+02  0.49332039041E+02  0.00000000000E+00 0.  1.
          1    1    1    2  501    0  0.17253001536E+02  0.12902265588E+03 -0.20309191774E+02  0.13174587304E+03  0.00000000000E+00 0. -1.
<scales pt_clust_5="13000.00000" pt_clust_6="13000.00000" pt_clust_7="13000.00000" pt_clust_8="13000.00000" pt_clust_9="13000.00000"></scales>
<clustering>
<clus scale="   80.159">  5  6 -1 -1</clus>
<clus scale="   84.439">  7  8 -1 -1</clus>
<clus scale="  121.964">  2  5  1 -1</clus>
<clus scale="  139.405">  7  9 -1 -1</clus>
<clus scale="  362.140">  1  5  2 -1</clus>
</clustering>
</event>
<event>
 9    2  0.2147756E-005  0.4499470E+03  0.7546771E-02  0.1085475E+00
         -3   -1    0    0    0  501 -0.00000000000E+00  0.00000000000E+00  0.12065170403E+03  0.12065170403E+03  0.00000000000E+00 0.  1.
         21   -1    0    0  501  502  0.00000000000E+00 -0.00000000000E+00 -0.61330324012E+03  0.61330324012E+03  0.00000000000E+00 0.  1.
         24    2    1    2    0    0  0.37682367244E+02 -0.59479075423E+01 -0.12403191501E+03  0.15229121588E+03  0.79707967522E+02 0.  0.
         23    2    1    2    0    0  0.16940354455E+03  0.31882240468E+02 -0.30788584459E+03  0.36430283922E+03  0.90602578336E+02 0.  0.
        -13    1    3    3    0    0  0.14826958384E+02  0.36553338369E+02 -0.65149552984E+02  0.76160682080E+02  0.00000000000E+00 0.  1.
         14    1    3    3    0    0  0.22855408860E+02 -0.42501245912E+02 -0.58882362031E+02  0.76130533799E+02  0.00000000000E+00 0. -1.
        -11    1    4    4    0    0  0.73250295475E+02  0.59809025958E+02 -0.14562223690E+03  0.17363341053E+03  0.00000000000E+00 0. -1.
         11    1    4    4    0    0  0.96153249072E+02 -0.27926785490E+02 -0.16226360769E+03  0.19066942869E+03  0.00000000000E+00 0.  1.
         -4    1    1    2    0  502 -0.20708591179E+03 -0.25934332925E+02 -0.60733776485E+02  0.21736088906E+03  0.00000000000E+00 0.  1.
<scales pt_clust_5="13000.00000" pt_clust_6="13000.00000" pt_clust_7="13000.00000" pt_clust_8="13000.00000" pt_clust_9="13000.00000"></scales>
<clustering>
<clus scale="   79.708">  5  6 -1 -1</clus>
<clus scale="   88.367">  1  5  2 -1</clus>
<clus scale="   90.603">  7  8 -1 -1</clus>
<clus scale="  181.925">  7  9 -1 -1</clus>
<clus scale="  449.947">  2  5  1 -1</clus>
</clustering>
</event>
<event>
 9    2  0.2147756E-005  0.4698654E+03  0.7546771E-02  0.1031529E+00
         21   -1    0    0  501  502  0.00000000000E+00  0.00000000000E+00  0.18604933726E+03  0.18604933726E+03  0.00000000000E+00 0.  1.
          2   -1    0    0  502    0 -0.00000000000E+00 -0.00000000000E+00 -0.91001683175E+03  0.91001683175E+03  0.00000000000E+00 0. -1.
         24    2    1    2    0    0 -0.28185575356E+03 -0.19671575824E+03 -0.31488324090E+03  0.47307065423E+03  0.80651305851E+02 0.  0.
         23    2    1    2    0    0 -0.18999932675E+02 -0.86148091600E+01 -0.37629906737E+02  0.10275218936E+03  0.93310182504E+02 0.  0.
        -11    1    3    3    0    0 -0.23889780753E+03 -0.12824560840E+03 -0.25759319110E+03  0.37399645803E+03  0.00000000000E+00 0.  1.
         12    1    3    3    0    0 -0.42957946030E+02 -0.68470149841E+02 -0.57290049803E+02  0.99074196201E+02  0.00000000000E+00 0. -1.
        -13    1    4    4    0    0  0.10093105384E+02 -0.43548149312E+02 -0.15772149149E+01  0.44730299481E+02  0.00000000000E+00 0.  1.
         13    1    4    4    0    0 -0.29093038059E+02  0.34933340152E+02 -0.36052691822E+02  0.58021889880E+02  0.00000000000E+00 0. -1.
          1    1    1    2  501    0  0.30085568624E+03  0.20533056740E+03 -0.37145434684E+03  0.52024332542E+03  0.00000000000E+00 0. -1.
<scales pt_clust_5="13000.00000" pt_clust_6="13000.00000" pt_clust_7="13000.00000" pt_clust_8="13000.00000" pt_clust_9="13000.00000"></scales>
<clustering>
<clus scale="   80.651">  5  6 -1 -1</clus>
<clus scale="   93.310">  7  8 -1 -1</clus>
<clus scale="  353.050">  2  5  1 -1</clus>
<clus scale="   67.370">  7  9 -1 -1</clus>
<clus scale="  469.865">  1  5  2 -1</clus>
</clustering>
</event>
<event>
 9    2  0.2147756E-005  0.2991595E+03  0.7546771E-02  0.1134247E+00
          2   -1    0    0  502    0 -0.00000000000E+00  0.00000000000E+00  0.16752841985E+03  0.16752841985E+03  0.00000000000E+00 0. -1.
         21   -1    0    0  501  502  0.00000000000E+00 -0.00000000000E+00 -0.22361761507E+03  0.22361761507E+03  0.00000000000E+00 0. -1.
         24    2    1    2    0    0  0.30706060919E+02 -0.57305830258E+01 -0.25688219935E+02  0.90445829768E+02  0.80900319653E+02 0.  0.
         23    2    1    2    0    0  0.76855966795E+02  0.72599874643E+02 -0.83433557310E+02  0.16339198717E+03  0.92510548355E+02 0.  0.
        -11    1    3    3    0    0  0.51903511391E+02  0.17666106442E+02 -0.20029170235E+02  0.58371512502E+02  0.00000000000E+00 0.  1.
         12    1    3    3    0    0 -0.21197450472E+02 -0.23396689468E+02 -0.56590497002E+01  0.32074317265E+02  0.00000000000E+00 0. -1.
        -13    1    4    4    0    0  0.69845432068E+02  0.94150374746E+02 -0.75224254650E+02  0.13928878610E+03  0.00000000000E+00 0. -1.
         13    1    4    4    0    0  0.70105347266E+01 -0.21550500103E+02 -0.82093026607E+01  0.24103201074E+02  0.00000000000E+00 0.  1.
          1    1    1    2  501    0 -0.10756202771E+03 -0.66869291618E+02  0.53032582030E+02  0.13730821798E+03  0.00000000000E+00 0. -1.
<scales pt_clust_5="13000.00000" pt_clust_6="13000.00000" pt_clust_7="13000.00000" pt_clust_8="13000.00000" pt_clust_9="13000.00000"></scales>
<clustering>
<clus scale="   80.900">  5  6 -1 -1</clus>
<clus scale="   86.721">  1  5  2 -1</clus>
<clus scale="   92.511">  7  8 -1 -1</clus>
<clus scale="  111.414">  7  9 -1 -1</clus>
<clus scale="  299.159">  2  5  1 -1</clus>
</clustering>
</event>
<event>
 9    2  0.2147756E-005  0.2119656E+03  0.7546771E-02  0.1181827E+00
         21   -1    0    0  501  502  0.00000000000E+00  0.00000000000E+00  0.54271259649E+02  0.54271259649E+02  0.00000000000E+00 0. -1.
          2   -1    0    0  502    0 -0.00000000000E+00 -0.00000000000E+00 -0.40236541787E+03  0.40236541787E+03  0.00000000000E+00 0. -1.
         24    2    1    2    0    0 -0.12563813991E+01  0.11737561556E+01 -0.66482732851E+02  0.10416764264E+03  0.80174732973E+02 0.  0.
         23    2    1    2    0    0  0.46793594190E+02  0.34311620099E+02 -0.61074320153E+02  0.12450091331E+03  0.91670481078E+02 0.  0.
        -11    1    3    3    0    0  0.32321486943E+02  0.21532870746E+02 -0.44874885392E+02  0.59347269354E+02  0.00000000000E+00 0.  1.
         12    1    3    3    0    0 -0.33577868343E+02 -0.20359114591E+02 -0.21607847459E+02  0.44820373282E+02  0.00000000000E+00 0. -1.
        -11    1    4    4    0    0  0.27923128197E+02  0.42651597158E+02 -0.81072199077E+02  0.95768268709E+02  0.00000000000E+00 0.  1.
         11    1    4    4    0    0  0.18870465993E+02 -0.83399770585E+01  0.19997878924E+02  0.28732644598E+02  0.00000000000E+00 0. -1.
          1    1    1    2  501    0 -0.45537212791E+02 -0.35485376255E+02 -0.22053710521E+03  0.22796812157E+03  0.00000000000E+00 0. -1.
<scales pt_clust_5="13000.00000" pt_clust_6="13000.00000" pt_clust_7="13000.00000" pt_clust_8="13000.00000" pt_clust_9="13000.00000"></scales>
<clustering>
<clus scale="   80.175">  5  6 -1 -1</clus>
<clus scale="   80.193">  2  5  1 -1</clus>
<clus scale="   91.670">  7  8 -1 -1</clus>
<clus scale="   57.934">  7  9 -1 -1</clus>
<clus scale="  211.966">  1  5  2 -1</clus>
</clustering>
</event>
<event>
 9    2  0.2147756E-005  0.5564454E+03  0.7546771E-02  0.1045498E+00
          2   -1    0    0  502    0 -0.00000000000E+00  0.00000000000E+00  0.18123834627E+04  0.18123834627E+04  0.00000000000E+00 0. -1.
         21   -1    0    0  501  502  0.00000000000E+00 -0.00000000000E+00 -0.68909600156E+02  0.68909600156E+02  0.00000000000E+00 0. -1.
         24    2    1    2    0    0  0.11439088759E+03 -0.18335577167E+02  0.24553552634E+03  0.28334103145E+03  0.81073897483E+02 0.  0.
         23    2    1    2    0    0  0.13717783074E+03  0.15456176122E+03  0.36299126559E+03  0.42750372142E+03  0.91047666921E+02 0.  0.
        -13    1    3    3    0    0  0.49341793987E+01  0.20797793903E+02  0.18463902414E+02  0.28245531504E+02  0.00000000000E+00 0.  1.
         14    1    3    3    0    0  0.10945670819E+03 -0.39133371070E+02  0.22707162393E+03  0.25509549994E+03  0.00000000000E+00 0. -1.
        -13    1    4    4    0    0  0.11652557931E+03  0.15244421451E+03  0.26402979970E+03  0.32638808848E+03  0.00000000000E+00 0. -1.
         13    1    4    4    0    0  0.20652251432E+02  0.21175467100E+01  0.98961465890E+02  0.10111563294E+03  0.00000000000E+00 0.  1.
          1    1    1    2  501    0 -0.25156871833E+03 -0.13622618405E+03  0.11349470706E+04  0.11704483100E+04  0.00000000000E+00 0. -1.
<scales pt_clust_5="13000.00000" pt_clust_6="13000.00000" pt_clust_7="13000.00000" pt_clust_8="13000.00000" pt_clust_9="13000.00000"></scales>
<clustering>
<clus scale="   81.074">  5  6 -1 -1</clus>
<clus scale="   91.048">  7  8 -1 -1</clus>
<clus scale="  141.402">  1  5  2 -1</clus>
<clus scale="  223.938">  7  9 -1 -1</clus>
<clus scale="  556.445">  2  5  1 -1</clus>
</clustering>
</event>
<event>
 9    2  0.2147756E-005  0.5908791E+03  0.7546771E-02  0.1024759E+00
          2   -1    0    0  502    0 -0.00000000000E+00  0.00000000000E+00  0.12986785069E+04  0.12986785069E+04  0.00000000000E+00 0. -1.
         21   -1    0    0  501  502  0.00000000000E+00 -0.00000000000E+00 -0.15095879933E+03  0.15095879933E+03  0.00000000000E+00 0.  1.
         24    2    1    2    0    0  0.17969206497E+03 -0.91233593808E+02  0.62168731963E+03  0.65853166817E+03  0.80969301180E+02 0.  0.
         23    2    1    2    0    0 -0.25110900416E+03  0.27652798436E+03  0.29673036759E+03  0.48776786116E+03  0.10171094939E+03 0.  0.
        -11    1    3    3    0    0  0.61402896319E+02 -0.75115797887E+02  0.30673058361E+03  0.32170848558E+03  0.00000000000E+00 0.  1.
         12    1    3    3    0    0  0.11828916865E+03 -0.16117795921E+02  0.31495673602E+03  0.33682318259E+03  0.00000000000E+00 0. -1.
        -11    1    4    4    0    0 -0.65060429484E+02  0.85803051593E+02  0.14674346712E+03  0.18201282452E+03  0.00000000000E+00 0. -1.
         11    1    4    4    0    0 -0.18604857468E+03  0.19072493276E+03  0.14998690047E+03  0.30575503664E+03  0.00000000000E+00 0.  1.
          1    1    1    2  501    0  0.71416939190E+02 -0.18529439055E+03  0.22930202039E+03  0.30333777695E+03  0.00000000000E+00 0. -1.
<scales pt_clust_5="13000.00000" pt_clust_6="13000.00000" pt_clust_7="13000.00000" pt_clust_8="13000.00000" pt_clust_9="13000.00000"></scales>
<clustering>
<clus scale="   80.969">  5  6 -1 -1</clus>
<clus scale="  101.711">  7  8 -1 -1</clus>
<clus scale="  198.581">  7  9 -1 -1</clus>
<clus scale="  217.184">  1  5  2 -1</clus>
<clus scale="  590.879">  2  5  1 -1</clus>
</clustering>
</event>
<event>
 9    2  0.2147756E-005  0.4714314E+03  0.7546771E-02  0.1077745E+00
          2   -1    0    0  502    0 -0.00000000000E+00  0.00000000000E+00  0.83247327966E+03  0.83247327966E+03  0.00000000000E+00 0. -1.
         21   -1    0    0  501  502  0.00000000000E+00 -0.00000000000E+00 -0.14260847327E+03  0.14260847327E+03  0.00000000000E+00 0. -1.
         24    2    1    2    0    0 -0.39569641128E+02 -0.31905008953E+02 -0.42849205906E+02  0.10380835031E+03  0.79727241592E+02 0.  0.
         23    2    1    2    0    0 -0.10396877752E+03 -0.12474031061E+03  0.58251523383E+03  0.61107980774E+03  0.87891307790E+02 0.  0.
        -13    1    3    3    0    0 -0.19245567951E+02  0.19638043655E+02 -0.39727923468E+02  0.48315137871E+02  0.00000000000E+00 0.  1.
         14    1    3    3    0    0 -0.20324073178E+02 -0.51543052608E+02 -0.31212824374E+01  0.55493212438E+02  0.00000000000E+00 0. -1.
        -11    1    4    4    0    0 -0.86369785834E+02 -0.13777668039E+03  0.52061605663E+03  0.54542023430E+03  0.00000000000E+00 0. -1.
         11    1    4    4    0    0 -0.17598991683E+02  0.13036369777E+02  0.61899177204E+02  0.65659573436E+02  0.00000000000E+00 0.  1.
          1    1    1    2  501    0  0.14353841865E+03  0.15664531956E+03  0.15019877846E+03  0.26019359488E+03  0.00000000000E+00 0. -1.
<scales pt_clust_5="13000.00000" pt_clust_6="13000.00000" pt_clust_7="13000.00000" pt_clust_8="13000.00000" pt_clust_9="13000.00000"></scales>
<clustering>
<clus scale="   79.727">  5  6 -1 -1</clus>
<clus scale="   87.891">  7  8 -1 -1</clus>
<clus scale="   94.552">  1  5  2 -1</clus>
<clus scale="  199.616">  7  9 -1 -1</clus>
<clus scale="  471.431">  2  5  1 -1</clus>
</clustering>
</event>
<event>
 9    2  0.2147756E-005  0.3117284E+03  0.7546771E-02  0.1099239E+00
          2   -1    0    0  502    0 -0.00000000000E+00  0.00000000000E+00  0.92114368753E+03  0.92114368753E+03  0.00000000000E+00 0. -1.
         21   -1    0    0  501  502  0.00000000000E+00 -0.00000000000E+00 -0.81408811812E+02  0.81408811812E+02  0.00000000000E+00 0. -1.
         24    2    1    2    0    0 -0.15089374606E+03  0.70896363598E+02  0.53719800642E+03  0.56815274230E+03  0.80128793250E+02 0.  0.
         23    2    1    2    0    0  0.10752798852E+03 -0.51911764147E+02  0.33745748039E+03  0.37557414168E+03  0.11367183140E+03 0.  0.
        -11    1    3    3    0    0 -0.15363206122E+03  0.53312092006E+02  0.43471155871E+03  0.46413266279E+03  0.00000000000E+00 0.  1.
         12    1    3    3    0    0  0.27383151627E+01  0.17584271592E+02  0.10248644771E+03  0.10402007951E+03  0.00000000000E+00 0. -1.
        -13    1    4    4    0    0  0.12728112455E+03 -0.27625254281E+02  0.23801455701E+03  0.27132004845E+03  0.00000000000E+00 0.  1.
         13    1    4    4    0    0 -0.19753136031E+02 -0.24286509866E+02  0.99442923385E+02  0.10425409323E+03  0.00000000000E+00 0. -1.
          1    1    1    2  501    0  0.43365757540E+02 -0.18984599451E+02 -0.34920611098E+02  0.58825615362E+02  0.00000000000E+00 0. -1.
<scales pt_clust_5="13000.00000" pt_clust_6="13000.00000" pt_clust_7="13000.00000" pt_clust_8="13000.00000" pt_clust_9="13000.00000"></scales>
<clustering>
<clus scale="   80.129">  5  6 -1 -1</clus>
<clus scale="  113.672">  7  8 -1 -1</clus>
<clus scale="   47.339">  7  9 -1 -1</clus>
<clus scale="  184.975">  1  5  2 -1</clus>
<clus scale="  311.728">  2  5  1 -1</clus>
</clustering>
</event>
<event>
 9    2  0.2147756E-005  0.5488013E+03  0.7546771E-02  0.1030943E+00
          2   -1    0    0  502    0 -0.00000000000E+00  0.00000000000E+00  0.29334899405E+03  0.29334899405E+03  0.00000000000E+00 0. -1.
         21   -1    0    0  501  502  0.00000000000E+00 -0.00000000000E+00 -0.51327826536E+03  0.51327826536E+03  0.00000000000E+00 0. -1.
         24    2    1    2    0    0  0.20792117084E+03  0.32384876629E+02 -0.89354430501E+02  0.24250608641E+03  0.80901138288E+02 0.  0.
         23    2    1    2    0    0  0.63222559400E+02  0.16627240867E+03  0.10205377474E+02  0.19970011253E+03  0.90179705676E+02 0.  0.
        -11    1    3    3    0    0  0.11869580627E+03 -0.95342242341E+01 -0.80055069365E+02  0.14348661955E+03  0.00000000000E+00 0.  1.
         12    1    3    3    0    0  0.89225364568E+02  0.41919100863E+02 -0.92993611368E+01  0.99019466859E+02  0.00000000000E+00 0. -1.
        -13    1    4    4    0    0  0.49340881592E+02  0.11746498949E+03  0.48293493126E+02  0.13625273513E+03  0.00000000000E+00 0. -1.
         13    1    4    4    0    0  0.13881677808E+02  0.48807419179E+02 -0.38088115653E+02  0.63447377406E+02  0.00000000000E+00 0.  1.
          1    1    1    2  501    0 -0.27114373024E+03 -0.19865728530E+03 -0.14078021828E+03  0.36442106046E+03  0.00000000000E+00 0. -1.
<scales pt_clust_5="13000.00000" pt_clust_6="13000.00000" pt_clust_7="13000.00000" pt_clust_8="13000.00000" pt_clust_9="13000.00000"></scales>
<clustering>
<clus scale="   80.901">  5  6 -1 -1</clus>
<clus scale="   90.180">  7  8 -1 -1</clus>
<clus scale="  225.444">  1  5  2 -1</clus>
<clus scale="  244.880">  7  9 -1 -1</clus>
<clus scale="  548.801">  2  5  1 -1</clus>
</clustering>
</event>
<event>
 9    2  0.2147756E-005  0.1961144E+03  0.7546771E-02  0.1181717E+00
          2   -1    0    0  502    0 -0.00000000000E+00  0.00000000000E+00  0.10914321962E+03  0.10914321962E+03  0.00000000000E+00 0. -1.
         21   -1    0    0  501  502  0.00000000000E+00 -0.00000000000E+00 -0.24673875445E+03  0.24673875445E+03  0.00000000000E+00 0. -1.
         24    2    1    2    0    0  0.97686111163E+01 -0.58281707120E+02 -0.12264156590E+03  0.15919826496E+03  0.82528484368E+02 0.  0.
         23    2    1    2    0    0  0.45229184281E+02  0.80207731648E+02 -0.35240997249E+02  0.13409719644E+03  0.90890983485E+02 0.  0.
        -13    1    3    3    0    0  0.29948577519E+02 -0.43679936878E+01 -0.86205345809E+01  0.31469195743E+02  0.00000000000E+00 0.  1.
         14    1    3    3    0    0 -0.20179966402E+02 -0.53913713432E+02 -0.11402103132E+03  0.12772906922E+03  0.00000000000E+00 0. -1.
        -11    1    4    4    0    0  0.52168341677E+02  0.17325175036E+02  0.10584466029E+02  0.55979714937E+02  0.00000000000E+00 0.  1.
         11    1    4    4    0    0 -0.69391573963E+01  0.62882556612E+02 -0.45825463278E+02  0.78117481502E+02  0.00000000000E+00 0. -1.
          1    1    1    2  501    0 -0.54997795397E+02 -0.21926024529E+02  0.20287028321E+02  0.62586512670E+02  0.00000000000E+00 0. -1.
<scales pt_clust_5="13000.00000" pt_clust_6="13000.00000" pt_clust_7="13000.00000" pt_clust_8="13000.00000" pt_clust_9="13000.00000"></scales>
<clustering>
<clus scale="   82.528">  5  6 -1 -1</clus>
<clus scale="   90.891">  7  8 -1 -1</clus>
<clus scale="   59.207">  7  9 -1 -1</clus>
<clus scale="  101.504">  1  5  2 -1</clus>
<clus scale="  196.114">  2  5  1 -1</clus>
</clustering>
</event>
<event>
 9    2  0.2147756E-005  0.1861121E+03  0.7546771E-02  0.1193687E+00
          2   -1    0    0  502    0 -0.00000000000E+00  0.00000000000E+00  0.70349617066E+03  0.70349617066E+03  0.00000000000E+00 0. -1.
         21   -1    0    0  501  502  0.00000000000E+00 -0.00000000000E+00 -0.27539014196E+02  0.27539014196E+02  0.00000000000E+00 0.  1.
         24    2    1    2    0    0  0.69793720853E+01  0.32243408886E+02  0.25490754449E+03  0.27068697631E+03  0.84883648949E+02 0.  0.
         23    2    1    2    0    0 -0.61396119135E+02 -0.23379660296E+02  0.25003048314E+03  0.28066156233E+03  0.10926837653E+03 0.  0.
        -11    1    3    3    0    0  0.39625308843E+02 -0.67442030096E+01  0.10950483080E+03  0.11664886344E+03  0.00000000000E+00 0.  1.
         12    1    3    3    0    0 -0.32645936758E+02  0.38987611896E+02  0.14540271369E+03  0.15403811287E+03  0.00000000000E+00 0. -1.
        -11    1    4    4    0    0  0.17800362884E+02 -0.30924181465E+02  0.14251197211E+03  0.14691092578E+03  0.00000000000E+00 0. -1.
         11    1    4    4    0    0 -0.79196482019E+02  0.75445211688E+01  0.10751851102E+03  0.13375063655E+03  0.00000000000E+00 0.  1.
          1    1    1    2  501    0  0.54416747050E+02 -0.88637485895E+01  0.17101912884E+03  0.17968664622E+03  0.00000000000E+00 0. -1.
<scales pt_clust_5="13000.00000" pt_clust_6="13000.00000" pt_clust_7="13000.00000" pt_clust_8="13000.00000" pt_clust_9="13000.00000"></scales>
<clustering>
<clus scale="   84.884">  5  6 -1 -1</clus>
<clus scale="   91.069">  1  5  2 -1</clus>
<clus scale="  109.268">  7  8 -1 -1</clus>
<clus scale="   57.331">  7  9 -1 -1</clus>
<clus scale="  186.112">  2  5  1 -1</clus>
</clustering>
</event>
<event>
 9    2  0.2147756E-005  0.7159596E+03  0.7546771E-02  0.1038219E+00
          2   -1    0    0  502    0 -0.00000000000E+00  0.00000000000E+00  0.41100648850E+03  0.41100648850E+03  0.00000000000E+00 0. -1.
         21   -1    0    0  501  502  0.00000000000E+00 -0.00000000000E+00 -0.38867022891E+03  0.38867022891E+03  0.00000000000E+00 0. -1.
         24    2    1    2    0    0 -0.32576453095E+01  0.33990982149E+01 -0.12223840937E+02  0.82883525473E+02  0.81841862063E+02 0.  0.
         23    2    1    2    0    0 -0.11892447772E+03 -0.19014777387E+03 -0.25472068662E+03  0.35143458336E+03  0.91238319136E+02 0.  0.
        -13    1    3    3    0    0  0.33746170700E+02 -0.16771931284E+02 -0.15199773811E+02  0.40634158534E+02  0.00000000000E+00 0.  1.
         14    1    3    3    0    0 -0.37003816009E+02  0.20171029499E+02  0.29759328738E+01  0.42249366939E+02  0.00000000000E+00 0. -1.
        -13    1    4    4    0    0 -0.31068662242E+02 -0.30777891634E+01 -0.59215671790E+02  0.66941992390E+02  0.00000000000E+00 0.  1.
         13    1    4    4    0    0 -0.87855815479E+02 -0.18706998471E+03 -0.19550501483E+03  0.28449259097E+03  0.00000000000E+00 0. -1.
          1    1    1    2  501    0  0.12218212303E+03  0.18674867566E+03  0.28928078714E+03  0.36535860857E+03  0.00000000000E+00 0. -1.
<scales pt_clust_5="13000.00000" pt_clust_6="13000.00000" pt_clust_7="13000.00000" pt_clust_8="13000.00000" pt_clust_9="13000.00000"></scales>
<clustering>
<clus scale="   81.842">  5  6 -1 -1</clus>
<clus scale="   81.977">  1  5  2 -1</clus>
<clus scale="   91.238">  7  8 -1 -1</clus>
<clus scale="  224.127">  7  9 -1 -1</clus>
<clus scale="  715.960">  2  5  1 -1</clus>
</clustering>
</event>
<event>
 9    2  0.2147756E-005  0.3370158E+03  0.7546771E-02  0.1110348E+00
         21   -1    0    0  501  502  0.00000000000E+00  0.00000000000E+00  0.83204736535E+02  0.83204736535E+02  0.00000000000E+00 0. -1.
          2   -1    0    0  502    0 -0.00000000000E+00 -0.00000000000E+00 -0.62481196464E+03  0.62481196464E+03  0.00000000000E+00 0. -1.
         24    2    1    2    0    0  0.17381051439E+02  0.73126395289E+02 -0.19932824558E+03  0.22766833217E+03  0.80321537282E+02 0.  0.
         23    2    1    2    0    0  0.96414120365E+02  0.24667144985E+02 -0.29176345777E+03  0.32202990550E+03  0.93129984938E+02 0.  0.
        -11    1    3    3    0    0  0.12979509831E+02 -0.15709322848E+02 -0.47830096894E+02  0.51990082407E+02  0.00000000000E+00 0.  1.
         12    1    3    3    0    0  0.44015416080E+01  0.88835718137E+02 -0.15149814868E+03  0.17567824976E+03  0.00000000000E+00 0. -1.
        -13    1    4    4    0    0  0.79268184793E+01  0.23216669035E+02 -0.96522271398E+01  0.26363111748E+02  0.00000000000E+00 0.  1.
         13    1    4    4    0    0  0.88487301886E+02  0.14504759498E+01 -0.28211123063E+03  0.29566679375E+03  0.00000000000E+00 0. -1.
          1    1    1    2  501    0 -0.11379517180E+03 -0.97793540274E+02 -0.50515524750E+02  0.15831846350E+03  0.00000000000E+00 0. -1.
<scales pt_clust_5="13000.00000" pt_clust_6="13000.00000" pt_clust_7="13000.00000" pt_clust_8="13000.00000" pt_clust_9="13000.00000"></scales>
<clustering>
<clus scale="   80.322">  5  6 -1 -1</clus>
<clus scale="   93.130">  7  8 -1 -1</clus>
<clus scale="  110.005">  2  5  1 -1</clus>
<clus scale="  135.063">  7  9 -1 -1</clus>
<clus scale="  337.016">  1  5  2 -1</clus>
</clustering>
</event>
<event>
 9    2  0.2147756E-005  0.2029367E+03  0.7546771E-02  0.1190118E+00
         21   -1    0    0  501  502  0.00000000000E+00  0.00000000000E+00  0.46915925903E+02  0.46915925903E+02  0.00000000000E+00 0. -1.
         -1   -1    0    0    0  501 -0.00000000000E+00 -0.00000000000E+00 -0.53091079017E+03  0.53091079017E+03  0.00000000000E+00 0.  1.
         24    2    1    2    0    0 -0.35937763087E+02  0.11346051940E+02 -0.27981949517E+03  0.28995368027E+03  0.65984324753E+02 0.  0.
         23    2    1    2    0    0  0.44721914827E+01 -0.23374001763E+02 -0.31296373858E+02  0.11174268417E+03  0.10459741867E+03 0.  0.
        -11    1    3    3    0    0 -0.55266185680E+02  0.74483325169E+01 -0.19115607737E+03  0.19912426988E+03  0.00000000000E+00 0.  1.
         12    1    3    3    0    0  0.19328422594E+02  0.38977194229E+01 -0.88663417798E+02  0.90829410392E+02  0.00000000000E+00 0. -1.
        -11    1    4    4    0    0  0.21278173561E+02 -0.60498666679E+02 -0.75424353522E+01  0.64573505954E+02  0.00000000000E+00 0.  1.
         11    1    4    4    0    0 -0.16805982079E+02  0.37124664917E+02 -0.23753938506E+02  0.47169178214E+02  0.00000000000E+00 0. -1.
         -2    1    1    2    0  502  0.31465571604E+02  0.12027949823E+02 -0.17287899523E+03  0.17613035163E+03  0.00000000000E+00 0.  1.
<scales pt_clust_5="13000.00000" pt_clust_6="13000.00000" pt_clust_7="13000.00000" pt_clust_8="13000.00000" pt_clust_9="13000.00000"></scales>
<clustering>
<clus scale="   65.984">  5  6 -1 -1</clus>
<clus scale="   75.988">  2  5  1 -1</clus>
<clus scale="  104.597">  7  8 -1 -1</clus>
<clus scale="   20.946">  7  9 -1 -1</clus>
<clus scale="  202.937">  1  5  2 -1</clus>
</clustering>
</event>
<event>
 9    2  0.2147756E-005  0.2898668E+03  0.7546771E-02  0.1107523E+00
         21   -1    0    0  501  502  0.00000000000E+00  0.00000000000E+00  0.38440977276E+03  0.38440977276E+03  0.00000000000E+00 0.  1.
         -1   -1    0    0    0  501 -0.00000000000E+00 -0.00000000000E+00 -0.14715690623E+03  0.14715690623E+03  0.00000000000E+00 0.  1.
         24    2    1    2    0    0 -0.45368748016E+02  0.14514536300E+03  0.93601332535E+02  0.20805701248E+03  0.10677551822E+03 0.  0.
         23    2    1    2    0    0 -0.14167152941E+02  0.36118025089E+01 -0.20357230747E+02  0.94223616550E+02  0.90829068762E+02 0.  0.
        -13    1    3    3    0    0 -0.59071348132E+02  0.15680510414E+03  0.81166373467E+02  0.18618604952E+03  0.00000000000E+00 0.  1.
         14    1    3    3    0    0  0.13702600116E+02 -0.11659741142E+02  0.12434959068E+02  0.21870962952E+02  0.00000000000E+00 0. -1.
        -11    1    4    4    0    0  0.36373561636E+02  0.12832342865E+02 -0.18593351543E+02  0.42818427471E+02  0.00000000000E+00 0.  1.
         11    1    4    4    0    0 -0.50540714577E+02 -0.92205403560E+01 -0.17638792045E+01  0.51405189079E+02  0.00000000000E+00 0. -1.
         -2    1    1    2    0  502  0.59535900956E+02 -0.14875716551E+03  0.16400876475E+03  0.22928604996E+03  0.00000000000E+00 0.  1.
<scales pt_clust_5="13000.00000" pt_clust_6="13000.00000" pt_clust_7="13000.00000" pt_clust_8="13000.00000" pt_clust_9="13000.00000"></scales>
<clustering>
<clus scale="   90.829">  7  8 -1 -1</clus>
<clus scale="  106.776">  5  6 -1 -1</clus>
<clus scale="  160.229">  7  9 -1 -1</clus>
<clus scale="  185.813">  2  5  1 -1</clus>
<clus scale="  289.867">  1  5  2 -1</clus>
</clustering>
</event>
<event>
 9    2  0.2147756E-005  0.1251429E+03  0.7546771E-02  0.1253208E+00
         21   -1    0    0  501  502  0.00000000000E+00  0.00000000000E+00  0.43689986005E+02  0.43689986005E+02  0.00000000000E+00 0. -1.
         -3   -1    0    0    0  501 -0.00000000000E+00 -0.00000000000E+00 -0.25956577590E+03  0.25956577590E+03  0.00000000000E+00 0.  1.
         24    2    1    2    0    0  0.21754758379E+02 -0.15956699551E+02 -0.71123755505E+02  0.11190820087E+03  0.82079053681E+02 0.  0.
         23    2    1    2    0    0 -0.25074711095E+02 -0.15775288790E+02 -0.11526188339E+03  0.14790092507E+03  0.87816746702E+02 0.  0.
        -13    1    3    3    0    0 -0.31329481062E+02 -0.80271691376E+01 -0.21709793474E+02  0.38952367844E+02  0.00000000000E+00 0.  1.
         14    1    3    3    0    0  0.53084239441E+02 -0.79295304136E+01 -0.49413962031E+02  0.72955833030E+02  0.00000000000E+00 0. -1.
        -13    1    4    4    0    0 -0.27617146664E+02 -0.39223750395E+02 -0.11467879592E+03  0.12430782605E+03  0.00000000000E+00 0.  1.
         13    1    4    4    0    0  0.25424355695E+01  0.23448461605E+02 -0.58308747364E+00  0.23593099018E+02  0.00000000000E+00 0. -1.
         -4    1    1    2    0  502  0.33199527157E+01  0.31731988341E+02 -0.29490150992E+02  0.43446635953E+02  0.00000000000E+00 0.  1.
<scales pt_clust_5="13000.00000" pt_clust_6="13000.00000" pt_clust_7="13000.00000" pt_clust_8="13000.00000" pt_clust_9="13000.00000"></scales>
<clustering>
<clus scale="   82.079">  5  6 -1 -1</clus>
<clus scale="   86.399">  2  5  1 -1</clus>
<clus scale="   87.817">  7  8 -1 -1</clus>
<clus scale="   29.391">  7  9 -1 -1</clus>
<clus scale="  125.143">  1  5  2 -1</clus>
</clustering>
</event>
<event>
 9    2  0.2147756E-005  0.3103153E+03  0.7546771E-02  0.1124260E+00
         -1   -1    0    0    0  501 -0.00000000000E+00  0.00000000000E+00  0.27751952201E+03  0.27751952201E+03  0.00000000000E+00 0.  1.
         21   -1    0    0  501  502  0.00000000000E+00 -0.00000000000E+00 -0.21850776327E+03  0.21850776327E+03  0.00000000000E+00 0.  1.
         24    2    1    2    0    0  0.30953814567E+02 -0.45839325605E+02  0.14339807419E+03  0.17444275534E+03  0.82509907284E+02 0.  0.
         23    2    1    2    0    0  0.31250964267E+02 -0.96887632611E+02  0.16875190155E+02  0.13585808694E+03  0.88367480572E+02 0.  0.
        -11    1    3    3    0    0  0.37915434845E+02 -0.66991769696E+02  0.11422312590E+03  0.13774033504E+03  0.00000000000E+00 0.  1.
         12    1    3    3    0    0 -0.69616202789E+01  0.21152444091E+02  0.29174948291E+02  0.36702420298E+02  0.00000000000E+00 0. -1.
        -13    1    4    4    0    0  0.23875342880E+02  0.31497705730E+01 -0.17558476703E+02  0.29803576236E+02  0.00000000000E+00 0. -1.
         13    1    4    4    0    0  0.73756213872E+01 -0.10003740318E+03  0.34433666858E+02  0.10605451070E+03  0.00000000000E+00 0.  1.
         -2    1    1    2    0  502 -0.62204778834E+02  0.14272695822E+03 -0.10126150561E+03  0.18572644300E+03  0.00000000000E+00 0.  1.
<scales pt_clust_5="13000.00000" pt_clust_6="13000.00000" pt_clust_7="13000.00000" pt_clust_8="13000.00000" pt_clust_9="13000.00000"></scales>
<clustering>
<clus scale="   82.510">  5  6 -1 -1</clus>
<clus scale="   88.367">  7  8 -1 -1</clus>
<clus scale="   99.334">  1  5  2 -1</clus>
<clus scale="  136.373">  7  9 -1 -1</clus>
<clus scale="  310.315">  2  5  1 -1</clus>
</clustering>
</event>
<event>
 9    2  0.2147756E-005  0.3725951E+03  0.7546771E-02  0.1062828E+00
         21   -1    0    0  501  502  0.00000000000E+00  0.00000000000E+00  0.58793197275E+02  0.58793197275E+02  0.00000000000E+00 0. -1.
          2   -1    0    0  502    0 -0.00000000000E+00 -0.00000000000E+00 -0.27645845272E+04  0.27645845272E+04  0.00000000000E+00 0. -1.
         24    2    1    2    0    0  0.21054927874E+03  0.18065450002E+03 -0.20411453704E+04  0.20614188067E+04  0.78778336390E+02 0.  0.
         23    2    1    2    0    0  0.20100148639E+02 -0.47943574381E+02 -0.24920009738E+03  0.26859636093E+03  0.85677968406E+02 0.  0.
        -13    1    3    3    0    0  0.46744785333E+02  0.20361611040E+02 -0.21578562411E+03  0.22172754843E+03  0.00000000000E+00 0.  1.
         14    1    3    3    0    0  0.16380449341E+03  0.16029288898E+03 -0.18253597463E+04  0.18396912583E+04  0.00000000000E+00 0. -1.
        -11    1    4    4    0    0 -0.98936138201E+01  0.19465675276E+02 -0.97375291320E+02  0.99793504138E+02  0.00000000000E+00 0.  1.
         11    1    4    4    0    0  0.29993762459E+02 -0.67409249657E+02 -0.15182480606E+03  0.16880285679E+03  0.00000000000E+00 0. -1.
          1    1    1    2  501    0 -0.23064942738E+03 -0.13271092564E+03 -0.41544586211E+03  0.49336255683E+03  0.00000000000E+00 0. -1.
<scales pt_clust_5="13000.00000" pt_clust_6="13000.00000" pt_clust_7="13000.00000" pt_clust_8="13000.00000" pt_clust_9="13000.00000"></scales>
<clustering>
<clus scale="   78.778">  5  6 -1 -1</clus>
<clus scale="   85.678">  7  8 -1 -1</clus>
<clus scale="  266.104">  7  9 -1 -1</clus>
<clus scale="  288.397">  2  5  1 -1</clus>
<clus scale="  372.595">  1  5  2 -1</clus>
</clustering>
</event>
<event>
 9    2  0.2147756E-005  0.2623694E+03  0.7546771E-02  0.1135357E+00
          2   -1    0    0  502    0 -0.00000000000E+00  0.00000000000E+00  0.15955759774E+04  0.15955759774E+04  0.00000000000E+00 0. -1.
         21   -1    0    0  501  502  0.00000000000E+00 -0.00000000000E+00 -0.24875875084E+02  0.24875875084E+02  0.00000000000E+00 0. -1.
         24    2    1    2    0    0  0.82133996880E+02  0.49748696197E+02  0.69942321057E+03  0.71052817181E+03  0.80227982869E+02 0.  0.
         23    2    1    2    0    0  0.48465037767E+02  0.91026498472E+01  0.22346716677E+03  0.24646529573E+03  0.91519665941E+02 0.  0.
        -13    1    3    3    0    0  0.54329147498E+02  0.69355534643E+02  0.42742127065E+03  0.43640667852E+03  0.00000000000E+00 0.  1.
         14    1    3    3    0    0  0.27804849382E+02 -0.19606838446E+02  0.27200193992E+03  0.27412149329E+03  0.00000000000E+00 0. -1.
        -11    1    4    4    0    0  0.51875380948E+01  0.32603852004E+02  0.17235559201E+03  0.17548895069E+03  0.00000000000E+00 0.  1.
         11    1    4    4    0    0  0.43277499672E+02 -0.23501202157E+02  0.51111574765E+02  0.70976345043E+02  0.00000000000E+00 0. -1.
          1    1    1    2  501    0 -0.13059903465E+03 -0.58851346044E+02  0.64780972494E+03  0.66345838491E+03  0.00000000000E+00 0. -1.
<scales pt_clust_5="13000.00000" pt_clust_6="13000.00000" pt_clust_7="13000.00000" pt_clust_8="13000.00000" pt_clust_9="13000.00000"></scales>
<clustering>
<clus scale="   80.228">  5  6 -1 -1</clus>
<clus scale="   91.520">  7  8 -1 -1</clus>
<clus scale="  125.130">  1  5  2 -1</clus>
<clus scale="   73.572">  7  9 -1 -1</clus>
<clus scale="  262.369">  2  5  1 -1</clus>
</clustering>
</event>
<event>
 9    2  0.2519037E-005  0.3431204E+03  0.7546771E-02  0.1085925E+00
         21   -1    0    0  501  502  0.00000000000E+00  0.00000000000E+00  0.69099241360E+03  0.69099241360E+03  0.00000000000E+00 0. -1.
          2   -1    0    0  502    0 -0.00000000000E+00 -0.00000000000E+00 -0.15637873320E+03  0.15637873320E+03  0.00000000000E+00 0. -1.
         24    2    1    2    0    0 -0.14869386584E+03 -0.10342489313E+03  0.45407786026E+03  0.49492595958E+03  0.77190854573E+02 0.  0.
         23    2    1    2    0    0 -0.31623503144E+02 -0.42789673180E+02 -0.54193240010E+01  0.10489450602E+03  0.90235725951E+02 0.  0.
        -13    1    3    3    0    0 -0.85464802577E+01 -0.35434312609E+02  0.50098250999E+02  0.61955367709E+02  0.00000000000E+00 0.  1.
         14    1    3    3    0    0 -0.14014738559E+03 -0.67990580518E+02  0.40397960926E+03  0.43297059187E+03  0.00000000000E+00 0. -1.
        -13    1    4    4    0    0 -0.54766356345E+02  0.14897000039E+01 -0.33601814231E+01  0.54889560142E+02  0.00000000000E+00 0.  1.
         13    1    4    4    0    0  0.23142853200E+02 -0.44279373184E+02 -0.20591425779E+01  0.50004945875E+02  0.00000000000E+00 0. -1.
          1    1    1    2  501    0  0.18031736899E+03  0.14621456631E+03  0.85955144147E+02  0.24755068120E+03  0.00000000000E+00 0. -1.
<scales pt_clust_5="13000.00000" pt_clust_6="13000.00000" pt_clust_7="13000.00000" pt_clust_8="13000.00000" pt_clust_9="13000.00000"></scales>
<clustering>
<clus scale="   77.191">  5  6 -1 -1</clus>
<clus scale="   90.236">  7  8 -1 -1</clus>
<clus scale="  196.888">  2  5  1 -1</clus>
<clus scale="  125.048">  7  9 -1 -1</clus>
<clus scale="  343.120">  1  5  2 -1</clus>
</clustering>
</event>
<event>
 9    2  0.2147756E-005  0.1684751E+03  0.7546771E-02  0.1207253E+00
         21   -1    0    0  501  502  0.00000000000E+00  0.00000000000E+00  0.43906765537E+03  0.43906765537E+03  0.00000000000E+00 0.  1.
          4   -1    0    0  502    0 -0.00000000000E+00 -0.00000000000E+00 -0.47317045452E+02  0.47317045452E+02  0.00000000000E+00 0. -1.
         24    2    1    2    0    0  0.78548783051E+01 -0.32691168766E+02  0.25001789110E+03  0.26622104036E+03  0.85054599125E+02 0.  0.
         23    2    1    2    0    0 -0.30672715616E+02  0.38364226300E+00  0.14610924498E+03  0.18036939015E+03  0.10121384673E+03 0.  0.
        -11    1    3    3    0    0  0.43303879222E+02 -0.31996441238E+02  0.12137190350E+03  0.13277852675E+03  0.00000000000E+00 0.  1.
         12    1    3    3    0    0 -0.35449000917E+02 -0.69472752819E+00  0.12864598761E+03  0.13344251361E+03  0.00000000000E+00 0. -1.
        -13    1    4    4    0    0  0.72747902665E+01  0.23497748789E+02  0.13122395541E+03  0.13350952492E+03  0.00000000000E+00 0.  1.
         13    1    4    4    0    0 -0.37947505883E+02 -0.23114106526E+02  0.14885289564E+02  0.46859865222E+02  0.00000000000E+00 0. -1.
          3    1    1    2  501    0  0.22817837311E+02  0.32307526503E+02 -0.43765261627E+01  0.39794270311E+02  0.00000000000E+00 0. -1.
<scales pt_clust_5="13000.00000" pt_clust_6="13000.00000" pt_clust_7="13000.00000" pt_clust_8="13000.00000" pt_clust_9="13000.00000"></scales>
<clustering>
<clus scale="   85.055">  5  6 -1 -1</clus>
<clus scale="   91.459">  2  5  1 -1</clus>
<clus scale="  101.214">  7  8 -1 -1</clus>
<clus scale="   30.581">  7  9 -1 -1</clus>
<clus scale="  168.475">  1  5  2 -1</clus>
</clustering>
</event>
<event>
 9    2  0.2147756E-005  0.5387813E+03  0.7546771E-02  0.1066241E+00
         -1   -1    0    0    0  501 -0.00000000000E+00  0.00000000000E+00  0.70285509066E+02  0.70285509066E+02  0.00000000000E+00 0.  1.
         21   -1    0    0  501  502  0.00000000000E+00 -0.00000000000E+00 -0.15074091104E+04  0.15074091104E+04  0.00000000000E+00 0.  1.
         24    2    1    2    0    0 -0.30913195038E+02  0.16134687855E+02 -0.81952250631E+02  0.11934807277E+03  0.79447072384E+02 0.  0.
         23    2    1    2    0    0 -0.21797237167E+03  0.86655308323E+02 -0.82830812161E+03  0.86665856236E+03  0.99908068355E+02 0.  0.
        -13    1    3    3    0    0  0.23262337479E+02  0.23034809943E+01 -0.49393983997E+02  0.54646207780E+02  0.00000000000E+00 0.  1.
         14    1    3    3    0    0 -0.54175532517E+02  0.13831206861E+02 -0.32558266634E+02  0.64701864988E+02  0.00000000000E+00 0. -1.
        -11    1    4    4    0    0 -0.19839658698E+03  0.40442499853E+02 -0.70580164446E+03  0.73427022468E+03  0.00000000000E+00 0.  1.
         11    1    4    4    0    0 -0.19575784694E+02  0.46212808470E+02 -0.12250647715E+03  0.13238833769E+03  0.00000000000E+00 0. -1.
         -2    1    1    2    0  502  0.24888556671E+03 -0.10278999618E+03 -0.52686322908E+03  0.59168798432E+03  0.00000000000E+00 0.  1.
<scales pt_clust_5="13000.00000" pt_clust_6="13000.00000" pt_clust_7="13000.00000" pt_clust_8="13000.00000" pt_clust_9="13000.00000"></scales>
<clustering>
<clus scale="   79.447">  5  6 -1 -1</clus>
<clus scale="   86.763">  1  5  2 -1</clus>
<clus scale="   99.908">  7  8 -1 -1</clus>
<clus scale="  247.463">  7  9 -1 -1</clus>
<clus scale="  538.781">  2  5  1 -1</clus>
</clustering>
</event>
<event>
 9    2  0.2147756E-005  0.1275276E+03  0.7546771E-02  0.1247944E+00
         21   -1    0    0  501  502  0.00000000000E+00  0.00000000000E+00  0.19754853372E+03  0.19754853372E+03  0.00000000000E+00 0.  1.
          4   -1    0    0  502    0 -0.00000000000E+00 -0.00000000000E+00 -0.83809444030E+02  0.83809444030E+02  0.00000000000E+00 0. -1.
         24    2    1    2    0    0  0.65072232496E+01 -0.41333384669E+02 -0.23835716051E+02  0.93767688451E+02  0.80457724273E+02 0.  0.
         23    2    1    2    0    0 -0.18064991164E+02  0.91486178464E+01  0.10528256931E+03  0.14055594282E+03  0.90892863025E+02 0.  0.
        -13    1    3    3    0    0 -0.95406405246E+01 -0.41993906579E+02  0.19705608678E+02  0.47358452517E+02  0.00000000000E+00 0.  1.
         14    1    3    3    0    0  0.16047863774E+02  0.66052190985E+00 -0.43541324728E+02  0.46409235934E+02  0.00000000000E+00 0. -1.
        -11    1    4    4    0    0  0.26574163991E+02  0.64103505881E+01  0.13043450640E+01  0.27367500846E+02  0.00000000000E+00 0. -1.
         11    1    4    4    0    0 -0.44639155155E+02  0.27382672582E+01  0.10397822424E+03  0.11318844198E+03  0.00000000000E+00 0.  1.
          3    1    1    2  501    0  0.11557767914E+02  0.32184766823E+02  0.32292236438E+02  0.47034346480E+02  0.00000000000E+00 0. -1.
<scales pt_clust_5="13000.00000" pt_clust_6="13000.00000" pt_clust_7="13000.00000" pt_clust_8="13000.00000" pt_clust_9="13000.00000"></scales>
<clustering>
<clus scale="   80.458">  5  6 -1 -1</clus>
<clus scale="   90.688">  2  5  1 -1</clus>
<clus scale="   90.893">  7  8 -1 -1</clus>
<clus scale="   24.118">  7  9 -1 -1</clus>
<clus scale="  127.528">  1  5  2 -1</clus>
</clustering>
</event>
<event>
 9    2  0.2147756E-005  0.4854068E+03  0.7546771E-02  0.1045646E+00
          2   -1    0    0  502    0 -0.00000000000E+00  0.00000000000E+00  0.10463602684E+04  0.10463602684E+04  0.00000000000E+00 0. -1.
         21   -1    0    0  501  502  0.00000000000E+00 -0.00000000000E+00 -0.13409012226E+03  0.13409012226E+03  0.00000000000E+00 0. -1.
         24    2    1    2    0    0 -0.13712647871E+03 -0.13742584269E+03  0.10070460368E+03  0.23479804104E+03  0.85435177037E+02 0.  0.
         23    2    1    2    0    0 -0.12175681643E+03  0.16441415720E+03  0.37424823993E+03  0.43673648945E+03  0.93916338800E+02 0.  0.
        -11    1    3    3    0    0 -0.37899533352E+02 -0.28173765025E+02  0.69373978714E+02  0.83921895752E+02  0.00000000000E+00 0.  1.
         12    1    3    3    0    0 -0.99226945355E+02 -0.10925207766E+03  0.31330624969E+02  0.15087614529E+03  0.00000000000E+00 0. -1.
        -13    1    4    4    0    0 -0.12201578847E+03  0.13079253174E+03  0.24600857303E+03  0.30416238591E+03  0.00000000000E+00 0. -1.
         13    1    4    4    0    0  0.25897203662E+00  0.33621625455E+02  0.12823966690E+03  0.13257410355E+03  0.00000000000E+00 0.  1.
          1    1    1    2  501    0  0.25888329514E+03 -0.26988314511E+02  0.43731730248E+03  0.50891586011E+03  0.00000000000E+00 0. -1.
<scales pt_clust_5="13000.00000" pt_clust_6="13000.00000" pt_clust_7="13000.00000" pt_clust_8="13000.00000" pt_clust_9="13000.00000"></scales>
<clustering>
<clus scale="   85.435">  5  6 -1 -1</clus>
<clus scale="   93.916">  7  8 -1 -1</clus>
<clus scale="  212.106">  1  5  2 -1</clus>
<clus scale="  210.808">  7  9 -1 -1</clus>
<clus scale="  485.407">  2  5  1 -1</clus>
</clustering>
</event>
<event>
 9    2  0.2147756E-005  0.3140319E+03  0.7546771E-02  0.1081211E+00
         21   -1    0    0  501  502  0.00000000000E+00  0.00000000000E+00  0.12156517918E+03  0.12156517918E+03  0.00000000000E+00 0. -1.
          2   -1    0    0  502    0 -0.00000000000E+00 -0.00000000000E+00 -0.10750389477E+04  0.10750389477E+04  0.00000000000E+00 0. -1.
         24    2    1    2    0    0 -0.67340041300E+02  0.27321695559E+03 -0.79116537102E+03  0.84310723751E+03  0.75531342156E+02 0.  0.
         23    2    1    2    0    0  0.23909202053E+02 -0.12545380372E+03 -0.58367564134E+02  0.16769085154E+03  0.91668655151E+02 0.  0.
        -13    1    3    3    0    0 -0.66477042327E+02  0.14160119769E+03 -0.49198368526E+03  0.51625385510E+03  0.00000000000E+00 0.  1.
         14    1    3    3    0    0 -0.86299897276E+00  0.13161575791E+03 -0.29918168576E+03  0.32685338241E+03  0.00000000000E+00 0. -1.
        -13    1    4    4    0    0  0.54008987470E+02 -0.11173188591E+03 -0.44874283950E+02  0.13196471656E+03  0.00000000000E+00 0.  1.
         13    1    4    4    0    0 -0.30099785417E+02 -0.13721917807E+02 -0.13493280184E+02  0.35726134979E+02  0.00000000000E+00 0. -1.
          1    1    1    2  501    0  0.43430839247E+02 -0.14776315187E+03 -0.10394083333E+03  0.18580603780E+03  0.00000000000E+00 0. -1.
<scales pt_clust_5="13000.00000" pt_clust_6="13000.00000" pt_clust_7="13000.00000" pt_clust_8="13000.00000" pt_clust_9="13000.00000"></scales>
<clustering>
<clus scale="   75.531">  5  6 -1 -1</clus>
<clus scale="   91.669">  7  8 -1 -1</clus>
<clus scale="  154.014">  7  9 -1 -1</clus>
<clus scale="  291.354">  2  5  1 -1</clus>
<clus scale="  314.032">  1  5  2 -1</clus>
</clustering>
</event>
<event>
 9    2  0.2147756E-005  0.6540344E+03  0.7546771E-02  0.1023335E+00
         21   -1    0    0  501  502  0.00000000000E+00  0.00000000000E+00  0.13547709170E+04  0.13547709170E+04  0.00000000000E+00 0. -1.
          2   -1    0    0  502    0 -0.00000000000E+00 -0.00000000000E+00 -0.35371469610E+03  0.35371469610E+03  0.00000000000E+00 0. -1.
         24    2    1    2    0    0  0.57842738593E+02 -0.13437788455E+03 -0.24770214921E+03  0.29881953883E+03  0.80830463315E+02 0.  0.
         23    2    1    2    0    0  0.12361547544E+01 -0.48320210784E+02 -0.38733766336E+02  0.10793456929E+03  0.88392283289E+02 0.  0.
        -13    1    3    3    0    0  0.17264385918E+02 -0.12963334186E+02 -0.18922466199E+01  0.21672278413E+02  0.00000000000E+00 0.  1.
         14    1    3    3    0    0  0.40578352675E+02 -0.12141455036E+03 -0.24580990259E+03  0.27714726041E+03  0.00000000000E+00 0. -1.
        -11    1    4    4    0    0  0.30035572589E+02 -0.24691219177E+02 -0.54942469443E+02  0.67308742921E+02  0.00000000000E+00 0. -1.
         11    1    4    4    0    0 -0.28799417834E+02 -0.23628991607E+02  0.16208703107E+02  0.40625826372E+02  0.00000000000E+00 0.  1.
          1    1    1    2  501    0 -0.59078893347E+02  0.18269809533E+03  0.12874921365E+04  0.13017315050E+04  0.00000000000E+00 0. -1.
<scales pt_clust_5="13000.00000" pt_clust_6="13000.00000" pt_clust_7="13000.00000" pt_clust_8="13000.00000" pt_clust_9="13000.00000"></scales>
<clustering>
<clus scale="   80.830">  5  6 -1 -1</clus>
<clus scale="   88.392">  7  8 -1 -1</clus>
<clus scale="  167.143">  2  5  1 -1</clus>
<clus scale="  179.127">  7  9 -1 -1</clus>
<clus scale="  654.034">  1  5  2 -1</clus>
</clustering>
</event>
<event>
 9    2  0.2147756E-005  0.6472421E+03  0.7546771E-02  0.1005272E+00
          2   -1    0    0  502    0 -0.00000000000E+00  0.00000000000E+00  0.24918190489E+04  0.24918190489E+04  0.00000000000E+00 0. -1.
         21   -1    0    0  501  502  0.00000000000E+00 -0.00000000000E+00 -0.13370657458E+03  0.13370657458E+03  0.00000000000E+00 0.  1.
         24    2    1    2    0    0  0.17350709803E+02 -0.28808273499E+03  0.17213871053E+03  0.34574414752E+03  0.81330010138E+02 0.  0.
         23    2    1    2    0    0 -0.24373402792E+03  0.14452819048E+03  0.58345528112E+03  0.65499755147E+03  0.91143036802E+02 0.  0.
        -11    1    3    3    0    0 -0.56630394633E+01 -0.21716073154E+03  0.90931501251E+02  0.23549817677E+03  0.00000000000E+00 0.  1.
         12    1    3    3    0    0  0.23013749266E+02 -0.70922003449E+02  0.81207209274E+02  0.11024597075E+03  0.00000000000E+00 0. -1.
        -11    1    4    4    0    0 -0.19972562961E+03  0.15411543559E+03  0.48325546510E+03  0.54514010966E+03  0.00000000000E+00 0.  1.
         11    1    4    4    0    0 -0.44008398313E+02 -0.95872451169E+01  0.10019981602E+03  0.10985744181E+03  0.00000000000E+00 0. -1.
          1    1    1    2  501    0  0.22638331811E+03  0.14355454452E+03  0.16025184827E+04  0.16247839245E+04  0.00000000000E+00 0. -1.
<scales pt_clust_5="13000.00000" pt_clust_6="13000.00000" pt_clust_7="13000.00000" pt_clust_8="13000.00000" pt_clust_9="13000.00000"></scales>
<clustering>
<clus scale="   81.330">  5  6 -1 -1</clus>
<clus scale="   91.143">  7  8 -1 -1</clus>
<clus scale="  268.062">  7  9 -1 -1</clus>
<clus scale="  299.846">  1  5  2 -1</clus>
<clus scale="  647.242">  2  5  1 -1</clus>
</clustering>
</event>
<event>
 9    2  0.2147756E-005  0.1157466E+04  0.7546771E-02  0.9546602E-01
          2   -1    0    0  502    0 -0.00000000000E+00  0.00000000000E+00  0.25555167848E+04  0.25555167848E+04  0.00000000000E+00 0. -1.
         21   -1    0    0  501  502  0.00000000000E+00 -0.00000000000E+00 -0.24597080318E+03  0.24597080318E+03  0.00000000000E+00 0. -1.
         24    2    1    2    0    0  0.21961328926E+03 -0.14791897872E+03  0.10714988673E+04  0.11066461448E+04  0.80286027159E+02 0.  0.
         23    2    1    2    0    0 -0.60426307641E+03 -0.91570956083E+02  0.10186276929E+04  0.11913975336E+04  0.91140555360E+02 0.  0.
        -13    1    3    3    0    0  0.18822428255E+03 -0.13011161220E+03  0.77842353980E+03  0.81135726995E+03  0.00000000000E+00 0.  1.
         14    1    3    3    0    0  0.31389006710E+02 -0.17807366512E+02  0.29307532745E+03  0.29528887484E+03  0.00000000000E+00 0. -1.
        -13    1    4    4    0    0 -0.79479873616E+02 -0.43208447464E+02  0.13371036024E+03  0.16143878307E+03  0.00000000000E+00 0.  1.
         13    1    4    4    0    0 -0.52478320279E+03 -0.48362508619E+02  0.88491733263E+03  0.10299587505E+04  0.00000000000E+00 0. -1.
          1    1    1    2  501    0  0.38464978715E+03  0.23948993480E+03  0.21941942153E+03  0.50344390966E+03  0.00000000000E+00 0. -1.
<scales pt_clust_5="13000.00000" pt_clust_6="13000.00000" pt_clust_7="13000.00000" pt_clust_8="13000.00000" pt_clust_9="13000.00000"></scales>
<clustering>
<clus scale="   80.286">  5  6 -1 -1</clus>
<clus scale="   91.141">  7  8 -1 -1</clus>
<clus scale="  276.687">  1  5  2 -1</clus>
<clus scale="  483.475">  7  9 -1 -1</clus>
<clus scale=" 1157.466">  2  5  1 -1</clus>
</clustering>
</event>
<event>
 9    2  0.2147756E-005  0.2430085E+03  0.7546771E-02  0.1135705E+00
         21   -1    0    0  501  502  0.00000000000E+00  0.00000000000E+00  0.22963585181E+02  0.22963585181E+02  0.00000000000E+00 0. -1.
          2   -1    0    0  502    0 -0.00000000000E+00 -0.00000000000E+00 -0.18179727854E+04  0.18179727854E+04  0.00000000000E+00 0. -1.
         24    2    1    2    0    0  0.82944466010E+02 -0.10507399412E+03 -0.90375480954E+03  0.91714662361E+03  0.80404258278E+02 0.  0.
         23    2    1    2    0    0 -0.36337535892E+02 -0.24732567519E+02 -0.28789055156E+03  0.30486336061E+03  0.90158652131E+02 0.  0.
        -13    1    3    3    0    0  0.67532907331E+02 -0.70183055244E+02 -0.39000866724E+03  0.40198646163E+03  0.00000000000E+00 0.  1.
         14    1    3    3    0    0  0.15411558679E+02 -0.34890938875E+02 -0.51374614230E+03  0.51516016197E+03  0.00000000000E+00 0. -1.
        -13    1    4    4    0    0 -0.35681377296E+02  0.26242836006E+02 -0.18239260664E+03  0.18769366021E+03  0.00000000000E+00 0.  1.
         13    1    4    4    0    0 -0.65615859518E+00 -0.50975403525E+02 -0.10549794492E+03  0.11716970040E+03  0.00000000000E+00 0. -1.
          1    1    1    2  501    0 -0.46606930118E+02  0.12980656164E+03 -0.60336383916E+03  0.61892638641E+03  0.00000000000E+00 0. -1.
<scales pt_clust_5="13000.00000" pt_clust_6="13000.00000" pt_clust_7="13000.00000" pt_clust_8="13000.00000" pt_clust_9="13000.00000"></scales>
<clustering>
<clus scale="   80.404">  5  6 -1 -1</clus>
<clus scale="   90.159">  7  8 -1 -1</clus>
<clus scale="  137.920">  7  9 -1 -1</clus>
<clus scale="  156.158">  2  5  1 -1</clus>
<clus scale="  243.008">  1  5  2 -1</clus>
</clustering>
</event>
<event>
 9    2  0.2147756E-005  0.4574265E+03  0.7546771E-02  0.1083675E+00
         21   -1    0    0  501  502  0.00000000000E+00  0.00000000000E+00  0.12684729057E+03  0.12684729057E+03  0.00000000000E+00 0.  1.
          2   -1    0    0  502    0 -0.00000000000E+00 -0.00000000000E+00 -0.63848203496E+03  0.63848203496E+03  0.00000000000E+00 0. -1.
         24    2    1    2    0    0  0.16274256228E+02  0.32370350294E+02 -0.13909318157E+02  0.89334041837E+02  0.80463724159E+02 0.  0.
         23    2    1    2    0    0  0.92874558255E+02 -0.20995951266E+03 -0.23694999398E+03  0.34214621546E+03  0.90609340472E+02 0.  0.
        -13    1    3    3    0    0 -0.18561579981E+02  0.20206969838E+02  0.23984579807E+02  0.36443297737E+02  0.00000000000E+00 0.  1.
         14    1    3    3    0    0  0.34835836209E+02  0.12163380456E+02 -0.37893897964E+02  0.52890744100E+02  0.00000000000E+00 0. -1.
        -11    1    4    4    0    0  0.59413584105E+02 -0.61248170663E+02 -0.43259793546E+02  0.95669860058E+02  0.00000000000E+00 0.  1.
         11    1    4    4    0    0  0.33460974150E+02 -0.14871134200E+03 -0.19369020043E+03  0.24647635540E+03  0.00000000000E+00 0. -1.
          1    1    1    2  501    0 -0.10914881448E+03  0.17758916237E+03 -0.26077543225E+03  0.33384906823E+03  0.00000000000E+00 0. -1.
<scales pt_clust_5="13000.00000" pt_clust_6="13000.00000" pt_clust_7="13000.00000" pt_clust_8="13000.00000" pt_clust_9="13000.00000"></scales>
<clustering>
<clus scale="   80.464">  5  6 -1 -1</clus>
<clus scale="   88.245">  2  5  1 -1</clus>
<clus scale="   90.609">  7  8 -1 -1</clus>
<clus scale="  218.662">  7  9 -1 -1</clus>
<clus scale="  457.427">  1  5  2 -1</clus>
</clustering>
</event>
<event>
 9    2  0.2147756E-005  0.1597638E+03  0.7546771E-02  0.1205731E+00
          2   -1    0    0  502    0 -0.00000000000E+00  0.00000000000E+00  0.31015621934E+03  0.31015621934E+03  0.00000000000E+00 0. -1.
         21   -1    0    0  501  502  0.00000000000E+00 -0.00000000000E+00 -0.84460834204E+02  0.84460834204E+02  0.00000000000E+00 0. -1.
         24    2    1    2    0    0  0.77141648696E+02  0.48965870002E+01  0.20564264863E+03  0.23359975338E+03  0.79404882183E+02 0.  0.
         23    2    1    2    0    0 -0.12006556982E+02 -0.19935633736E+02  0.45187325222E+01  0.92387435097E+02  0.89294077727E+02 0.  0.
        -13    1    3    3    0    0  0.35029922070E+02 -0.35971998227E+02  0.73500587440E+02  0.89013574530E+02  0.00000000000E+00 0.  1.
         14    1    3    3    0    0  0.42111726626E+02  0.40868585227E+02  0.13214206119E+03  0.14458617885E+03  0.00000000000E+00 0. -1.
        -11    1    4    4    0    0 -0.28376662813E+02 -0.48084534776E+02 -0.10021757783E+02  0.56725594806E+02  0.00000000000E+00 0.  1.
         11    1    4    4    0    0  0.16370105830E+02  0.28148901040E+02  0.14540490305E+02  0.35661840291E+02  0.00000000000E+00 0. -1.
          1    1    1    2  501    0 -0.65135091714E+02  0.15039046736E+02  0.15534003981E+02  0.68629865066E+02  0.00000000000E+00 0. -1.
<scales pt_clust_5="13000.00000" pt_clust_6="13000.00000" pt_clust_7="13000.00000" pt_clust_8="13000.00000" pt_clust_9="13000.00000"></scales>
<clustering>
<clus scale="   79.405">  5  6 -1 -1</clus>
<clus scale="   89.294">  7  8 -1 -1</clus>
<clus scale="   66.849">  7  9 -1 -1</clus>
<clus scale="  110.815">  1  5  2 -1</clus>
<clus scale="  159.764">  2  5  1 -1</clus>
</clustering>
</event>
<event>
 9    2  0.2147756E-005  0.2704370E+03  0.7546771E-02  0.1139823E+00
         21   -1    0    0  501  502  0.00000000000E+00  0.00000000000E+00  0.55437115186E+02  0.55437115186E+02  0.00000000000E+00 0.  1.
         -1   -1    0    0    0  501 -0.00000000000E+00 -0.00000000000E+00 -0.63090524937E+03  0.63090524937E+03  0.00000000000E+00 0.  1.
         24    2    1    2    0    0 -0.63181637141E+02  0.41878520286E+01 -0.18192684559E+03  0.20883749820E+03  0.80661429006E+02 0.  0.
         23    2    1    2    0    0 -0.76449330091E+02 -0.45731826457E+01 -0.24541667085E+03  0.27394195749E+03  0.94601478144E+02 0.  0.
        -11    1    3    3    0    0  0.57769082247E+01 -0.26402311329E+02 -0.51695328180E+02  0.58334052386E+02  0.00000000000E+00 0.  1.
         12    1    3    3    0    0 -0.68958545366E+02  0.30590163358E+02 -0.13023151741E+03  0.15050344581E+03  0.00000000000E+00 0. -1.
        -13    1    4    4    0    0 -0.35969116796E+02  0.23935498899E+02 -0.29244080029E+02  0.52171847652E+02  0.00000000000E+00 0. -1.
         13    1    4    4    0    0 -0.40480213294E+02 -0.28508681545E+02 -0.21617259082E+03  0.22177010983E+03  0.00000000000E+00 0.  1.
         -2    1    1    2    0  502  0.13963096723E+03  0.38533061704E+00 -0.14812461774E+03  0.20356290887E+03  0.00000000000E+00 0.  1.
<scales pt_clust_5="13000.00000" pt_clust_6="13000.00000" pt_clust_7="13000.00000" pt_clust_8="13000.00000" pt_clust_9="13000.00000"></scales>
<clustering>
<clus scale="   80.661">  5  6 -1 -1</clus>
<clus scale="   94.601">  7  8 -1 -1</clus>
<clus scale="  102.546">  2  5  1 -1</clus>
<clus scale="  114.140">  7  9 -1 -1</clus>
<clus scale="  270.437">  1  5  2 -1</clus>
</clustering>
</event>
<event>
 9    2  0.2147756E-005  0.4147533E+03  0.7546771E-02  0.1082458E+00
         21   -1    0    0  501  502  0.00000000000E+00  0.00000000000E+00  0.54615867805E+03  0.54615867805E+03  0.00000000000E+00 0. -1.
          2   -1    0    0  502    0 -0.00000000000E+00 -0.00000000000E+00 -0.13203348955E+03  0.13203348955E+03  0.00000000000E+00 0. -1.
         24    2    1    2    0    0 -0.33013185047E+02 -0.86770476068E+02  0.92192668455E+02  0.15315805282E+03  0.79617304169E+02 0.  0.
         23    2    1    2    0    0  0.10067568251E+03 -0.14741358140E+02  0.36617272871E+03  0.39526484989E+03  0.10862289640E+03 0.  0.
        -13    1    3    3    0    0  0.22255678159E+02 -0.33692355891E+02  0.54311935385E+02  0.67677739184E+02  0.00000000000E+00 0.  1.
         14    1    3    3    0    0 -0.55268863206E+02 -0.53078120177E+02  0.37880733070E+02  0.85480313637E+02  0.00000000000E+00 0. -1.
        -13    1    4    4    0    0  0.51365906848E+02  0.15970091959E+02  0.30938914709E+03  0.31403048349E+03  0.00000000000E+00 0. -1.
         13    1    4    4    0    0  0.49309775663E+02 -0.30711450099E+02  0.56783581613E+02  0.81234366397E+02  0.00000000000E+00 0.  1.
          1    1    1    2  501    0 -0.67662497465E+02  0.10151183421E+03 -0.44240208655E+02  0.12976926489E+03  0.00000000000E+00 0. -1.
<scales pt_clust_5="13000.00000" pt_clust_6="13000.00000" pt_clust_7="13000.00000" pt_clust_8="13000.00000" pt_clust_9="13000.00000"></scales>
<clustering>
<clus scale="   79.617">  5  6 -1 -1</clus>
<clus scale="  108.623">  7  8 -1 -1</clus>
<clus scale="  121.995">  7  9 -1 -1</clus>
<clus scale="  122.302">  2  5  1 -1</clus>
<clus scale="  414.753">  1  5  2 -1</clus>
</clustering>
</event>
<event>
 9    2  0.2147756E-005  0.2771105E+03  0.7546771E-02  0.1116402E+00
          2   -1    0    0  502    0 -0.00000000000E+00  0.00000000000E+00  0.96513750651E+03  0.96513750651E+03  0.00000000000E+00 0. -1.
         21   -1    0    0  501  502  0.00000000000E+00 -0.00000000000E+00 -0.51873595250E+02  0.51873595250E+02  0.00000000000E+00 0. -1.
         24    2    1    2    0    0  0.26562710364E+02 -0.14733354552E+03  0.37343233865E+03  0.41020937774E+03  0.80045429718E+02 0.  0.
         23    2    1    2    0    0 -0.82819678774E+02  0.88393131782E+01  0.29827190511E+03  0.32273030369E+03  0.90837695329E+02 0.  0.
        -11    1    3    3    0    0  0.23263262992E+02 -0.13317547517E+02  0.24132095403E+02  0.36067915180E+02  0.00000000000E+00 0.  1.
         12    1    3    3    0    0  0.32994473718E+01 -0.13401599800E+03  0.34930024325E+03  0.37414146256E+03  0.00000000000E+00 0. -1.
        -11    1    4    4    0    0 -0.32896506249E+02 -0.34817795318E+02  0.18840380757E+03  0.19439766897E+03  0.00000000000E+00 0.  1.
         11    1    4    4    0    0 -0.49923172525E+02  0.43657108496E+02  0.10986809754E+03  0.12833263472E+03  0.00000000000E+00 0. -1.
          1    1    1    2  501    0  0.56256968410E+02  0.13849423234E+03  0.24155966750E+03  0.28407142033E+03  0.00000000000E+00 0. -1.
<scales pt_clust_5="13000.00000" pt_clust_6="13000.00000" pt_clust_7="13000.00000" pt_clust_8="13000.00000" pt_clust_9="13000.00000"></scales>
<clustering>
<clus scale="   80.045">  5  6 -1 -1</clus>
<clus scale="   90.838">  7  8 -1 -1</clus>
<clus scale="  149.484">  7  9 -1 -1</clus>
<clus scale="  169.765">  1  5  2 -1</clus>
<clus scale="  277.110">  2  5  1 -1</clus>
</clustering>
</event>
<event>
 9    2  0.2147756E-005  0.2601588E+03  0.7546771E-02  0.1136773E+00
          2   -1    0    0  502    0 -0.00000000000E+00  0.00000000000E+00  0.18382664812E+03  0.18382664812E+03  0.00000000000E+00 0. -1.
         21   -1    0    0  501  502  0.00000000000E+00 -0.00000000000E+00 -0.24158220545E+03  0.24158220545E+03  0.00000000000E+00 0.  1.
         24    2    1    2    0    0  0.82568462449E+01  0.91408934353E+02  0.62425577479E+02  0.13883234929E+03  0.83388846357E+02 0.  0.
         23    2    1    2    0    0 -0.90543092058E+02  0.76634311771E+01 -0.66729319348E+02  0.14713670925E+03  0.94549613708E+02 0.  0.
        -11    1    3    3    0    0  0.38935834241E+02  0.61209006599E+02  0.13721168630E+02  0.73829615639E+02  0.00000000000E+00 0.  1.
         12    1    3    3    0    0 -0.30678987996E+02  0.30199927754E+02  0.48704408850E+02  0.65002733652E+02  0.00000000000E+00 0. -1.
        -11    1    4    4    0    0 -0.38921263831E+02  0.27981009123E+01 -0.83888864331E+02  0.92520461010E+02  0.00000000000E+00 0.  1.
         11    1    4    4    0    0 -0.51621828227E+02  0.48653302648E+01  0.17159544983E+02  0.54616248242E+02  0.00000000000E+00 0. -1.
          1    1    1    2  501    0  0.82286245813E+02 -0.99072365530E+02 -0.53451815465E+02  0.13943979503E+03  0.00000000000E+00 0. -1.
<scales pt_clust_5="13000.00000" pt_clust_6="13000.00000" pt_clust_7="13000.00000" pt_clust_8="13000.00000" pt_clust_9="13000.00000"></scales>
<clustering>
<clus scale="   83.389">  5  6 -1 -1</clus>
<clus scale="   94.550">  7  8 -1 -1</clus>
<clus scale="  124.006">  1  5  2 -1</clus>
<clus scale="  100.888">  7  9 -1 -1</clus>
<clus scale="  260.159">  2  5  1 -1</clus>
</clustering>
</event>
<event>
 9    2  0.2147756E-005  0.4093077E+03  0.7546771E-02  0.1089399E+00
         21   -1    0    0  501  502  0.00000000000E+00  0.00000000000E+00  0.58154292507E+02  0.58154292507E+02  0.00000000000E+00 0. -1.
          2   -1    0    0  502    0 -0.00000000000E+00 -0.00000000000E+00 -0.11593681515E+04  0.11593681515E+04  0.00000000000E+00 0. -1.
         24    2    1    2    0    0 -0.65550637579E+02  0.23186889574E+02 -0.16840269661E+03  0.19886180719E+03  0.79699637379E+02 0.  0.
         23    2    1    2    0    0 -0.12968893746E+03  0.65254980912E+02 -0.30473965111E+03  0.35502347738E+03  0.10999082462E+03 0.  0.
        -11    1    3    3    0    0  0.17254849607E+01  0.33309003712E+02 -0.30985301345E+02  0.45525332795E+02  0.00000000000E+00 0.  1.
         12    1    3    3    0    0 -0.67276122540E+02 -0.10122114138E+02 -0.13741739527E+03  0.15333647440E+03  0.00000000000E+00 0. -1.
        -13    1    4    4    0    0 -0.42784558665E+02  0.22770019300E+02 -0.22352071373E+03  0.22871489174E+03  0.00000000000E+00 0.  1.
         13    1    4    4    0    0 -0.86904378790E+02  0.42484961612E+02 -0.81218937376E+02  0.12630858563E+03  0.00000000000E+00 0. -1.
          1    1    1    2  501    0  0.19523957503E+03 -0.88441870486E+02 -0.62807151130E+03  0.66363715947E+03  0.00000000000E+00 0. -1.
<scales pt_clust_5="13000.00000" pt_clust_6="13000.00000" pt_clust_7="13000.00000" pt_clust_8="13000.00000" pt_clust_9="13000.00000"></scales>
<clustering>
<clus scale="   79.700">  5  6 -1 -1</clus>
<clus scale="  105.767">  2  5  1 -1</clus>
<clus scale="  109.991">  7  8 -1 -1</clus>
<clus scale="  168.527">  7  9 -1 -1</clus>
<clus scale="  409.308">  1  5  2 -1</clus>
</clustering>
</event>
<event>
 9    2  0.2147756E-005  0.1120665E+04  0.7546771E-02  0.9866234E-01
         21   -1    0    0  501  502  0.00000000000E+00  0.00000000000E+00  0.70861118551E+03  0.70861118551E+03  0.00000000000E+00 0. -1.
          2   -1    0    0  502    0 -0.00000000000E+00 -0.00000000000E+00 -0.71456375306E+03  0.71456375306E+03  0.00000000000E+00 0. -1.
         24    2    1    2    0    0 -0.41427398397E+01  0.67087638675E+02 -0.25464351591E+03  0.27524710980E+03  0.79998360641E+02 0.  0.
         23    2    1    2    0    0 -0.93680395516E+02  0.51264512584E+03  0.11075618728E+03  0.54403591594E+03  0.11012312769E+03 0.  0.
        -11    1    3    3    0    0 -0.26694969735E+02 -0.65012422364E+01 -0.63471686420E+02  0.69163158811E+02  0.00000000000E+00 0.  1.
         12    1    3    3    0    0  0.22552229895E+02  0.73588880912E+02 -0.19117182949E+03  0.20608395099E+03  0.00000000000E+00 0. -1.
        -13    1    4    4    0    0 -0.11212858774E+03  0.39426495144E+03  0.10928457575E+03  0.42421785749E+03  0.00000000000E+00 0. -1.
         13    1    4    4    0    0  0.18448192219E+02  0.11838017440E+03  0.14716115314E+01  0.11981805844E+03  0.00000000000E+00 0.  1.
          1    1    1    2  501    0  0.97823135355E+02 -0.57973276452E+03  0.13793476108E+03  0.60389191283E+03  0.00000000000E+00 0. -1.
<scales pt_clust_5="13000.00000" pt_clust_6="13000.00000" pt_clust_7="13000.00000" pt_clust_8="13000.00000" pt_clust_9="13000.00000"></scales>
<clustering>
<clus scale="   79.998">  5  6 -1 -1</clus>
<clus scale="  104.488">  2  5  1 -1</clus>
<clus scale="  110.123">  7  8 -1 -1</clus>
<clus scale="  553.305">  7  9 -1 -1</clus>
<clus scale=" 1120.665">  1  5  2 -1</clus>
</clustering>
</event>
<event>
 9    2  0.2147756E-005  0.2275221E+03  0.7546771E-02  0.1172911E+00
         21   -1    0    0  501  502  0.00000000000E+00  0.00000000000E+00  0.20527825944E+02  0.20527825944E+02  0.00000000000E+00 0.  1.
          4   -1    0    0  502    0 -0.00000000000E+00 -0.00000000000E+00 -0.11525143011E+04  0.11525143011E+04  0.00000000000E+00 0. -1.
         24    2    1    2    0    0  0.18223850958E+02 -0.26122446778E+02 -0.33099059920E+03  0.34035929400E+03  0.72630443198E+02 0.  0.
         23    2    1    2    0    0  0.20754944576E+02 -0.46054786814E+02 -0.19712687224E+03  0.22326780764E+03  0.91856948871E+02 0.  0.
        -13    1    3    3    0    0  0.98558296532E+01 -0.47709361594E+02 -0.14572137424E+03  0.15364907899E+03  0.00000000000E+00 0.  1.
         14    1    3    3    0    0  0.83680213045E+01  0.21586914816E+02 -0.18526922496E+03  0.18671021501E+03  0.00000000000E+00 0. -1.
        -11    1    4    4    0    0  0.57257869524E+02 -0.29775753617E+02 -0.11304987695E+03  0.13017424401E+03  0.00000000000E+00 0.  1.
         11    1    4    4    0    0 -0.36502924948E+02 -0.16279033197E+02 -0.84076995289E+02  0.93093563625E+02  0.00000000000E+00 0. -1.
          3    1    1    2  501    0 -0.38978795534E+02  0.72177233592E+02 -0.60386900370E+03  0.60941502540E+03  0.00000000000E+00 0. -1.
<scales pt_clust_5="13000.00000" pt_clust_6="13000.00000" pt_clust_7="13000.00000" pt_clust_8="13000.00000" pt_clust_9="13000.00000"></scales>
<clustering>
<clus scale="   72.630">  5  6 -1 -1</clus>
<clus scale="   79.307">  2  5  1 -1</clus>
<clus scale="   91.857">  7  8 -1 -1</clus>
<clus scale="   58.590">  7  9 -1 -1</clus>
<clus scale="  227.522">  1  5  2 -1</clus>
</clustering>
</event>
<event>
 9    2  0.2147756E-005  0.2933463E+03  0.7546771E-02  0.1121292E+00
          2   -1    0    0  502    0 -0.00000000000E+00  0.00000000000E+00  0.48128115509E+03  0.48128115509E+03  0.00000000000E+00 0. -1.
         21   -1    0    0  501  502  0.00000000000E+00 -0.00000000000E+00 -0.93645608870E+02  0.93645608870E+02  0.00000000000E+00 0. -1.
         24    2    1    2    0    0  0.74218259008E+02  0.62756181171E+02  0.15753859872E+03  0.20210423093E+03  0.81123497382E+02 0.  0.
         23    2    1    2    0    0 -0.58766898869E+02  0.72998365948E+02  0.18993743955E+03  0.23041176211E+03  0.90725075596E+02 0.  0.
        -13    1    3    3    0    0  0.63402476892E+01  0.51614572437E+02  0.38807296678E+02  0.64886586472E+02  0.00000000000E+00 0.  1.
         14    1    3    3    0    0  0.67878011319E+02  0.11141608735E+02  0.11873130204E+03  0.13721764446E+03  0.00000000000E+00 0. -1.
        -11    1    4    4    0    0 -0.19818128749E+02  0.86685520211E+02  0.13595104283E+03  0.16244944963E+03  0.00000000000E+00 0. -1.
         11    1    4    4    0    0 -0.38948770120E+02 -0.13687154262E+02  0.53986396728E+02  0.67962312478E+02  0.00000000000E+00 0.  1.
          1    1    1    2  501    0 -0.15451360140E+02 -0.13575454712E+03  0.40159507941E+02  0.14241077091E+03  0.00000000000E+00 0. -1.
<scales pt_clust_5="13000.00000" pt_clust_6="13000.00000" pt_clust_7="13000.00000" pt_clust_8="13000.00000" pt_clust_9="13000.00000"></scales>
<clustering>
<clus scale="   81.123">  5  6 -1 -1</clus>
<clus scale="   90.725">  7  8 -1 -1</clus>
<clus scale="  126.601">  1  5  2 -1</clus>
<clus scale="  116.962">  7  9 -1 -1</clus>
<clus scale="  293.346">  2  5  1 -1</clus>
</clustering>
</event>
<event>
 9    2  0.2147756E-005  0.2998067E+03  0.7546771E-02  0.1114574E+00
         21   -1    0    0  501  502  0.00000000000E+00  0.00000000000E+00  0.55640324264E+02  0.55640324264E+02  0.00000000000E+00 0.  1.
          2   -1    0    0  502    0 -0.00000000000E+00 -0.00000000000E+00 -0.90249725442E+03  0.90249725442E+03  0.00000000000E+00 0. -1.
         24    2    1    2    0    0  0.69942008374E+02 -0.90532089070E+02 -0.19131437992E+03  0.23729077251E+03  0.81349708459E+02 0.  0.
         23    2    1    2    0    0  0.66873485655E+02  0.56588863261E+01 -0.13514191225E+03  0.17610947134E+03  0.90813673915E+02 0.  0.
        -13    1    3    3    0    0  0.77031519902E+02 -0.44955300192E+02 -0.15399697723E+03  0.17796039747E+03  0.00000000000E+00 0.  1.
         14    1    3    3    0    0 -0.70895115277E+01 -0.45576788878E+02 -0.37317402698E+02  0.59330375039E+02  0.00000000000E+00 0. -1.
        -13    1    4    4    0    0  0.88530757661E+02  0.14145189731E+02 -0.10809019839E+03  0.14043244793E+03  0.00000000000E+00 0.  1.
         13    1    4    4    0    0 -0.21657272006E+02 -0.84863034048E+01 -0.27051713860E+02  0.35677023404E+02  0.00000000000E+00 0. -1.
          1    1    1    2  501    0 -0.13681549403E+03  0.84873202744E+02 -0.52040063798E+03  0.54473733484E+03  0.00000000000E+00 0. -1.
<scales pt_clust_5="13000.00000" pt_clust_6="13000.00000" pt_clust_7="13000.00000" pt_clust_8="13000.00000" pt_clust_9="13000.00000"></scales>
<clustering>
<clus scale="   81.350">  5  6 -1 -1</clus>
<clus scale="   90.814">  7  8 -1 -1</clus>
<clus scale="  140.377">  2  5  1 -1</clus>
<clus scale="   84.006">  7  9 -1 -1</clus>
<clus scale="  299.807">  1  5  2 -1</clus>
</clustering>
</event>
<event>
 9    2  0.2147756E-005  0.1879641E+03  0.7546771E-02  0.1184688E+00
         21   -1    0    0  501  502  0.00000000000E+00  0.00000000000E+00  0.53766457530E+02  0.53766457530E+02  0.00000000000E+00 0. -1.
          2   -1    0    0  502    0 -0.00000000000E+00 -0.00000000000E+00 -0.40698475111E+03  0.40698475111E+03  0.00000000000E+00 0. -1.
         24    2    1    2    0    0 -0.45669506564E+02  0.57102521562E+02 -0.12703716701E+03  0.16666210921E+03  0.79318440769E+02 0.  0.
         23    2    1    2    0    0 -0.32067062279E+02 -0.14578984079E+02 -0.13309036140E+03  0.16557016723E+03  0.91976044254E+02 0.  0.
        -11    1    3    3    0    0  0.21690952987E+02  0.63357464170E+01 -0.18508271221E+02  0.29209505777E+02  0.00000000000E+00 0.  1.
         12    1    3    3    0    0 -0.67360459551E+02  0.50766775145E+02 -0.10852889579E+03  0.13745260343E+03  0.00000000000E+00 0. -1.
        -11    1    4    4    0    0 -0.80967322901E+01  0.38976082522E+02 -0.52770760860E+02  0.66101779736E+02  0.00000000000E+00 0. -1.
         11    1    4    4    0    0 -0.23970329989E+02 -0.53555066600E+02 -0.80319600545E+02  0.99468387491E+02  0.00000000000E+00 0.  1.
          1    1    1    2  501    0  0.77736568843E+02 -0.42523537483E+02 -0.93090765171E+02  0.12851893221E+03  0.00000000000E+00 0. -1.
<scales pt_clust_5="13000.00000" pt_clust_6="13000.00000" pt_clust_7="13000.00000" pt_clust_8="13000.00000" pt_clust_9="13000.00000"></scales>
<clustering>
<clus scale="   79.318">  5  6 -1 -1</clus>
<clus scale="   91.976">  7  8 -1 -1</clus>
<clus scale="   88.607">  7  9 -1 -1</clus>
<clus scale="  107.879">  2  5  1 -1</clus>
<clus scale="  187.964">  1  5  2 -1</clus>
</clustering>
</event>
<event>
 9    2  0.2147756E-005  0.3067730E+03  0.7546771E-02  0.1128192E+00
         -3   -1    0    0    0  501 -0.00000000000E+00  0.00000000000E+00  0.97696726161E+02  0.97696726161E+02  0.00000000000E+00 0.  1.
         21   -1    0    0  501  502  0.00000000000E+00 -0.00000000000E+00 -0.40979256887E+03  0.40979256887E+03  0.00000000000E+00 0.  1.
         24    2    1    2    0    0  0.30288662507E+01  0.81685315290E+01 -0.77998279384E+02  0.12159895918E+03  0.92879902822E+02 0.  0.
         23    2    1    2    0    0 -0.85915189102E+02 -0.10836012763E+03 -0.71804097498E+02  0.17792960039E+03  0.85905630199E+02 0.  0.
        -11    1    3    3    0    0  0.20121792088E+02 -0.38249098041E+02 -0.29513948748E+02  0.52335009205E+02  0.00000000000E+00 0.  1.
         12    1    3    3    0    0 -0.17092925838E+02  0.46417629570E+02 -0.48484330636E+02  0.69263949973E+02  0.00000000000E+00 0. -1.
        -13    1    4    4    0    0 -0.40583604877E+02 -0.39049593971E+02  0.14664750115E+02  0.58197548661E+02  0.00000000000E+00 0.  1.
         13    1    4    4    0    0 -0.45331584224E+02 -0.69310533654E+02 -0.86468847613E+02  0.11973205173E+03  0.00000000000E+00 0. -1.
         -4    1    1    2    0  502  0.82886322851E+02  0.10019159610E+03 -0.16229346583E+03  0.20796073546E+03  0.00000000000E+00 0.  1.
<scales pt_clust_5="13000.00000" pt_clust_6="13000.00000" pt_clust_7="13000.00000" pt_clust_8="13000.00000" pt_clust_9="13000.00000"></scales>
<clustering>
<clus scale="   85.906">  7  8 -1 -1</clus>
<clus scale="   92.880">  5  6 -1 -1</clus>
<clus scale="   93.288">  1  5  2 -1</clus>
<clus scale="  132.510">  7  9 -1 -1</clus>
<clus scale="  306.773">  2  5  1 -1</clus>
</clustering>
</event>
<event>
 9    2  0.2147756E-005  0.3684749E+03  0.7546771E-02  0.1088332E+00
         21   -1    0    0  501  502  0.00000000000E+00  0.00000000000E+00  0.62051973537E+03  0.62051973537E+03  0.00000000000E+00 0. -1.
          2   -1    0    0  502    0 -0.00000000000E+00 -0.00000000000E+00 -0.22842941182E+03  0.22842941182E+03  0.00000000000E+00 0. -1.
         24    2    1    2    0    0 -0.10945369722E+03  0.62024337629E+02 -0.13812691464E+03  0.20326806393E+03  0.80073285007E+02 0.  0.
         23    2    1    2    0    0  0.53512972538E+02  0.12463947914E+03  0.17164121713E+03  0.23757630745E+03  0.92645326129E+02 0.  0.
        -11    1    3    3    0    0 -0.84431199480E+02  0.30905611879E+02 -0.42117450824E+02  0.99285769148E+02  0.00000000000E+00 0.  1.
         12    1    3    3    0    0 -0.25022497735E+02  0.31118725749E+02 -0.96009463816E+02  0.10398229478E+03  0.00000000000E+00 0. -1.
        -11    1    4    4    0    0 -0.21182841588E+02  0.28301510018E+01  0.22756704002E+02  0.31218425801E+02  0.00000000000E+00 0.  1.
         11    1    4    4    0    0  0.74695814126E+02  0.12180932814E+03  0.14888451312E+03  0.20635788165E+03  0.00000000000E+00 0. -1.
          1    1    1    2  501    0  0.55940724677E+02 -0.18666381677E+03  0.35857602106E+03  0.40810477582E+03  0.00000000000E+00 0. -1.
<scales pt_clust_5="13000.00000" pt_clust_6="13000.00000" pt_clust_7="13000.00000" pt_clust_8="13000.00000" pt_clust_9="13000.00000"></scales>
<clustering>
<clus scale="   80.073">  5  6 -1 -1</clus>
<clus scale="   92.645">  7  8 -1 -1</clus>
<clus scale="  149.127">  2  5  1 -1</clus>
<clus scale="  160.311">  7  9 -1 -1</clus>
<clus scale="  368.475">  1  5  2 -1</clus>
</clustering>
</event>
<event>
 9    2  0.2147756E-005  0.1397179E+03  0.7546771E-02  0.1228550E+00
         21   -1    0    0  501  502  0.00000000000E+00  0.00000000000E+00  0.91334475118E+02  0.91334475118E+02  0.00000000000E+00 0. -1.
          2   -1    0    0  502    0 -0.00000000000E+00 -0.00000000000E+00 -0.18257058808E+03  0.18257058808E+03  0.00000000000E+00 0. -1.
         24    2    1    2    0    0 -0.14473723871E+02 -0.60496908163E+02  0.77708754514E+01  0.10266410242E+03  0.81302932551E+02 0.  0.
         23    2    1    2    0    0  0.11974535360E+02  0.40364709230E+02 -0.39670500716E+02  0.10853234773E+03  0.91830401444E+02 0.  0.
        -13    1    3    3    0    0  0.20269470311E+02 -0.64202704296E+02  0.72967946607E+01  0.67720616343E+02  0.00000000000E+00 0.  1.
         14    1    3    3    0    0 -0.34743194181E+02  0.37057961328E+01  0.47408079071E+00  0.34943486081E+02  0.00000000000E+00 0. -1.
        -13    1    4    4    0    0  0.20155920545E+02 -0.22191680048E+02 -0.33786816366E+02  0.45169467083E+02  0.00000000000E+00 0. -1.
         13    1    4    4    0    0 -0.81813851848E+01  0.62556389277E+02 -0.58836843493E+01  0.63362880652E+02  0.00000000000E+00 0.  1.
          1    1    1    2  501    0  0.24991885104E+01  0.20132198933E+02 -0.59336487699E+02  0.62708613041E+02  0.00000000000E+00 0. -1.
<scales pt_clust_5="13000.00000" pt_clust_6="13000.00000" pt_clust_7="13000.00000" pt_clust_8="13000.00000" pt_clust_9="13000.00000"></scales>
<clustering>
<clus scale="   81.303">  5  6 -1 -1</clus>
<clus scale="   91.830">  7  8 -1 -1</clus>
<clus scale="   20.287">  7  9 -1 -1</clus>
<clus scale="  102.370">  2  5  1 -1</clus>
<clus scale="  139.718">  1  5  2 -1</clus>
</clustering>
</event>
<event>
 9    2  0.2147756E-005  0.1404155E+03  0.7546771E-02  0.1220178E+00
         21   -1    0    0  501  502  0.00000000000E+00  0.00000000000E+00  0.55515470067E+02  0.55515470067E+02  0.00000000000E+00 0.  1.
          2   -1    0    0  502    0 -0.00000000000E+00 -0.00000000000E+00 -0.51210572138E+03  0.51210572138E+03  0.00000000000E+00 0. -1.
         24    2    1    2    0    0 -0.81689376487E+02 -0.33210045827E+02 -0.39756533348E+03  0.41530421695E+03  0.81506667547E+02 0.  0.
         23    2    1    2    0    0  0.61556223643E+02  0.27365787168E+02 -0.41511970677E+02  0.12500026678E+03  0.96766564514E+02 0.  0.
        -13    1    3    3    0    0 -0.13035324140E+02 -0.27832708315E+02 -0.36434189069E+02  0.47665810186E+02  0.00000000000E+00 0.  1.
         14    1    3    3    0    0 -0.68654052347E+02 -0.53773375115E+01 -0.36113114441E+03  0.36763840676E+03  0.00000000000E+00 0. -1.
        -13    1    4    4    0    0 -0.20579823791E+02  0.54965050079E+01 -0.33402710749E+02  0.39616685878E+02  0.00000000000E+00 0. -1.
         13    1    4    4    0    0  0.82136047434E+02  0.21869282160E+02 -0.81092599285E+01  0.85383580898E+02  0.00000000000E+00 0.  1.
          1    1    1    2  501    0  0.20133152844E+02  0.58442586586E+01 -0.17512947152E+02  0.27316707720E+02  0.00000000000E+00 0. -1.
<scales pt_clust_5="13000.00000" pt_clust_6="13000.00000" pt_clust_7="13000.00000" pt_clust_8="13000.00000" pt_clust_9="13000.00000"></scales>
<clustering>
<clus scale="   81.507">  5  6 -1 -1</clus>
<clus scale="   96.767">  7  8 -1 -1</clus>
<clus scale="   20.964">  7  9 -1 -1</clus>
<clus scale="  120.081">  2  5  1 -1</clus>
<clus scale="  140.416">  1  5  2 -1</clus>
</clustering>
</event>
<event>
 9    2  0.2147756E-005  0.3918791E+03  0.7546771E-02  0.1086711E+00
          2   -1    0    0  502    0 -0.00000000000E+00  0.00000000000E+00  0.43397916509E+03  0.43397916509E+03  0.00000000000E+00 0. -1.
         21   -1    0    0  501  502  0.00000000000E+00 -0.00000000000E+00 -0.52778237347E+03  0.52778237347E+03  0.00000000000E+00 0. -1.
         24    2    1    2    0    0 -0.91109461253E+02  0.47237187363E+02  0.34794946697E+03  0.37124089210E+03  0.78858624133E+02 0.  0.
         23    2    1    2    0    0 -0.25873669218E+02  0.64945820019E+02  0.63550744714E+01  0.11400135471E+03  0.89824916402E+02 0.  0.
        -11    1    3    3    0    0 -0.82740525979E+02  0.58227934752E+02  0.34116370902E+03  0.35584991692E+03  0.00000000000E+00 0.  1.
         12    1    3    3    0    0 -0.83689352739E+01 -0.10990747389E+02  0.67857579542E+01  0.15390975174E+02  0.00000000000E+00 0. -1.
        -11    1    4    4    0    0  0.27106742566E+02  0.98968259482E+01  0.21659512132E+02  0.36081257215E+02  0.00000000000E+00 0.  1.
         11    1    4    4    0    0 -0.52980411784E+02  0.55048994071E+02 -0.15304437660E+02  0.77920097492E+02  0.00000000000E+00 0. -1.
          1    1    1    2  501    0  0.11698313047E+03 -0.11218300738E+03 -0.44810774982E+03  0.47651929175E+03  0.00000000000E+00 0. -1.
<scales pt_clust_5="13000.00000" pt_clust_6="13000.00000" pt_clust_7="13000.00000" pt_clust_8="13000.00000" pt_clust_9="13000.00000"></scales>
<clustering>
<clus scale="   78.859">  5  6 -1 -1</clus>
<clus scale="   89.825">  7  8 -1 -1</clus>
<clus scale="  129.426">  1  5  2 -1</clus>
<clus scale="  143.385">  7  9 -1 -1</clus>
<clus scale="  391.879">  2  5  1 -1</clus>
</clustering>
</event>
<event>
 9    2  0.2147756E-005  0.2555867E+03  0.7546771E-02  0.1132534E+00
         -1   -1    0    0    0  501 -0.00000000000E+00  0.00000000000E+00  0.17170331174E+03  0.17170331174E+03  0.00000000000E+00 0.  1.
         21   -1    0    0  501  502  0.00000000000E+00 -0.00000000000E+00 -0.28887952383E+03  0.28887952383E+03  0.00000000000E+00 0.  1.
         24    2    1    2    0    0 -0.11589442429E+03 -0.14403140586E+02  0.52036115727E+02  0.15405813785E+03  0.85948731570E+02 0.  0.
         23    2    1    2    0    0  0.60170993952E+02 -0.84361406953E+02 -0.63373867897E+02  0.15140759312E+03  0.90391463239E+02 0.  0.
        -13    1    3    3    0    0 -0.12727124992E+03 -0.15382199493E+02  0.58524665148E+02  0.14092451720E+03  0.00000000000E+00 0.  1.
         14    1    3    3    0    0  0.11376825633E+02  0.97905890709E+00 -0.64885494210E+01  0.13133620651E+02  0.00000000000E+00 0. -1.
        -13    1    4    4    0    0  0.74017198441E+02 -0.37381572913E+02 -0.18453765287E+02  0.84949803483E+02  0.00000000000E+00 0. -1.
         13    1    4    4    0    0 -0.13846204489E+02 -0.46979834040E+02 -0.44920102610E+02  0.66457789639E+02  0.00000000000E+00 0.  1.
         -2    1    1    2    0  502  0.55723430333E+02  0.98764547539E+02 -0.10583845992E+03  0.15511710459E+03  0.00000000000E+00 0.  1.
<scales pt_clust_5="13000.00000" pt_clust_6="13000.00000" pt_clust_7="13000.00000" pt_clust_8="13000.00000" pt_clust_9="13000.00000"></scales>
<clustering>
<clus scale="   85.949">  5  6 -1 -1</clus>
<clus scale="   90.391">  7  8 -1 -1</clus>
<clus scale="  113.400">  7  9 -1 -1</clus>
<clus scale="  145.004">  1  5  2 -1</clus>
<clus scale="  255.587">  2  5  1 -1</clus>
</clustering>
</event>
<event>
 9    2  0.2147756E-005  0.3166455E+03  0.7546771E-02  0.1092866E+00
         21   -1    0    0  501  502  0.00000000000E+00  0.00000000000E+00  0.51442030037E+02  0.51442030037E+02  0.00000000000E+00 0.  1.
          2   -1    0    0  502    0 -0.00000000000E+00 -0.00000000000E+00 -0.17748802409E+04  0.17748802409E+04  0.00000000000E+00 0. -1.
         24    2    1    2    0    0 -0.16429386206E+03  0.99955060379E+02 -0.28304797104E+03  0.35153808221E+03  0.80494609310E+02 0.  0.
         23    2    1    2    0    0 -0.53349452218E+01  0.34979498092E+01 -0.24651557969E+03  0.26448952969E+03  0.95624698657E+02 0.  0.
        -13    1    3    3    0    0 -0.11600291773E+03  0.97035032549E+02 -0.16427862732E+03  0.22329339859E+03  0.00000000000E+00 0.  1.
         14    1    3    3    0    0 -0.48290944336E+02  0.29200278309E+01 -0.11876934373E+03  0.12824468362E+03  0.00000000000E+00 0. -1.
        -13    1    4    4    0    0  0.44335694463E+01 -0.43457627711E+02 -0.15664775626E+03  0.16262454146E+03  0.00000000000E+00 0.  1.
         13    1    4    4    0    0 -0.97685146681E+01  0.46955577520E+02 -0.89867823431E+02  0.10186498823E+03  0.00000000000E+00 0. -1.
          1    1    1    2  501    0  0.16962880728E+03 -0.10345301019E+03 -0.11938746601E+04  0.12102946590E+04  0.00000000000E+00 0. -1.
<scales pt_clust_5="13000.00000" pt_clust_6="13000.00000" pt_clust_7="13000.00000" pt_clust_8="13000.00000" pt_clust_9="13000.00000"></scales>
<clustering>
<clus scale="   80.495">  5  6 -1 -1</clus>
<clus scale="   95.625">  7  8 -1 -1</clus>
<clus scale="  198.687">  7  9 -1 -1</clus>
<clus scale="  208.478">  2  5  1 -1</clus>
<clus scale="  316.645">  1  5  2 -1</clus>
</clustering>
</event>
<event>
 9    2  0.2147756E-005  0.2315601E+03  0.7546771E-02  0.1168898E+00
          2   -1    0    0  502    0 -0.00000000000E+00  0.00000000000E+00  0.62540004364E+02  0.62540004364E+02  0.00000000000E+00 0. -1.
         21   -1    0    0  501  502  0.00000000000E+00 -0.00000000000E+00 -0.60657510021E+03  0.60657510021E+03  0.00000000000E+00 0. -1.
         24    2    1    2    0    0 -0.16470515664E+02 -0.12857791973E+02 -0.51786024463E+01  0.82611546874E+02  0.79757438857E+02 0.  0.
         23    2    1    2    0    0 -0.65037851355E+02 -0.42499645522E+02 -0.20158994721E+03  0.23513938343E+03  0.92821769246E+02 0.  0.
        -13    1    3    3    0    0  0.32410465853E+02 -0.30976730446E+01 -0.33815652620E+01  0.32733298928E+02  0.00000000000E+00 0.  1.
         14    1    3    3    0    0 -0.48880981517E+02 -0.97601189282E+01 -0.17970371844E+01  0.49878247946E+02  0.00000000000E+00 0. -1.
        -11    1    4    4    0    0 -0.77816478892E+02 -0.12716745613E+01 -0.13306447548E+03  0.15415309331E+03  0.00000000000E+00 0.  1.
         11    1    4    4    0    0  0.12778627537E+02 -0.41227970960E+02 -0.68525471729E+02  0.80986290117E+02  0.00000000000E+00 0. -1.
          1    1    1    2  501    0  0.81508367019E+02  0.55357437494E+02 -0.33726654619E+03  0.35136417427E+03  0.00000000000E+00 0. -1.
<scales pt_clust_5="13000.00000" pt_clust_6="13000.00000" pt_clust_7="13000.00000" pt_clust_8="13000.00000" pt_clust_9="13000.00000"></scales>
<clustering>
<clus scale="   79.757">  5  6 -1 -1</clus>
<clus scale="   82.449">  1  5  2 -1</clus>
<clus scale="   92.822">  7  8 -1 -1</clus>
<clus scale="   92.362">  7  9 -1 -1</clus>
<clus scale="  231.560">  2  5  1 -1</clus>
</clustering>
</event>
<event>
 9    2  0.2147756E-005  0.1827964E+03  0.7546771E-02  0.1173981E+00
         21   -1    0    0  501  502  0.00000000000E+00  0.00000000000E+00  0.21457976272E+03  0.21457976272E+03  0.00000000000E+00 0. -1.
          2   -1    0    0  502    0 -0.00000000000E+00 -0.00000000000E+00 -0.16134096851E+03  0.16134096851E+03  0.00000000000E+00 0. -1.
         24    2    1    2    0    0 -0.10961301913E+03 -0.60688244835E+02 -0.60037826282E+02  0.16087164043E+03  0.81099118896E+02 0.  0.
         23    2    1    2    0    0  0.35748925722E+02  0.32360176149E+02  0.37147307099E+02  0.10525812520E+03  0.85873067982E+02 0.  0.
        -13    1    3    3    0    0 -0.98249268312E+02 -0.58641098232E+02 -0.78738352835E+02  0.13889357556E+03  0.00000000000E+00 0.  1.
         14    1    3    3    0    0 -0.11363750816E+02 -0.20471466026E+01  0.18700526552E+02  0.21978064864E+02  0.00000000000E+00 0. -1.
        -11    1    4    4    0    0  0.77720443130E+01  0.54335575065E+02  0.15194190610E+01  0.54909635081E+02  0.00000000000E+00 0.  1.
         11    1    4    4    0    0  0.27976881409E+02 -0.21975398916E+02  0.35627888038E+02  0.50348490116E+02  0.00000000000E+00 0. -1.
          1    1    1    2  501    0  0.73864093406E+02  0.28328068686E+02  0.76129313397E+02  0.10979096561E+03  0.00000000000E+00 0. -1.
<scales pt_clust_5="13000.00000" pt_clust_6="13000.00000" pt_clust_7="13000.00000" pt_clust_8="13000.00000" pt_clust_9="13000.00000"></scales>
<clustering>
<clus scale="   81.099">  5  6 -1 -1</clus>
<clus scale="   85.873">  7  8 -1 -1</clus>
<clus scale="   79.110">  7  9 -1 -1</clus>
<clus scale="  149.249">  2  5  1 -1</clus>
<clus scale="  182.796">  1  5  2 -1</clus>
</clustering>
</event>
<event>
 9    2  0.2147756E-005  0.3897057E+03  0.7546771E-02  0.1083234E+00
         21   -1    0    0  501  502  0.00000000000E+00  0.00000000000E+00  0.76839737766E+02  0.76839737766E+02  0.00000000000E+00 0. -1.
          2   -1    0    0  502    0 -0.00000000000E+00 -0.00000000000E+00 -0.11689665423E+04  0.11689665423E+04  0.00000000000E+00 0. -1.
         24    2    1    2    0    0 -0.50020811168E+02  0.10831716301E+03 -0.60491172483E+03  0.62190798638E+03  0.81342850516E+02 0.  0.
         23    2    1    2    0    0 -0.87215816514E+02  0.39315740000E+01 -0.41213984234E+03  0.43136268088E+03  0.92695506303E+02 0.  0.
        -11    1    3    3    0    0 -0.51660098434E+01  0.46027134743E+02 -0.89128946306E+02  0.10044478015E+03  0.00000000000E+00 0.  1.
         12    1    3    3    0    0 -0.44854801325E+02  0.62290028270E+02 -0.51578277853E+03  0.52146320623E+03  0.00000000000E+00 0. -1.
        -13    1    4    4    0    0 -0.89825105904E+02 -0.28916402848E+02 -0.30209085576E+03  0.31648632377E+03  0.00000000000E+00 0. -1.
         13    1    4    4    0    0  0.26092893905E+01  0.32847976848E+02 -0.11004898658E+03  0.11487635711E+03  0.00000000000E+00 0.  1.
          1    1    1    2  501    0  0.13723662768E+03 -0.11224873701E+03 -0.75075237384E+02  0.19253561283E+03  0.00000000000E+00 0. -1.
<scales pt_clust_5="13000.00000" pt_clust_6="13000.00000" pt_clust_7="13000.00000" pt_clust_8="13000.00000" pt_clust_9="13000.00000"></scales>
<clustering>
<clus scale="   81.343">  5  6 -1 -1</clus>
<clus scale="   92.696">  7  8 -1 -1</clus>
<clus scale="  144.400">  2  5  1 -1</clus>
<clus scale="  151.974">  7  9 -1 -1</clus>
<clus scale="  389.706">  1  5  2 -1</clus>
</clustering>
</event>
<event>
 9    2  0.2147756E-005  0.6212581E+03  0.7546771E-02  0.1047367E+00
         21   -1    0    0  501  502  0.00000000000E+00  0.00000000000E+00  0.12649795099E+04  0.12649795099E+04  0.00000000000E+00 0. -1.
          2   -1    0    0  502    0 -0.00000000000E+00 -0.00000000000E+00 -0.10784286574E+03  0.10784286574E+03  0.00000000000E+00 0. -1.
         24    2    1    2    0    0 -0.52913075988E+02  0.12950777036E+02  0.29390319314E+03  0.30927473325E+03  0.79399354247E+02 0.  0.
         23    2    1    2    0    0 -0.27364832737E+03  0.14823219461E+02  0.47200298888E+03  0.55318010860E+03  0.90101476863E+02 0.  0.
        -13    1    3    3    0    0 -0.26030610664E+02 -0.28536655825E+02  0.19401862586E+03  0.19782608674E+03  0.00000000000E+00 0.  1.
         14    1    3    3    0    0 -0.26882465324E+02  0.41487432861E+02  0.99884567279E+02  0.11144864651E+03  0.00000000000E+00 0. -1.
        -11    1    4    4    0    0 -0.21801283352E+03 -0.25610824037E+02  0.35061623898E+03  0.41366321679E+03  0.00000000000E+00 0. -1.
         11    1    4    4    0    0 -0.55635493841E+02  0.40434043498E+02  0.12138674990E+03  0.13951689181E+03  0.00000000000E+00 0.  1.
          1    1    1    2  501    0  0.32656140335E+03 -0.27773996497E+02  0.39123046220E+03  0.51036753384E+03  0.00000000000E+00 0. -1.
<scales pt_clust_5="13000.00000" pt_clust_6="13000.00000" pt_clust_7="13000.00000" pt_clust_8="13000.00000" pt_clust_9="13000.00000"></scales>
<clustering>
<clus scale="   79.399">  5  6 -1 -1</clus>
<clus scale="   90.101">  7  8 -1 -1</clus>
<clus scale="   96.290">  2  5  1 -1</clus>
<clus scale="  295.773">  7  9 -1 -1</clus>
<clus scale="  621.258">  1  5  2 -1</clus>
</clustering>
</event>
<event>
 9    2  0.2147756E-005  0.1662044E+03  0.7546771E-02  0.1210920E+00
          2   -1    0    0  502    0 -0.00000000000E+00  0.00000000000E+00  0.65553649772E+03  0.65553649772E+03  0.00000000000E+00 0. -1.
         21   -1    0    0  501  502  0.00000000000E+00 -0.00000000000E+00 -0.26372902224E+02  0.26372902224E+02  0.00000000000E+00 0. -1.
         24    2    1    2    0    0 -0.25500123119E+02  0.17751104423E+02  0.14118659286E+03  0.16640435625E+03  0.82409937446E+02 0.  0.
         23    2    1    2    0    0  0.29606183868E+02  0.32474636237E+02  0.41140775673E+03  0.42384079669E+03  0.91943191794E+02 0.  0.
        -13    1    3    3    0    0  0.10235449615E+02 -0.26066246448E+02  0.70686190023E+02  0.76031250763E+02  0.00000000000E+00 0.  1.
         14    1    3    3    0    0 -0.35735572734E+02  0.43817350871E+02  0.70500402834E+02  0.90373105488E+02  0.00000000000E+00 0. -1.
        -13    1    4    4    0    0  0.57255507841E+02  0.32682038931E+02  0.35441953574E+03  0.36049898219E+03  0.00000000000E+00 0. -1.
         13    1    4    4    0    0 -0.27649323973E+02 -0.20740269441E+00  0.56988220986E+02  0.63341814492E+02  0.00000000000E+00 0.  1.
          1    1    1    2  501    0 -0.41060607496E+01 -0.50225740660E+02  0.76569245908E+02  0.91664247003E+02  0.00000000000E+00 0. -1.
<scales pt_clust_5="13000.00000" pt_clust_6="13000.00000" pt_clust_7="13000.00000" pt_clust_8="13000.00000" pt_clust_9="13000.00000"></scales>
<clustering>
<clus scale="   82.410">  5  6 -1 -1</clus>
<clus scale="   88.072">  1  5  2 -1</clus>
<clus scale="   91.943">  7  8 -1 -1</clus>
<clus scale="   47.987">  7  9 -1 -1</clus>
<clus scale="  166.204">  2  5  1 -1</clus>
</clustering>
</event>
<event>
 9    2  0.2147756E-005  0.4727661E+03  0.7546771E-02  0.1059978E+00
          2   -1    0    0  502    0 -0.00000000000E+00  0.00000000000E+00  0.12736154369E+04  0.12736154369E+04  0.00000000000E+00 0. -1.
         21   -1    0    0  501  502  0.00000000000E+00 -0.00000000000E+00 -0.76898121129E+02  0.76898121129E+02  0.00000000000E+00 0. -1.
         24    2    1    2    0    0 -0.70311469654E+02 -0.10832934043E+03  0.30977838292E+03  0.34544218726E+03  0.81784530642E+02 0.  0.
         23    2    1    2    0    0  0.18369881633E+03  0.35146212065E+02  0.15303994873E+03  0.25886752492E+03  0.92793632358E+02 0.  0.
        -13    1    3    3    0    0 -0.82401464953E+02 -0.85210841222E+02  0.19896117085E+03  0.23159541531E+03  0.00000000000E+00 0.  1.
         14    1    3    3    0    0  0.12089995298E+02 -0.23118499208E+02  0.11081721207E+03  0.11384677195E+03  0.00000000000E+00 0. -1.
        -11    1    4    4    0    0  0.15506113061E+03  0.30116919445E+02  0.16408858093E+03  0.22776313453E+03  0.00000000000E+00 0.  1.
         11    1    4    4    0    0  0.28637685725E+02  0.50292926205E+01 -0.11048632195E+02  0.31104390387E+02  0.00000000000E+00 0. -1.
          1    1    1    2  501    0 -0.11338734668E+03  0.73183128366E+02  0.73389898413E+03  0.74620384585E+03  0.00000000000E+00 0. -1.
<scales pt_clust_5="13000.00000" pt_clust_6="13000.00000" pt_clust_7="13000.00000" pt_clust_8="13000.00000" pt_clust_9="13000.00000"></scales>
<clustering>
<clus scale="   81.785">  5  6 -1 -1</clus>
<clus scale="   92.794">  7  8 -1 -1</clus>
<clus scale="  134.954">  7  9 -1 -1</clus>
<clus scale="  152.865">  1  5  2 -1</clus>
<clus scale="  472.766">  2  5  1 -1</clus>
</clustering>
</event>
<event>
 9    2  0.2147756E-005  0.1673853E+03  0.7546771E-02  0.1211030E+00
          2   -1    0    0  502    0 -0.00000000000E+00  0.00000000000E+00  0.35707674802E+03  0.35707674802E+03  0.00000000000E+00 0. -1.
         21   -1    0    0  501  502  0.00000000000E+00 -0.00000000000E+00 -0.56363107152E+02  0.56363107152E+02  0.00000000000E+00 0.  1.
         24    2    1    2    0    0  0.58030996039E+01  0.27114570036E+02  0.22766166591E+02  0.88982412193E+02  0.81429082429E+02 0.  0.
         23    2    1    2    0    0 -0.36172880485E+02 -0.24575028655E+02  0.91659743904E+02  0.13569332735E+03  0.89993117066E+02 0.  0.
        -13    1    3    3    0    0 -0.32733242174E+02  0.33477192127E+02  0.14952593364E+02  0.49150458637E+02  0.00000000000E+00 0.  1.
         14    1    3    3    0    0  0.38536341778E+02 -0.63626220907E+01  0.78135732268E+01  0.39831953556E+02  0.00000000000E+00 0. -1.
        -13    1    4    4    0    0 -0.26599606834E+02 -0.58440382254E+02  0.66446799672E+02  0.92401269193E+02  0.00000000000E+00 0.  1.
         13    1    4    4    0    0 -0.95732736518E+01  0.33865353600E+02  0.25212944232E+02  0.43292058159E+02  0.00000000000E+00 0. -1.
          1    1    1    2  501    0  0.30369780882E+02 -0.25395413816E+01  0.18628773037E+03  0.18876411563E+03  0.00000000000E+00 0. -1.
<scales pt_clust_5="13000.00000" pt_clust_6="13000.00000" pt_clust_7="13000.00000" pt_clust_8="13000.00000" pt_clust_9="13000.00000"></scales>
<clustering>
<clus scale="   81.429">  5  6 -1 -1</clus>
<clus scale="   86.021">  1  5  2 -1</clus>
<clus scale="   89.993">  7  8 -1 -1</clus>
<clus scale="   36.885">  7  9 -1 -1</clus>
<clus scale="  167.385">  2  5  1 -1</clus>
</clustering>
</event>
<event>
 9    2  0.2147756E-005  0.1787772E+03  0.7546771E-02  0.1197002E+00
         -3   -1    0    0    0  501 -0.00000000000E+00  0.00000000000E+00  0.18811031480E+03  0.18811031480E+03  0.00000000000E+00 0.  1.
         21   -1    0    0  501  502  0.00000000000E+00 -0.00000000000E+00 -0.10002055621E+03  0.10002055621E+03  0.00000000000E+00 0.  1.
         24    2    1    2    0    0 -0.52449357699E+02 -0.81666469320E+01  0.29824090031E+02  0.10009853596E+03  0.79451943404E+02 0.  0.
         23    2    1    2    0    0  0.79710183439E+02 -0.32080514549E+02  0.20852088301E+02  0.12669097367E+03  0.90735442169E+02 0.  0.
        -13    1    3    3    0    0  0.54937423359E+01  0.26421385157E+02  0.15474421706E+02  0.31108335308E+02  0.00000000000E+00 0.  1.
         14    1    3    3    0    0 -0.57943100035E+02 -0.34588032089E+02  0.14349668325E+02  0.68990200656E+02  0.00000000000E+00 0. -1.
        -11    1    4    4    0    0  0.87327124424E+02  0.28704237064E+01  0.48648070645E+01  0.87509612845E+02  0.00000000000E+00 0.  1.
         11    1    4    4    0    0 -0.76169409853E+01 -0.34950938255E+02  0.15987281236E+02  0.39181360827E+02  0.00000000000E+00 0. -1.
         -4    1    1    2    0  502 -0.27260825739E+02  0.40247161481E+02  0.37413580255E+02  0.61341361370E+02  0.00000000000E+00 0.  1.
<scales pt_clust_5="13000.00000" pt_clust_6="13000.00000" pt_clust_7="13000.00000" pt_clust_8="13000.00000" pt_clust_9="13000.00000"></scales>
<clustering>
<clus scale="   79.452">  5  6 -1 -1</clus>
<clus scale="   90.735">  7  8 -1 -1</clus>
<clus scale="   48.611">  7  9 -1 -1</clus>
<clus scale="   95.552">  1  5  2 -1</clus>
<clus scale="  178.777">  2  5  1 -1</clus>
</clustering>
</event>
<event>
 9    2  0.2147756E-005  0.6148131E+03  0.7546771E-02  0.1053195E+00
          2   -1    0    0  502    0 -0.00000000000E+00  0.00000000000E+00  0.16983703315E+04  0.16983703315E+04  0.00000000000E+00 0. -1.
         21   -1    0    0  501  502  0.00000000000E+00 -0.00000000000E+00 -0.74469664123E+02  0.74469664123E+02  0.00000000000E+00 0. -1.
         24    2    1    2    0    0 -0.19671176271E+02 -0.11795154757E+02  0.10727539027E+03  0.13633535908E+03  0.80952084149E+02 0.  0.
         23    2    1    2    0    0 -0.31217322623E+02  0.28020259167E+03  0.47843812856E+03  0.56297552798E+03  0.92468311521E+02 0.  0.
        -11    1    3    3    0    0 -0.49318747668E+02  0.18929024804E+01  0.78948220554E+02  0.93106087234E+02  0.00000000000E+00 0.  1.
         12    1    3    3    0    0  0.29647571398E+02 -0.13688057237E+02  0.28327169713E+02  0.43229271850E+02  0.00000000000E+00 0. -1.
        -13    1    4    4    0    0  0.46647777245E+01  0.29147553391E+02  0.11631642770E+02  0.31727513824E+02  0.00000000000E+00 0.  1.
         13    1    4    4    0    0 -0.35882100348E+02  0.25105503828E+03  0.46680648579E+03  0.53124801416E+03  0.00000000000E+00 0. -1.
          1    1    1    2  501    0  0.50888498894E+02 -0.26840743691E+03  0.10381871486E+04  0.10735291086E+04  0.00000000000E+00 0. -1.
<scales pt_clust_5="13000.00000" pt_clust_6="13000.00000" pt_clust_7="13000.00000" pt_clust_8="13000.00000" pt_clust_9="13000.00000"></scales>
<clustering>
<clus scale="   80.952">  5  6 -1 -1</clus>
<clus scale="   84.139">  1  5  2 -1</clus>
<clus scale="   92.468">  7  8 -1 -1</clus>
<clus scale="  278.869">  7  9 -1 -1</clus>
<clus scale="  614.813">  2  5  1 -1</clus>
</clustering>
</event>
<event>
 9    2  0.2147756E-005  0.3247383E+03  0.7546771E-02  0.1119980E+00
         21   -1    0    0  501  502  0.00000000000E+00  0.00000000000E+00  0.63274202510E+02  0.63274202510E+02  0.00000000000E+00 0.  1.
         -1   -1    0    0    0  501 -0.00000000000E+00 -0.00000000000E+00 -0.73261857191E+03  0.73261857191E+03  0.00000000000E+00 0.  1.
         24    2    1    2    0    0  0.90182720423E+01  0.55881070964E+02 -0.23138038536E+03  0.25067040732E+03  0.78068860967E+02 0.  0.
         23    2    1    2    0    0  0.61556333261E+02 -0.35756187638E+02 -0.16800804106E+02  0.11771305729E+03  0.92230199607E+02 0.  0.
        -13    1    3    3    0    0  0.31455075547E+02  0.26719798196E+02 -0.19353686394E+03  0.19788857243E+03  0.00000000000E+00 0.  1.
         14    1    3    3    0    0 -0.22436803505E+02  0.29161272768E+02 -0.37843521419E+02  0.52781834890E+02  0.00000000000E+00 0. -1.
        -13    1    4    4    0    0  0.51071184462E+02 -0.59077295888E+02  0.12211289091E+02  0.79041181374E+02  0.00000000000E+00 0.  1.
         13    1    4    4    0    0  0.10485148798E+02  0.23321108250E+02 -0.29012093197E+02  0.38671875917E+02  0.00000000000E+00 0. -1.
         -2    1    1    2    0  502 -0.70574605303E+02 -0.20124883325E+02 -0.42116317994E+03  0.42750930981E+03  0.00000000000E+00 0.  1.
<scales pt_clust_5="13000.00000" pt_clust_6="13000.00000" pt_clust_7="13000.00000" pt_clust_8="13000.00000" pt_clust_9="13000.00000"></scales>
<clustering>
<clus scale="   78.069">  5  6 -1 -1</clus>
<clus scale="   92.230">  7  8 -1 -1</clus>
<clus scale="   73.388">  7  9 -1 -1</clus>
<clus scale="   96.430">  2  5  1 -1</clus>
<clus scale="  324.738">  1  5  2 -1</clus>
</clustering>
</event>
<event>
 9    2  0.2147756E-005  0.2469972E+03  0.7546771E-02  0.1147843E+00
         21   -1    0    0  501  502  0.00000000000E+00  0.00000000000E+00  0.80789671190E+02  0.80789671190E+02  0.00000000000E+00 0.  1.
          2   -1    0    0  502    0 -0.00000000000E+00 -0.00000000000E+00 -0.54059718002E+03  0.54059718002E+03  0.00000000000E+00 0. -1.
         24    2    1    2    0    0 -0.54125080087E+02 -0.58722482765E+02 -0.31740984130E+03  0.33628209708E+03  0.77193180934E+02 0.  0.
         23    2    1    2    0    0  0.30152954533E+02  0.92313106263E+02 -0.17789109548E+03  0.23067336412E+03  0.11015465860E+03 0.  0.
        -11    1    3    3    0    0 -0.22784623571E+02 -0.37715773120E+02 -0.51801612367E+02  0.68007541178E+02  0.00000000000E+00 0.  1.
         12    1    3    3    0    0 -0.31340456517E+02 -0.21006709645E+02 -0.26560822893E+03  0.26827455590E+03  0.00000000000E+00 0. -1.
        -11    1    4    4    0    0 -0.36731358092E+02  0.56619990771E+01 -0.50752552309E+02  0.62905265811E+02  0.00000000000E+00 0. -1.
         11    1    4    4    0    0  0.66884312626E+02  0.86651107186E+02 -0.12713854317E+03  0.16776809831E+03  0.00000000000E+00 0.  1.
          1    1    1    2  501    0  0.23972125554E+02 -0.33590623498E+02  0.35493427951E+02  0.54431390009E+02  0.00000000000E+00 0. -1.
<scales pt_clust_5="13000.00000" pt_clust_6="13000.00000" pt_clust_7="13000.00000" pt_clust_8="13000.00000" pt_clust_9="13000.00000"></scales>
<clustering>
<clus scale="   77.193">  5  6 -1 -1</clus>
<clus scale="  110.155">  7  8 -1 -1</clus>
<clus scale="   41.267">  7  9 -1 -1</clus>
<clus scale="  111.070">  2  5  1 -1</clus>
<clus scale="  246.997">  1  5  2 -1</clus>
</clustering>
</event>
<event>
 9    2  0.2147756E-005  0.4215875E+03  0.7546771E-02  0.1081302E+00
          2   -1    0    0  502    0 -0.00000000000E+00  0.00000000000E+00  0.18993855079E+03  0.18993855079E+03  0.00000000000E+00 0. -1.
         21   -1    0    0  501  502  0.00000000000E+00 -0.00000000000E+00 -0.45559166727E+03  0.45559166727E+03  0.00000000000E+00 0. -1.
         24    2    1    2    0    0  0.90457521213E+02 -0.10913750372E+02 -0.17830117882E+03  0.21498822808E+03  0.78274866696E+02 0.  0.
         23    2    1    2    0    0  0.24946269416E+02  0.15613257228E+03  0.61286056592E+02  0.19284513585E+03  0.91834466324E+02 0.  0.
        -11    1    3    3    0    0  0.46757108253E+02 -0.11244242244E+02 -0.22350816562E+02  0.53030360708E+02  0.00000000000E+00 0.  1.
         12    1    3    3    0    0  0.43700412960E+02  0.33049187217E+00 -0.15595036225E+03  0.16195786738E+03  0.00000000000E+00 0. -1.
        -13    1    4    4    0    0  0.29136137755E+02  0.12345767265E+02  0.33972810384E+02  0.46427193949E+02  0.00000000000E+00 0.  1.
         13    1    4    4    0    0 -0.41898683386E+01  0.14378680501E+03  0.27313246208E+02  0.14641794190E+03  0.00000000000E+00 0. -1.
          1    1    1    2  501    0 -0.11540379063E+03 -0.14521882191E+03 -0.14863799425E+03  0.23769685413E+03  0.00000000000E+00 0. -1.
<scales pt_clust_5="13000.00000" pt_clust_6="13000.00000" pt_clust_7="13000.00000" pt_clust_8="13000.00000" pt_clust_9="13000.00000"></scales>
<clustering>
<clus scale="   78.275">  5  6 -1 -1</clus>
<clus scale="   91.834">  7  8 -1 -1</clus>
<clus scale="  120.119">  1  5  2 -1</clus>
<clus scale="  174.271">  7  9 -1 -1</clus>
<clus scale="  421.588">  2  5  1 -1</clus>
</clustering>
</event>
<event>
 9    2  0.2147756E-005  0.1924920E+03  0.7546771E-02  0.1178926E+00
          2   -1    0    0  502    0 -0.00000000000E+00  0.00000000000E+00  0.10771528662E+04  0.10771528662E+04  0.00000000000E+00 0. -1.
         21   -1    0    0  501  502  0.00000000000E+00 -0.00000000000E+00 -0.31339100845E+02  0.31339100845E+02  0.00000000000E+00 0. -1.
         24    2    1    2    0    0 -0.16786938873E+02  0.78859551004E+02  0.72809682016E+03  0.73701220641E+03  0.81002362742E+02 0.  0.
         23    2    1    2    0    0 -0.23503106597E+02  0.90166856897E+01  0.15773243908E+03  0.18455581102E+03  0.92453385037E+02 0.  0.
        -11    1    3    3    0    0 -0.15759861290E+01  0.87823583845E+02  0.45850813064E+03  0.46684598260E+03  0.00000000000E+00 0.  1.
         12    1    3    3    0    0 -0.15210952744E+02 -0.89640328409E+01  0.26958868952E+03  0.27016622380E+03  0.00000000000E+00 0. -1.
        -11    1    4    4    0    0 -0.52527297130E+02  0.93471402054E+00  0.14014817625E+03  0.14967131301E+03  0.00000000000E+00 0. -1.
         11    1    4    4    0    0  0.29024190533E+02  0.80819716692E+01  0.17584262833E+02  0.34884498012E+02  0.00000000000E+00 0.  1.
          1    1    1    2  501    0  0.40290045469E+02 -0.87876236693E+02  0.15998450610E+03  0.18692394959E+03  0.00000000000E+00 0. -1.
<scales pt_clust_5="13000.00000" pt_clust_6="13000.00000" pt_clust_7="13000.00000" pt_clust_8="13000.00000" pt_clust_9="13000.00000"></scales>
<clustering>
<clus scale="   81.002">  5  6 -1 -1</clus>
<clus scale="   92.453">  7  8 -1 -1</clus>
<clus scale="   96.672">  7  9 -1 -1</clus>
<clus scale="  114.289">  1  5  2 -1</clus>
<clus scale="  192.492">  2  5  1 -1</clus>
</clustering>
</event>
<event>
 9    2  0.2147756E-005  0.4836436E+03  0.7546771E-02  0.1080222E+00
         21   -1    0    0  501  502  0.00000000000E+00  0.00000000000E+00  0.12889480445E+03  0.12889480445E+03  0.00000000000E+00 0. -1.
          2   -1    0    0  502    0 -0.00000000000E+00 -0.00000000000E+00 -0.64430943634E+03  0.64430943634E+03  0.00000000000E+00 0. -1.
         24    2    1    2    0    0  0.77252414273E+01  0.87577231897E+01 -0.13488989764E+03  0.15780987527E+03  0.81069693342E+02 0.  0.
         23    2    1    2    0    0 -0.16289096905E+03  0.75551823440E+02 -0.39004897913E+03  0.43854636886E+03  0.89124439412E+02 0.  0.
        -13    1    3    3    0    0  0.34127507996E+02  0.25511976889E+02 -0.42127566154E+02  0.59918941887E+02  0.00000000000E+00 0.  1.
         14    1    3    3    0    0 -0.26402266569E+02 -0.16754253699E+02 -0.92762331485E+02  0.97890933387E+02  0.00000000000E+00 0. -1.
        -11    1    4    4    0    0 -0.81508454562E+02  0.85073170656E+02 -0.24789466998E+03  0.27446828584E+03  0.00000000000E+00 0. -1.
         11    1    4    4    0    0 -0.81382514488E+02 -0.95213472157E+01 -0.14215430915E+03  0.16407808302E+03  0.00000000000E+00 0.  1.
          1    1    1    2  501    0  0.15516572762E+03 -0.84309546630E+02  0.95242448792E+01  0.17684799666E+03  0.00000000000E+00 0. -1.
<scales pt_clust_5="13000.00000" pt_clust_6="13000.00000" pt_clust_7="13000.00000" pt_clust_8="13000.00000" pt_clust_9="13000.00000"></scales>
<clustering>
<clus scale="   81.070">  5  6 -1 -1</clus>
<clus scale="   81.906">  2  5  1 -1</clus>
<clus scale="   89.124">  7  8 -1 -1</clus>
<clus scale="  177.040">  7  9 -1 -1</clus>
<clus scale="  483.644">  1  5  2 -1</clus>
</clustering>
</event>
<event>
 9    2  0.2147756E-005  0.3765786E+03  0.7546771E-02  0.1084468E+00
         21   -1    0    0  501  502  0.00000000000E+00  0.00000000000E+00  0.13814199053E+03  0.13814199053E+03  0.00000000000E+00 0. -1.
          2   -1    0    0  502    0 -0.00000000000E+00 -0.00000000000E+00 -0.63009399875E+03  0.63009399875E+03  0.00000000000E+00 0. -1.
         24    2    1    2    0    0 -0.33037446100E+02 -0.12659652042E+03 -0.31743498543E+03  0.35318464154E+03  0.82802591835E+02 0.  0.
         23    2    1    2    0    0  0.92547956467E+02 -0.84935202637E+02 -0.50782928048E+02  0.16286630277E+03  0.90373745659E+02 0.  0.
        -13    1    3    3    0    0 -0.25761099911E+02 -0.15533527292E+02 -0.21398204327E+02  0.36916227965E+02  0.00000000000E+00 0.  1.
         14    1    3    3    0    0 -0.72763461889E+01 -0.11106299313E+03 -0.29603678110E+03  0.31626841357E+03  0.00000000000E+00 0. -1.
        -11    1    4    4    0    0  0.38673594700E+02 -0.66759428841E+02  0.12093764542E+02  0.78094349392E+02  0.00000000000E+00 0. -1.
         11    1    4    4    0    0  0.53874361767E+02 -0.18175773796E+02 -0.62876692590E+02  0.84771953381E+02  0.00000000000E+00 0.  1.
          1    1    1    2  501    0 -0.59510510367E+02  0.21153172306E+03 -0.12373409475E+03  0.25218504497E+03  0.00000000000E+00 0. -1.
<scales pt_clust_5="13000.00000" pt_clust_6="13000.00000" pt_clust_7="13000.00000" pt_clust_8="13000.00000" pt_clust_9="13000.00000"></scales>
<clustering>
<clus scale="   82.803">  5  6 -1 -1</clus>
<clus scale="   90.374">  7  8 -1 -1</clus>
<clus scale="  154.837">  2  5  1 -1</clus>
<clus scale="  153.636">  7  9 -1 -1</clus>
<clus scale="  376.579">  1  5  2 -1</clus>
</clustering>
</event>
<event>
 9    2  0.2147756E-005  0.1617583E+03  0.7546771E-02  0.1205731E+00
          4   -1    0    0  502    0 -0.00000000000E+00  0.00000000000E+00  0.86294584875E+03  0.86294584875E+03  0.00000000000E+00 0. -1.
         21   -1    0    0  501  502  0.00000000000E+00 -0.00000000000E+00 -0.11276750676E+03  0.11276750676E+03  0.00000000000E+00 0. -1.
         24    2    1    2    0    0  0.24947549455E+02 -0.64494689745E+02  0.79950425406E+03  0.80660153298E+03  0.81345162884E+02 0.  0.
         23    2    1    2    0    0  0.12271083989E-02  0.33288373457E+02 -0.73731944239E+02  0.12229377008E+03  0.91712871459E+02 0.  0.
        -11    1    3    3    0    0  0.29851211364E+02 -0.40389692458E+02  0.18770556037E+03  0.19430851621E+03  0.00000000000E+00 0.  1.
         12    1    3    3    0    0 -0.49036619096E+01 -0.24104997287E+02  0.61179869369E+03  0.61229301678E+03  0.00000000000E+00 0. -1.
        -13    1    4    4    0    0  0.38977528503E+02  0.37678709070E+02 -0.24891306323E+02  0.59653247823E+02  0.00000000000E+00 0.  1.
         13    1    4    4    0    0 -0.38976301394E+02 -0.43903356133E+01 -0.48840637916E+02  0.62640522262E+02  0.00000000000E+00 0. -1.
          3    1    1    2  501    0 -0.24948776563E+02  0.31206316288E+02  0.24406032166E+02  0.46818052441E+02  0.00000000000E+00 0. -1.
<scales pt_clust_5="13000.00000" pt_clust_6="13000.00000" pt_clust_7="13000.00000" pt_clust_8="13000.00000" pt_clust_9="13000.00000"></scales>
<clustering>
<clus scale="   81.345">  5  6 -1 -1</clus>
<clus scale="   91.713">  7  8 -1 -1</clus>
<clus scale="   39.953">  7  9 -1 -1</clus>
<clus scale="  106.766">  1  5  2 -1</clus>
<clus scale="  161.758">  2  5  1 -1</clus>
</clustering>
</event>
<event>
 9    2  0.2147756E-005  0.1470747E+03  0.7546771E-02  0.1230879E+00
         21   -1    0    0  501  502  0.00000000000E+00  0.00000000000E+00  0.70878302169E+02  0.70878302169E+02  0.00000000000E+00 0.  1.
          2   -1    0    0  502    0 -0.00000000000E+00 -0.00000000000E+00 -0.27203385720E+03  0.27203385720E+03  0.00000000000E+00 0. -1.
         24    2    1    2    0    0 -0.20723652747E+02  0.13778479572E+02 -0.17440559832E+03  0.19342457094E+03  0.79852586903E+02 0.  0.
         23    2    1    2    0    0 -0.10898023500E+02 -0.23950870061E+02  0.98165374821E+01  0.10008600511E+03  0.96064732955E+02 0.  0.
        -11    1    3    3    0    0 -0.90943912628E+01 -0.21822250687E+02 -0.11538744692E+02  0.26307056212E+02  0.00000000000E+00 0.  1.
         12    1    3    3    0    0 -0.11629261484E+02  0.35600730259E+02 -0.16286685363E+03  0.16711751473E+03  0.00000000000E+00 0. -1.
        -11    1    4    4    0    0 -0.20885016083E+02  0.34487003939E+02  0.41063026499E+01  0.40526522907E+02  0.00000000000E+00 0. -1.
         11    1    4    4    0    0  0.99869925829E+01 -0.58437874000E+02  0.57102348322E+01  0.59559482203E+02  0.00000000000E+00 0.  1.
          1    1    1    2  501    0  0.31621676247E+02  0.10172390489E+02 -0.36566494193E+02  0.49401583319E+02  0.00000000000E+00 0. -1.
<scales pt_clust_5="13000.00000" pt_clust_6="13000.00000" pt_clust_7="13000.00000" pt_clust_8="13000.00000" pt_clust_9="13000.00000"></scales>
<clustering>
<clus scale="   79.853">  5  6 -1 -1</clus>
<clus scale="   83.641">  2  5  1 -1</clus>
<clus scale="   96.065">  7  8 -1 -1</clus>
<clus scale="   27.353">  7  9 -1 -1</clus>
<clus scale="  147.075">  1  5  2 -1</clus>
</clustering>
</event>
<event>
 9    2  0.2147756E-005  0.3667428E+03  0.7546771E-02  0.1097401E+00
         21   -1    0    0  501  502  0.00000000000E+00  0.00000000000E+00  0.98279609393E+02  0.98279609393E+02  0.00000000000E+00 0. -1.
          2   -1    0    0  502    0 -0.00000000000E+00 -0.00000000000E+00 -0.64191907029E+03  0.64191907029E+03  0.00000000000E+00 0. -1.
         24    2    1    2    0    0  0.62746414046E+02  0.55560105186E+02 -0.60519089091E+02  0.13364646342E+03  0.84704068823E+02 0.  0.
         23    2    1    2    0    0  0.11926678944E+03 -0.25386173241E+02 -0.34133403927E+03  0.37386651299E+03  0.91641793531E+02 0.  0.
        -13    1    3    3    0    0 -0.25047130762E+01  0.52817169161E+02 -0.18650440884E+02  0.56069295438E+02  0.00000000000E+00 0.  1.
         14    1    3    3    0    0  0.65251127122E+02  0.27429360258E+01 -0.41868648207E+02  0.77577167978E+02  0.00000000000E+00 0. -1.
        -11    1    4    4    0    0  0.59496126061E+02  0.16770948177E+02 -0.24633553918E+03  0.25397293475E+03  0.00000000000E+00 0. -1.
         11    1    4    4    0    0  0.59770663381E+02 -0.42157121417E+02 -0.94998500083E+02  0.11989357825E+03  0.00000000000E+00 0.  1.
          1    1    1    2  501    0 -0.18201320349E+03 -0.30173931946E+02 -0.14178633254E+03  0.23268570328E+03  0.00000000000E+00 0. -1.
<scales pt_clust_5="13000.00000" pt_clust_6="13000.00000" pt_clust_7="13000.00000" pt_clust_8="13000.00000" pt_clust_9="13000.00000"></scales>
<clustering>
<clus scale="   84.704">  5  6 -1 -1</clus>
<clus scale="   91.642">  7  8 -1 -1</clus>
<clus scale="  119.159">  2  5  1 -1</clus>
<clus scale="  160.832">  7  9 -1 -1</clus>
<clus scale="  366.743">  1  5  2 -1</clus>
</clustering>
</event>
<event>
 9    2  0.2147756E-005  0.2234001E+03  0.7546771E-02  0.1172883E+00
          2   -1    0    0  502    0 -0.00000000000E+00  0.00000000000E+00  0.81920288707E+03  0.81920288707E+03  0.00000000000E+00 0. -1.
         21   -1    0    0  501  502  0.00000000000E+00 -0.00000000000E+00 -0.58200300417E+02  0.58200300417E+02  0.00000000000E+00 0. -1.
         24    2    1    2    0    0  0.18687707411E+02  0.20284332375E+01 -0.47354790828E+00  0.83833079067E+02  0.81697098776E+02 0.  0.
         23    2    1    2    0    0 -0.49737324907E+02 -0.67682800478E+02  0.64207315467E+03  0.65381444202E+03  0.90336181430E+02 0.  0.
        -11    1    3    3    0    0  0.10376837269E+02  0.40039584203E+02  0.11837230237E+02  0.43022866879E+02  0.00000000000E+00 0.  1.
         12    1    3    3    0    0  0.83108701411E+01 -0.38011150965E+02 -0.12310778146E+02  0.40810212187E+02  0.00000000000E+00 0. -1.
        -13    1    4    4    0    0  0.77863459907E+01 -0.65179327418E+02  0.32704320913E+03  0.33356593433E+03  0.00000000000E+00 0. -1.
         13    1    4    4    0    0 -0.57523670897E+02 -0.25034730597E+01  0.31502994554E+03  0.32024850769E+03  0.00000000000E+00 0.  1.
          1    1    1    2  501    0  0.31049617496E+02  0.65654367241E+02  0.11940297989E+03  0.13975566640E+03  0.00000000000E+00 0. -1.
<scales pt_clust_5="13000.00000" pt_clust_6="13000.00000" pt_clust_7="13000.00000" pt_clust_8="13000.00000" pt_clust_9="13000.00000"></scales>
<clustering>
<clus scale="   81.697">  5  6 -1 -1</clus>
<clus scale="   83.832">  1  5  2 -1</clus>
<clus scale="   90.336">  7  8 -1 -1</clus>
<clus scale="   74.311">  7  9 -1 -1</clus>
<clus scale="  223.400">  2  5  1 -1</clus>
</clustering>
</event>
<event>
 9    2  0.2147756E-005  0.1229107E+03  0.7546771E-02  0.1245758E+00
         21   -1    0    0  501  502  0.00000000000E+00  0.00000000000E+00  0.39572351674E+02  0.39572351674E+02  0.00000000000E+00 0. -1.
          4   -1    0    0  502    0 -0.00000000000E+00 -0.00000000000E+00 -0.64672459198E+03  0.64672459198E+03  0.00000000000E+00 0. -1.
         24    2    1    2    0    0  0.57895259592E+02  0.35207212508E+02 -0.53157431812E+03  0.54200884667E+03  0.81307596689E+02 0.  0.
         23    2    1    2    0    0 -0.32773086643E+02 -0.81595880916E+01 -0.73786598196E+02  0.10732992601E+03  0.70246685744E+02 0.  0.
        -11    1    3    3    0    0  0.25408446593E+02 -0.24946382775E+02 -0.13677865931E+03  0.14133758458E+03  0.00000000000E+00 0.  1.
         12    1    3    3    0    0  0.32486812998E+02  0.60153595284E+02 -0.39479565881E+03  0.40067126208E+03  0.00000000000E+00 0. -1.
        -11    1    4    4    0    0  0.24500094631E+01 -0.28373950843E+02 -0.56341024842E+02  0.63129982679E+02  0.00000000000E+00 0. -1.
         11    1    4    4    0    0 -0.35223096106E+02  0.20214362752E+02 -0.17445573354E+02  0.44199943330E+02  0.00000000000E+00 0.  1.
          3    1    1    2  501    0 -0.25122172948E+02 -0.27047624416E+02 -0.17913239822E+01  0.36958170975E+02  0.00000000000E+00 0. -1.
<scales pt_clust_5="13000.00000" pt_clust_6="13000.00000" pt_clust_7="13000.00000" pt_clust_8="13000.00000" pt_clust_9="13000.00000"></scales>
<clustering>
<clus scale="   70.247">  7  8 -1 -1</clus>
<clus scale="   36.915">  7  9 -1 -1</clus>
<clus scale="   81.308">  5  6 -1 -1</clus>
<clus scale="  105.841">  2  5  1 -1</clus>
<clus scale="  122.911">  1  5  2 -1</clus>
</clustering>
</event>
<event>
 9    2  0.2147756E-005  0.2068850E+03  0.7546771E-02  0.1163917E+00
         -1   -1    0    0    0  501 -0.00000000000E+00  0.00000000000E+00  0.74879503257E+02  0.74879503257E+02  0.00000000000E+00 0.  1.
         21   -1    0    0  501  502  0.00000000000E+00 -0.00000000000E+00 -0.44775234837E+03  0.44775234837E+03  0.00000000000E+00 0.  1.
         24    2    1    2    0    0  0.99708952438E+02 -0.19926336415E+02 -0.49582273241E+02  0.13881133571E+03  0.80444086315E+02 0.  0.
         23    2    1    2    0    0 -0.13642248396E+02  0.58356342764E+02 -0.20664417070E+03  0.23385143297E+03  0.91613894887E+02 0.  0.
        -11    1    3    3    0    0  0.10967432750E+03 -0.85940745234E+01 -0.29884426569E+02  0.11399734725E+03  0.00000000000E+00 0.  1.
         12    1    3    3    0    0 -0.99653750621E+01 -0.11332261891E+02 -0.19697846671E+02  0.24813988458E+02  0.00000000000E+00 0. -1.
        -11    1    4    4    0    0  0.12343517452E+02  0.76603764270E+02 -0.14135922200E+03  0.16125423643E+03  0.00000000000E+00 0.  1.
         11    1    4    4    0    0 -0.25985765849E+02 -0.18247421506E+02 -0.65284948706E+02  0.72597196543E+02  0.00000000000E+00 0. -1.
         -2    1    1    2    0  502 -0.86066704041E+02 -0.38430006350E+02 -0.11664640117E+03  0.14996908294E+03  0.00000000000E+00 0.  1.
<scales pt_clust_5="13000.00000" pt_clust_6="13000.00000" pt_clust_7="13000.00000" pt_clust_8="13000.00000" pt_clust_9="13000.00000"></scales>
<clustering>
<clus scale="   80.444">  5  6 -1 -1</clus>
<clus scale="   91.614">  7  8 -1 -1</clus>
<clus scale="   94.257">  7  9 -1 -1</clus>
<clus scale="  129.654">  1  5  2 -1</clus>
<clus scale="  206.885">  2  5  1 -1</clus>
</clustering>
</event>
<event>
 9    2  0.2147756E-005  0.1529512E+03  0.7546771E-02  0.1220264E+00
          2   -1    0    0  502    0 -0.00000000000E+00  0.00000000000E+00  0.16780350424E+03  0.16780350424E+03  0.00000000000E+00 0. -1.
         21   -1    0    0  501  502  0.00000000000E+00 -0.00000000000E+00 -0.10269621961E+03  0.10269621961E+03  0.00000000000E+00 0. -1.
         24    2    1    2    0    0 -0.78602291266E+01 -0.48494038612E+02 -0.20841958275E+02  0.95053604204E+02  0.78659681315E+02 0.  0.
         23    2    1    2    0    0  0.56866512904E+01 -0.45800505649E+01  0.77400734230E+02  0.12164407151E+03  0.93557958553E+02 0.  0.
        -11    1    3    3    0    0 -0.21065247710E+02  0.15064880047E+02 -0.14870239263E+02  0.29863343545E+02  0.00000000000E+00 0.  1.
         12    1    3    3    0    0  0.13205018584E+02 -0.63558918659E+02 -0.59717190112E+01  0.65190260659E+02  0.00000000000E+00 0. -1.
        -11    1    4    4    0    0  0.73116342211E+01  0.44286423873E+02  0.39275634028E+02  0.59643296041E+02  0.00000000000E+00 0.  1.
         11    1    4    4    0    0 -0.16249829307E+01 -0.48866474437E+02  0.38125100203E+02  0.62000775470E+02  0.00000000000E+00 0. -1.
          1    1    1    2  501    0  0.21735778363E+01  0.53074089177E+02  0.85485086708E+01  0.53802048131E+02  0.00000000000E+00 0. -1.
<scales pt_clust_5="13000.00000" pt_clust_6="13000.00000" pt_clust_7="13000.00000" pt_clust_8="13000.00000" pt_clust_9="13000.00000"></scales>
<clustering>
<clus scale="   78.660">  5  6 -1 -1</clus>
<clus scale="   92.741">  1  5  2 -1</clus>
<clus scale="   93.558">  7  8 -1 -1</clus>
<clus scale="   41.508">  7  9 -1 -1</clus>
<clus scale="  152.951">  2  5  1 -1</clus>
</clustering>
</event>
<event>
 9    2  0.2147756E-005  0.3431852E+03  0.7546771E-02  0.1110258E+00
          2   -1    0    0  502    0 -0.00000000000E+00  0.00000000000E+00  0.14444773221E+04  0.14444773221E+04  0.00000000000E+00 0. -1.
         21   -1    0    0  501  502  0.00000000000E+00 -0.00000000000E+00 -0.48425406941E+02  0.48425406941E+02  0.00000000000E+00 0. -1.
         24    2    1    2    0    0 -0.62372485385E+02 -0.27215605073E+02  0.78633877743E+03  0.79324123139E+03  0.79195720864E+02 0.  0.
         23    2    1    2    0    0 -0.29639595512E+02 -0.10700205547E+03  0.44355018676E+03  0.46708735956E+03  0.95424775557E+02 0.  0.
        -11    1    3    3    0    0 -0.18838600413E+02  0.19257939598E+02  0.88664415910E+02  0.92666821202E+02  0.00000000000E+00 0.  1.
         12    1    3    3    0    0 -0.43533884972E+02 -0.46473544671E+02  0.69767436152E+03  0.70057441019E+03  0.00000000000E+00 0. -1.
        -13    1    4    4    0    0  0.31953818060E+02 -0.14309423689E+02  0.11369038920E+03  0.11895928166E+03  0.00000000000E+00 0. -1.
         13    1    4    4    0    0 -0.61593413571E+02 -0.92692631782E+02  0.32985979756E+03  0.34812807791E+03  0.00000000000E+00 0.  1.
          1    1    1    2  501    0  0.92012080897E+02  0.13421766054E+03  0.16616295098E+03  0.23257413810E+03  0.00000000000E+00 0. -1.
<scales pt_clust_5="13000.00000" pt_clust_6="13000.00000" pt_clust_7="13000.00000" pt_clust_8="13000.00000" pt_clust_9="13000.00000"></scales>
<clustering>
<clus scale="   79.196">  5  6 -1 -1</clus>
<clus scale="   95.425">  7  8 -1 -1</clus>
<clus scale="  104.417">  1  5  2 -1</clus>
<clus scale="  145.568">  7  9 -1 -1</clus>
<clus scale="  343.185">  2  5  1 -1</clus>
</clustering>
</event>
<event>
 9    2  0.2147756E-005  0.2288727E+03  0.7546771E-02  0.1169532E+00
         21   -1    0    0  501  502  0.00000000000E+00  0.00000000000E+00  0.55953612003E+02  0.55953612003E+02  0.00000000000E+00 0. -1.
         -1   -1    0    0    0  501 -0.00000000000E+00 -0.00000000000E+00 -0.44450088654E+03  0.44450088654E+03  0.00000000000E+00 0.  1.
         24    2    1    2    0    0  0.21178891426E+02  0.17660148034E+02 -0.78529005529E+02  0.11510524727E+03  0.79510923586E+02 0.  0.
         23    2    1    2    0    0  0.70677002680E+02  0.10638415879E+02 -0.94812727442E+02  0.14965508689E+03  0.91097624269E+02 0.  0.
        -13    1    3    3    0    0  0.22075877797E+02 -0.20939828443E+02 -0.68889224634E+02  0.75309667815E+02  0.00000000000E+00 0.  1.
         14    1    3    3    0    0 -0.89698637084E+00  0.38599976477E+02 -0.96397808952E+01  0.39795579457E+02  0.00000000000E+00 0. -1.
        -11    1    4    4    0    0  0.27332969312E+02  0.49063778321E+02 -0.59475998215E+02  0.81803055678E+02  0.00000000000E+00 0.  1.
         11    1    4    4    0    0  0.43344033368E+02 -0.38425362442E+02 -0.35336729227E+02  0.67852031214E+02  0.00000000000E+00 0. -1.
         -2    1    1    2    0  502 -0.91855894106E+02 -0.28298563913E+02 -0.21520554156E+03  0.23569416438E+03  0.00000000000E+00 0.  1.
<scales pt_clust_5="13000.00000" pt_clust_6="13000.00000" pt_clust_7="13000.00000" pt_clust_8="13000.00000" pt_clust_9="13000.00000"></scales>
<clustering>
<clus scale="   79.511">  5  6 -1 -1</clus>
<clus scale="   84.157">  2  5  1 -1</clus>
<clus scale="   91.098">  7  8 -1 -1</clus>
<clus scale="   79.919">  7  9 -1 -1</clus>
<clus scale="  228.873">  1  5  2 -1</clus>
</clustering>
</event>
<event>
 9    2  0.2147756E-005  0.2124072E+03  0.7546771E-02  0.1176170E+00
         21   -1    0    0  501  502  0.00000000000E+00  0.00000000000E+00  0.13642438940E+02  0.13642438940E+02  0.00000000000E+00 0. -1.
          2   -1    0    0  502    0 -0.00000000000E+00 -0.00000000000E+00 -0.24459476505E+04  0.24459476505E+04  0.00000000000E+00 0. -1.
         24    2    1    2    0    0 -0.40806576083E+02  0.93520699126E+00 -0.15278058334E+04  0.15304851764E+04  0.80797025313E+02 0.  0.
         23    2    1    2    0    0 -0.84832466775E+00 -0.75477802886E+02 -0.38837265654E+03  0.40596198599E+03  0.90962604095E+02 0.  0.
        -11    1    3    3    0    0 -0.26320722301E+02  0.80202604318E+01 -0.14513165788E+03  0.14771696964E+03  0.00000000000E+00 0.  1.
         12    1    3    3    0    0 -0.14485853782E+02 -0.70850534405E+01 -0.13826741756E+04  0.13827682068E+04  0.00000000000E+00 0. -1.
        -11    1    4    4    0    0 -0.36059094197E+02 -0.10702371125E+02 -0.20319595949E+03  0.20664800259E+03  0.00000000000E+00 0.  1.
         11    1    4    4    0    0  0.35210769529E+02 -0.64775431761E+02 -0.18517669704E+03  0.19931398340E+03  0.00000000000E+00 0. -1.
          1    1    1    2  501    0  0.41654900751E+02  0.74542595894E+02 -0.51612672162E+03  0.52314292706E+03  0.00000000000E+00 0. -1.
<scales pt_clust_5="13000.00000" pt_clust_6="13000.00000" pt_clust_7="13000.00000" pt_clust_8="13000.00000" pt_clust_9="13000.00000"></scales>
<clustering>
<clus scale="   80.797">  5  6 -1 -1</clus>
<clus scale="   90.522">  2  5  1 -1</clus>
<clus scale="   90.963">  7  8 -1 -1</clus>
<clus scale="   77.325">  7  9 -1 -1</clus>
<clus scale="  212.407">  1  5  2 -1</clus>
</clustering>
</event>
<event>
 9    2  0.2147756E-005  0.1713529E+03  0.7546771E-02  0.1198430E+00
         21   -1    0    0  501  502  0.00000000000E+00  0.00000000000E+00  0.36934578024E+03  0.36934578024E+03  0.00000000000E+00 0. -1.
          2   -1    0    0  502    0 -0.00000000000E+00 -0.00000000000E+00 -0.82185804843E+02  0.82185804843E+02  0.00000000000E+00 0. -1.
         24    2    1    2    0    0 -0.47278608570E+02  0.39516239916E+02 -0.12913370246E+02  0.10598012246E+03  0.85253921789E+02 0.  0.
         23    2    1    2    0    0 -0.25011972211E+02 -0.20267513989E+02  0.17057614888E+03  0.19599891169E+03  0.91010878148E+02 0.  0.
        -13    1    3    3    0    0 -0.75650160393E+01 -0.26637368971E+02 -0.71923284880E+01  0.28609587247E+02  0.00000000000E+00 0.  1.
         14    1    3    3    0    0 -0.39713592531E+02  0.66153608887E+02 -0.57210417583E+01  0.77370535214E+02  0.00000000000E+00 0. -1.
        -13    1    4    4    0    0 -0.76638578591E+01  0.36421544505E+02  0.63286278608E+02  0.73419457105E+02  0.00000000000E+00 0.  1.
         13    1    4    4    0    0 -0.17348114352E+02 -0.56689058494E+02  0.10728987027E+03  0.12257945459E+03  0.00000000000E+00 0. -1.
          1    1    1    2  501    0  0.72290580781E+02 -0.19248725927E+02  0.12949719677E+03  0.14955255093E+03  0.00000000000E+00 0. -1.
<scales pt_clust_5="13000.00000" pt_clust_6="13000.00000" pt_clust_7="13000.00000" pt_clust_8="13000.00000" pt_clust_9="13000.00000"></scales>
<clustering>
<clus scale="   85.254">  5  6 -1 -1</clus>
<clus scale="   91.011">  7  8 -1 -1</clus>
<clus scale="   74.809">  7  9 -1 -1</clus>
<clus scale="  105.190">  2  5  1 -1</clus>
<clus scale="  171.353">  1  5  2 -1</clus>
</clustering>
</event>
<event>
 9    2  0.2147756E-005  0.2150467E+03  0.7546771E-02  0.1177006E+00
         21   -1    0    0  501  502  0.00000000000E+00  0.00000000000E+00  0.14879816711E+03  0.14879816711E+03  0.00000000000E+00 0. -1.
          2   -1    0    0  502    0 -0.00000000000E+00 -0.00000000000E+00 -0.16623968762E+03  0.16623968762E+03  0.00000000000E+00 0. -1.
         24    2    1    2    0    0  0.35502468541E+02 -0.18781333585E+02  0.36932623546E+02  0.93223407194E+02  0.75587176182E+02 0.  0.
         23    2    1    2    0    0 -0.96466908036E+02  0.13741670181E+02 -0.79854889567E+02  0.15554734044E+03  0.91233074518E+02 0.  0.
        -11    1    3    3    0    0  0.20653248333E+02  0.27017513078E+02  0.26330780736E+01  0.34109174423E+02  0.00000000000E+00 0.  1.
         12    1    3    3    0    0  0.14849220208E+02 -0.45798846664E+02  0.34299545473E+02  0.59114232771E+02  0.00000000000E+00 0. -1.
        -13    1    4    4    0    0 -0.54240899235E+02 -0.24050047560E+02 -0.21480716639E+01  0.59372503310E+02  0.00000000000E+00 0.  1.
         13    1    4    4    0    0 -0.42226008802E+02  0.37791717741E+02 -0.77706817903E+02  0.96174837134E+02  0.00000000000E+00 0. -1.
          1    1    1    2  501    0  0.60964439496E+02  0.50396634047E+01  0.25480745513E+02  0.66267107091E+02  0.00000000000E+00 0. -1.
<scales pt_clust_5="13000.00000" pt_clust_6="13000.00000" pt_clust_7="13000.00000" pt_clust_8="13000.00000" pt_clust_9="13000.00000"></scales>
<clustering>
<clus scale="   75.587">  5  6 -1 -1</clus>
<clus scale="   85.596">  2  5  1 -1</clus>
<clus scale="   91.233">  7  8 -1 -1</clus>
<clus scale="   66.246">  7  9 -1 -1</clus>
<clus scale="  215.047">  1  5  2 -1</clus>
</clustering>
</event>
<event>
 9    2  0.2147756E-005  0.7613211E+03  0.7546771E-02  0.9874552E-01
          2   -1    0    0  502    0 -0.00000000000E+00  0.00000000000E+00  0.17255747226E+04  0.17255747226E+04  0.00000000000E+00 0. -1.
         21   -1    0    0  501  502  0.00000000000E+00 -0.00000000000E+00 -0.22869273766E+03  0.22869273766E+03  0.00000000000E+00 0. -1.
         24    2    1    2    0    0 -0.24745625049E+03 -0.19427179815E+03  0.98452550493E+03  0.10365970824E+04  0.79163842639E+02 0.  0.
         23    2    1    2    0    0  0.46364923759E+03  0.44039940514E+02  0.43369204415E+03  0.64290299951E+03  0.91243332586E+02 0.  0.
        -13    1    3    3    0    0 -0.10782230399E+03 -0.41377412838E+02  0.30091887202E+03  0.32231957289E+03  0.00000000000E+00 0.  1.
         14    1    3    3    0    0 -0.13963394650E+03 -0.15289438532E+03  0.68360663291E+03  0.71427750954E+03  0.00000000000E+00 0. -1.
        -11    1    4    4    0    0  0.11701893431E+03  0.51510231749E+02  0.11976051437E+03  0.17518366295E+03  0.00000000000E+00 0.  1.
         11    1    4    4    0    0  0.34663030328E+03 -0.74702912354E+01  0.31393152978E+03  0.46771933656E+03  0.00000000000E+00 0. -1.
          1    1    1    2  501    0 -0.21619298710E+03  0.15023185764E+03  0.78664435852E+02  0.27476737832E+03  0.00000000000E+00 0. -1.
<scales pt_clust_5="13000.00000" pt_clust_6="13000.00000" pt_clust_7="13000.00000" pt_clust_8="13000.00000" pt_clust_9="13000.00000"></scales>
<clustering>
<clus scale="   79.164">  5  6 -1 -1</clus>
<clus scale="   91.243">  7  8 -1 -1</clus>
<clus scale="  263.266">  7  9 -1 -1</clus>
<clus scale="  324.412">  1  5  2 -1</clus>
<clus scale="  761.321">  2  5  1 -1</clus>
</clustering>
</event>
<event>
 9    2  0.2147756E-005  0.2807707E+03  0.7546771E-02  0.1144230E+00
         21   -1    0    0  501  502  0.00000000000E+00  0.00000000000E+00  0.11102607925E+03  0.11102607925E+03  0.00000000000E+00 0. -1.
          2   -1    0    0  502    0 -0.00000000000E+00 -0.00000000000E+00 -0.35294721734E+03  0.35294721734E+03  0.00000000000E+00 0. -1.
         24    2    1    2    0    0  0.92457374385E+01 -0.15641136249E+02 -0.14528513166E+03  0.16703773744E+03  0.80397185558E+02 0.  0.
         23    2    1    2    0    0 -0.11131609658E+03 -0.52614247978E+02 -0.79386128731E+02  0.17294074485E+03  0.91906535921E+02 0.  0.
        -11    1    3    3    0    0 -0.35345907884E+02 -0.81913087628E+01 -0.52410851896E+02  0.63744240052E+02  0.00000000000E+00 0.  1.
         12    1    3    3    0    0  0.44591645322E+02 -0.74498274858E+01 -0.92874279763E+02  0.10329349739E+03  0.00000000000E+00 0. -1.
        -11    1    4    4    0    0 -0.31463981372E+02 -0.38722389895E+02 -0.77126138018E+02  0.91857752903E+02  0.00000000000E+00 0.  1.
         11    1    4    4    0    0 -0.79852115210E+02 -0.13891858083E+02 -0.22599907128E+01  0.81082991943E+02  0.00000000000E+00 0. -1.
          1    1    1    2  501    0  0.10207035914E+03  0.68255384226E+02 -0.17249877700E+02  0.12399481430E+03  0.00000000000E+00 0. -1.
<scales pt_clust_5="13000.00000" pt_clust_6="13000.00000" pt_clust_7="13000.00000" pt_clust_8="13000.00000" pt_clust_9="13000.00000"></scales>
<clustering>
<clus scale="   80.397">  5  6 -1 -1</clus>
<clus scale="   82.425">  2  5  1 -1</clus>
<clus scale="   91.907">  7  8 -1 -1</clus>
<clus scale="  122.600">  7  9 -1 -1</clus>
<clus scale="  280.771">  1  5  2 -1</clus>
</clustering>
</event>
<event>
 9    2  0.2147756E-005  0.2280432E+03  0.7546771E-02  0.1165613E+00
         -1   -1    0    0    0  501 -0.00000000000E+00  0.00000000000E+00  0.26783159999E+03  0.26783159999E+03  0.00000000000E+00 0.  1.
         21   -1    0    0  501  502  0.00000000000E+00 -0.00000000000E+00 -0.20484082579E+03  0.20484082579E+03  0.00000000000E+00 0.  1.
         24    2    1    2    0    0  0.40922762502E+02 -0.70285788687E+01 -0.13949512450E+03  0.16770645094E+03  0.83321608930E+02 0.  0.
         23    2    1    2    0    0 -0.99872778323E+02  0.23632948219E+02  0.19984042965E+03  0.24366501275E+03  0.94357580634E+02 0.  0.
        -11    1    3    3    0    0  0.64125961176E+02 -0.80995026107E+01 -0.12384788588E+03  0.13969981989E+03  0.00000000000E+00 0.  1.
         12    1    3    3    0    0 -0.23203198674E+02  0.10709237421E+01 -0.15647238622E+02  0.28006631052E+02  0.00000000000E+00 0. -1.
        -11    1    4    4    0    0 -0.40566634992E+02  0.53432790740E+02  0.13563826417E+03  0.15132235032E+03  0.00000000000E+00 0.  1.
         11    1    4    4    0    0 -0.59306143331E+02 -0.29799842521E+02  0.64202165485E+02  0.92342662427E+02  0.00000000000E+00 0. -1.
         -2    1    1    2    0  502  0.58950015821E+02 -0.16604369350E+02  0.26454690579E+01  0.61300962091E+02  0.00000000000E+00 0.  1.
<scales pt_clust_5="13000.00000" pt_clust_6="13000.00000" pt_clust_7="13000.00000" pt_clust_8="13000.00000" pt_clust_9="13000.00000"></scales>
<clustering>
<clus scale="   83.322">  5  6 -1 -1</clus>
<clus scale="   93.094">  1  5  2 -1</clus>
<clus scale="   94.358">  7  8 -1 -1</clus>
<clus scale="   66.450">  7  9 -1 -1</clus>
<clus scale="  228.043">  2  5  1 -1</clus>
</clustering>
</event>
<event>
 9    2  0.2147756E-005  0.2652102E+03  0.7546771E-02  0.1137180E+00
          4   -1    0    0  502    0 -0.00000000000E+00  0.00000000000E+00  0.59512202779E+02  0.59512202779E+02  0.00000000000E+00 0. -1.
         21   -1    0    0  501  502  0.00000000000E+00 -0.00000000000E+00 -0.63232867151E+03  0.63232867151E+03  0.00000000000E+00 0. -1.
         24    2    1    2    0    0  0.22873725105E+02  0.77124507704E+02 -0.11836975259E+03  0.16566764380E+03  0.83444429908E+02 0.  0.
         23    2    1    2    0    0 -0.41391781319E+02  0.64235986238E+02 -0.24939242715E+03  0.27642742155E+03  0.91520463154E+02 0.  0.
        -13    1    3    3    0    0 -0.28669672214E+02  0.97254111552E+01 -0.23024107262E+02  0.38034763601E+02  0.00000000000E+00 0.  1.
         14    1    3    3    0    0  0.51543397319E+02  0.67399096549E+02 -0.95345645333E+02  0.12763288019E+03  0.00000000000E+00 0. -1.
        -13    1    4    4    0    0 -0.59321606794E+02  0.76641902494E+02 -0.21281732520E+03  0.23384663384E+03  0.00000000000E+00 0. -1.
         13    1    4    4    0    0  0.17929825475E+02 -0.12405916256E+02 -0.36575101947E+02  0.42580787712E+02  0.00000000000E+00 0.  1.
          3    1    1    2  501    0  0.18518056213E+02 -0.14136049394E+03 -0.20505428899E+03  0.24974580895E+03  0.00000000000E+00 0. -1.
<scales pt_clust_5="13000.00000" pt_clust_6="13000.00000" pt_clust_7="13000.00000" pt_clust_8="13000.00000" pt_clust_9="13000.00000"></scales>
<clustering>
<clus scale="   83.444">  5  6 -1 -1</clus>
<clus scale="   91.520">  7  8 -1 -1</clus>
<clus scale="  115.907">  1  5  2 -1</clus>
<clus scale="   98.893">  7  9 -1 -1</clus>
<clus scale="  265.210">  2  5  1 -1</clus>
</clustering>
</event>
<event>
 9    2  0.2147756E-005  0.3064341E+03  0.7546771E-02  0.1116090E+00
         21   -1    0    0  501  502  0.00000000000E+00  0.00000000000E+00  0.38582449842E+03  0.38582449842E+03  0.00000000000E+00 0. -1.
          2   -1    0    0  502    0 -0.00000000000E+00 -0.00000000000E+00 -0.15462331488E+03  0.15462331488E+03  0.00000000000E+00 0. -1.
         24    2    1    2    0    0  0.37550342057E+02 -0.89663201482E+02 -0.38469556989E+02  0.13225154610E+03  0.81000288535E+02 0.  0.
         23    2    1    2    0    0 -0.12333970114E+03  0.44160947270E+02  0.49323466869E+02  0.16739927743E+03  0.91797835261E+02 0.  0.
        -11    1    3    3    0    0  0.25264368860E+02 -0.63419343372E+01  0.17271760193E+02  0.31254154367E+02  0.00000000000E+00 0.  1.
         12    1    3    3    0    0  0.12285973197E+02 -0.83321267145E+02 -0.55741317182E+02  0.10099739173E+03  0.00000000000E+00 0. -1.
        -11    1    4    4    0    0 -0.67597272049E+02 -0.19717807760E+02  0.42724623696E+02  0.82362470830E+02  0.00000000000E+00 0. -1.
         11    1    4    4    0    0 -0.55742429088E+02  0.63878755031E+02  0.65988431730E+01  0.85036806596E+02  0.00000000000E+00 0.  1.
          1    1    1    2  501    0  0.85789359080E+02  0.45502254212E+02  0.22034727366E+03  0.24079698977E+03  0.00000000000E+00 0. -1.
<scales pt_clust_5="13000.00000" pt_clust_6="13000.00000" pt_clust_7="13000.00000" pt_clust_8="13000.00000" pt_clust_9="13000.00000"></scales>
<clustering>
<clus scale="   81.000">  5  6 -1 -1</clus>
<clus scale="   91.798">  7  8 -1 -1</clus>
<clus scale="   97.110">  7  9 -1 -1</clus>
<clus scale="  126.533">  2  5  1 -1</clus>
<clus scale="  306.434">  1  5  2 -1</clus>
</clustering>
</event>
<event>
 9    2  0.2147756E-005  0.2348331E+03  0.7546771E-02  0.1153082E+00
         21   -1    0    0  501  502  0.00000000000E+00  0.00000000000E+00  0.90368603708E+02  0.90368603708E+02  0.00000000000E+00 0. -1.
          2   -1    0    0  502    0 -0.00000000000E+00 -0.00000000000E+00 -0.36847088785E+03  0.36847088785E+03  0.00000000000E+00 0. -1.
         24    2    1    2    0    0 -0.81150991395E+02 -0.10513593622E+02 -0.15841246461E+03  0.19526363621E+03  0.79607534991E+02 0.  0.
         23    2    1    2    0    0  0.93662639715E+01  0.20317631943E+02 -0.15618896132E+03  0.18245031307E+03  0.91611091208E+02 0.  0.
        -13    1    3    3    0    0 -0.63831934120E+02 -0.43204270189E+02 -0.10336229500E+03  0.12893753838E+03  0.00000000000E+00 0.  1.
         14    1    3    3    0    0 -0.17319057275E+02  0.32690676567E+02 -0.55050169608E+02  0.66326097829E+02  0.00000000000E+00 0. -1.
        -13    1    4    4    0    0  0.50493088154E+02  0.67127451643E+01 -0.87281146524E+02  0.10105746602E+03  0.00000000000E+00 0.  1.
         13    1    4    4    0    0 -0.41126824182E+02  0.13604886778E+02 -0.68907814796E+02  0.81392847054E+02  0.00000000000E+00 0. -1.
          1    1    1    2  501    0  0.71784727423E+02 -0.98040383208E+01  0.36499141787E+02  0.81125542278E+02  0.00000000000E+00 0. -1.
<scales pt_clust_5="13000.00000" pt_clust_6="13000.00000" pt_clust_7="13000.00000" pt_clust_8="13000.00000" pt_clust_9="13000.00000"></scales>
<clustering>
<clus scale="   79.608">  5  6 -1 -1</clus>
<clus scale="   91.611">  7  8 -1 -1</clus>
<clus scale="   72.451">  7  9 -1 -1</clus>
<clus scale="  114.164">  2  5  1 -1</clus>
<clus scale="  234.833">  1  5  2 -1</clus>
</clustering>
</event>
<event>
 9    2  0.2147756E-005  0.1785656E+03  0.7546771E-02  0.1197760E+00
         21   -1    0    0  501  502  0.00000000000E+00  0.00000000000E+00  0.36766491977E+02  0.36766491977E+02  0.00000000000E+00 0. -1.
         -1   -1    0    0    0  501 -0.00000000000E+00 -0.00000000000E+00 -0.50735517061E+03  0.50735517061E+03  0.00000000000E+00 0.  1.
         24    2    1    2    0    0 -0.26638329331E+02 -0.39379468364E+02 -0.15125384672E+03  0.17825225257E+03  0.81460397012E+02 0.  0.
         23    2    1    2    0    0 -0.30786515581E+02  0.54162071250E+02 -0.26401135910E+03  0.28477178486E+03  0.86669672991E+02 0.  0.
        -11    1    3    3    0    0 -0.17281871174E+02 -0.55686431276E+02 -0.14813236057E+03  0.15919434019E+03  0.00000000000E+00 0.  1.
         12    1    3    3    0    0 -0.93564581574E+01  0.16306962911E+02 -0.31214861476E+01  0.19057912383E+02  0.00000000000E+00 0. -1.
        -11    1    4    4    0    0  0.28208344511E+02  0.19212722627E+02 -0.12774274715E+03  0.13222348074E+03  0.00000000000E+00 0.  1.
         11    1    4    4    0    0 -0.58994860092E+02  0.34949348624E+02 -0.13626861195E+03  0.15254830412E+03  0.00000000000E+00 0. -1.
         -2    1    1    2    0  502  0.57424844912E+02 -0.14782602886E+02 -0.55323472814E+02  0.81097625153E+02  0.00000000000E+00 0.  1.
<scales pt_clust_5="13000.00000" pt_clust_6="13000.00000" pt_clust_7="13000.00000" pt_clust_8="13000.00000" pt_clust_9="13000.00000"></scales>
<clustering>
<clus scale="   81.460">  5  6 -1 -1</clus>
<clus scale="   86.670">  7  8 -1 -1</clus>
<clus scale="   59.297">  7  9 -1 -1</clus>
<clus scale="   94.319">  2  5  1 -1</clus>
<clus scale="  178.566">  1  5  2 -1</clus>
</clustering>
</event>
<event>
 9    2  0.2147756E-005  0.4613129E+03  0.7546771E-02  0.1077477E+00
         21   -1    0    0  501  502  0.00000000000E+00  0.00000000000E+00  0.40720144239E+03  0.40720144239E+03  0.00000000000E+00 0. -1.
          2   -1    0    0  502    0 -0.00000000000E+00 -0.00000000000E+00 -0.19529345797E+03  0.19529345797E+03  0.00000000000E+00 0. -1.
         24    2    1    2    0    0 -0.52808819502E+02  0.36134811825E+02  0.52597758499E+02  0.11444847874E+03  0.78977427439E+02 0.  0.
         23    2    1    2    0    0 -0.16579865387E+03  0.54403656664E+02  0.15592608617E+03  0.25140767988E+03  0.91890835630E+02 0.  0.
        -13    1    3    3    0    0 -0.89664540247E+01  0.39136372421E+02 -0.66343403876E+01  0.40694808224E+02  0.00000000000E+00 0.  1.
         14    1    3    3    0    0 -0.43842365477E+02 -0.30015605960E+01  0.59232098887E+02  0.73753670520E+02  0.00000000000E+00 0. -1.
        -13    1    4    4    0    0 -0.12608670757E+03  0.27461679932E+02  0.56226872219E+02  0.14076030282E+03  0.00000000000E+00 0. -1.
         13    1    4    4    0    0 -0.39711946302E+02  0.26941976731E+02  0.99699213946E+02  0.11064737706E+03  0.00000000000E+00 0.  1.
          1    1    1    2  501    0  0.21860747337E+03 -0.90538468488E+02  0.33841397515E+01  0.23663874174E+03  0.00000000000E+00 0. -1.
<scales pt_clust_5="13000.00000" pt_clust_6="13000.00000" pt_clust_7="13000.00000" pt_clust_8="13000.00000" pt_clust_9="13000.00000"></scales>
<clustering>
<clus scale="   78.977">  5  6 -1 -1</clus>
<clus scale="   91.891">  7  8 -1 -1</clus>
<clus scale="  101.646">  2  5  1 -1</clus>
<clus scale="  192.412">  7  9 -1 -1</clus>
<clus scale="  461.313">  1  5  2 -1</clus>
</clustering>
</event>
<event>
 9    2  0.2147756E-005  0.2781597E+03  0.7546771E-02  0.1123481E+00
         21   -1    0    0  501  502  0.00000000000E+00  0.00000000000E+00  0.13521315349E+03  0.13521315349E+03  0.00000000000E+00 0.  1.
         -1   -1    0    0    0  501 -0.00000000000E+00 -0.00000000000E+00 -0.34179575166E+03  0.34179575166E+03  0.00000000000E+00 0.  1.
         24    2    1    2    0    0 -0.47612147736E+02  0.10731499177E+03 -0.12230586670E+03  0.18636238684E+03  0.77387273667E+02 0.  0.
         23    2    1    2    0    0  0.11000473366E+03 -0.63666749823E+01  0.56324391593E+01  0.14176046656E+03  0.89009715934E+02 0.  0.
        -13    1    3    3    0    0 -0.61234987037E+02  0.44138133094E+02 -0.58026750777E+02  0.95210305304E+02  0.00000000000E+00 0.  1.
         14    1    3    3    0    0  0.13622839300E+02  0.63176858678E+02 -0.64279115928E+02  0.91152081531E+02  0.00000000000E+00 0. -1.
        -11    1    4    4    0    0  0.10535061141E+03  0.25194018204E+02  0.12765180662E+02  0.10907080138E+03  0.00000000000E+00 0.  1.
         11    1    4    4    0    0  0.46541222588E+01 -0.31560693186E+02 -0.71327415022E+01  0.32689665182E+02  0.00000000000E+00 0. -1.
         -2    1    1    2    0  502 -0.62392585928E+02 -0.10094831679E+03 -0.89909170629E+02  0.14888605175E+03  0.00000000000E+00 0.  1.
<scales pt_clust_5="13000.00000" pt_clust_6="13000.00000" pt_clust_7="13000.00000" pt_clust_8="13000.00000" pt_clust_9="13000.00000"></scales>
<clustering>
<clus scale="   77.387">  5  6 -1 -1</clus>
<clus scale="   89.010">  7  8 -1 -1</clus>
<clus scale="  118.674">  7  9 -1 -1</clus>
<clus scale="  140.614">  2  5  1 -1</clus>
<clus scale="  278.160">  1  5  2 -1</clus>
</clustering>
</event>
<event>
 9    2  0.2147756E-005  0.3250411E+03  0.7546771E-02  0.1124699E+00
          2   -1    0    0  502    0 -0.00000000000E+00  0.00000000000E+00  0.53058857466E+03  0.53058857466E+03  0.00000000000E+00 0. -1.
         21   -1    0    0  501  502  0.00000000000E+00 -0.00000000000E+00 -0.80895096273E+02  0.80895096273E+02  0.00000000000E+00 0. -1.
         24    2    1    2    0    0  0.21843147435E+01 -0.30740500888E+02  0.62287290996E+02  0.10578092456E+03  0.79750534518E+02 0.  0.
         23    2    1    2    0    0 -0.69911522091E+02 -0.11358991945E+03  0.16859098964E+03  0.23496609275E+03  0.94846466624E+02 0.  0.
        -11    1    3    3    0    0  0.91180475498E+01 -0.32749868647E+02 -0.81629488625E+01  0.34961785161E+02  0.00000000000E+00 0.  1.
         12    1    3    3    0    0 -0.69337328063E+01  0.20093677594E+01  0.70450239858E+02  0.70819139401E+02  0.00000000000E+00 0. -1.
        -11    1    4    4    0    0 -0.28846372361E+02 -0.62031757664E+02  0.18238885538E+02  0.70800488014E+02  0.00000000000E+00 0. -1.
         11    1    4    4    0    0 -0.41065149730E+02 -0.51558161783E+02  0.15035210410E+03  0.16416560473E+03  0.00000000000E+00 0.  1.
          1    1    1    2  501    0  0.67727207348E+02  0.14433042034E+03  0.21881519775E+03  0.27073665362E+03  0.00000000000E+00 0. -1.
<scales pt_clust_5="13000.00000" pt_clust_6="13000.00000" pt_clust_7="13000.00000" pt_clust_8="13000.00000" pt_clust_9="13000.00000"></scales>
<clustering>
<clus scale="   79.751">  5  6 -1 -1</clus>
<clus scale="   85.498">  1  5  2 -1</clus>
<clus scale="   94.846">  7  8 -1 -1</clus>
<clus scale="  144.920">  7  9 -1 -1</clus>
<clus scale="  325.041">  2  5  1 -1</clus>
</clustering>
</event>
<event>
 9    2  0.2147756E-005  0.1954688E+03  0.7546771E-02  0.1184206E+00
         -3   -1    0    0    0  501 -0.00000000000E+00  0.00000000000E+00  0.29741649052E+03  0.29741649052E+03  0.00000000000E+00 0.  1.
         21   -1    0    0  501  502  0.00000000000E+00 -0.00000000000E+00 -0.72621231955E+02  0.72621231955E+02  0.00000000000E+00 0.  1.
         24    2    1    2    0    0  0.31632849594E+02  0.44552959274E+02  0.92502826462E+02  0.13400945810E+03  0.80100927604E+02 0.  0.
         23    2    1    2    0    0  0.32159296668E+01  0.43071637030E+02  0.58271650160E+02  0.11614672512E+03  0.90713661732E+02 0.  0.
        -13    1    3    3    0    0  0.42366440043E+02  0.41897137144E+02  0.10285188598E+03  0.11886461119E+03  0.00000000000E+00 0.  1.
         14    1    3    3    0    0 -0.10733590449E+02  0.26558221303E+01 -0.10349059518E+02  0.15144846913E+02  0.00000000000E+00 0. -1.
        -11    1    4    4    0    0  0.15202306107E+02 -0.24908594173E+02  0.29086758276E+02  0.41201792215E+02  0.00000000000E+00 0.  1.
         11    1    4    4    0    0 -0.11986376440E+02  0.67980231203E+02  0.29184891883E+02  0.74944932910E+02  0.00000000000E+00 0. -1.
         -4    1    1    2    0  502 -0.34848779261E+02 -0.87624596304E+02  0.74020781940E+02  0.11988153925E+03  0.00000000000E+00 0.  1.
<scales pt_clust_5="13000.00000" pt_clust_6="13000.00000" pt_clust_7="13000.00000" pt_clust_8="13000.00000" pt_clust_9="13000.00000"></scales>
<clustering>
<clus scale="   80.101">  5  6 -1 -1</clus>
<clus scale="   90.714">  7  8 -1 -1</clus>
<clus scale="   94.300">  7  9 -1 -1</clus>
<clus scale="   96.963">  1  5  2 -1</clus>
<clus scale="  195.469">  2  5  1 -1</clus>
</clustering>
</event>
<event>
 9    2  0.2147756E-005  0.5236542E+03  0.7546771E-02  0.1063947E+00
          2   -1    0    0  502    0 -0.00000000000E+00  0.00000000000E+00  0.94542842953E+03  0.94542842953E+03  0.00000000000E+00 0. -1.
         21   -1    0    0  501  502  0.00000000000E+00 -0.00000000000E+00 -0.12102278637E+03  0.12102278637E+03  0.00000000000E+00 0. -1.
         24    2    1    2    0    0  0.33517677475E+02 -0.51989787434E+02  0.14128068367E+02  0.10169039709E+03  0.79466734202E+02 0.  0.
         23    2    1    2    0    0  0.12426459682E+03 -0.18424125318E+03  0.37740694974E+03  0.44699897329E+03  0.89361887934E+02 0.  0.
        -13    1    3    3    0    0  0.49376664111E+02 -0.62354903736E+01 -0.41254325256E+01  0.49939518344E+02  0.00000000000E+00 0.  1.
         14    1    3    3    0    0 -0.15858986635E+02 -0.45754297061E+02  0.18253500892E+02  0.51750878751E+02  0.00000000000E+00 0. -1.
        -11    1    4    4    0    0  0.72404931542E+02 -0.59044067105E+02  0.22169516480E+03  0.24057726839E+03  0.00000000000E+00 0.  1.
         11    1    4    4    0    0  0.51859665278E+02 -0.12519718607E+03  0.15571178494E+03  0.20642170489E+03  0.00000000000E+00 0. -1.
          1    1    1    2  501    0 -0.15778227430E+03  0.23623104061E+03  0.43287062507E+03  0.51776184552E+03  0.00000000000E+00 0. -1.
<scales pt_clust_5="13000.00000" pt_clust_6="13000.00000" pt_clust_7="13000.00000" pt_clust_8="13000.00000" pt_clust_9="13000.00000"></scales>
<clustering>
<clus scale="   79.467">  5  6 -1 -1</clus>
<clus scale="   89.362">  7  8 -1 -1</clus>
<clus scale="  100.704">  1  5  2 -1</clus>
<clus scale="  250.955">  7  9 -1 -1</clus>
<clus scale="  523.654">  2  5  1 -1</clus>
</clustering>
</event>
<event>
 9    2  0.2350750E-005  0.7657149E+03  0.7546771E-02  0.9806351E-01
         21   -1    0    0  501  502  0.00000000000E+00  0.00000000000E+00  0.24622815527E+03  0.24622815527E+03  0.00000000000E+00 0. -1.
          2   -1    0    0  502    0 -0.00000000000E+00 -0.00000000000E+00 -0.13861964978E+04  0.13861964978E+04  0.00000000000E+00 0. -1.
         24    2    1    2    0    0  0.38879557281E+03 -0.22205784705E+02 -0.45987947024E+03  0.60829563177E+03  0.82941872205E+02 0.  0.
         23    2    1    2    0    0  0.15400724610E+03  0.11574782488E+03 -0.22616688242E+03  0.31038523928E+03  0.89842903133E+02 0.  0.
        -13    1    3    3    0    0  0.30490261182E+02 -0.20294826303E+02 -0.22901770637E+02  0.43197535808E+02  0.00000000000E+00 0.  1.
         14    1    3    3    0    0  0.35830531163E+03 -0.19109584022E+01 -0.43697769961E+03  0.56509809596E+03  0.00000000000E+00 0. -1.
        -11    1    4    4    0    0  0.58616990813E+02  0.99150722407E+02 -0.13412415940E+03  0.17679396907E+03  0.00000000000E+00 0. -1.
         11    1    4    4    0    0  0.95390255289E+02  0.16597102471E+02 -0.92042723016E+02  0.13359127020E+03  0.00000000000E+00 0.  1.
          1    1    1    2  501    0 -0.54280281891E+03 -0.93542040172E+02 -0.45392198988E+03  0.71374378204E+03  0.00000000000E+00 0. -1.
<scales pt_clust_5="13000.00000" pt_clust_6="13000.00000" pt_clust_7="13000.00000" pt_clust_8="13000.00000" pt_clust_9="13000.00000"></scales>
<clustering>
<clus scale="   82.942">  5  6 -1 -1</clus>
<clus scale="   89.843">  7  8 -1 -1</clus>
<clus scale="  398.164">  2  5  1 -1</clus>
<clus scale="  297.041">  7  9 -1 -1</clus>
<clus scale="  765.715">  1  5  2 -1</clus>
</clustering>
</event>
<event>
 9    2  0.2147756E-005  0.4419608E+03  0.7546771E-02  0.1086205E+00
          2   -1    0    0  502    0 -0.00000000000E+00  0.00000000000E+00  0.45193267622E+03  0.45193267622E+03  0.00000000000E+00 0. -1.
         21   -1    0    0  501  502  0.00000000000E+00 -0.00000000000E+00 -0.17333018578E+03  0.17333018578E+03  0.00000000000E+00 0. -1.
         24    2    1    2    0    0 -0.12235790242E+02  0.38806423575E+02 -0.17732850265E+02  0.93150093021E+02  0.81895254916E+02 0.  0.
         23    2    1    2    0    0 -0.14163711781E+03 -0.46628512204E+02 -0.23788079899E+02  0.17684236306E+03  0.92043779446E+02 0.  0.
        -13    1    3    3    0    0 -0.13991805900E+02 -0.24369437448E+02 -0.30407849682E+01  0.28264580080E+02  0.00000000000E+00 0.  1.
         14    1    3    3    0    0  0.17560156583E+01  0.63175861023E+02 -0.14692065297E+02  0.64885512941E+02  0.00000000000E+00 0. -1.
        -11    1    4    4    0    0 -0.50676643421E+02 -0.34927994644E+02 -0.52337213337E+02  0.80791527391E+02  0.00000000000E+00 0.  1.
         11    1    4    4    0    0 -0.90960474386E+02 -0.11700517560E+02  0.28549133438E+02  0.96050835664E+02  0.00000000000E+00 0. -1.
          1    1    1    2  501    0  0.15387290805E+03  0.78220886289E+01  0.32012342060E+03  0.35527040592E+03  0.00000000000E+00 0. -1.
<scales pt_clust_5="13000.00000" pt_clust_6="13000.00000" pt_clust_7="13000.00000" pt_clust_8="13000.00000" pt_clust_9="13000.00000"></scales>
<clustering>
<clus scale="   81.895">  5  6 -1 -1</clus>
<clus scale="   91.447">  1  5  2 -1</clus>
<clus scale="   92.044">  7  8 -1 -1</clus>
<clus scale="  149.210">  7  9 -1 -1</clus>
<clus scale="  441.961">  2  5  1 -1</clus>
</clustering>
</event>
<event>
 9    2  0.2147756E-005  0.2012069E+03  0.7546771E-02  0.1169844E+00
         21   -1    0    0  501  502  0.00000000000E+00  0.00000000000E+00  0.21274167324E+03  0.21274167324E+03  0.00000000000E+00 0. -1.
         -1   -1    0    0    0  501 -0.00000000000E+00 -0.00000000000E+00 -0.14396846556E+03  0.14396846556E+03  0.00000000000E+00 0.  1.
         24    2    1    2    0    0  0.46418256968E+02 -0.81507961257E+02  0.92808446240E+02  0.15407278762E+03  0.79541271443E+02 0.  0.
         23    2    1    2    0    0 -0.59340980897E+02  0.51377128868E+02  0.41117699037E+02  0.12970060371E+03  0.94713357262E+02 0.  0.
        -13    1    3    3    0    0  0.67566447170E+02 -0.63604969360E+02  0.57404672553E+02  0.10911513800E+03  0.00000000000E+00 0.  1.
         14    1    3    3    0    0 -0.21148190202E+02 -0.17902991897E+02  0.35403773687E+02  0.44957649615E+02  0.00000000000E+00 0. -1.
        -11    1    4    4    0    0 -0.63685146222E+02  0.75113816007E+02  0.28771851142E+02  0.10259484696E+03  0.00000000000E+00 0.  1.
         11    1    4    4    0    0  0.43441653249E+01 -0.23736687139E+02  0.12345847895E+02  0.27105756749E+02  0.00000000000E+00 0. -1.
         -2    1    1    2    0  502  0.12922723928E+02  0.30130832389E+02 -0.65152937594E+02  0.72936747469E+02  0.00000000000E+00 0.  1.
<scales pt_clust_5="13000.00000" pt_clust_6="13000.00000" pt_clust_7="13000.00000" pt_clust_8="13000.00000" pt_clust_9="13000.00000"></scales>
<clustering>
<clus scale="   79.541">  5  6 -1 -1</clus>
<clus scale="   94.713">  7  8 -1 -1</clus>
<clus scale="   32.785">  7  9 -1 -1</clus>
<clus scale="  122.984">  2  5  1 -1</clus>
<clus scale="  201.207">  1  5  2 -1</clus>
</clustering>
</event>
<event>
 9    2  0.2147756E-005  0.2682578E+03  0.7546771E-02  0.1147424E+00
         21   -1    0    0  501  502  0.00000000000E+00  0.00000000000E+00  0.91654780182E+02  0.91654780182E+02  0.00000000000E+00 0. -1.
         -3   -1    0    0    0  501 -0.00000000000E+00 -0.00000000000E+00 -0.34688410133E+03  0.34688410133E+03  0.00000000000E+00 0.  1.
         24    2    1    2    0    0 -0.30085368554E+02  0.88500790393E+01 -0.75667503788E+02  0.11573139827E+03  0.81760211078E+02 0.  0.
         23    2    1    2    0    0  0.66886479899E+02 -0.78936880301E+02 -0.13532940707E+02  0.13887252357E+03  0.91638447465E+02 0.  0.
        -11    1    3    3    0    0  0.83179310301E+01 -0.23955114619E+02 -0.73827807830E+00  0.25368889364E+02  0.00000000000E+00 0.  1.
         12    1    3    3    0    0 -0.38403299584E+02  0.32805193659E+02 -0.74929225710E+02  0.90362508904E+02  0.00000000000E+00 0. -1.
        -11    1    4    4    0    0  0.32078476908E+02 -0.37314515090E+02  0.39424882159E+02  0.63053334966E+02  0.00000000000E+00 0. -1.
         11    1    4    4    0    0  0.34808002991E+02 -0.41622365211E+02 -0.52957822865E+02  0.75819188604E+02  0.00000000000E+00 0.  1.
         -4    1    1    2    0  502 -0.36801111345E+02  0.70086801261E+02 -0.16602887665E+03  0.18393495967E+03  0.00000000000E+00 0.  1.
<scales pt_clust_5="13000.00000" pt_clust_6="13000.00000" pt_clust_7="13000.00000" pt_clust_8="13000.00000" pt_clust_9="13000.00000"></scales>
<clustering>
<clus scale="   81.760">  5  6 -1 -1</clus>
<clus scale="   87.568">  2  5  1 -1</clus>
<clus scale="   91.638">  7  8 -1 -1</clus>
<clus scale="   95.658">  7  9 -1 -1</clus>
<clus scale="  268.258">  1  5  2 -1</clus>
</clustering>
</event>
<event>
 9    2  0.2147756E-005  0.6235230E+03  0.7546771E-02  0.1033672E+00
         21   -1    0    0  501  502  0.00000000000E+00  0.00000000000E+00  0.27162659164E+03  0.27162659164E+03  0.00000000000E+00 0. -1.
          2   -1    0    0  502    0 -0.00000000000E+00 -0.00000000000E+00 -0.53912525629E+03  0.53912525629E+03  0.00000000000E+00 0. -1.
         24    2    1    2    0    0  0.97058503829E+02  0.63837055504E+02 -0.51336631981E+02  0.15082233347E+03  0.81341278996E+02 0.  0.
         23    2    1    2    0    0 -0.10901047259E+03 -0.27186418169E+03 -0.30463890539E+03  0.43355307621E+03  0.96798712774E+02 0.  0.
        -13    1    3    3    0    0  0.66352039655E+02  0.49841739987E+02 -0.73163540610E+02  0.11063315907E+03  0.00000000000E+00 0.  1.
         14    1    3    3    0    0  0.30706464174E+02  0.13995315517E+02  0.21826908629E+02  0.40189174398E+02  0.00000000000E+00 0. -1.
        -13    1    4    4    0    0 -0.17401059038E+02 -0.98727566856E+02 -0.49243978939E+02  0.11169108637E+03  0.00000000000E+00 0.  1.
         13    1    4    4    0    0 -0.91609413551E+02 -0.17313661484E+03 -0.25539492645E+03  0.32186198984E+03  0.00000000000E+00 0. -1.
          1    1    1    2  501    0  0.11951968759E+02  0.20802712619E+03  0.88476872718E+02  0.22637643825E+03  0.00000000000E+00 0. -1.
<scales pt_clust_5="13000.00000" pt_clust_6="13000.00000" pt_clust_7="13000.00000" pt_clust_8="13000.00000" pt_clust_9="13000.00000"></scales>
<clustering>
<clus scale="   81.341">  5  6 -1 -1</clus>
<clus scale="   96.799">  7  8 -1 -1</clus>
<clus scale="  141.817">  2  5  1 -1</clus>
<clus scale="  219.769">  7  9 -1 -1</clus>
<clus scale="  623.523">  1  5  2 -1</clus>
</clustering>
</event>
<event>
 9    2  0.2147756E-005  0.6247908E+03  0.7546771E-02  0.1038621E+00
          2   -1    0    0  502    0 -0.00000000000E+00  0.00000000000E+00  0.20789117240E+04  0.20789117240E+04  0.00000000000E+00 0. -1.
         21   -1    0    0  501  502  0.00000000000E+00 -0.00000000000E+00 -0.68765101601E+02  0.68765101601E+02  0.00000000000E+00 0.  1.
         24    2    1    2    0    0 -0.21268310201E+02  0.93312138383E+02  0.21845502016E+03  0.25017259000E+03  0.75526371330E+02 0.  0.
         23    2    1    2    0    0 -0.25124992400E+03  0.97629422257E+02  0.97286350537E+03  0.10136466001E+04  0.91422106100E+02 0.  0.
        -13    1    3    3    0    0 -0.64214989986E+01  0.36430322455E+02  0.17740384365E+02  0.41025909874E+02  0.00000000000E+00 0.  1.
         14    1    3    3    0    0 -0.14846811203E+02  0.56881815929E+02  0.20071463579E+03  0.20914668013E+03  0.00000000000E+00 0. -1.
        -11    1    4    4    0    0 -0.18039259186E+03  0.44984529465E+02  0.77494832120E+03  0.79693788693E+03  0.00000000000E+00 0.  1.
         11    1    4    4    0    0 -0.70857332137E+02  0.52644892793E+02  0.19791518417E+03  0.21670871321E+03  0.00000000000E+00 0. -1.
          1    1    1    2  501    0  0.27251823420E+03 -0.19094156064E+03  0.81882809687E+03  0.88385763547E+03  0.00000000000E+00 0. -1.
<scales pt_clust_5="13000.00000" pt_clust_6="13000.00000" pt_clust_7="13000.00000" pt_clust_8="13000.00000" pt_clust_9="13000.00000"></scales>
<clustering>
<clus scale="   75.526">  5  6 -1 -1</clus>
<clus scale="   91.422">  7  8 -1 -1</clus>
<clus scale="  121.917">  1  5  2 -1</clus>
<clus scale="  301.462">  7  9 -1 -1</clus>
<clus scale="  624.791">  2  5  1 -1</clus>
</clustering>
</event>
<event>
 9    2  0.2147756E-005  0.3312159E+03  0.7546771E-02  0.1111245E+00
          2   -1    0    0  502    0 -0.00000000000E+00  0.00000000000E+00  0.11209945689E+04  0.11209945689E+04  0.00000000000E+00 0. -1.
         21   -1    0    0  501  502  0.00000000000E+00 -0.00000000000E+00 -0.94007410389E+02  0.94007410389E+02  0.00000000000E+00 0. -1.
         24    2    1    2    0    0  0.23317041075E+02  0.76729962327E+02  0.81260085667E+03  0.82045739319E+03  0.79993813912E+02 0.  0.
         23    2    1    2    0    0  0.92180643076E+02  0.32072830485E+02  0.18995082570E+03  0.23399909327E+03  0.95646861179E+02 0.  0.
        -11    1    3    3    0    0 -0.18735171655E+02  0.39866304343E+02  0.17690942071E+03  0.18231092127E+03  0.00000000000E+00 0.  1.
         12    1    3    3    0    0  0.42052212730E+02  0.36863657984E+02  0.63569143596E+03  0.63814647192E+03  0.00000000000E+00 0. -1.
        -11    1    4    4    0    0  0.64619982437E+02 -0.10725872297E+02  0.16454994129E+03  0.17710863797E+03  0.00000000000E+00 0.  1.
         11    1    4    4    0    0  0.27560660639E+02  0.42798702782E+02  0.25400884408E+02  0.56890455293E+02  0.00000000000E+00 0. -1.
          1    1    1    2  501    0 -0.11549768415E+03 -0.10880279281E+03  0.24435476126E+02  0.16054549281E+03  0.00000000000E+00 0. -1.
<scales pt_clust_5="13000.00000" pt_clust_6="13000.00000" pt_clust_7="13000.00000" pt_clust_8="13000.00000" pt_clust_9="13000.00000"></scales>
<clustering>
<clus scale="   79.994">  5  6 -1 -1</clus>
<clus scale="   95.647">  7  8 -1 -1</clus>
<clus scale="  113.270">  1  5  2 -1</clus>
<clus scale="  138.068">  7  9 -1 -1</clus>
<clus scale="  331.216">  2  5  1 -1</clus>
</clustering>
</event>
<event>
 9    2  0.2147756E-005  0.2684355E+03  0.7546771E-02  0.1149735E+00
         21   -1    0    0  501  502  0.00000000000E+00  0.00000000000E+00  0.12828880492E+03  0.12828880492E+03  0.00000000000E+00 0.  1.
         -3   -1    0    0    0  501 -0.00000000000E+00 -0.00000000000E+00 -0.29556698715E+03  0.29556698715E+03  0.00000000000E+00 0.  1.
         24    2    1    2    0    0  0.11777807570E+02  0.17726513757E+02 -0.12822416505E+03  0.15259423590E+03  0.79941342776E+02 0.  0.
         23    2    1    2    0    0  0.80263592379E+02  0.31960921995E+02  0.46889681308E+02  0.13588511846E+03  0.93820991308E+02 0.  0.
        -11    1    3    3    0    0  0.20096306362E+02  0.40233625336E+02 -0.11842177701E+03  0.12667408341E+03  0.00000000000E+00 0.  1.
         12    1    3    3    0    0 -0.83184987922E+01 -0.22507111578E+02 -0.98023880411E+01  0.25920152489E+02  0.00000000000E+00 0. -1.
        -11    1    4    4    0    0  0.14866967310E+02  0.35187366039E+02  0.58023850230E+02  0.69469019291E+02  0.00000000000E+00 0.  1.
         11    1    4    4    0    0  0.65396625069E+02 -0.32264440440E+01 -0.11134168922E+02  0.66416099171E+02  0.00000000000E+00 0. -1.
         -4    1    1    2    0  502 -0.92041399949E+02 -0.49687435752E+02 -0.85943698486E+02  0.13537643770E+03  0.00000000000E+00 0.  1.
<scales pt_clust_5="13000.00000" pt_clust_6="13000.00000" pt_clust_7="13000.00000" pt_clust_8="13000.00000" pt_clust_9="13000.00000"></scales>
<clustering>
<clus scale="   79.941">  5  6 -1 -1</clus>
<clus scale="   82.726">  2  5  1 -1</clus>
<clus scale="   93.821">  7  8 -1 -1</clus>
<clus scale="   91.478">  7  9 -1 -1</clus>
<clus scale="  268.435">  1  5  2 -1</clus>
</clustering>
</event>
<event>
 9    2  0.2147756E-005  0.3509481E+03  0.7546771E-02  0.1112380E+00
          2   -1    0    0  502    0 -0.00000000000E+00  0.00000000000E+00  0.13976523086E+04  0.13976523086E+04  0.00000000000E+00 0. -1.
         21   -1    0    0  501  502  0.00000000000E+00 -0.00000000000E+00 -0.89661375319E+02  0.89661375319E+02  0.00000000000E+00 0. -1.
         24    2    1    2    0    0  0.40633899738E+02  0.21242690698E+02  0.10441751111E+04  0.10482654629E+04  0.80352052633E+02 0.  0.
         23    2    1    2    0    0  0.72634727078E+02  0.12146397211E+03  0.13071618540E+03  0.21341469793E+03  0.91814008027E+02 0.  0.
        -11    1    3    3    0    0  0.45937175060E+02  0.10854280830E+02  0.27638135823E+03  0.28038312117E+03  0.00000000000E+00 0.  1.
         12    1    3    3    0    0 -0.53032753219E+01  0.10388409868E+02  0.76779375285E+03  0.76788234170E+03  0.00000000000E+00 0. -1.
        -13    1    4    4    0    0  0.15553867298E+02 -0.14077696110E+02  0.22906872878E+02  0.31061698935E+02  0.00000000000E+00 0.  1.
         13    1    4    4    0    0  0.57080859780E+02  0.13554166822E+03  0.10780931252E+03  0.18235299900E+03  0.00000000000E+00 0. -1.
          1    1    1    2  501    0 -0.11326862682E+03 -0.14270666281E+03  0.13309963680E+03  0.22563352310E+03  0.00000000000E+00 0. -1.
<scales pt_clust_5="13000.00000" pt_clust_6="13000.00000" pt_clust_7="13000.00000" pt_clust_8="13000.00000" pt_clust_9="13000.00000"></scales>
<clustering>
<clus scale="   80.352">  5  6 -1 -1</clus>
<clus scale="   91.814">  7  8 -1 -1</clus>
<clus scale="   92.514">  1  5  2 -1</clus>
<clus scale="  161.090">  7  9 -1 -1</clus>
<clus scale="  350.948">  2  5  1 -1</clus>
</clustering>
</event>
<event>
 9    2  0.2147756E-005  0.4363635E+03  0.7546771E-02  0.1050410E+00
          2   -1    0    0  502    0 -0.00000000000E+00  0.00000000000E+00  0.20578443724E+03  0.20578443724E+03  0.00000000000E+00 0. -1.
         21   -1    0    0  501  502  0.00000000000E+00 -0.00000000000E+00 -0.99001183429E+03  0.99001183429E+03  0.00000000000E+00 0.  1.
         24    2    1    2    0    0  0.20996400169E+03  0.11860879609E+03 -0.70851565207E+03  0.75291328960E+03  0.82043061412E+02 0.  0.
         23    2    1    2    0    0  0.45773251395E+02  0.51609890394E+02  0.30656452362E+02  0.11778278623E+03  0.90411256655E+02 0.  0.
        -11    1    3    3    0    0  0.87578654288E+02  0.86761405148E+02 -0.42401603465E+03  0.44157350436E+03  0.00000000000E+00 0.  1.
         12    1    3    3    0    0  0.12238534740E+03  0.31847390938E+02 -0.28449961742E+03  0.31133978525E+03  0.00000000000E+00 0. -1.
        -11    1    4    4    0    0 -0.13344204175E+02  0.44096748701E+02  0.35254536066E+02  0.58012699853E+02  0.00000000000E+00 0. -1.
         11    1    4    4    0    0  0.59117455570E+02  0.75131416931E+01 -0.45980837036E+01  0.59770086372E+02  0.00000000000E+00 0.  1.
          1    1    1    2  501    0 -0.25573725308E+03 -0.17021868648E+03 -0.10636819734E+03  0.32510019570E+03  0.00000000000E+00 0. -1.
<scales pt_clust_5="13000.00000" pt_clust_6="13000.00000" pt_clust_7="13000.00000" pt_clust_8="13000.00000" pt_clust_9="13000.00000"></scales>
<clustering>
<clus scale="   82.043">  5  6 -1 -1</clus>
<clus scale="   90.411">  7  8 -1 -1</clus>
<clus scale="  254.723">  1  5  2 -1</clus>
<clus scale="  164.267">  7  9 -1 -1</clus>
<clus scale="  436.363">  2  5  1 -1</clus>
</clustering>
</event>
<event>
 9    2  0.2147756E-005  0.3082193E+03  0.7546771E-02  0.1124127E+00
         21   -1    0    0  501  502  0.00000000000E+00  0.00000000000E+00  0.94289044489E+02  0.94289044489E+02  0.00000000000E+00 0. -1.
          2   -1    0    0  502    0 -0.00000000000E+00 -0.00000000000E+00 -0.69988619966E+03  0.69988619966E+03  0.00000000000E+00 0. -1.
         24    2    1    2    0    0  0.78718296886E+01 -0.62834476073E+02  0.13495886551E+02  0.10260069513E+03  0.79590367511E+02 0.  0.
         23    2    1    2    0    0  0.11059183167E+03  0.92173869084E+02 -0.46956953808E+03  0.49856750981E+03  0.85717182456E+02 0.  0.
        -13    1    3    3    0    0 -0.97522496980E+01 -0.64904926563E+02 -0.16566189695E+02  0.67691908729E+02  0.00000000000E+00 0.  1.
         14    1    3    3    0    0  0.17624079387E+02  0.20704504901E+01  0.30062076246E+02  0.34908786397E+02  0.00000000000E+00 0. -1.
        -11    1    4    4    0    0  0.45767645156E+02  0.38258734085E+02 -0.78950935866E+02  0.98952808707E+02  0.00000000000E+00 0.  1.
         11    1    4    4    0    0  0.64824186516E+02  0.53915134999E+02 -0.39061860222E+03  0.39961470110E+03  0.00000000000E+00 0. -1.
          1    1    1    2  501    0 -0.11846366136E+03 -0.29339393010E+02 -0.14952350363E+03  0.19300703921E+03  0.00000000000E+00 0. -1.
<scales pt_clust_5="13000.00000" pt_clust_6="13000.00000" pt_clust_7="13000.00000" pt_clust_8="13000.00000" pt_clust_9="13000.00000"></scales>
<clustering>
<clus scale="   79.590">  5  6 -1 -1</clus>
<clus scale="   85.717">  7  8 -1 -1</clus>
<clus scale="  101.709">  2  5  1 -1</clus>
<clus scale="  125.078">  7  9 -1 -1</clus>
<clus scale="  308.219">  1  5  2 -1</clus>
</clustering>
</event>
<event>
 9    2  0.2147756E-005  0.2961498E+03  0.7546771E-02  0.1128929E+00
         -1   -1    0    0    0  501 -0.00000000000E+00  0.00000000000E+00  0.91746104802E+03  0.91746104802E+03  0.00000000000E+00 0.  1.
         21   -1    0    0  501  502  0.00000000000E+00 -0.00000000000E+00 -0.53153769403E+02  0.53153769403E+02  0.00000000000E+00 0.  1.
         24    2    1    2    0    0  0.34589320062E+02 -0.52657652909E+02  0.71834964889E+02  0.12461418263E+03  0.79994892711E+02 0.  0.
         23    2    1    2    0    0 -0.57958818943E+01  0.16091012554E+03  0.51076499418E+03  0.54283949975E+03  0.88702775966E+02 0.  0.
        -13    1    3    3    0    0  0.55903312168E+02 -0.38889890606E+02  0.27320641071E+02  0.73375890668E+02  0.00000000000E+00 0.  1.
         14    1    3    3    0    0 -0.21313992106E+02 -0.13767762302E+02  0.44514323817E+02  0.51238291962E+02  0.00000000000E+00 0. -1.
        -11    1    4    4    0    0  0.31964560525E+02  0.53591009346E+02  0.11253597645E+03  0.12867818544E+03  0.00000000000E+00 0. -1.
         11    1    4    4    0    0 -0.37760442419E+02  0.10731911619E+03  0.39822901772E+03  0.41416131431E+03  0.00000000000E+00 0.  1.
         -2    1    1    2    0  502 -0.28793438168E+02 -0.10825247263E+03  0.28170731955E+03  0.30316113504E+03  0.00000000000E+00 0.  1.
<scales pt_clust_5="13000.00000" pt_clust_6="13000.00000" pt_clust_7="13000.00000" pt_clust_8="13000.00000" pt_clust_9="13000.00000"></scales>
<clustering>
<clus scale="   79.995">  5  6 -1 -1</clus>
<clus scale="   88.703">  7  8 -1 -1</clus>
<clus scale="  101.826">  1  5  2 -1</clus>
<clus scale="  128.109">  7  9 -1 -1</clus>
<clus scale="  296.150">  2  5  1 -1</clus>
</clustering>
</event>
<event>
 9    2  0.2147756E-005  0.6870038E+03  0.7546771E-02  0.1025432E+00
         21   -1    0    0  501  502  0.00000000000E+00  0.00000000000E+00  0.43106927521E+03  0.43106927521E+03  0.00000000000E+00 0.  1.
         -3   -1    0    0    0  501 -0.00000000000E+00 -0.00000000000E+00 -0.86819399905E+03  0.86819399905E+03  0.00000000000E+00 0.  1.
         24    2    1    2    0    0 -0.10357954458E+03  0.37467098554E+02 -0.58166346344E+03  0.59721934523E+03  0.78778525556E+02 0.  0.
         23    2    1    2    0    0 -0.10540726327E+03  0.27304033030E+03  0.19217997531E+02  0.30733436794E+03  0.91778914581E+02 0.  0.
        -11    1    3    3    0    0 -0.78817286173E+02  0.56891995863E+02 -0.50632568775E+03  0.51557207631E+03  0.00000000000E+00 0.  1.
         12    1    3    3    0    0 -0.24762258406E+02 -0.19424897308E+02 -0.75337775689E+02  0.81647268923E+02  0.00000000000E+00 0. -1.
        -13    1    4    4    0    0 -0.53578608513E+02  0.23774864669E+03  0.20925337541E+02  0.24460775957E+03  0.00000000000E+00 0.  1.
         13    1    4    4    0    0 -0.51828654760E+02  0.35291683616E+02 -0.17073400095E+01  0.62726608361E+02  0.00000000000E+00 0. -1.
         -4    1    1    2    0  502  0.20898680785E+03 -0.31050742886E+03  0.12532074207E+03  0.39470956110E+03  0.00000000000E+00 0.  1.
<scales pt_clust_5="13000.00000" pt_clust_6="13000.00000" pt_clust_7="13000.00000" pt_clust_8="13000.00000" pt_clust_9="13000.00000"></scales>
<clustering>
<clus scale="   78.779">  5  6 -1 -1</clus>
<clus scale="   91.779">  7  8 -1 -1</clus>
<clus scale="  135.420">  2  5  1 -1</clus>
<clus scale="  332.807">  7  9 -1 -1</clus>
<clus scale="  687.004">  1  5  2 -1</clus>
</clustering>
</event>
<event>
 9    2  0.2147756E-005  0.2010752E+03  0.7546771E-02  0.1182336E+00
         21   -1    0    0  501  502  0.00000000000E+00  0.00000000000E+00  0.17199718351E+03  0.17199718351E+03  0.00000000000E+00 0.  1.
         -1   -1    0    0    0  501 -0.00000000000E+00 -0.00000000000E+00 -0.19312348118E+03  0.19312348118E+03  0.00000000000E+00 0.  1.
         24    2    1    2    0    0  0.46139149304E+02  0.14221366621E+02 -0.11112077039E+03  0.14482481792E+03  0.79343140252E+02 0.  0.
         23    2    1    2    0    0  0.48342750204E+02 -0.25621713768E+02  0.45844756301E+02  0.11538638719E+03  0.90657503573E+02 0.  0.
        -11    1    3    3    0    0 -0.12748779434E+02  0.29331686551E+02 -0.41541254668E+02  0.52426663563E+02  0.00000000000E+00 0.  1.
         12    1    3    3    0    0  0.58887928738E+02 -0.15110319930E+02 -0.69579515726E+02  0.92398154355E+02  0.00000000000E+00 0. -1.
        -13    1    4    4    0    0  0.55458133715E+02  0.18992325006E+02  0.14460874943E+02  0.60377395674E+02  0.00000000000E+00 0.  1.
         13    1    4    4    0    0 -0.71153835106E+01 -0.44614038774E+02  0.31383881358E+02  0.55008991513E+02  0.00000000000E+00 0. -1.
         -2    1    1    2    0  502 -0.94481899508E+02  0.11400347147E+02  0.44149716424E+02  0.10490945958E+03  0.00000000000E+00 0.  1.
<scales pt_clust_5="13000.00000" pt_clust_6="13000.00000" pt_clust_7="13000.00000" pt_clust_8="13000.00000" pt_clust_9="13000.00000"></scales>
<clustering>
<clus scale="   79.343">  5  6 -1 -1</clus>
<clus scale="   90.658">  7  8 -1 -1</clus>
<clus scale="   92.878">  2  5  1 -1</clus>
<clus scale="   75.162">  7  9 -1 -1</clus>
<clus scale="  201.075">  1  5  2 -1</clus>
</clustering>
</event>
<event>
 9    2  0.2147756E-005  0.5169228E+03  0.7546771E-02  0.1042553E+00
          2   -1    0    0  502    0 -0.00000000000E+00  0.00000000000E+00  0.95522382492E+02  0.95522382492E+02  0.00000000000E+00 0. -1.
         21   -1    0    0  501  502  0.00000000000E+00 -0.00000000000E+00 -0.13544679081E+04  0.13544679081E+04  0.00000000000E+00 0. -1.
         24    2    1    2    0    0  0.17008155461E+03  0.31861761188E+02 -0.45912311657E+03  0.49766416643E+03  0.83262712767E+02 0.  0.
         23    2    1    2    0    0 -0.46155203725E+02  0.21236767447E+03 -0.29267488214E+03  0.37595439365E+03  0.91939042190E+02 0.  0.
        -13    1    3    3    0    0  0.10328633329E+03  0.30646333615E+02 -0.17267381895E+03  0.20352766927E+03  0.00000000000E+00 0.  1.
         14    1    3    3    0    0  0.66795221325E+02  0.12154275732E+01 -0.28644929762E+03  0.29413649716E+03  0.00000000000E+00 0. -1.
        -11    1    4    4    0    0  0.12672071991E+02  0.56562866259E+02 -0.13367134235E+03  0.14569820525E+03  0.00000000000E+00 0.  1.
         11    1    4    4    0    0 -0.58827275716E+02  0.15580480821E+03 -0.15900353979E+03  0.23025618840E+03  0.00000000000E+00 0. -1.
          1    1    1    2  501    0 -0.12392635089E+03 -0.24422943566E+03 -0.50714752690E+03  0.57637173051E+03  0.00000000000E+00 0. -1.
<scales pt_clust_5="13000.00000" pt_clust_6="13000.00000" pt_clust_7="13000.00000" pt_clust_8="13000.00000" pt_clust_9="13000.00000"></scales>
<clustering>
<clus scale="   83.263">  5  6 -1 -1</clus>
<clus scale="   91.939">  7  8 -1 -1</clus>
<clus scale="  192.030">  1  5  2 -1</clus>
<clus scale="  234.469">  7  9 -1 -1</clus>
<clus scale="  516.923">  2  5  1 -1</clus>
</clustering>
</event>
<event>
 9    2  0.2147756E-005  0.7880981E+03  0.7546771E-02  0.1000038E+00
         -3   -1    0    0    0  501 -0.00000000000E+00  0.00000000000E+00  0.70634830355E+03  0.70634830355E+03  0.00000000000E+00 0.  1.
         21   -1    0    0  501  502  0.00000000000E+00 -0.00000000000E+00 -0.34843269849E+03  0.34843269849E+03  0.00000000000E+00 0.  1.
         24    2    1    2    0    0 -0.13410829598E+03  0.12358915916E+03  0.12793271267E+03  0.23381162182E+03  0.71005494270E+02 0.  0.
         23    2    1    2    0    0 -0.18120313039E+03  0.95778543739E+02 -0.15887822662E+03  0.27438319804E+03  0.89642314612E+02 0.  0.
        -11    1    3    3    0    0 -0.75553084664E+02  0.11231603158E+03  0.79435304308E+02  0.15694944129E+03  0.00000000000E+00 0.  1.
         12    1    3    3    0    0 -0.58555211318E+02  0.11273127575E+02  0.48497408357E+02  0.76862180526E+02  0.00000000000E+00 0. -1.
        -11    1    4    4    0    0 -0.14312655291E+03  0.10271507535E+03 -0.96214465971E+02  0.20073071592E+03  0.00000000000E+00 0.  1.
         11    1    4    4    0    0 -0.38076577479E+02 -0.69365316126E+01 -0.62663760653E+02  0.73652482121E+02  0.00000000000E+00 0. -1.
         -4    1    1    2    0  502  0.31531142637E+03 -0.21936770289E+03  0.38886111902E+03  0.54658618219E+03  0.00000000000E+00 0.  1.
<scales pt_clust_5="13000.00000" pt_clust_6="13000.00000" pt_clust_7="13000.00000" pt_clust_8="13000.00000" pt_clust_9="13000.00000"></scales>
<clustering>
<clus scale="   71.005">  5  6 -1 -1</clus>
<clus scale="   89.642">  7  8 -1 -1</clus>
<clus scale="  195.707">  1  5  2 -1</clus>
<clus scale="  224.396">  7  9 -1 -1</clus>
<clus scale="  788.098">  2  5  1 -1</clus>
</clustering>
</event>
<event>
 9    2  0.2147756E-005  0.2419219E+03  0.7546771E-02  0.1151782E+00
          2   -1    0    0  502    0 -0.00000000000E+00  0.00000000000E+00  0.15669905893E+04  0.15669905893E+04  0.00000000000E+00 0. -1.
         21   -1    0    0  501  502  0.00000000000E+00 -0.00000000000E+00 -0.23816900069E+02  0.23816900069E+02  0.00000000000E+00 0. -1.
         24    2    1    2    0    0 -0.55873564254E+02 -0.45244357835E+02  0.84660127456E+03  0.85342066671E+03  0.80151164592E+02 0.  0.
         23    2    1    2    0    0 -0.33761894007E+02 -0.44543236456E+02  0.23474550433E+03  0.25845006005E+03  0.92558178103E+02 0.  0.
        -11    1    3    3    0    0 -0.19719854200E+02 -0.20536367328E+02  0.69762664871E+02  0.75348818455E+02  0.00000000000E+00 0.  1.
         12    1    3    3    0    0 -0.36153710054E+02 -0.24707990507E+02  0.77683860969E+03  0.77807184825E+03  0.00000000000E+00 0. -1.
        -13    1    4    4    0    0 -0.60688138548E+02 -0.71990257585E+01  0.15070850113E+03  0.16262819080E+03  0.00000000000E+00 0. -1.
         13    1    4    4    0    0  0.26926244541E+02 -0.37344210697E+02  0.84037003203E+02  0.95821869242E+02  0.00000000000E+00 0.  1.
          1    1    1    2  501    0  0.89635458260E+02  0.89787594291E+02  0.46182691038E+03  0.47893676265E+03  0.00000000000E+00 0. -1.
<scales pt_clust_5="13000.00000" pt_clust_6="13000.00000" pt_clust_7="13000.00000" pt_clust_8="13000.00000" pt_clust_9="13000.00000"></scales>
<clustering>
<clus scale="   80.151">  5  6 -1 -1</clus>
<clus scale="   92.558">  7  8 -1 -1</clus>
<clus scale="  107.671">  1  5  2 -1</clus>
<clus scale="   80.121">  7  9 -1 -1</clus>
<clus scale="  241.922">  2  5  1 -1</clus>
</clustering>
</event>
<event>
 9    2  0.2147756E-005  0.4761306E+03  0.7546771E-02  0.1069112E+00
          2   -1    0    0  502    0 -0.00000000000E+00  0.00000000000E+00  0.16710930645E+04  0.16710930645E+04  0.00000000000E+00 0. -1.
         21   -1    0    0  501  502  0.00000000000E+00 -0.00000000000E+00 -0.55173022618E+02  0.55173022618E+02  0.00000000000E+00 0.  1.
         24    2    1    2    0    0 -0.30435642188E+02 -0.78579814104E+02  0.49443779808E+03  0.50789717846E+03  0.79935550410E+02 0.  0.
         23    2    1    2    0    0  0.18517864039E+03  0.19229191896E+03  0.60806530489E+03  0.67021492350E+03  0.90428522676E+02 0.  0.
        -11    1    3    3    0    0 -0.23136564099E+02 -0.21971000831E+02  0.46838755354E+02  0.56673578314E+02  0.00000000000E+00 0.  1.
         12    1    3    3    0    0 -0.72990780895E+01 -0.56608813273E+02  0.44759904272E+03  0.45122360015E+03  0.00000000000E+00 0. -1.
        -11    1    4    4    0    0  0.15412648858E+03  0.12333080045E+03  0.50632862731E+03  0.54344653799E+03  0.00000000000E+00 0.  1.
         11    1    4    4    0    0  0.31052151810E+02  0.68961118516E+02  0.10173667758E+03  0.12676838551E+03  0.00000000000E+00 0. -1.
          1    1    1    2  501    0 -0.15474299820E+03 -0.11371210486E+03  0.51341693894E+03  0.54815398519E+03  0.00000000000E+00 0. -1.
<scales pt_clust_5="13000.00000" pt_clust_6="13000.00000" pt_clust_7="13000.00000" pt_clust_8="13000.00000" pt_clust_9="13000.00000"></scales>
<clustering>
<clus scale="   79.936">  5  6 -1 -1</clus>
<clus scale="   90.429">  7  8 -1 -1</clus>
<clus scale="  116.150">  1  5  2 -1</clus>
<clus scale="  225.209">  7  9 -1 -1</clus>
<clus scale="  476.131">  2  5  1 -1</clus>
</clustering>
</event>
<event>
 9    2  0.2147756E-005  0.1469835E+03  0.7546771E-02  0.1224220E+00
          2   -1    0    0  502    0 -0.00000000000E+00  0.00000000000E+00  0.94788152247E+03  0.94788152247E+03  0.00000000000E+00 0. -1.
         21   -1    0    0  501  502  0.00000000000E+00 -0.00000000000E+00 -0.25573814752E+02  0.25573814752E+02  0.00000000000E+00 0.  1.
         24    2    1    2    0    0 -0.14407770821E+02 -0.47723065373E+02  0.70234701517E+03  0.70890503782E+03  0.82279694376E+02 0.  0.
         23    2    1    2    0    0 -0.23243977139E+02  0.26138904478E+02  0.11667434805E+03  0.15251638004E+03  0.91786806721E+02 0.  0.
        -13    1    3    3    0    0  0.94922077232E+01 -0.55115385881E+02  0.26470625452E+03  0.27054982711E+03  0.00000000000E+00 0.  1.
         14    1    3    3    0    0 -0.23899978544E+02  0.73923205083E+01  0.43764076064E+03  0.43835521071E+03  0.00000000000E+00 0. -1.
        -13    1    4    4    0    0  0.24385284832E+02 -0.84961143305E+01  0.77745533996E+02  0.81921878222E+02  0.00000000000E+00 0.  1.
         13    1    4    4    0    0 -0.47629261971E+02  0.34635018809E+02  0.38928814055E+02  0.70594501823E+02  0.00000000000E+00 0. -1.
          1    1    1    2  501    0  0.37651747960E+02  0.21584160895E+02  0.10328634450E+03  0.11203391935E+03  0.00000000000E+00 0. -1.
<scales pt_clust_5="13000.00000" pt_clust_6="13000.00000" pt_clust_7="13000.00000" pt_clust_8="13000.00000" pt_clust_9="13000.00000"></scales>
<clustering>
<clus scale="   82.280">  5  6 -1 -1</clus>
<clus scale="   91.787">  7  8 -1 -1</clus>
<clus scale="   43.400">  7  9 -1 -1</clus>
<clus scale="   96.203">  1  5  2 -1</clus>
<clus scale="  146.984">  2  5  1 -1</clus>
</clustering>
</event>
<event>
 9    2  0.2147756E-005  0.3748165E+03  0.7546771E-02  0.1106319E+00
         -3   -1    0    0    0  501 -0.00000000000E+00  0.00000000000E+00  0.27904790577E+03  0.27904790577E+03  0.00000000000E+00 0.  1.
         21   -1    0    0  501  502  0.00000000000E+00 -0.00000000000E+00 -0.19566503848E+03  0.19566503848E+03  0.00000000000E+00 0.  1.
         24    2    1    2    0    0 -0.20940400318E+02 -0.27092162855E+02 -0.77575343238E+01  0.88974714698E+02  0.81754723797E+02 0.  0.
         23    2    1    2    0    0 -0.93350988746E+02 -0.11464260273E+03 -0.12867036880E+02  0.17605081303E+03  0.94715334918E+02 0.  0.
        -11    1    3    3    0    0  0.22466044746E+02 -0.37623327507E+02 -0.64259200208E+01  0.44289167833E+02  0.00000000000E+00 0.  1.
         12    1    3    3    0    0 -0.43406445064E+02  0.10531164652E+02 -0.13316143030E+01  0.44685546865E+02  0.00000000000E+00 0. -1.
        -11    1    4    4    0    0 -0.89837420633E+01 -0.70107382895E+02  0.22699572091E+02  0.74236266952E+02  0.00000000000E+00 0. -1.
         11    1    4    4    0    0 -0.84367246683E+02 -0.44535219835E+02 -0.35566608972E+02  0.10181454607E+03  0.00000000000E+00 0.  1.
         -4    1    1    2    0  502  0.11429138906E+03  0.14173476558E+03  0.10400743849E+03  0.20968741653E+03  0.00000000000E+00 0.  1.
<scales pt_clust_5="13000.00000" pt_clust_6="13000.00000" pt_clust_7="13000.00000" pt_clust_8="13000.00000" pt_clust_9="13000.00000"></scales>
<clustering>
<clus scale="   81.755">  5  6 -1 -1</clus>
<clus scale="   88.636">  1  5  2 -1</clus>
<clus scale="   94.715">  7  8 -1 -1</clus>
<clus scale="  159.556">  7  9 -1 -1</clus>
<clus scale="  374.817">  2  5  1 -1</clus>
</clustering>
</event>
<event>
 9    2  0.2147756E-005  0.2130803E+03  0.7546771E-02  0.1177124E+00
         21   -1    0    0  501  502  0.00000000000E+00  0.00000000000E+00  0.67452257457E+02  0.67452257457E+02  0.00000000000E+00 0.  1.
         -3   -1    0    0    0  501 -0.00000000000E+00 -0.00000000000E+00 -0.42554502304E+03  0.42554502304E+03  0.00000000000E+00 0.  1.
         24    2    1    2    0    0  0.23028857419E+02 -0.21104010005E+02 -0.22564377724E+03  0.24210697954E+03  0.82005901134E+02 0.  0.
         23    2    1    2    0    0  0.29458061376E+02 -0.36957307744E+02 -0.14036693311E+03  0.17222209193E+03  0.87886023133E+02 0.  0.
        -13    1    3    3    0    0  0.36162955387E+02  0.10052922128E+01 -0.20751066292E+03  0.21064055920E+03  0.00000000000E+00 0.  1.
         14    1    3    3    0    0 -0.13134097968E+02 -0.22109302217E+02 -0.18133114326E+02  0.31466420342E+02  0.00000000000E+00 0. -1.
        -11    1    4    4    0    0 -0.41345737773E+01  0.20940995496E+02 -0.77519132303E+02  0.80404203035E+02  0.00000000000E+00 0. -1.
         11    1    4    4    0    0  0.33592635153E+02 -0.57898303240E+02 -0.62847800802E+02  0.91817888890E+02  0.00000000000E+00 0.  1.
         -4    1    1    2    0  502 -0.52486918795E+02  0.58061317749E+02  0.79179447626E+01  0.78668209034E+02  0.00000000000E+00 0.  1.
<scales pt_clust_5="13000.00000" pt_clust_6="13000.00000" pt_clust_7="13000.00000" pt_clust_8="13000.00000" pt_clust_9="13000.00000"></scales>
<clustering>
<clus scale="   82.006">  5  6 -1 -1</clus>
<clus scale="   87.753">  2  5  1 -1</clus>
<clus scale="   87.886">  7  8 -1 -1</clus>
<clus scale="   72.531">  7  9 -1 -1</clus>
<clus scale="  213.080">  1  5  2 -1</clus>
</clustering>
</event>
<event>
 9    2  0.2147756E-005  0.1566589E+03  0.7546771E-02  0.1220972E+00
          2   -1    0    0  502    0 -0.00000000000E+00  0.00000000000E+00  0.19286250268E+04  0.19286250268E+04  0.00000000000E+00 0. -1.
         21   -1    0    0  501  502  0.00000000000E+00 -0.00000000000E+00 -0.15425806611E+02  0.15425806611E+02  0.00000000000E+00 0. -1.
         24    2    1    2    0    0 -0.84854162072E+01 -0.28636367534E+02  0.14958935646E+04  0.14983087392E+04  0.79620835726E+02 0.  0.
         23    2    1    2    0    0 -0.23355155654E+01 -0.30662104043E+02  0.27301206874E+03  0.28936421694E+03  0.90831938817E+02 0.  0.
        -13    1    3    3    0    0 -0.80544512641E+01 -0.19833804310E+02  0.94777404492E+02  0.97164861863E+02  0.00000000000E+00 0.  1.
         14    1    3    3    0    0 -0.43096494311E+00 -0.88025632246E+01  0.14011161602E+04  0.14011438774E+04  0.00000000000E+00 0. -1.
        -11    1    4    4    0    0 -0.39365670930E+02 -0.20906025045E+02  0.71570925013E+02  0.84315569369E+02  0.00000000000E+00 0.  1.
         11    1    4    4    0    0  0.37030155364E+02 -0.97560789983E+01  0.20144114373E+03  0.20504864757E+03  0.00000000000E+00 0. -1.
          1    1    1    2  501    0  0.10820931773E+02  0.59298471577E+02  0.14429358675E+03  0.15637787719E+03  0.00000000000E+00 0. -1.
<scales pt_clust_5="13000.00000" pt_clust_6="13000.00000" pt_clust_7="13000.00000" pt_clust_8="13000.00000" pt_clust_9="13000.00000"></scales>
<clustering>
<clus scale="   79.621">  5  6 -1 -1</clus>
<clus scale="   85.038">  1  5  2 -1</clus>
<clus scale="   90.832">  7  8 -1 -1</clus>
<clus scale="   49.945">  7  9 -1 -1</clus>
<clus scale="  156.659">  2  5  1 -1</clus>
</clustering>
</event>
<event>
 9    2  0.2147756E-005  0.9702950E+03  0.7546771E-02  0.9756583E-01
          2   -1    0    0  502    0 -0.00000000000E+00  0.00000000000E+00  0.54686037762E+03  0.54686037762E+03  0.00000000000E+00 0. -1.
         21   -1    0    0  501  502  0.00000000000E+00 -0.00000000000E+00 -0.67567412171E+03  0.67567412171E+03  0.00000000000E+00 0. -1.
         24    2    1    2    0    0 -0.18761320032E+03 -0.10702778668E+03 -0.10131104464E+03  0.25184981873E+03  0.80689177551E+02 0.  0.
         23    2    1    2    0    0 -0.11369607670E+03  0.20787552083E+03  0.37800604842E+03  0.45551976476E+03  0.92036152833E+02 0.  0.
        -13    1    3    3    0    0 -0.83018559212E+02 -0.84560442506E+02 -0.79416760551E+02  0.14265192416E+03  0.00000000000E+00 0.  1.
         14    1    3    3    0    0 -0.10459464111E+03 -0.22467344170E+02 -0.21894284085E+02  0.10919789457E+03  0.00000000000E+00 0. -1.
        -13    1    4    4    0    0 -0.11291243842E+02  0.11505998330E+03  0.16009633922E+03  0.19747690948E+03  0.00000000000E+00 0.  1.
         13    1    4    4    0    0 -0.10240483286E+03  0.92815537527E+02  0.21790970920E+03  0.25804285528E+03  0.00000000000E+00 0. -1.
          1    1    1    2  501    0  0.30130927702E+03 -0.10084773415E+03 -0.40550874787E+03  0.51516491583E+03  0.00000000000E+00 0. -1.
<scales pt_clust_5="13000.00000" pt_clust_6="13000.00000" pt_clust_7="13000.00000" pt_clust_8="13000.00000" pt_clust_9="13000.00000"></scales>
<clustering>
<clus scale="   80.689">  5  6 -1 -1</clus>
<clus scale="   92.036">  7  8 -1 -1</clus>
<clus scale="  230.574">  1  5  2 -1</clus>
<clus scale="  301.585">  7  9 -1 -1</clus>
<clus scale="  970.295">  2  5  1 -1</clus>
</clustering>
</event>
<event>
 9    2  0.2147756E-005  0.7454792E+03  0.7546771E-02  0.9899639E-01
          2   -1    0    0  502    0 -0.00000000000E+00  0.00000000000E+00  0.46369516814E+03  0.46369516814E+03  0.00000000000E+00 0. -1.
         21   -1    0    0  501  502  0.00000000000E+00 -0.00000000000E+00 -0.68978307628E+03  0.68978307628E+03  0.00000000000E+00 0.  1.
         24    2    1    2    0    0 -0.24183732572E+03  0.19160311105E+03 -0.25393703627E+03  0.40747906227E+03  0.79737842489E+02 0.  0.
         23    2    1    2    0    0 -0.19945784034E+03  0.30753008704E+02 -0.88966987971E+02  0.23822987176E+03  0.90050925767E+02 0.  0.
        -13    1    3    3    0    0 -0.15727095980E+03  0.16449950319E+03 -0.20381269722E+03  0.30550590321E+03  0.00000000000E+00 0.  1.
         14    1    3    3    0    0 -0.84566365921E+02  0.27103607851E+02 -0.50124339048E+02  0.10197315906E+03  0.00000000000E+00 0. -1.
        -13    1    4    4    0    0 -0.12159804970E+03  0.66054955979E+01 -0.60126849071E+01  0.12192567671E+03  0.00000000000E+00 0.  1.
         13    1    4    4    0    0 -0.77859790646E+02  0.24147513106E+02 -0.82954303064E+02  0.11630419505E+03  0.00000000000E+00 0. -1.
          1    1    1    2  501    0  0.44129516607E+03 -0.22235611975E+03  0.11681611610E+03  0.50776931038E+03  0.00000000000E+00 0. -1.
<scales pt_clust_5="13000.00000" pt_clust_6="13000.00000" pt_clust_7="13000.00000" pt_clust_8="13000.00000" pt_clust_9="13000.00000"></scales>
<clustering>
<clus scale="   79.738">  5  6 -1 -1</clus>
<clus scale="   90.051">  7  8 -1 -1</clus>
<clus scale="  318.677">  1  5  2 -1</clus>
<clus scale="  255.249">  7  9 -1 -1</clus>
<clus scale="  745.479">  2  5  1 -1</clus>
</clustering>
</event>
<event>
 9    2  0.2147756E-005  0.4674474E+03  0.7546771E-02  0.1043411E+00
          2   -1    0    0  502    0 -0.00000000000E+00  0.00000000000E+00  0.16440618877E+04  0.16440618877E+04  0.00000000000E+00 0. -1.
         21   -1    0    0  501  502  0.00000000000E+00 -0.00000000000E+00 -0.12868289875E+03  0.12868289875E+03  0.00000000000E+00 0.  1.
         24    2    1    2    0    0 -0.20440214806E+03  0.12217855459E+03  0.83860233186E+02  0.26683872896E+03  0.86385943488E+02 0.  0.
         23    2    1    2    0    0  0.73839615087E+02  0.88521267426E+02  0.20467560330E+03  0.25427307984E+03  0.97336493679E+02 0.  0.
        -11    1    3    3    0    0 -0.91411920620E+02  0.56130575548E+02 -0.70237844795E+01  0.10749936879E+03  0.00000000000E+00 0.  1.
         12    1    3    3    0    0 -0.11299022744E+03  0.66047979042E+02  0.90884017665E+02  0.15933936017E+03  0.00000000000E+00 0. -1.
        -13    1    4    4    0    0  0.13326420620E+02  0.76256804187E+02  0.16099855633E+03  0.17864274072E+03  0.00000000000E+00 0.  1.
         13    1    4    4    0    0  0.60513194468E+02  0.12264463240E+02  0.43677046967E+02  0.75630339117E+02  0.00000000000E+00 0. -1.
          1    1    1    2  501    0  0.13056253297E+03 -0.21069982202E+03  0.12268431525E+04  0.12516329777E+04  0.00000000000E+00 0. -1.
<scales pt_clust_5="13000.00000" pt_clust_6="13000.00000" pt_clust_7="13000.00000" pt_clust_8="13000.00000" pt_clust_9="13000.00000"></scales>
<clustering>
<clus scale="   86.386">  5  6 -1 -1</clus>
<clus scale="   97.336">  7  8 -1 -1</clus>
<clus scale="  247.873">  7  9 -1 -1</clus>
<clus scale="  253.319">  1  5  2 -1</clus>
<clus scale="  467.447">  2  5  1 -1</clus>
</clustering>
</event>
<event>
 9    2  0.2147756E-005  0.3683092E+03  0.7546771E-02  0.1096264E+00
         21   -1    0    0  501  502  0.00000000000E+00  0.00000000000E+00  0.65862289923E+02  0.65862289923E+02  0.00000000000E+00 0.  1.
          2   -1    0    0  502    0 -0.00000000000E+00 -0.00000000000E+00 -0.11599867723E+04  0.11599867723E+04  0.00000000000E+00 0. -1.
         24    2    1    2    0    0  0.20993345037E+02  0.93023153276E+02 -0.75746762103E+02  0.14291563309E+03  0.74788225210E+02 0.  0.
         23    2    1    2    0    0  0.29279730837E+02  0.71216466034E+02 -0.13145496609E+03  0.17953207503E+03  0.94985631456E+02 0.  0.
        -13    1    3    3    0    0  0.40558198388E+02  0.93181130679E+02 -0.63372833881E+02  0.11976563215E+03  0.00000000000E+00 0.  1.
         14    1    3    3    0    0 -0.19564853351E+02 -0.15797740379E+00 -0.12373928222E+02  0.23150000932E+02  0.00000000000E+00 0. -1.
        -11    1    4    4    0    0  0.44661199272E+02  0.94510499444E+01 -0.96878628437E+02  0.10709534870E+03  0.00000000000E+00 0.  1.
         11    1    4    4    0    0 -0.15381468435E+02  0.61765416089E+02 -0.34576337649E+02  0.72436726328E+02  0.00000000000E+00 0. -1.
          1    1    1    2  501    0 -0.50273075874E+02 -0.16423961931E+03 -0.88692275416E+03  0.90340135408E+03  0.00000000000E+00 0. -1.
<scales pt_clust_5="13000.00000" pt_clust_6="13000.00000" pt_clust_7="13000.00000" pt_clust_8="13000.00000" pt_clust_9="13000.00000"></scales>
<clustering>
<clus scale="   74.788">  5  6 -1 -1</clus>
<clus scale="   94.986">  7  8 -1 -1</clus>
<clus scale="  121.191">  2  5  1 -1</clus>
<clus scale="   90.946">  7  9 -1 -1</clus>
<clus scale="  368.309">  1  5  2 -1</clus>
</clustering>
</event>
<event>
 9    2  0.3088844E-005  0.2288087E+03  0.7546771E-02  0.1168001E+00
         21   -1    0    0  501  502  0.00000000000E+00  0.00000000000E+00  0.19273205607E+03  0.19273205607E+03  0.00000000000E+00 0. -1.
          2   -1    0    0  502    0 -0.00000000000E+00 -0.00000000000E+00 -0.16446730743E+03  0.16446730743E+03  0.00000000000E+00 0. -1.
         24    2    1    2    0    0 -0.31474234648E+02  0.11056779683E+02 -0.66348966700E+02  0.10960049848E+03  0.80605235940E+02 0.  0.
         23    2    1    2    0    0 -0.55207394901E+02 -0.59569191346E+01 -0.12371447622E+02  0.10981084459E+03  0.93925648976E+02 0.  0.
        -13    1    3    3    0    0  0.23378030168E+02  0.46969558962E+00 -0.69167748873E+00  0.23392976002E+02  0.00000000000E+00 0.  1.
         14    1    3    3    0    0 -0.54852264816E+02  0.10587084093E+02 -0.65657289212E+02  0.86207522477E+02  0.00000000000E+00 0. -1.
        -13    1    4    4    0    0  0.17185045873E+02 -0.22180205614E+02 -0.21105827053E+02  0.35110443722E+02  0.00000000000E+00 0.  1.
         13    1    4    4    0    0 -0.72392440774E+02  0.16223286480E+02  0.87343794309E+01  0.74700400866E+02  0.00000000000E+00 0. -1.
          1    1    1    2  501    0  0.86681629549E+02 -0.50998605480E+01  0.10698516297E+03  0.13778802043E+03  0.00000000000E+00 0. -1.
<scales pt_clust_5="13000.00000" pt_clust_6="13000.00000" pt_clust_7="13000.00000" pt_clust_8="13000.00000" pt_clust_9="13000.00000"></scales>
<clustering>
<clus scale="   80.605">  5  6 -1 -1</clus>
<clus scale="   87.236">  2  5  1 -1</clus>
<clus scale="   93.926">  7  8 -1 -1</clus>
<clus scale="   80.396">  7  9 -1 -1</clus>
<clus scale="  228.809">  1  5  2 -1</clus>
</clustering>
</event>
<event>
 9    2  0.2147756E-005  0.1907091E+03  0.7546771E-02  0.1195373E+00
         21   -1    0    0  501  502  0.00000000000E+00  0.00000000000E+00  0.37693381673E+02  0.37693381673E+02  0.00000000000E+00 0.  1.
         -3   -1    0    0    0  501 -0.00000000000E+00 -0.00000000000E+00 -0.53250349349E+03  0.53250349349E+03  0.00000000000E+00 0.  1.
         24    2    1    2    0    0  0.16195456587E+01  0.10861876140E+02 -0.22866170525E+03  0.24277522381E+03  0.80827164785E+02 0.  0.
         23    2    1    2    0    0 -0.66911787748E+02 -0.15083525681E+02 -0.11456780888E+03  0.16232296330E+03  0.92294428303E+02 0.  0.
        -13    1    3    3    0    0 -0.27564856156E+02 -0.16538755237E+02 -0.16083654972E+03  0.16401752176E+03  0.00000000000E+00 0.  1.
         14    1    3    3    0    0  0.29184401815E+02  0.27400631377E+02 -0.67825155536E+02  0.78757702053E+02  0.00000000000E+00 0. -1.
        -11    1    4    4    0    0 -0.15186188182E+01  0.20326426453E+02  0.54811984583E+01  0.21107187212E+02  0.00000000000E+00 0.  1.
         11    1    4    4    0    0 -0.65393168929E+02 -0.35409952134E+02 -0.12004900734E+03  0.14121577609E+03  0.00000000000E+00 0. -1.
         -4    1    1    2    0  502  0.65292242089E+02  0.42216495412E+01 -0.15158059769E+03  0.16509868805E+03  0.00000000000E+00 0.  1.
<scales pt_clust_5="13000.00000" pt_clust_6="13000.00000" pt_clust_7="13000.00000" pt_clust_8="13000.00000" pt_clust_9="13000.00000"></scales>
<clustering>
<clus scale="   80.827">  5  6 -1 -1</clus>
<clus scale="   81.570">  2  5  1 -1</clus>
<clus scale="   92.294">  7  8 -1 -1</clus>
<clus scale="   66.910">  7  9 -1 -1</clus>
<clus scale="  190.709">  1  5  2 -1</clus>
</clustering>
</event>
<event>
 9    2  0.2147756E-005  0.1520332E+03  0.7546771E-02  0.1226727E+00
          2   -1    0    0  502    0 -0.00000000000E+00  0.00000000000E+00  0.43821323013E+03  0.43821323013E+03  0.00000000000E+00 0. -1.
         21   -1    0    0  501  502  0.00000000000E+00 -0.00000000000E+00 -0.43736056297E+02  0.43736056297E+02  0.00000000000E+00 0. -1.
         24    2    1    2    0    0  0.11836043619E+00 -0.10213591544E+02  0.27924568529E+03  0.29118141471E+03  0.81878764404E+02 0.  0.
         23    2    1    2    0    0  0.12235481526E+02 -0.42141505360E+02  0.86726661970E+02  0.12988931456E+03  0.86163255850E+02 0.  0.
        -11    1    3    3    0    0  0.13643166595E+02  0.33579592139E+02  0.13829436873E+03  0.14296523152E+03  0.00000000000E+00 0.  1.
         12    1    3    3    0    0 -0.13524806159E+02 -0.43793183683E+02  0.14095131656E+03  0.14821618319E+03  0.00000000000E+00 0. -1.
        -11    1    4    4    0    0  0.27797546669E+02 -0.16994083208E+02  0.93956630669E+02  0.99445215629E+02  0.00000000000E+00 0.  1.
         11    1    4    4    0    0 -0.15562065143E+02 -0.25147422152E+02 -0.72299686989E+01  0.30444098932E+02  0.00000000000E+00 0. -1.
          1    1    1    2  501    0 -0.12353841962E+02  0.52355096904E+02  0.28504826577E+02  0.60878557155E+02  0.00000000000E+00 0. -1.
<scales pt_clust_5="13000.00000" pt_clust_6="13000.00000" pt_clust_7="13000.00000" pt_clust_8="13000.00000" pt_clust_9="13000.00000"></scales>
<clustering>
<clus scale="   81.879">  5  6 -1 -1</clus>
<clus scale="   82.513">  1  5  2 -1</clus>
<clus scale="   86.163">  7  8 -1 -1</clus>
<clus scale="   50.885">  7  9 -1 -1</clus>
<clus scale="  152.033">  2  5  1 -1</clus>
</clustering>
</event>
<event>
 9    2  0.2147756E-005  0.1779960E+03  0.7546771E-02  0.1197468E+00
         21   -1    0    0  501  502  0.00000000000E+00  0.00000000000E+00  0.43949266425E+03  0.43949266425E+03  0.00000000000E+00 0.  1.
          2   -1    0    0  502    0 -0.00000000000E+00 -0.00000000000E+00 -0.49871102125E+02  0.49871102125E+02  0.00000000000E+00 0. -1.
         24    2    1    2    0    0 -0.20069566274E+02 -0.34636954283E+02  0.55391436149E+02  0.11069193114E+03  0.87074602083E+02 0.  0.
         23    2    1    2    0    0  0.10410608565E+01  0.26265222818E+02  0.34306075221E+03  0.35608533782E+03  0.91734085080E+02 0.  0.
        -11    1    3    3    0    0  0.10151036936E+02  0.24994554031E+02  0.61690923942E+01  0.27673615286E+02  0.00000000000E+00 0.  1.
         12    1    3    3    0    0 -0.30220603210E+02 -0.59631508314E+02  0.49222343755E+02  0.83018315852E+02  0.00000000000E+00 0. -1.
        -11    1    4    4    0    0 -0.18473378438E+01 -0.32757068536E+02  0.17211122199E+03  0.17521047609E+03  0.00000000000E+00 0.  1.
         11    1    4    4    0    0  0.28883987003E+01  0.59022291354E+02  0.17094953022E+03  0.18087486173E+03  0.00000000000E+00 0. -1.
          1    1    1    2  501    0  0.19028505418E+02  0.83717314649E+01 -0.88306262306E+01  0.22586497421E+02  0.00000000000E+00 0. -1.
<scales pt_clust_5="13000.00000" pt_clust_6="13000.00000" pt_clust_7="13000.00000" pt_clust_8="13000.00000" pt_clust_9="13000.00000"></scales>
<clustering>
<clus scale="   87.075">  5  6 -1 -1</clus>
<clus scale="   91.734">  7  8 -1 -1</clus>
<clus scale="   20.789">  7  9 -1 -1</clus>
<clus scale="   95.836">  2  5  1 -1</clus>
<clus scale="  177.996">  1  5  2 -1</clus>
</clustering>
</event>
<event>
 9    2  0.2147756E-005  0.2867024E+03  0.7546771E-02  0.1119376E+00
         -1   -1    0    0    0  501 -0.00000000000E+00  0.00000000000E+00  0.47969852238E+03  0.47969852238E+03  0.00000000000E+00 0.  1.
         21   -1    0    0  501  502  0.00000000000E+00 -0.00000000000E+00 -0.16675152161E+03  0.16675152161E+03  0.00000000000E+00 0. -1.
         24    2    1    2    0    0  0.68127425730E+02  0.96421694624E+02 -0.77537018599E+02  0.16201632668E+03  0.79365052294E+02 0.  0.
         23    2    1    2    0    0  0.47053115086E+02  0.17295315967E+02  0.73785118639E+02  0.12877052102E+03  0.92868077169E+02 0.  0.
        -11    1    3    3    0    0  0.56964858209E+02  0.17150621152E+02 -0.17688744403E+02  0.62064728753E+02  0.00000000000E+00 0.  1.
         12    1    3    3    0    0  0.11162567521E+02  0.79271073472E+02 -0.59848274196E+02  0.99951597922E+02  0.00000000000E+00 0. -1.
        -13    1    4    4    0    0  0.99027228540E+01 -0.34664347404E+02  0.77046230264E+01  0.36865188414E+02  0.00000000000E+00 0.  1.
         13    1    4    4    0    0  0.37150392232E+02  0.51959663371E+02  0.66080495613E+02  0.91905332604E+02  0.00000000000E+00 0. -1.
         -2    1    1    2    0  502 -0.11518054082E+03 -0.11371701059E+03  0.31669890073E+03  0.35566319630E+03  0.00000000000E+00 0.  1.
<scales pt_clust_5="13000.00000" pt_clust_6="13000.00000" pt_clust_7="13000.00000" pt_clust_8="13000.00000" pt_clust_9="13000.00000"></scales>
<clustering>
<clus scale="   79.365">  5  6 -1 -1</clus>
<clus scale="   92.868">  7  8 -1 -1</clus>
<clus scale="  142.258">  1  5  2 -1</clus>
<clus scale="   74.274">  7  9 -1 -1</clus>
<clus scale="  286.702">  2  5  1 -1</clus>
</clustering>
</event>
<event>
 9    2  0.2147756E-005  0.2177850E+03  0.7546771E-02  0.1165080E+00
         -1   -1    0    0    0  501 -0.00000000000E+00  0.00000000000E+00  0.70282299917E+02  0.70282299917E+02  0.00000000000E+00 0.  1.
         21   -1    0    0  501  502  0.00000000000E+00 -0.00000000000E+00 -0.49801503740E+03  0.49801503740E+03  0.00000000000E+00 0.  1.
         24    2    1    2    0    0  0.76639632886E+01 -0.61942365130E+02 -0.25924308561E+02  0.11126306814E+03  0.88384430910E+02 0.  0.
         23    2    1    2    0    0  0.40793741221E+02 -0.23565236517E+02 -0.11827244502E+03  0.15694702647E+03  0.91785337454E+02 0.  0.
        -13    1    3    3    0    0 -0.21563900124E+02 -0.61054343850E+02  0.93745746409E+01  0.65425662712E+02  0.00000000000E+00 0.  1.
         14    1    3    3    0    0  0.29227863413E+02 -0.88802128025E+00 -0.35298883202E+02  0.45837405433E+02  0.00000000000E+00 0. -1.
        -13    1    4    4    0    0  0.46379049363E+02  0.19603981696E+02 -0.30224913729E+02  0.58727146432E+02  0.00000000000E+00 0.  1.
         13    1    4    4    0    0 -0.55853081415E+01 -0.43169218212E+02 -0.88047531289E+02  0.98219880035E+02  0.00000000000E+00 0. -1.
         -2    1    1    2    0  502 -0.48457704510E+02  0.85507601647E+02 -0.28353598390E+03  0.30008724270E+03  0.00000000000E+00 0.  1.
<scales pt_clust_5="13000.00000" pt_clust_6="13000.00000" pt_clust_7="13000.00000" pt_clust_8="13000.00000" pt_clust_9="13000.00000"></scales>
<clustering>
<clus scale="   88.384">  5  6 -1 -1</clus>
<clus scale="   91.785">  7  8 -1 -1</clus>
<clus scale="   98.284">  7  9 -1 -1</clus>
<clus scale="  108.201">  1  5  2 -1</clus>
<clus scale="  217.785">  2  5  1 -1</clus>
</clustering>
</event>
<event>
 9    2  0.2147756E-005  0.2262519E+03  0.7546771E-02  0.1158880E+00
         -1   -1    0    0    0  501 -0.00000000000E+00  0.00000000000E+00  0.31523066638E+03  0.31523066638E+03  0.00000000000E+00 0.  1.
         21   -1    0    0  501  502  0.00000000000E+00 -0.00000000000E+00 -0.17987010553E+03  0.17987010553E+03  0.00000000000E+00 0.  1.
         24    2    1    2    0    0 -0.77409594948E+02  0.16538149673E+02  0.22552037667E+03  0.25154644091E+03  0.78424587064E+02 0.  0.
         23    2    1    2    0    0  0.60942610679E+01 -0.86239972295E+02 -0.49742875249E+02  0.13595437742E+03  0.92383798698E+02 0.  0.
        -11    1    3    3    0    0 -0.35395909654E+02  0.36380077379E+02  0.17795960140E+03  0.18505674854E+03  0.00000000000E+00 0.  1.
         12    1    3    3    0    0 -0.42013685293E+02 -0.19841927706E+02  0.47560775276E+02  0.66489692373E+02  0.00000000000E+00 0. -1.
        -11    1    4    4    0    0  0.36646165318E+02 -0.29041926501E+02 -0.53432977528E+02  0.71003225384E+02  0.00000000000E+00 0. -1.
         11    1    4    4    0    0 -0.30551904250E+02 -0.57198045794E+02  0.36901022787E+01  0.64951152035E+02  0.00000000000E+00 0.  1.
         -2    1    1    2    0  502  0.71315333880E+02  0.69701822622E+02 -0.40416940579E+02  0.10759995357E+03  0.00000000000E+00 0.  1.
<scales pt_clust_5="13000.00000" pt_clust_6="13000.00000" pt_clust_7="13000.00000" pt_clust_8="13000.00000" pt_clust_9="13000.00000"></scales>
<clustering>
<clus scale="   78.425">  5  6 -1 -1</clus>
<clus scale="   92.384">  7  8 -1 -1</clus>
<clus scale="   99.721">  7  9 -1 -1</clus>
<clus scale="  111.428">  1  5  2 -1</clus>
<clus scale="  226.252">  2  5  1 -1</clus>
</clustering>
</event>
<event>
 9    2  0.2147756E-005  0.1588843E+03  0.7546771E-02  0.1210584E+00
         21   -1    0    0  501  502  0.00000000000E+00  0.00000000000E+00  0.30932641081E+03  0.30932641081E+03  0.00000000000E+00 0. -1.
          2   -1    0    0  502    0 -0.00000000000E+00 -0.00000000000E+00 -0.68313942745E+02  0.68313942745E+02  0.00000000000E+00 0. -1.
         24    2    1    2    0    0  0.11157875356E+02  0.62092966407E+02  0.18150614840E+03  0.20797830007E+03  0.79564167401E+02 0.  0.
         23    2    1    2    0    0  0.27701699825E+02 -0.47262130129E+02  0.73211509510E+02  0.12586876042E+03  0.86498130665E+02 0.  0.
        -13    1    3    3    0    0 -0.82988533874E+01  0.24982890795E+02  0.15750498960E+03  0.15968981667E+03  0.00000000000E+00 0.  1.
         14    1    3    3    0    0  0.19456728744E+02  0.37110075611E+02  0.24001158800E+02  0.48288483399E+02  0.00000000000E+00 0. -1.
        -11    1    4    4    0    0 -0.17284028562E+02  0.15504478409E+02  0.72932504811E+01  0.24337584034E+02  0.00000000000E+00 0.  1.
         11    1    4    4    0    0  0.44985728387E+02 -0.62766608537E+02  0.65918259029E+02  0.10153117639E+03  0.00000000000E+00 0. -1.
          1    1    1    2  501    0 -0.38859575182E+02 -0.14830836278E+02 -0.13705189847E+02  0.43793293057E+02  0.00000000000E+00 0. -1.
<scales pt_clust_5="13000.00000" pt_clust_6="13000.00000" pt_clust_7="13000.00000" pt_clust_8="13000.00000" pt_clust_9="13000.00000"></scales>
<clustering>
<clus scale="   79.564">  5  6 -1 -1</clus>
<clus scale="   86.498">  7  8 -1 -1</clus>
<clus scale="   41.594">  7  9 -1 -1</clus>
<clus scale="  101.541">  2  5  1 -1</clus>
<clus scale="  158.884">  1  5  2 -1</clus>
</clustering>
</event>
<event>
 9    2  0.2147756E-005  0.2310334E+03  0.7546771E-02  0.1170744E+00
         21   -1    0    0  501  502  0.00000000000E+00  0.00000000000E+00  0.37460848096E+02  0.37460848096E+02  0.00000000000E+00 0. -1.
          2   -1    0    0  502    0 -0.00000000000E+00 -0.00000000000E+00 -0.72965381929E+03  0.72965381929E+03  0.00000000000E+00 0. -1.
         24    2    1    2    0    0 -0.36505457779E+01 -0.10674879640E+02 -0.80280277501E+02  0.11304006540E+03  0.78777242208E+02 0.  0.
         23    2    1    2    0    0  0.21078852672E+02 -0.85399542460E+02 -0.42095382352E+03  0.43960005674E+03  0.91152007460E+02 0.  0.
        -13    1    3    3    0    0  0.33033369588E+02 -0.23517996676E+02 -0.37362723318E+02  0.55138668534E+02  0.00000000000E+00 0.  1.
         14    1    3    3    0    0 -0.36683915366E+02  0.12843117035E+02 -0.42917554183E+02  0.57901396864E+02  0.00000000000E+00 0. -1.
        -11    1    4    4    0    0  0.14454622210E+02  0.17904599528E+02 -0.85003647309E+02  0.88063220719E+02  0.00000000000E+00 0.  1.
         11    1    4    4    0    0  0.66242304620E+01 -0.10330414199E+03 -0.33595017621E+03  0.35153683602E+03  0.00000000000E+00 0. -1.
          1    1    1    2  501    0 -0.17428306894E+02  0.96074422100E+02 -0.19095887017E+03  0.21447454525E+03  0.00000000000E+00 0. -1.
<scales pt_clust_5="13000.00000" pt_clust_6="13000.00000" pt_clust_7="13000.00000" pt_clust_8="13000.00000" pt_clust_9="13000.00000"></scales>
<clustering>
<clus scale="   78.777">  5  6 -1 -1</clus>
<clus scale="   79.581">  2  5  1 -1</clus>
<clus scale="   91.152">  7  8 -1 -1</clus>
<clus scale="   94.504">  7  9 -1 -1</clus>
<clus scale="  231.033">  1  5  2 -1</clus>
</clustering>
</event>
<event>
 9    2  0.2147756E-005  0.2426027E+03  0.7546771E-02  0.1162417E+00
         21   -1    0    0  501  502  0.00000000000E+00  0.00000000000E+00  0.29319706692E+03  0.29319706692E+03  0.00000000000E+00 0. -1.
         -3   -1    0    0    0  501 -0.00000000000E+00 -0.00000000000E+00 -0.10665295984E+03  0.10665295984E+03  0.00000000000E+00 0.  1.
         24    2    1    2    0    0  0.14091979366E+02 -0.28880258326E+02  0.12393549270E+03  0.14929884247E+03  0.76795083242E+02 0.  0.
         23    2    1    2    0    0  0.24728614880E+02 -0.26438403627E+00 -0.64763517028E+02  0.11424231233E+03  0.90804286767E+02 0.  0.
        -13    1    3    3    0    0 -0.29747548385E+02  0.11657244145E+01  0.51003205110E+02  0.59055926712E+02  0.00000000000E+00 0.  1.
         14    1    3    3    0    0  0.43839527751E+02 -0.30045982740E+02  0.72932287588E+02  0.90242915761E+02  0.00000000000E+00 0. -1.
        -11    1    4    4    0    0 -0.22324457534E+02  0.84014545216E+01 -0.61871871799E+02  0.66310590121E+02  0.00000000000E+00 0.  1.
         11    1    4    4    0    0  0.47053072415E+02 -0.86658385579E+01 -0.28916452298E+01  0.47931722207E+02  0.00000000000E+00 0. -1.
         -4    1    1    2    0  502 -0.38820594247E+02  0.29144642362E+02  0.12737213141E+03  0.13630887196E+03  0.00000000000E+00 0.  1.
<scales pt_clust_5="13000.00000" pt_clust_6="13000.00000" pt_clust_7="13000.00000" pt_clust_8="13000.00000" pt_clust_9="13000.00000"></scales>
<clustering>
<clus scale="   76.795">  5  6 -1 -1</clus>
<clus scale="   83.247">  2  5  1 -1</clus>
<clus scale="   90.804">  7  8 -1 -1</clus>
<clus scale="   47.188">  7  9 -1 -1</clus>
<clus scale="  242.603">  1  5  2 -1</clus>
</clustering>
</event>
<event>
 9    2  0.2147756E-005  0.2750183E+03  0.7546771E-02  0.1144022E+00
         21   -1    0    0  501  502  0.00000000000E+00  0.00000000000E+00  0.46687327300E+03  0.46687327300E+03  0.00000000000E+00 0. -1.
          2   -1    0    0  502    0 -0.00000000000E+00 -0.00000000000E+00 -0.76180077164E+02  0.76180077164E+02  0.00000000000E+00 0. -1.
         24    2    1    2    0    0  0.28210849752E+02  0.21768953051E+02  0.16586670437E+03  0.18783225595E+03  0.80619187528E+02 0.  0.
         23    2    1    2    0    0 -0.76743466172E+01  0.10096881730E+03  0.17561301449E+03  0.22139929274E+03  0.89017516835E+02 0.  0.
        -11    1    3    3    0    0  0.12825334226E+02 -0.17713154360E+02  0.13140960232E+03  0.13321684810E+03  0.00000000000E+00 0.  1.
         12    1    3    3    0    0  0.15385515526E+02  0.39482107411E+02  0.34457102051E+02  0.54615407857E+02  0.00000000000E+00 0. -1.
        -13    1    4    4    0    0  0.32964884526E+02  0.27310492483E+02  0.26952501519E+02  0.50586400837E+02  0.00000000000E+00 0.  1.
         13    1    4    4    0    0 -0.40639231143E+02  0.73658324821E+02  0.14866051297E+03  0.17081289191E+03  0.00000000000E+00 0. -1.
          1    1    1    2  501    0 -0.20536503135E+02 -0.12273777036E+03  0.49213476976E+02  0.13382180147E+03  0.00000000000E+00 0. -1.
<scales pt_clust_5="13000.00000" pt_clust_6="13000.00000" pt_clust_7="13000.00000" pt_clust_8="13000.00000" pt_clust_9="13000.00000"></scales>
<clustering>
<clus scale="   80.619">  5  6 -1 -1</clus>
<clus scale="   88.143">  2  5  1 -1</clus>
<clus scale="   89.018">  7  8 -1 -1</clus>
<clus scale="  108.636">  7  9 -1 -1</clus>
<clus scale="  275.018">  1  5  2 -1</clus>
</clustering>
</event>
<event>
 9    2  0.2147756E-005  0.1620828E+03  0.7546771E-02  0.1206004E+00
         -3   -1    0    0    0  501 -0.00000000000E+00  0.00000000000E+00  0.72958412770E+03  0.72958412770E+03  0.00000000000E+00 0.  1.
         21   -1    0    0  501  502  0.00000000000E+00 -0.00000000000E+00 -0.36380601578E+02  0.36380601578E+02  0.00000000000E+00 0. -1.
         24    2    1    2    0    0 -0.23803461832E+02  0.65820976589E+02  0.51238954128E+03  0.52313857592E+03  0.78942522414E+02 0.  0.
         23    2    1    2    0    0  0.45796403940E+02 -0.61321306433E+02  0.84189879371E+02  0.14362860151E+03  0.87656295541E+02 0.  0.
        -11    1    3    3    0    0 -0.31391706070E+02  0.77789888181E+02  0.48598334951E+03  0.49316987125E+03  0.00000000000E+00 0.  1.
         12    1    3    3    0    0  0.75882442383E+01 -0.11968911592E+02  0.26406191770E+02  0.29968704662E+02  0.00000000000E+00 0. -1.
        -13    1    4    4    0    0  0.68628200288E+02 -0.29194083182E+02  0.40801143893E+02  0.85010927007E+02  0.00000000000E+00 0. -1.
         13    1    4    4    0    0 -0.22831796348E+02 -0.32127223251E+02  0.43388735478E+02  0.58617674508E+02  0.00000000000E+00 0.  1.
         -4    1    1    2    0  502 -0.21992942109E+02 -0.44996701558E+01  0.96624105477E+02  0.99197551851E+02  0.00000000000E+00 0.  1.
<scales pt_clust_5="13000.00000" pt_clust_6="13000.00000" pt_clust_7="13000.00000" pt_clust_8="13000.00000" pt_clust_9="13000.00000"></scales>
<clustering>
<clus scale="   78.943">  5  6 -1 -1</clus>
<clus scale="   87.656">  7  8 -1 -1</clus>
<clus scale="   22.449">  7  9 -1 -1</clus>
<clus scale="  105.503">  1  5  2 -1</clus>
<clus scale="  162.083">  2  5  1 -1</clus>
</clustering>
</event>
<event>
 9    2  0.2147756E-005  0.2593059E+03  0.7546771E-02  0.1145646E+00
         21   -1    0    0  501  502  0.00000000000E+00  0.00000000000E+00  0.34755637791E+02  0.34755637791E+02  0.00000000000E+00 0.  1.
          2   -1    0    0  502    0 -0.00000000000E+00 -0.00000000000E+00 -0.93805794719E+03  0.93805794719E+03  0.00000000000E+00 0. -1.
         24    2    1    2    0    0  0.60475831985E+02 -0.88624248733E+01 -0.22765228592E+03  0.24911302608E+03  0.80596945684E+02 0.  0.
         23    2    1    2    0    0  0.62065419623E+02 -0.52507610262E+02 -0.33186688569E+03  0.35360667164E+03  0.91065267570E+02 0.  0.
        -13    1    3    3    0    0  0.33819263715E+02 -0.16776635058E+02 -0.26684174996E+02  0.46230328544E+02  0.00000000000E+00 0.  1.
         14    1    3    3    0    0  0.26656568271E+02  0.79142101843E+01 -0.20096811092E+03  0.20288269754E+03  0.00000000000E+00 0. -1.
        -11    1    4    4    0    0  0.85948080739E+02 -0.43848711178E+02 -0.27027524698E+03  0.28698169138E+03  0.00000000000E+00 0.  1.
         11    1    4    4    0    0 -0.23882661116E+02 -0.86588990839E+01 -0.61591638713E+02  0.66624980260E+02  0.00000000000E+00 0. -1.
          1    1    1    2  501    0 -0.12254125161E+03  0.61370035135E+02 -0.34378313779E+03  0.37009388726E+03  0.00000000000E+00 0. -1.
<scales pt_clust_5="13000.00000" pt_clust_6="13000.00000" pt_clust_7="13000.00000" pt_clust_8="13000.00000" pt_clust_9="13000.00000"></scales>
<clustering>
<clus scale="   80.597">  5  6 -1 -1</clus>
<clus scale="   91.065">  7  8 -1 -1</clus>
<clus scale="  101.152">  2  5  1 -1</clus>
<clus scale="  107.883">  7  9 -1 -1</clus>
<clus scale="  259.306">  1  5  2 -1</clus>
</clustering>
</event>
<event>
 9    2  0.2147756E-005  0.6211051E+03  0.7546771E-02  0.1048432E+00
         21   -1    0    0  501  502  0.00000000000E+00  0.00000000000E+00  0.30771242200E+03  0.30771242200E+03  0.00000000000E+00 0. -1.
          2   -1    0    0  502    0 -0.00000000000E+00 -0.00000000000E+00 -0.52482336387E+03  0.52482336387E+03  0.00000000000E+00 0. -1.
         24    2    1    2    0    0  0.34550675530E+02  0.34683913139E+02 -0.18893710109E+03  0.21079206603E+03  0.79619997024E+02 0.  0.
         23    2    1    2    0    0  0.18229040745E+03  0.21259316772E+02 -0.23854494440E+03  0.31448861169E+03  0.91201124905E+02 0.  0.
        -13    1    3    3    0    0  0.40369822487E+01 -0.24471750230E+02 -0.33323597784E+02  0.41540654235E+02  0.00000000000E+00 0.  1.
         14    1    3    3    0    0  0.30513693282E+02  0.59155663369E+02 -0.15561350330E+03  0.16925141180E+03  0.00000000000E+00 0. -1.
        -13    1    4    4    0    0  0.15270268726E+03 -0.19385914161E+02 -0.19086281284E+03  0.24519897571E+03  0.00000000000E+00 0. -1.
         13    1    4    4    0    0  0.29587720188E+02  0.40645230933E+02 -0.47682131564E+02  0.69289635978E+02  0.00000000000E+00 0.  1.
          1    1    1    2  501    0 -0.21684108298E+03 -0.55943229911E+02  0.21037110362E+03  0.30725510814E+03  0.00000000000E+00 0. -1.
<scales pt_clust_5="13000.00000" pt_clust_6="13000.00000" pt_clust_7="13000.00000" pt_clust_8="13000.00000" pt_clust_9="13000.00000"></scales>
<clustering>
<clus scale="   79.620">  5  6 -1 -1</clus>
<clus scale="   91.201">  7  8 -1 -1</clus>
<clus scale="   93.467">  2  5  1 -1</clus>
<clus scale="  217.694">  7  9 -1 -1</clus>
<clus scale="  621.105">  1  5  2 -1</clus>
</clustering>
</event>
<event>
 9    2  0.2147756E-005  0.2951860E+03  0.7546771E-02  0.1110257E+00
          2   -1    0    0  502    0 -0.00000000000E+00  0.00000000000E+00  0.43703182716E+03  0.43703182716E+03  0.00000000000E+00 0. -1.
         21   -1    0    0  501  502  0.00000000000E+00 -0.00000000000E+00 -0.21945363413E+03  0.21945363413E+03  0.00000000000E+00 0. -1.
         24    2    1    2    0    0  0.13147100517E+03  0.58735346547E+02  0.30695834767E+03  0.34806433617E+03  0.78682201135E+02 0.  0.
         23    2    1    2    0    0  0.47606989799E+02  0.58268771060E+01 -0.52619495125E+02  0.11454344437E+03  0.89727428390E+02 0.  0.
        -11    1    3    3    0    0  0.26645568269E+02  0.14234396793E+02  0.13130155596E+02  0.32939419339E+02  0.00000000000E+00 0.  1.
         12    1    3    3    0    0  0.10482543690E+03  0.44500949754E+02  0.29382819208E+03  0.31512491683E+03  0.00000000000E+00 0. -1.
        -13    1    4    4    0    0  0.40906132106E+02 -0.30052254888E+02 -0.58633110241E+02  0.77551861901E+02  0.00000000000E+00 0.  1.
         13    1    4    4    0    0  0.67008576927E+01  0.35879131994E+02  0.60136151158E+01  0.36991582465E+02  0.00000000000E+00 0. -1.
          1    1    1    2  501    0 -0.17907799497E+03 -0.64562223653E+02 -0.36760659524E+02  0.19387768075E+03  0.00000000000E+00 0. -1.
<scales pt_clust_5="13000.00000" pt_clust_6="13000.00000" pt_clust_7="13000.00000" pt_clust_8="13000.00000" pt_clust_9="13000.00000"></scales>
<clustering>
<clus scale="   78.682">  5  6 -1 -1</clus>
<clus scale="   89.727">  7  8 -1 -1</clus>
<clus scale="  164.089">  1  5  2 -1</clus>
<clus scale="   87.692">  7  9 -1 -1</clus>
<clus scale="  295.186">  2  5  1 -1</clus>
</clustering>
</event>
<event>
 9    2  0.2619652E-005  0.3172576E+03  0.7546771E-02  0.1093893E+00
         21   -1    0    0  501  502  0.00000000000E+00  0.00000000000E+00  0.15182625800E+03  0.15182625800E+03  0.00000000000E+00 0. -1.
          2   -1    0    0  502    0 -0.00000000000E+00 -0.00000000000E+00 -0.10950864685E+04  0.10950864685E+04  0.00000000000E+00 0. -1.
         24    2    1    2    0    0  0.53175538372E+02 -0.17690523128E+03  0.46926800600E+02  0.20714222955E+03  0.81133716246E+02 0.  0.
         23    2    1    2    0    0  0.45046012160E+02 -0.19144660196E+01 -0.21488554046E+03  0.23807458984E+03  0.92037527312E+02 0.  0.
        -11    1    3    3    0    0 -0.46934202717E+01 -0.11366569711E+03  0.11334089430E+02  0.11432576471E+03  0.00000000000E+00 0.  1.
         12    1    3    3    0    0  0.57868958643E+02 -0.63239534171E+02  0.35592711169E+02  0.92816464838E+02  0.00000000000E+00 0. -1.
        -11    1    4    4    0    0 -0.25314021232E+02 -0.16217669679E+02 -0.51967342352E+02  0.60036798315E+02  0.00000000000E+00 0.  1.
         11    1    4    4    0    0  0.70360033393E+02  0.14303203660E+02 -0.16291819811E+03  0.17803779152E+03  0.00000000000E+00 0. -1.
          1    1    1    2  501    0 -0.98221550532E+02  0.17881969730E+03 -0.77530147065E+03  0.80169590714E+03  0.00000000000E+00 0. -1.
<scales pt_clust_5="13000.00000" pt_clust_6="13000.00000" pt_clust_7="13000.00000" pt_clust_8="13000.00000" pt_clust_9="13000.00000"></scales>
<clustering>
<clus scale="   81.134">  5  6 -1 -1</clus>
<clus scale="   92.038">  7  8 -1 -1</clus>
<clus scale="  201.757">  2  5  1 -1</clus>
<clus scale="   70.370">  7  9 -1 -1</clus>
<clus scale="  317.258">  1  5  2 -1</clus>
</clustering>
</event>
<event>
 9    2  0.2147756E-005  0.2566470E+03  0.7546771E-02  0.1116812E+00
          2   -1    0    0  502    0 -0.00000000000E+00  0.00000000000E+00  0.66275626320E+03  0.66275626320E+03  0.00000000000E+00 0. -1.
         21   -1    0    0  501  502  0.00000000000E+00 -0.00000000000E+00 -0.82921541887E+02  0.82921541887E+02  0.00000000000E+00 0. -1.
         24    2    1    2    0    0 -0.10777791365E+03  0.16334442831E+03  0.24167863228E+03  0.32115782851E+03  0.80226607702E+02 0.  0.
         23    2    1    2    0    0  0.82717892040E+02 -0.53417558520E+02  0.13322725131E+03  0.19062309776E+03  0.94297294171E+02 0.  0.
        -11    1    3    3    0    0 -0.44742776975E+02  0.34516543681E+02  0.12165854543E+03  0.13414212446E+03  0.00000000000E+00 0.  1.
         12    1    3    3    0    0 -0.63035136680E+02  0.12882788463E+03  0.12002008685E+03  0.18701570405E+03  0.00000000000E+00 0. -1.
        -11    1    4    4    0    0  0.30304033653E+02 -0.70131056403E+02  0.51614481946E+02  0.92199535110E+02  0.00000000000E+00 0.  1.
         11    1    4    4    0    0  0.52413858387E+02  0.16713497883E+02  0.81612769361E+02  0.98423562653E+02  0.00000000000E+00 0. -1.
          1    1    1    2  501    0  0.25060021615E+02 -0.10992686979E+03  0.20492883772E+03  0.23389687880E+03  0.00000000000E+00 0. -1.
<scales pt_clust_5="13000.00000" pt_clust_6="13000.00000" pt_clust_7="13000.00000" pt_clust_8="13000.00000" pt_clust_9="13000.00000"></scales>
<clustering>
<clus scale="   80.227">  5  6 -1 -1</clus>
<clus scale="   94.297">  7  8 -1 -1</clus>
<clus scale="  112.747">  7  9 -1 -1</clus>
<clus scale="  211.504">  1  5  2 -1</clus>
<clus scale="  256.647">  2  5  1 -1</clus>
</clustering>
</event>
<event>
 9    2  0.2147756E-005  0.5595572E+03  0.7546771E-02  0.1059957E+00
         21   -1    0    0  501  502  0.00000000000E+00  0.00000000000E+00  0.31401803274E+03  0.31401803274E+03  0.00000000000E+00 0. -1.
          2   -1    0    0  502    0 -0.00000000000E+00 -0.00000000000E+00 -0.35229635010E+03  0.35229635010E+03  0.00000000000E+00 0. -1.
         24    2    1    2    0    0  0.39659683515E+02  0.22982286736E+02  0.41400362205E+02  0.10111273742E+03  0.80054479432E+02 0.  0.
         23    2    1    2    0    0  0.59046656596E+02  0.22681576699E+03 -0.14239224241E+03  0.28938467679E+03  0.92390695696E+02 0.  0.
        -13    1    3    3    0    0  0.42949149198E+02  0.14474936917E+02 -0.12043900087E+02  0.46895722032E+02  0.00000000000E+00 0.  1.
         14    1    3    3    0    0 -0.32894656827E+01  0.85073498191E+01  0.53444262291E+02  0.54217015385E+02  0.00000000000E+00 0. -1.
        -13    1    4    4    0    0  0.12684947735E+02  0.31821278714E+02 -0.66989520320E+02  0.75240265223E+02  0.00000000000E+00 0. -1.
         13    1    4    4    0    0  0.46361708861E+02  0.19499448827E+03 -0.75402722088E+02  0.21414441156E+03  0.00000000000E+00 0.  1.
          1    1    1    2  501    0 -0.98706340111E+02 -0.24979805372E+03  0.62713562848E+02  0.27581696863E+03  0.00000000000E+00 0. -1.
<scales pt_clust_5="13000.00000" pt_clust_6="13000.00000" pt_clust_7="13000.00000" pt_clust_8="13000.00000" pt_clust_9="13000.00000"></scales>
<clustering>
<clus scale="   80.054">  5  6 -1 -1</clus>
<clus scale="   92.249">  2  5  1 -1</clus>
<clus scale="   92.391">  7  8 -1 -1</clus>
<clus scale="  256.885">  7  9 -1 -1</clus>
<clus scale="  559.557">  1  5  2 -1</clus>
</clustering>
</event>
<event>
 9    2  0.2147756E-005  0.3464163E+03  0.7546771E-02  0.1074005E+00
          2   -1    0    0  502    0 -0.00000000000E+00  0.00000000000E+00  0.65548352151E+03  0.65548352151E+03  0.00000000000E+00 0. -1.
         21   -1    0    0  501  502  0.00000000000E+00 -0.00000000000E+00 -0.17983542787E+03  0.17983542787E+03  0.00000000000E+00 0.  1.
         24    2    1    2    0    0 -0.79152729841E+02  0.23822377609E+03  0.22220938855E+02  0.26470484662E+03  0.80988663183E+02 0.  0.
         23    2    1    2    0    0 -0.13999137649E+02 -0.67557613278E+02  0.54962295523E+02  0.12724241489E+03  0.91704804946E+02 0.  0.
        -11    1    3    3    0    0 -0.73906249839E+02  0.24351109511E+03  0.15968577478E+02  0.25497996524E+03  0.00000000000E+00 0.  1.
         12    1    3    3    0    0 -0.52464800017E+01 -0.52873190278E+01  0.62523613776E+01  0.97248813723E+01  0.00000000000E+00 0. -1.
        -13    1    4    4    0    0 -0.28097382137E+02 -0.86578471285E+02  0.41933995132E+02  0.10021853382E+03  0.00000000000E+00 0. -1.
         13    1    4    4    0    0  0.14098244487E+02  0.19020858006E+02  0.13028300391E+02  0.27023881068E+02  0.00000000000E+00 0.  1.
          1    1    1    2  501    0  0.93151867490E+02 -0.17066616281E+03  0.39846485926E+03  0.44337168788E+03  0.00000000000E+00 0. -1.
<scales pt_clust_5="13000.00000" pt_clust_6="13000.00000" pt_clust_7="13000.00000" pt_clust_8="13000.00000" pt_clust_9="13000.00000"></scales>
<clustering>
<clus scale="   80.989">  5  6 -1 -1</clus>
<clus scale="   91.705">  7  8 -1 -1</clus>
<clus scale="  194.433">  7  9 -1 -1</clus>
<clus scale="  263.771">  1  5  2 -1</clus>
<clus scale="  346.416">  2  5  1 -1</clus>
</clustering>
</event>
<event>
 9    2  0.2147756E-005  0.2292804E+03  0.7546771E-02  0.1153089E+00
          2   -1    0    0  502    0 -0.00000000000E+00  0.00000000000E+00  0.16841233729E+04  0.16841233729E+04  0.00000000000E+00 0. -1.
         21   -1    0    0  501  502  0.00000000000E+00 -0.00000000000E+00 -0.22349016799E+03  0.22349016799E+03  0.00000000000E+00 0.  1.
         24    2    1    2    0    0  0.12549751061E+02 -0.89355911795E+02  0.16223885513E+04  0.16270172373E+04  0.83057232058E+02 0.  0.
         23    2    1    2    0    0  0.25624717037E+02 -0.24709259928E+02 -0.11663134354E+03  0.15212712816E+03  0.90953939874E+02 0.  0.
        -13    1    3    3    0    0  0.21534635867E+02 -0.12683803809E+02  0.11646711518E+03  0.11911846347E+03  0.00000000000E+00 0.  1.
         14    1    3    3    0    0 -0.89848848056E+01 -0.76672107986E+02  0.15059214361E+04  0.15078987738E+04  0.00000000000E+00 0. -1.
        -11    1    4    4    0    0 -0.25315981719E+02 -0.16982902938E+02 -0.74239043985E+01  0.31375663803E+02  0.00000000000E+00 0. -1.
         11    1    4    4    0    0  0.50940698755E+02 -0.77263569906E+01 -0.10920743914E+03  0.12075146436E+03  0.00000000000E+00 0.  1.
          1    1    1    2  501    0 -0.38174468098E+02  0.11406517172E+03 -0.45124002825E+02  0.12846917547E+03  0.00000000000E+00 0. -1.
<scales pt_clust_5="13000.00000" pt_clust_6="13000.00000" pt_clust_7="13000.00000" pt_clust_8="13000.00000" pt_clust_9="13000.00000"></scales>
<clustering>
<clus scale="   83.057">  5  6 -1 -1</clus>
<clus scale="   90.954">  7  8 -1 -1</clus>
<clus scale="  120.284">  7  9 -1 -1</clus>
<clus scale="  122.640">  1  5  2 -1</clus>
<clus scale="  229.280">  2  5  1 -1</clus>
</clustering>
</event>
<event>
 9    2  0.2147756E-005  0.1923230E+03  0.7546771E-02  0.1177713E+00
         21   -1    0    0  501  502  0.00000000000E+00  0.00000000000E+00  0.22517677220E+03  0.22517677220E+03  0.00000000000E+00 0.  1.
         -1   -1    0    0    0  501 -0.00000000000E+00 -0.00000000000E+00 -0.12648615295E+03  0.12648615295E+03  0.00000000000E+00 0.  1.
         24    2    1    2    0    0 -0.68200851411E+02 -0.27738850375E+02 -0.28396427954E+02  0.12114343127E+03  0.91916124075E+02 0.  0.
         23    2    1    2    0    0 -0.14363914772E+01 -0.20212084019E+02  0.10613473937E+03  0.14341245106E+03  0.94297172057E+02 0.  0.
        -11    1    3    3    0    0 -0.28285927326E+02 -0.47125377078E+02 -0.47678911815E+02  0.72761071194E+02  0.00000000000E+00 0.  1.
         12    1    3    3    0    0 -0.39914924084E+02  0.19386526703E+02  0.19282483861E+02  0.48382360072E+02  0.00000000000E+00 0. -1.
        -11    1    4    4    0    0  0.30660643024E+02 -0.33697579083E+02  0.18601809089E+02  0.49210051494E+02  0.00000000000E+00 0. -1.
         11    1    4    4    0    0 -0.32097034501E+02  0.13485495065E+02  0.87532930281E+02  0.94202399568E+02  0.00000000000E+00 0.  1.
         -2    1    1    2    0  502  0.69637242888E+02  0.47950934394E+02  0.20952307835E+02  0.87107042826E+02  0.00000000000E+00 0.  1.
<scales pt_clust_5="13000.00000" pt_clust_6="13000.00000" pt_clust_7="13000.00000" pt_clust_8="13000.00000" pt_clust_9="13000.00000"></scales>
<clustering>
<clus scale="   91.916">  5  6 -1 -1</clus>
<clus scale="   94.297">  7  8 -1 -1</clus>
<clus scale="   84.550">  7  9 -1 -1</clus>
<clus scale="  117.768">  2  5  1 -1</clus>
<clus scale="  192.323">  1  5  2 -1</clus>
</clustering>
</event>
<event>
 9    2  0.2261445E-005  0.3861026E+03  0.7546771E-02  0.1088049E+00
          2   -1    0    0  502    0 -0.00000000000E+00  0.00000000000E+00  0.58921704482E+03  0.58921704482E+03  0.00000000000E+00 0. -1.
         21   -1    0    0  501  502  0.00000000000E+00 -0.00000000000E+00 -0.19763820907E+03  0.19763820907E+03  0.00000000000E+00 0. -1.
         24    2    1    2    0    0  0.10284259969E+03 -0.58270524441E+01 -0.98050642299E+02  0.16330711820E+03  0.80279085376E+02 0.  0.
         23    2    1    2    0    0  0.11912271132E+03  0.67807928622E+01  0.12231502766E+03  0.19437519342E+03  0.92652848426E+02 0.  0.
        -13    1    3    3    0    0  0.17926075881E+02  0.32164779699E+02 -0.20184061649E+02  0.41991827708E+02  0.00000000000E+00 0.  1.
         14    1    3    3    0    0  0.84916523809E+02 -0.37991832143E+02 -0.77866580650E+02  0.12131529049E+03  0.00000000000E+00 0. -1.
        -13    1    4    4    0    0  0.97153140757E+02 -0.35255167414E+02  0.89272618053E+02  0.13656961566E+03  0.00000000000E+00 0. -1.
         13    1    4    4    0    0  0.21969570560E+02  0.42035960276E+02  0.33042409608E+02  0.57805577755E+02  0.00000000000E+00 0.  1.
          1    1    1    2  501    0 -0.22196531101E+03 -0.95374041805E+00  0.36731445038E+03  0.42917294226E+03  0.00000000000E+00 0. -1.
<scales pt_clust_5="13000.00000" pt_clust_6="13000.00000" pt_clust_7="13000.00000" pt_clust_8="13000.00000" pt_clust_9="13000.00000"></scales>
<clustering>
<clus scale="   80.279">  5  6 -1 -1</clus>
<clus scale="   92.653">  7  8 -1 -1</clus>
<clus scale="  130.596">  1  5  2 -1</clus>
<clus scale="  148.469">  7  9 -1 -1</clus>
<clus scale="  386.103">  2  5  1 -1</clus>
</clustering>
</event>
<event>
 9    2  0.2147756E-005  0.3790976E+03  0.7546771E-02  0.1109179E+00
          2   -1    0    0  502    0 -0.00000000000E+00  0.00000000000E+00  0.15898209197E+04  0.15898209197E+04  0.00000000000E+00 0. -1.
         21   -1    0    0  501  502  0.00000000000E+00 -0.00000000000E+00 -0.38569873830E+02  0.38569873830E+02  0.00000000000E+00 0.  1.
         24    2    1    2    0    0 -0.14226585012E+02 -0.10042096850E+02  0.58565580860E+03  0.59104363067E+03  0.77695609751E+02 0.  0.
         23    2    1    2    0    0 -0.11681987994E+03  0.13092746329E+03  0.43955399420E+03  0.48191414512E+03  0.90800024525E+02 0.  0.
        -11    1    3    3    0    0  0.30808885356E+02 -0.41782539441E+01  0.16167234528E+03  0.16463472431E+03  0.00000000000E+00 0.  1.
         12    1    3    3    0    0 -0.45035470367E+02 -0.58638429061E+01  0.42398346333E+03  0.42640890636E+03  0.00000000000E+00 0. -1.
        -13    1    4    4    0    0 -0.56313844866E+02  0.15484866775E+02  0.20966351633E+03  0.21764608957E+03  0.00000000000E+00 0. -1.
         13    1    4    4    0    0 -0.60506035073E+02  0.11544259651E+03  0.22989047787E+03  0.26426805555E+03  0.00000000000E+00 0.  1.
          1    1    1    2  501    0  0.13104646495E+03 -0.12088536644E+03  0.52604124310E+03  0.55543301778E+03  0.00000000000E+00 0. -1.
<scales pt_clust_5="13000.00000" pt_clust_6="13000.00000" pt_clust_7="13000.00000" pt_clust_8="13000.00000" pt_clust_9="13000.00000"></scales>
<clustering>
<clus scale="   77.696">  5  6 -1 -1</clus>
<clus scale="   79.623">  1  5  2 -1</clus>
<clus scale="   90.800">  7  8 -1 -1</clus>
<clus scale="  176.557">  7  9 -1 -1</clus>
<clus scale="  379.098">  2  5  1 -1</clus>
</clustering>
</event>
<event>
 9    2  0.2147756E-005  0.3931525E+03  0.7546771E-02  0.1100417E+00
          2   -1    0    0  502    0 -0.00000000000E+00  0.00000000000E+00  0.51728251069E+03  0.51728251069E+03  0.00000000000E+00 0. -1.
         21   -1    0    0  501  502  0.00000000000E+00 -0.00000000000E+00 -0.57336831743E+03  0.57336831743E+03  0.00000000000E+00 0. -1.
         24    2    1    2    0    0  0.20422996568E+02 -0.34107582897E+02  0.44491103649E+03  0.45380963155E+03  0.80105713293E+02 0.  0.
         23    2    1    2    0    0 -0.12250176079E+03  0.85244605733E+02 -0.54215305420E+02  0.17570259297E+03  0.75224847159E+02 0.  0.
        -13    1    3    3    0    0  0.16485873567E+02  0.24765078623E+02  0.12397279589E+03  0.12749253808E+03  0.00000000000E+00 0.  1.
         14    1    3    3    0    0  0.39371230008E+01 -0.58872661520E+02  0.32093824060E+03  0.32631709347E+03  0.00000000000E+00 0. -1.
        -13    1    4    4    0    0  0.10519492063E+01  0.30452498741E+02 -0.19435509736E+02  0.36141393379E+02  0.00000000000E+00 0.  1.
         13    1    4    4    0    0 -0.12355370999E+03  0.54792106993E+02 -0.34779795685E+02  0.13956119959E+03  0.00000000000E+00 0. -1.
          1    1    1    2  501    0  0.10207876422E+03 -0.51137022836E+02 -0.44678153780E+03  0.46113860360E+03  0.00000000000E+00 0. -1.
<scales pt_clust_5="13000.00000" pt_clust_6="13000.00000" pt_clust_7="13000.00000" pt_clust_8="13000.00000" pt_clust_9="13000.00000"></scales>
<clustering>
<clus scale="   75.225">  7  8 -1 -1</clus>
<clus scale="   80.106">  5  6 -1 -1</clus>
<clus scale="   89.428">  1  5  2 -1</clus>
<clus scale="  117.737">  7  9 -1 -1</clus>
<clus scale="  393.152">  2  5  1 -1</clus>
</clustering>
</event>
<event>
 9    2  0.2147756E-005  0.1897943E+03  0.7546771E-02  0.1193739E+00
         21   -1    0    0  501  502  0.00000000000E+00  0.00000000000E+00  0.23394627685E+02  0.23394627685E+02  0.00000000000E+00 0. -1.
          2   -1    0    0  502    0 -0.00000000000E+00 -0.00000000000E+00 -0.10147272717E+04  0.10147272717E+04  0.00000000000E+00 0. -1.
         24    2    1    2    0    0 -0.30975741727E+02 -0.16548615042E+02 -0.56470669543E+03  0.57118339411E+03  0.78252569342E+02 0.  0.
         23    2    1    2    0    0 -0.38703247381E+02 -0.31096137992E+02 -0.26707995448E+03  0.28643889793E+03  0.90832973125E+02 0.  0.
        -13    1    3    3    0    0  0.19692584692E+02  0.12244718543E+02 -0.91118914454E+02  0.94023335377E+02  0.00000000000E+00 0.  1.
         14    1    3    3    0    0 -0.50668326419E+02 -0.28793333585E+02 -0.47358778098E+03  0.47716005873E+03  0.00000000000E+00 0. -1.
        -13    1    4    4    0    0 -0.47521526883E+02 -0.57177869791E+02 -0.17036058448E+03  0.18587719886E+03  0.00000000000E+00 0. -1.
         13    1    4    4    0    0  0.88182795023E+01  0.26081731799E+02 -0.96719370003E+02  0.10056169907E+03  0.00000000000E+00 0.  1.
          1    1    1    2  501    0  0.69678989108E+02  0.47644753033E+02 -0.15954599405E+03  0.18049960730E+03  0.00000000000E+00 0. -1.
<scales pt_clust_5="13000.00000" pt_clust_6="13000.00000" pt_clust_7="13000.00000" pt_clust_8="13000.00000" pt_clust_9="13000.00000"></scales>
<clustering>
<clus scale="   78.253">  5  6 -1 -1</clus>
<clus scale="   85.772">  2  5  1 -1</clus>
<clus scale="   90.833">  7  8 -1 -1</clus>
<clus scale="   71.141">  7  9 -1 -1</clus>
<clus scale="  189.794">  1  5  2 -1</clus>
</clustering>
</event>
<event>
 9    2  0.2147756E-005  0.6837090E+03  0.7546771E-02  0.1032917E+00
         21   -1    0    0  501  502  0.00000000000E+00  0.00000000000E+00  0.53638047896E+03  0.53638047896E+03  0.00000000000E+00 0.  1.
         -1   -1    0    0    0  501 -0.00000000000E+00 -0.00000000000E+00 -0.31345975786E+03  0.31345975786E+03  0.00000000000E+00 0.  1.
         24    2    1    2    0    0 -0.70382169569E+02  0.24352880958E+02 -0.40410602527E+02  0.11717296480E+03  0.80930675765E+02 0.  0.
         23    2    1    2    0    0 -0.17336291610E+03  0.81734244445E+02 -0.13680894672E+03  0.25227328692E+03  0.90498265158E+02 0.  0.
        -11    1    3    3    0    0 -0.16680363688E+01  0.21796974197E+02 -0.43134066188E+02  0.48357399593E+02  0.00000000000E+00 0.  1.
         12    1    3    3    0    0 -0.68714133200E+02  0.25559067607E+01  0.27234636609E+01  0.68815565209E+02  0.00000000000E+00 0. -1.
        -11    1    4    4    0    0 -0.61169237634E+02 -0.10876027258E+02 -0.65426912525E+02  0.90225520139E+02  0.00000000000E+00 0. -1.
         11    1    4    4    0    0 -0.11219367847E+03  0.92610271703E+02 -0.71382034190E+02  0.16204776678E+03  0.00000000000E+00 0.  1.
         -2    1    1    2    0  502  0.24374508567E+03 -0.10608712540E+03  0.40014027034E+03  0.48039398509E+03  0.00000000000E+00 0.  1.
<scales pt_clust_5="13000.00000" pt_clust_6="13000.00000" pt_clust_7="13000.00000" pt_clust_8="13000.00000" pt_clust_9="13000.00000"></scales>
<clustering>
<clus scale="   80.931">  5  6 -1 -1</clus>
<clus scale="   90.498">  7  8 -1 -1</clus>
<clus scale="  109.984">  2  5  1 -1</clus>
<clus scale="  253.136">  7  9 -1 -1</clus>
<clus scale="  683.709">  1  5  2 -1</clus>
</clustering>
</event>
<event>
 9    2  0.2147756E-005  0.2628238E+03  0.7546771E-02  0.1140243E+00
         21   -1    0    0  501  502  0.00000000000E+00  0.00000000000E+00  0.65986919933E+02  0.65986919933E+02  0.00000000000E+00 0.  1.
          2   -1    0    0  502    0 -0.00000000000E+00 -0.00000000000E+00 -0.52936847443E+03  0.52936847443E+03  0.00000000000E+00 0. -1.
         24    2    1    2    0    0  0.75075289664E+02 -0.49091844068E+01 -0.12509681174E+03  0.16697134518E+03  0.81054417482E+02 0.  0.
         23    2    1    2    0    0  0.61544691049E+02 -0.44325602042E+02 -0.12523082360E+03  0.17054484387E+03  0.87465859624E+02 0.  0.
        -13    1    3    3    0    0  0.55496317660E+02 -0.22460188851E+02 -0.12720850851E+03  0.14059269538E+03  0.00000000000E+00 0.  1.
         14    1    3    3    0    0  0.19578972004E+02  0.17551004444E+02  0.21116967732E+01  0.26378649795E+02  0.00000000000E+00 0. -1.
        -13    1    4    4    0    0  0.40883225522E+02 -0.67317703051E+02 -0.62261041569E+02  0.10039695499E+03  0.00000000000E+00 0.  1.
         13    1    4    4    0    0  0.20661465528E+02  0.22992101009E+02 -0.62969782027E+02  0.70147888885E+02  0.00000000000E+00 0. -1.
          1    1    1    2  501    0 -0.13661998071E+03  0.49234786448E+02 -0.21305391917E+03  0.25783920532E+03  0.00000000000E+00 0. -1.
<scales pt_clust_5="13000.00000" pt_clust_6="13000.00000" pt_clust_7="13000.00000" pt_clust_8="13000.00000" pt_clust_9="13000.00000"></scales>
<clustering>
<clus scale="   81.054">  5  6 -1 -1</clus>
<clus scale="   87.466">  7  8 -1 -1</clus>
<clus scale="  110.590">  2  5  1 -1</clus>
<clus scale="  101.627">  7  9 -1 -1</clus>
<clus scale="  262.824">  1  5  2 -1</clus>
</clustering>
</event>
<event>
 9    2  0.2147756E-005  0.1557978E+03  0.7546771E-02  0.1203133E+00
         21   -1    0    0  501  502  0.00000000000E+00  0.00000000000E+00  0.51578033473E+02  0.51578033473E+02  0.00000000000E+00 0.  1.
          2   -1    0    0  502    0 -0.00000000000E+00 -0.00000000000E+00 -0.65642621098E+03  0.65642621098E+03  0.00000000000E+00 0. -1.
         24    2    1    2    0    0 -0.21320015903E+01 -0.98067783984E+02 -0.51040205460E+03  0.52581471553E+03  0.79680750786E+02 0.  0.
         23    2    1    2    0    0 -0.29376327970E+00  0.47421933800E+02 -0.68409783443E+02  0.12519148116E+03  0.93509798319E+02 0.  0.
        -13    1    3    3    0    0  0.34903074226E+02 -0.53953414476E+02 -0.19859747718E+03  0.20873464846E+03  0.00000000000E+00 0.  1.
         14    1    3    3    0    0 -0.37035075816E+02 -0.44114369508E+02 -0.31180457741E+03  0.31708006707E+03  0.00000000000E+00 0. -1.
        -11    1    4    4    0    0 -0.20454942581E+02  0.67420737391E+02 -0.66251332262E+02  0.96711941004E+02  0.00000000000E+00 0. -1.
         11    1    4    4    0    0  0.20161179301E+02 -0.19998803591E+02 -0.21584511805E+01  0.28479540154E+02  0.00000000000E+00 0.  1.
          1    1    1    2  501    0  0.24257648700E+01  0.50645850183E+02 -0.26036339468E+02  0.56998047764E+02  0.00000000000E+00 0. -1.
<scales pt_clust_5="13000.00000" pt_clust_6="13000.00000" pt_clust_7="13000.00000" pt_clust_8="13000.00000" pt_clust_9="13000.00000"></scales>
<clustering>
<clus scale="   79.681">  5  6 -1 -1</clus>
<clus scale="   93.510">  7  8 -1 -1</clus>
<clus scale="   50.704">  7  9 -1 -1</clus>
<clus scale="  126.376">  2  5  1 -1</clus>
<clus scale="  155.798">  1  5  2 -1</clus>
</clustering>
</event>
<event>
 9    2  0.2147756E-005  0.1748464E+03  0.7546771E-02  0.1196759E+00
         -3   -1    0    0    0  501 -0.00000000000E+00  0.00000000000E+00  0.48034610390E+03  0.48034610390E+03  0.00000000000E+00 0.  1.
         21   -1    0    0  501  502  0.00000000000E+00 -0.00000000000E+00 -0.46776095402E+02  0.46776095402E+02  0.00000000000E+00 0. -1.
         24    2    1    2    0    0  0.25328485004E+02  0.58524355688E+02  0.71745501991E+02  0.12526621677E+03  0.80483387397E+02 0.  0.
         23    2    1    2    0    0  0.39034043533E+02 -0.20714244394E+02  0.20765148841E+03  0.23056249432E+03  0.89928786668E+02 0.  0.
        -11    1    3    3    0    0  0.39964965840E+02  0.27873852323E+02  0.76773413545E+02  0.90930232405E+02  0.00000000000E+00 0.  1.
         12    1    3    3    0    0 -0.14636480837E+02  0.30650503365E+02 -0.50279115535E+01  0.34335984366E+02  0.00000000000E+00 0. -1.
        -11    1    4    4    0    0 -0.29124708241E+02 -0.66576937077E+00  0.62544716874E+02  0.68996619394E+02  0.00000000000E+00 0. -1.
         11    1    4    4    0    0  0.68158751773E+02 -0.20048475023E+02  0.14510677154E+03  0.16156587493E+03  0.00000000000E+00 0.  1.
         -4    1    1    2    0  502 -0.64362528536E+02 -0.37810111294E+02  0.15417301809E+03  0.17129348821E+03  0.00000000000E+00 0.  1.
<scales pt_clust_5="13000.00000" pt_clust_6="13000.00000" pt_clust_7="13000.00000" pt_clust_8="13000.00000" pt_clust_9="13000.00000"></scales>
<clustering>
<clus scale="   80.483">  5  6 -1 -1</clus>
<clus scale="   89.929">  7  8 -1 -1</clus>
<clus scale="   74.647">  7  9 -1 -1</clus>
<clus scale="  102.685">  1  5  2 -1</clus>
<clus scale="  174.846">  2  5  1 -1</clus>
</clustering>
</event>
<event>
 9    2  0.2147756E-005  0.3140797E+03  0.7546771E-02  0.1126572E+00
          2   -1    0    0  502    0 -0.00000000000E+00  0.00000000000E+00  0.66982529183E+03  0.66982529183E+03  0.00000000000E+00 0. -1.
         21   -1    0    0  501  502  0.00000000000E+00 -0.00000000000E+00 -0.77331641024E+02  0.77331641024E+02  0.00000000000E+00 0. -1.
         24    2    1    2    0    0 -0.32435918087E+02 -0.24636411975E+02  0.31605606935E+03  0.32875065416E+03  0.80786831001E+02 0.  0.
         23    2    1    2    0    0 -0.53199975006E+02  0.40875007068E+02  0.30607285832E+03  0.32634408345E+03  0.91207799320E+02 0.  0.
        -11    1    3    3    0    0  0.19828423267E+02  0.66717926821E+01  0.31981385825E+02  0.38216334546E+02  0.00000000000E+00 0.  1.
         12    1    3    3    0    0 -0.52264341355E+02 -0.31308204657E+02  0.28407468352E+03  0.29053431962E+03  0.00000000000E+00 0. -1.
        -13    1    4    4    0    0  0.95886634776E+01  0.48189313236E+02  0.15427342909E+03  0.16190874992E+03  0.00000000000E+00 0.  1.
         13    1    4    4    0    0 -0.62788638483E+02 -0.73143061685E+01  0.15179942923E+03  0.16443533353E+03  0.00000000000E+00 0. -1.
          1    1    1    2  501    0  0.85635893093E+02 -0.16238595093E+02 -0.29635276871E+02  0.92062195236E+02  0.00000000000E+00 0. -1.
<scales pt_clust_5="13000.00000" pt_clust_6="13000.00000" pt_clust_7="13000.00000" pt_clust_8="13000.00000" pt_clust_9="13000.00000"></scales>
<clustering>
<clus scale="   80.787">  5  6 -1 -1</clus>
<clus scale="   90.474">  1  5  2 -1</clus>
<clus scale="   91.208">  7  8 -1 -1</clus>
<clus scale="   84.755">  7  9 -1 -1</clus>
<clus scale="  314.080">  2  5  1 -1</clus>
</clustering>
</event>
<event>
 9    2  0.2147756E-005  0.2849976E+03  0.7546771E-02  0.1120550E+00
         21   -1    0    0  501  502  0.00000000000E+00  0.00000000000E+00  0.62723231380E+02  0.62723231380E+02  0.00000000000E+00 0. -1.
          2   -1    0    0  502    0 -0.00000000000E+00 -0.00000000000E+00 -0.15739295159E+04  0.15739295159E+04  0.00000000000E+00 0. -1.
         24    2    1    2    0    0 -0.57238226086E+02 -0.10074492261E+03 -0.12239562175E+04  0.12320093785E+04  0.79702774167E+02 0.  0.
         23    2    1    2    0    0  0.13462337653E+03  0.79879331365E+02 -0.11087824393E+03  0.21091455224E+03  0.87674410636E+02 0.  0.
        -11    1    3    3    0    0 -0.21325142529E+02 -0.11908741412E+02 -0.71109625479E+02  0.75187490061E+02  0.00000000000E+00 0.  1.
         12    1    3    3    0    0 -0.35913083557E+02 -0.88836181198E+02 -0.11528465921E+04  0.11568218884E+04  0.00000000000E+00 0. -1.
        -13    1    4    4    0    0  0.82882845237E+02  0.93287677685E+01 -0.86344822498E+02  0.12005007420E+03  0.00000000000E+00 0. -1.
         13    1    4    4    0    0  0.51740531296E+02  0.70550563596E+02 -0.24533421434E+02  0.90864478042E+02  0.00000000000E+00 0.  1.
          1    1    1    2  501    0 -0.77385150448E+02  0.20865591245E+02 -0.17637182307E+03  0.19372881660E+03  0.00000000000E+00 0. -1.
<scales pt_clust_5="13000.00000" pt_clust_6="13000.00000" pt_clust_7="13000.00000" pt_clust_8="13000.00000" pt_clust_9="13000.00000"></scales>
<clustering>
<clus scale="   79.703">  5  6 -1 -1</clus>
<clus scale="   87.674">  7  8 -1 -1</clus>
<clus scale="   80.149">  7  9 -1 -1</clus>
<clus scale="  140.635">  2  5  1 -1</clus>
<clus scale="  284.998">  1  5  2 -1</clus>
</clustering>
</event>
<event>
 9    2  0.2147756E-005  0.3645991E+03  0.7546771E-02  0.1110572E+00
         -1   -1    0    0    0  501 -0.00000000000E+00  0.00000000000E+00  0.39953972064E+03  0.39953972064E+03  0.00000000000E+00 0.  1.
         21   -1    0    0  501  502  0.00000000000E+00 -0.00000000000E+00 -0.22406385638E+03  0.22406385638E+03  0.00000000000E+00 0.  1.
         24    2    1    2    0    0  0.28171683116E+02 -0.11616913008E+02  0.23844143292E+03  0.25360743488E+03  0.80832033861E+02 0.  0.
         23    2    1    2    0    0 -0.39185140379E+02  0.62232959199E+02  0.12734524484E+03  0.17276154550E+03  0.90671515830E+02 0.  0.
        -13    1    3    3    0    0  0.27809869927E+02 -0.37050436594E+02  0.74676616762E+02  0.87879012330E+02  0.00000000000E+00 0.  1.
         14    1    3    3    0    0  0.36181318886E+00  0.25433523586E+02  0.16376481616E+03  0.16572842255E+03  0.00000000000E+00 0. -1.
        -11    1    4    4    0    0 -0.53288352087E+02  0.63267810652E+01  0.87608577000E+02  0.10273723469E+03  0.00000000000E+00 0.  1.
         11    1    4    4    0    0  0.14103211708E+02  0.55906178134E+02  0.39736667839E+02  0.70024310814E+02  0.00000000000E+00 0. -1.
         -2    1    1    2    0  502  0.11013457263E+02 -0.50616046191E+02 -0.19031081350E+03  0.19723459663E+03  0.00000000000E+00 0.  1.
<scales pt_clust_5="13000.00000" pt_clust_6="13000.00000" pt_clust_7="13000.00000" pt_clust_8="13000.00000" pt_clust_9="13000.00000"></scales>
<clustering>
<clus scale="   80.832">  5  6 -1 -1</clus>
<clus scale="   86.385">  1  5  2 -1</clus>
<clus scale="   90.672">  7  8 -1 -1</clus>
<clus scale="   52.195">  7  9 -1 -1</clus>
<clus scale="  364.599">  2  5  1 -1</clus>
</clustering>
</event>
<event>
 9    2  0.2147756E-005  0.5661126E+03  0.7546771E-02  0.1044603E+00
         21   -1    0    0  501  502  0.00000000000E+00  0.00000000000E+00  0.18716767730E+03  0.18716767730E+03  0.00000000000E+00 0. -1.
          2   -1    0    0  502    0 -0.00000000000E+00 -0.00000000000E+00 -0.66319795456E+03  0.66319795456E+03  0.00000000000E+00 0. -1.
         24    2    1    2    0    0 -0.59467129845E+02 -0.95173283811E+02 -0.10892928609E+03  0.17564593710E+03  0.79947560113E+02 0.  0.
         23    2    1    2    0    0 -0.77706377081E+02  0.21528070527E+03 -0.41759529232E+03  0.48553185651E+03  0.94716906686E+02 0.  0.
        -13    1    3    3    0    0 -0.38475336995E+02 -0.10375865513E+03 -0.10515245397E+03  0.15265401616E+03  0.00000000000E+00 0.  1.
         14    1    3    3    0    0 -0.20991792850E+02  0.85853713222E+01 -0.37768321158E+01  0.22991920943E+02  0.00000000000E+00 0. -1.
        -11    1    4    4    0    0 -0.68168327963E+02  0.64847024424E+02 -0.19752721163E+03  0.21878998342E+03  0.00000000000E+00 0. -1.
         11    1    4    4    0    0 -0.95380491175E+01  0.15043368085E+03 -0.22006808070E+03  0.26674187308E+03  0.00000000000E+00 0.  1.
          1    1    1    2  501    0  0.13717350693E+03 -0.12010742146E+03  0.50494301147E+02  0.18918783825E+03  0.00000000000E+00 0. -1.
<scales pt_clust_5="13000.00000" pt_clust_6="13000.00000" pt_clust_7="13000.00000" pt_clust_8="13000.00000" pt_clust_9="13000.00000"></scales>
<clustering>
<clus scale="   79.948">  5  6 -1 -1</clus>
<clus scale="   94.717">  7  8 -1 -1</clus>
<clus scale="  137.789">  2  5  1 -1</clus>
<clus scale="  185.303">  7  9 -1 -1</clus>
<clus scale="  566.113">  1  5  2 -1</clus>
</clustering>
</event>
<event>
 9    2  0.2147756E-005  0.3046759E+03  0.7546771E-02  0.1122255E+00
          2   -1    0    0  502    0 -0.00000000000E+00  0.00000000000E+00  0.72939751650E+03  0.72939751650E+03  0.00000000000E+00 0. -1.
         21   -1    0    0  501  502  0.00000000000E+00 -0.00000000000E+00 -0.65691244886E+02  0.65691244886E+02  0.00000000000E+00 0. -1.
         24    2    1    2    0    0 -0.63729685608E+02 -0.38931483010E+02  0.78741739275E+02  0.13553517541E+03  0.81193528511E+02 0.  0.
         23    2    1    2    0    0 -0.83705078945E+02 -0.34163573826E+02  0.35181947406E+03  0.37418274771E+03  0.89789177181E+02 0.  0.
        -11    1    3    3    0    0 -0.58269479462E+01 -0.33643483135E+02 -0.40312828786E+01  0.34381514241E+02  0.00000000000E+00 0.  1.
         12    1    3    3    0    0 -0.57902737662E+02 -0.52879998753E+01  0.82773022153E+02  0.10115366117E+03  0.00000000000E+00 0. -1.
        -13    1    4    4    0    0  0.13732789475E+01 -0.41505707676E+02  0.13108127658E+03  0.13750240265E+03  0.00000000000E+00 0.  1.
         13    1    4    4    0    0 -0.85078357893E+02  0.73421338508E+01  0.22073819748E+03  0.23668034506E+03  0.00000000000E+00 0. -1.
          1    1    1    2  501    0  0.14743476455E+03  0.73095056836E+02  0.23314505828E+03  0.28537083826E+03  0.00000000000E+00 0. -1.
<scales pt_clust_5="13000.00000" pt_clust_6="13000.00000" pt_clust_7="13000.00000" pt_clust_8="13000.00000" pt_clust_9="13000.00000"></scales>
<clustering>
<clus scale="   81.194">  5  6 -1 -1</clus>
<clus scale="   89.789">  7  8 -1 -1</clus>
<clus scale="  110.316">  1  5  2 -1</clus>
<clus scale="  133.594">  7  9 -1 -1</clus>
<clus scale="  304.676">  2  5  1 -1</clus>
</clustering>
</event>
<event>
 9    2  0.2147756E-005  0.3092902E+03  0.7546771E-02  0.1120586E+00
          4   -1    0    0  502    0 -0.00000000000E+00  0.00000000000E+00  0.28631185351E+03  0.28631185351E+03  0.00000000000E+00 0. -1.
         21   -1    0    0  501  502  0.00000000000E+00 -0.00000000000E+00 -0.49973572433E+03  0.49973572433E+03  0.00000000000E+00 0. -1.
         24    2    1    2    0    0  0.47010626274E+02 -0.57177616621E+02  0.22446683545E+03  0.24994244149E+03  0.81280901927E+02 0.  0.
         23    2    1    2    0    0 -0.98840170203E+02 -0.53497964467E+02 -0.98503470848E+02  0.17538491036E+03  0.91790639854E+02 0.  0.
        -13    1    3    3    0    0 -0.38660959503E+01 -0.29558194390E+02  0.16506376552E+02  0.34074829719E+02  0.00000000000E+00 0.  1.
         14    1    3    3    0    0  0.50876722224E+02 -0.27619422231E+02  0.20796045890E+03  0.21586761177E+03  0.00000000000E+00 0. -1.
        -11    1    4    4    0    0 -0.40410274778E+02  0.21722195136E+02 -0.13765932911E+02  0.47899321269E+02  0.00000000000E+00 0.  1.
         11    1    4    4    0    0 -0.58429895425E+02 -0.75220159603E+02 -0.84737537937E+02  0.12748558909E+03  0.00000000000E+00 0. -1.
          3    1    1    2  501    0  0.51829543929E+02  0.11067558109E+03 -0.33938723542E+03  0.36072022599E+03  0.00000000000E+00 0. -1.
<scales pt_clust_5="13000.00000" pt_clust_6="13000.00000" pt_clust_7="13000.00000" pt_clust_8="13000.00000" pt_clust_9="13000.00000"></scales>
<clustering>
<clus scale="   81.281">  5  6 -1 -1</clus>
<clus scale="   91.791">  7  8 -1 -1</clus>
<clus scale="  109.936">  1  5  2 -1</clus>
<clus scale="  116.204">  7  9 -1 -1</clus>
<clus scale="  309.290">  2  5  1 -1</clus>
</clustering>
</event>
<event>
 9    2  0.2147756E-005  0.2734652E+03  0.7546771E-02  0.1148220E+00
         21   -1    0    0  501  502  0.00000000000E+00  0.00000000000E+00  0.16955149544E+03  0.16955149544E+03  0.00000000000E+00 0. -1.
          2   -1    0    0  502    0 -0.00000000000E+00 -0.00000000000E+00 -0.22185651091E+03  0.22185651091E+03  0.00000000000E+00 0. -1.
         24    2    1    2    0    0 -0.45838559749E+00  0.83642623801E+01  0.54614825807E+02  0.97783947037E+02  0.80676825035E+02 0.  0.
         23    2    1    2    0    0  0.61103581280E+02  0.24320157274E+02 -0.16975534322E+03  0.20038023190E+03  0.83727194434E+02 0.  0.
        -13    1    3    3    0    0  0.26000610215E+02 -0.25791075216E+02  0.16493019412E+02  0.40165046766E+02  0.00000000000E+00 0.  1.
         14    1    3    3    0    0 -0.26458995812E+02  0.34155337597E+02  0.38121806394E+02  0.57618900271E+02  0.00000000000E+00 0. -1.
        -13    1    4    4    0    0  0.65325906575E+02 -0.12756633664E+02 -0.86497926549E+02  0.10914255389E+03  0.00000000000E+00 0. -1.
         13    1    4    4    0    0 -0.42223252957E+01  0.37076790938E+02 -0.83257416673E+02  0.91237678008E+02  0.00000000000E+00 0.  1.
          1    1    1    2  501    0 -0.60645195682E+02 -0.32684419654E+02  0.62835501940E+02  0.93243827418E+02  0.00000000000E+00 0. -1.
<scales pt_clust_5="13000.00000" pt_clust_6="13000.00000" pt_clust_7="13000.00000" pt_clust_8="13000.00000" pt_clust_9="13000.00000"></scales>
<clustering>
<clus scale="   80.677">  5  6 -1 -1</clus>
<clus scale="   81.111">  2  5  1 -1</clus>
<clus scale="   83.727">  7  8 -1 -1</clus>
<clus scale="   68.624">  7  9 -1 -1</clus>
<clus scale="  273.465">  1  5  2 -1</clus>
</clustering>
</event>
<event>
 9    2  0.2147756E-005  0.1431154E+03  0.7546771E-02  0.1233569E+00
          2   -1    0    0  502    0 -0.00000000000E+00  0.00000000000E+00  0.51055134160E+02  0.51055134160E+02  0.00000000000E+00 0. -1.
         21   -1    0    0  501  502  0.00000000000E+00 -0.00000000000E+00 -0.25716890954E+03  0.25716890954E+03  0.00000000000E+00 0. -1.
         24    2    1    2    0    0  0.26749418182E+02 -0.53443770842E+01 -0.83028691889E+02  0.11945975199E+03  0.81441849984E+02 0.  0.
         23    2    1    2    0    0 -0.20595161595E+02 -0.45943995009E+02 -0.98254806304E+02  0.13145011675E+03  0.71345040987E+02 0.  0.
        -11    1    3    3    0    0  0.51667296395E+02  0.55090425930E+01 -0.30328322650E+02  0.60163661972E+02  0.00000000000E+00 0.  1.
         12    1    3    3    0    0 -0.24917878213E+02 -0.10853419677E+02 -0.52700369239E+02  0.59296090016E+02  0.00000000000E+00 0. -1.
        -11    1    4    4    0    0  0.26166951217E+02 -0.22519804186E+02 -0.32321194826E+02  0.47291759870E+02  0.00000000000E+00 0. -1.
         11    1    4    4    0    0 -0.46762112812E+02 -0.23424190823E+02 -0.65933611478E+02  0.84158356881E+02  0.00000000000E+00 0.  1.
          1    1    1    2  501    0 -0.61542565875E+01  0.51288372093E+02 -0.24830277185E+02  0.57314174959E+02  0.00000000000E+00 0. -1.
<scales pt_clust_5="13000.00000" pt_clust_6="13000.00000" pt_clust_7="13000.00000" pt_clust_8="13000.00000" pt_clust_9="13000.00000"></scales>
<clustering>
<clus scale="   71.345">  7  8 -1 -1</clus>
<clus scale="   51.656">  7  9 -1 -1</clus>
<clus scale="   81.442">  5  6 -1 -1</clus>
<clus scale="   85.889">  1  5  2 -1</clus>
<clus scale="  143.115">  2  5  1 -1</clus>
</clustering>
</event>
<event>
 9    2  0.3234282E-005  0.2081052E+03  0.7546771E-02  0.1166909E+00
          2   -1    0    0  502    0 -0.00000000000E+00  0.00000000000E+00  0.87588260516E+03  0.87588260516E+03  0.00000000000E+00 0. -1.
         21   -1    0    0  501  502  0.00000000000E+00 -0.00000000000E+00 -0.43426086368E+02  0.43426086368E+02  0.00000000000E+00 0. -1.
         24    2    1    2    0    0  0.30689413098E+02 -0.86626264041E+02  0.58035953127E+03  0.59241322103E+03  0.75434005741E+02 0.  0.
         23    2    1    2    0    0 -0.10395506527E+01 -0.23497911790E+02  0.12894114906E+03  0.15904491496E+03  0.90090135588E+02 0.  0.
        -13    1    3    3    0    0 -0.21012672318E+02 -0.25314747775E+02  0.96551211132E+02  0.10200247656E+03  0.00000000000E+00 0.  1.
         14    1    3    3    0    0  0.51702085416E+02 -0.61311516266E+02  0.48380832014E+03  0.49041074448E+03  0.00000000000E+00 0. -1.
        -11    1    4    4    0    0 -0.24298451198E+02  0.21117850762E+02  0.89501084481E+02  0.95114785784E+02  0.00000000000E+00 0.  1.
         11    1    4    4    0    0  0.23258900545E+02 -0.44615762552E+02  0.39440064577E+02  0.63930129176E+02  0.00000000000E+00 0. -1.
          1    1    1    2  501    0 -0.29649862445E+02  0.11012417583E+03  0.12315583847E+03  0.16785055554E+03  0.00000000000E+00 0. -1.
<scales pt_clust_5="13000.00000" pt_clust_6="13000.00000" pt_clust_7="13000.00000" pt_clust_8="13000.00000" pt_clust_9="13000.00000"></scales>
<clustering>
<clus scale="   75.434">  5  6 -1 -1</clus>
<clus scale="   90.090">  7  8 -1 -1</clus>
<clus scale="  114.046">  7  9 -1 -1</clus>
<clus scale="  118.896">  1  5  2 -1</clus>
<clus scale="  208.105">  2  5  1 -1</clus>
</clustering>
</event>
<event>
 9    2  0.2147756E-005  0.3254405E+03  0.7546771E-02  0.1101763E+00
         21   -1    0    0  501  502  0.00000000000E+00  0.00000000000E+00  0.87380897812E+02  0.87380897812E+02  0.00000000000E+00 0.  1.
          4   -1    0    0  502    0 -0.00000000000E+00 -0.00000000000E+00 -0.97770649743E+03  0.97770649743E+03  0.00000000000E+00 0. -1.
         24    2    1    2    0    0 -0.11743293172E+03  0.52341017662E+02 -0.63056482034E+03  0.64868952706E+03  0.81584522326E+02 0.  0.
         23    2    1    2    0    0  0.88474492429E+01 -0.14201501119E+03 -0.76626055714E+02  0.18537717842E+03  0.90810820415E+02 0.  0.
        -13    1    3    3    0    0 -0.56877408509E+02  0.32654582167E+02 -0.14721209321E+03  0.16116067052E+03  0.00000000000E+00 0.  1.
         14    1    3    3    0    0 -0.60555523212E+02  0.19686435494E+02 -0.48335272713E+03  0.48752885654E+03  0.00000000000E+00 0. -1.
        -11    1    4    4    0    0 -0.24921586680E+02 -0.13076202087E+03 -0.57982577298E+02  0.14519562960E+03  0.00000000000E+00 0.  1.
         11    1    4    4    0    0  0.33769035923E+02 -0.11252990318E+02 -0.18643478416E+02  0.40181548822E+02  0.00000000000E+00 0. -1.
          3    1    1    2  501    0  0.10858548248E+03  0.89673993530E+02 -0.18313472356E+03  0.23102068975E+03  0.00000000000E+00 0. -1.
<scales pt_clust_5="13000.00000" pt_clust_6="13000.00000" pt_clust_7="13000.00000" pt_clust_8="13000.00000" pt_clust_9="13000.00000"></scales>
<clustering>
<clus scale="   81.585">  5  6 -1 -1</clus>
<clus scale="   90.811">  7  8 -1 -1</clus>
<clus scale="  140.827">  7  9 -1 -1</clus>
<clus scale="  152.270">  2  5  1 -1</clus>
<clus scale="  325.441">  1  5  2 -1</clus>
</clustering>
</event>
<event>
 9    2  0.2147756E-005  0.3837536E+03  0.7546771E-02  0.1067188E+00
         21   -1    0    0  501  502  0.00000000000E+00  0.00000000000E+00  0.30771575417E+03  0.30771575417E+03  0.00000000000E+00 0.  1.
          2   -1    0    0  502    0 -0.00000000000E+00 -0.00000000000E+00 -0.31188101751E+03  0.31188101751E+03  0.00000000000E+00 0. -1.
         24    2    1    2    0    0 -0.18328305104E+03  0.12191874180E+03  0.22018837561E+02  0.23495095401E+03  0.79121837576E+02 0.  0.
         23    2    1    2    0    0 -0.45316271022E+02 -0.93758075897E+02  0.41488308302E+02  0.14458285068E+03  0.91316919400E+02 0.  0.
        -11    1    3    3    0    0 -0.17328267749E+03  0.83468087740E+02  0.69620824421E+01  0.19246370718E+03  0.00000000000E+00 0.  1.
         12    1    3    3    0    0 -0.10000373554E+02  0.38450654058E+02  0.15056755119E+02  0.42487246833E+02  0.00000000000E+00 0. -1.
        -13    1    4    4    0    0 -0.12873043190E+01 -0.93968832096E+02  0.22501119050E+02  0.96633839396E+02  0.00000000000E+00 0.  1.
         13    1    4    4    0    0 -0.44028966703E+02  0.21075619893E+00  0.18987189251E+02  0.47949011281E+02  0.00000000000E+00 0. -1.
          1    1    1    2  501    0  0.22859932206E+03 -0.28160665901E+02 -0.67672409203E+02  0.24006296699E+03  0.00000000000E+00 0. -1.
<scales pt_clust_5="13000.00000" pt_clust_6="13000.00000" pt_clust_7="13000.00000" pt_clust_8="13000.00000" pt_clust_9="13000.00000"></scales>
<clustering>
<clus scale="   79.122">  5  6 -1 -1</clus>
<clus scale="   91.317">  7  8 -1 -1</clus>
<clus scale="  230.327">  7  9 -1 -1</clus>
<clus scale="  233.917">  2  5  1 -1</clus>
<clus scale="  383.754">  1  5  2 -1</clus>
</clustering>
</event>
<event>
 9    2  0.2147756E-005  0.1759975E+03  0.7546771E-02  0.1208314E+00
         21   -1    0    0  501  502  0.00000000000E+00  0.00000000000E+00  0.64836633119E+02  0.64836633119E+02  0.00000000000E+00 0. -1.
          2   -1    0    0  502    0 -0.00000000000E+00 -0.00000000000E+00 -0.31790580660E+03  0.31790580660E+03  0.00000000000E+00 0. -1.
         24    2    1    2    0    0  0.30044302296E+01  0.82883115673E+01 -0.49975555697E+01  0.78580249179E+02  0.77924048211E+02 0.  0.
         23    2    1    2    0    0 -0.62766186809E+02 -0.44155595719E+01 -0.12649107821E+03  0.16863251338E+03  0.92075188455E+02 0.  0.
        -13    1    3    3    0    0  0.23083683893E+01 -0.30375660226E+02 -0.20713684022E+02  0.36838376790E+02  0.00000000000E+00 0.  1.
         14    1    3    3    0    0  0.69606184027E+00  0.38663971794E+02  0.15716128452E+02  0.41741872388E+02  0.00000000000E+00 0. -1.
        -13    1    4    4    0    0  0.17013539789E+01  0.31971648435E+02 -0.64765464712E+02  0.72247119862E+02  0.00000000000E+00 0.  1.
         13    1    4    4    0    0 -0.64467540788E+02 -0.36387208007E+02 -0.61725613501E+02  0.96385393519E+02  0.00000000000E+00 0. -1.
          1    1    1    2  501    0  0.59761756579E+02 -0.38727519954E+01 -0.12158053970E+03  0.13552967716E+03  0.00000000000E+00 0. -1.
<scales pt_clust_5="13000.00000" pt_clust_6="13000.00000" pt_clust_7="13000.00000" pt_clust_8="13000.00000" pt_clust_9="13000.00000"></scales>
<clustering>
<clus scale="   77.924">  5  6 -1 -1</clus>
<clus scale="   78.421">  2  5  1 -1</clus>
<clus scale="   92.075">  7  8 -1 -1</clus>
<clus scale="   61.161">  7  9 -1 -1</clus>
<clus scale="  175.997">  1  5  2 -1</clus>
</clustering>
</event>
<event>
 9    2  0.2147756E-005  0.2429671E+03  0.7546771E-02  0.1146650E+00
         21   -1    0    0  501  502  0.00000000000E+00  0.00000000000E+00  0.87811376860E+02  0.87811376860E+02  0.00000000000E+00 0. -1.
          4   -1    0    0  502    0 -0.00000000000E+00 -0.00000000000E+00 -0.38786513982E+03  0.38786513982E+03  0.00000000000E+00 0. -1.
         24    2    1    2    0    0  0.83637796197E+02  0.28531790312E+02 -0.14143731985E+03  0.18551762457E+03  0.81258412278E+02 0.  0.
         23    2    1    2    0    0 -0.77466966658E+00 -0.26988369305E+02 -0.18150644764E+03  0.20417847461E+03  0.89528133954E+02 0.  0.
        -13    1    3    3    0    0  0.15538873323E+02  0.42181733248E+02 -0.84482159149E+02  0.95697389820E+02  0.00000000000E+00 0.  1.
         14    1    3    3    0    0  0.68098922875E+02 -0.13649942936E+02 -0.56955160706E+02  0.89820234746E+02  0.00000000000E+00 0. -1.
        -11    1    4    4    0    0  0.77813416251E+01  0.23850612902E+02 -0.12579965727E+03  0.12827686768E+03  0.00000000000E+00 0. -1.
         11    1    4    4    0    0 -0.85560112917E+01 -0.50838982207E+02 -0.55706790368E+02  0.75901606928E+02  0.00000000000E+00 0.  1.
          3    1    1    2  501    0 -0.82863126531E+02 -0.15434210071E+01  0.22890004531E+02  0.85980417505E+02  0.00000000000E+00 0. -1.
<scales pt_clust_5="13000.00000" pt_clust_6="13000.00000" pt_clust_7="13000.00000" pt_clust_8="13000.00000" pt_clust_9="13000.00000"></scales>
<clustering>
<clus scale="   81.258">  5  6 -1 -1</clus>
<clus scale="   89.528">  7  8 -1 -1</clus>
<clus scale="   82.878">  7  9 -1 -1</clus>
<clus scale="  120.051">  2  5  1 -1</clus>
<clus scale="  242.967">  1  5  2 -1</clus>
</clustering>
</event>
<event>
 9    2  0.2147756E-005  0.3257733E+03  0.7546771E-02  0.1089901E+00
          2   -1    0    0  502    0 -0.00000000000E+00  0.00000000000E+00  0.96507049867E+03  0.96507049867E+03  0.00000000000E+00 0. -1.
         21   -1    0    0  501  502  0.00000000000E+00 -0.00000000000E+00 -0.14021146127E+03  0.14021146127E+03  0.00000000000E+00 0. -1.
         24    2    1    2    0    0 -0.18606889754E+03  0.35672956570E+02  0.74032076716E+03  0.76871846751E+03  0.83420917881E+02 0.  0.
         23    2    1    2    0    0 -0.26955815346E+01  0.16623304064E+02 -0.45215990784E+02  0.10161010198E+03  0.89423300114E+02 0.  0.
        -11    1    3    3    0    0 -0.48923818682E+02 -0.22594466408E+02  0.13575183173E+03  0.14605687168E+03  0.00000000000E+00 0.  1.
         12    1    3    3    0    0 -0.13714507886E+03  0.58267422978E+02  0.60456893543E+03  0.62266159583E+03  0.00000000000E+00 0. -1.
        -13    1    4    4    0    0  0.28542475645E+02  0.25093739272E+02 -0.55839005462E+02  0.67545267766E+02  0.00000000000E+00 0.  1.
         13    1    4    4    0    0 -0.31238057179E+02 -0.84704352077E+01  0.10623014678E+02  0.34064834211E+02  0.00000000000E+00 0. -1.
          1    1    1    2  501    0  0.18876447907E+03 -0.52296260634E+02  0.12975426102E+03  0.23495339046E+03  0.00000000000E+00 0. -1.
<scales pt_clust_5="13000.00000" pt_clust_6="13000.00000" pt_clust_7="13000.00000" pt_clust_8="13000.00000" pt_clust_9="13000.00000"></scales>
<clustering>
<clus scale="   83.421">  5  6 -1 -1</clus>
<clus scale="   89.423">  7  8 -1 -1</clus>
<clus scale="  195.875">  7  9 -1 -1</clus>
<clus scale="  207.010">  1  5  2 -1</clus>
<clus scale="  325.773">  2  5  1 -1</clus>
</clustering>
</event>
<event>
 9    2  0.2147756E-005  0.3013971E+03  0.7546771E-02  0.1088289E+00
         21   -1    0    0  501  502  0.00000000000E+00  0.00000000000E+00  0.20140122253E+03  0.20140122253E+03  0.00000000000E+00 0. -1.
          2   -1    0    0  502    0 -0.00000000000E+00 -0.00000000000E+00 -0.53400626128E+03  0.53400626128E+03  0.00000000000E+00 0. -1.
         24    2    1    2    0    0 -0.20637778378E+03  0.15922281300E+03 -0.33750013190E+03  0.43397066724E+03  0.80501597356E+02 0.  0.
         23    2    1    2    0    0  0.81855134610E+02 -0.51575759023E+02  0.14027109417E+02  0.13658181329E+03  0.95380867801E+02 0.  0.
        -13    1    3    3    0    0 -0.57162167123E+02  0.86330861828E+02 -0.98270479254E+02  0.14275019491E+03  0.00000000000E+00 0.  1.
         14    1    3    3    0    0 -0.14921561666E+03  0.72891951169E+02 -0.23922965264E+03  0.29122047233E+03  0.00000000000E+00 0. -1.
        -11    1    4    4    0    0  0.28937950888E+02 -0.29779635069E+02 -0.40160873329E+02  0.57767875268E+02  0.00000000000E+00 0.  1.
         11    1    4    4    0    0  0.52917183723E+02 -0.21796123954E+02  0.54187982746E+02  0.78813938023E+02  0.00000000000E+00 0. -1.
          1    1    1    2  501    0  0.12452264917E+03 -0.10764705397E+03 -0.91320162622E+01  0.16485500328E+03  0.00000000000E+00 0. -1.
<scales pt_clust_5="13000.00000" pt_clust_6="13000.00000" pt_clust_7="13000.00000" pt_clust_8="13000.00000" pt_clust_9="13000.00000"></scales>
<clustering>
<clus scale="   80.502">  5  6 -1 -1</clus>
<clus scale="   95.381">  7  8 -1 -1</clus>
<clus scale="  164.602">  7  9 -1 -1</clus>
<clus scale="  272.808">  2  5  1 -1</clus>
<clus scale="  301.397">  1  5  2 -1</clus>
</clustering>
</event>
<event>
 9    2  0.2147756E-005  0.4226077E+03  0.7546771E-02  0.1053718E+00
          2   -1    0    0  502    0 -0.00000000000E+00  0.00000000000E+00  0.12231049907E+04  0.12231049907E+04  0.00000000000E+00 0. -1.
         21   -1    0    0  501  502  0.00000000000E+00 -0.00000000000E+00 -0.95285995189E+02  0.95285995189E+02  0.00000000000E+00 0.  1.
         24    2    1    2    0    0  0.14959973617E+03  0.19016483498E+03  0.50318867094E+03  0.56422899816E+03  0.81318990885E+02 0.  0.
         23    2    1    2    0    0  0.69746082214E+02 -0.16025812967E+03  0.24158751578E+03  0.31174951905E+03  0.90972802213E+02 0.  0.
        -13    1    3    3    0    0  0.14740338004E+03  0.13469304921E+03  0.39893840532E+03  0.44611862233E+03  0.00000000000E+00 0.  1.
         14    1    3    3    0    0  0.21963561313E+01  0.55471785767E+02  0.10425026563E+03  0.11811037584E+03  0.00000000000E+00 0. -1.
        -13    1    4    4    0    0  0.54879937587E+02 -0.31621867032E+02  0.11127619891E+03  0.12803961288E+03  0.00000000000E+00 0. -1.
         13    1    4    4    0    0  0.14866144627E+02 -0.12863626263E+03  0.13031131687E+03  0.18370990617E+03  0.00000000000E+00 0.  1.
          1    1    1    2  501    0 -0.21934581838E+03 -0.29906705311E+02  0.38304280874E+03  0.44241246862E+03  0.00000000000E+00 0. -1.
<scales pt_clust_5="13000.00000" pt_clust_6="13000.00000" pt_clust_7="13000.00000" pt_clust_8="13000.00000" pt_clust_9="13000.00000"></scales>
<clustering>
<clus scale="   81.319">  5  6 -1 -1</clus>
<clus scale="   90.973">  7  8 -1 -1</clus>
<clus scale="  221.375">  7  9 -1 -1</clus>
<clus scale="  255.256">  1  5  2 -1</clus>
<clus scale="  422.608">  2  5  1 -1</clus>
</clustering>
</event>
<event>
 9    2  0.2147756E-005  0.1750143E+03  0.7546771E-02  0.1193731E+00
          2   -1    0    0  502    0 -0.00000000000E+00  0.00000000000E+00  0.16947512145E+03  0.16947512145E+03  0.00000000000E+00 0. -1.
         21   -1    0    0  501  502  0.00000000000E+00 -0.00000000000E+00 -0.22397278832E+03  0.22397278832E+03  0.00000000000E+00 0. -1.
         24    2    1    2    0    0 -0.56590684396E+02 -0.54229092369E+02  0.10864460187E+03  0.15418781606E+03  0.76334350626E+02 0.  0.
         23    2    1    2    0    0  0.11167895816E+02 -0.12344342852E+02 -0.70401269303E+02  0.11639372331E+03  0.91181442241E+02 0.  0.
        -11    1    3    3    0    0 -0.27079805443E+02  0.17009203835E+02  0.26604119308E+02  0.41598173543E+02  0.00000000000E+00 0.  1.
         12    1    3    3    0    0 -0.29510878953E+02 -0.71238296203E+02  0.82040482561E+02  0.11258964251E+03  0.00000000000E+00 0. -1.
        -11    1    4    4    0    0 -0.38222343522E+02 -0.78748647592E+01 -0.48311397487E+02  0.62104365116E+02  0.00000000000E+00 0. -1.
         11    1    4    4    0    0  0.49390239338E+02 -0.44694780925E+01 -0.22089871815E+02  0.54289358194E+02  0.00000000000E+00 0.  1.
          1    1    1    2  501    0  0.45422788580E+02  0.66573435220E+02 -0.92740999441E+02  0.12286637041E+03  0.00000000000E+00 0. -1.
<scales pt_clust_5="13000.00000" pt_clust_6="13000.00000" pt_clust_7="13000.00000" pt_clust_8="13000.00000" pt_clust_9="13000.00000"></scales>
<clustering>
<clus scale="   76.334">  5  6 -1 -1</clus>
<clus scale="   91.181">  7  8 -1 -1</clus>
<clus scale="   80.593">  7  9 -1 -1</clus>
<clus scale="  109.409">  1  5  2 -1</clus>
<clus scale="  175.014">  2  5  1 -1</clus>
</clustering>
</event>
<event>
 9    2  0.2147756E-005  0.4024889E+03  0.7546771E-02  0.1066971E+00
         21   -1    0    0  501  502  0.00000000000E+00  0.00000000000E+00  0.63110008106E+02  0.63110008106E+02  0.00000000000E+00 0.  1.
          2   -1    0    0  502    0 -0.00000000000E+00 -0.00000000000E+00 -0.15793085919E+04  0.15793085919E+04  0.00000000000E+00 0. -1.
         24    2    1    2    0    0 -0.64840672137E+02 -0.17818877058E+03 -0.31216203071E+03  0.37289059620E+03  0.75144611234E+02 0.  0.
         23    2    1    2    0    0 -0.93791080544E+02  0.30188789321E+02 -0.19623938280E+03  0.23864335272E+03  0.93448513336E+02 0.  0.
        -11    1    3    3    0    0 -0.78070311869E+02 -0.12489112344E+03 -0.20432150760E+03  0.25187307275E+03  0.00000000000E+00 0.  1.
         12    1    3    3    0    0  0.13229639732E+02 -0.53297647133E+02 -0.10784052311E+03  0.12101752345E+03  0.00000000000E+00 0. -1.
        -13    1    4    4    0    0 -0.78450280521E+02 -0.86717624408E+01 -0.17455967501E+03  0.19157433575E+03  0.00000000000E+00 0. -1.
         13    1    4    4    0    0 -0.15340800022E+02  0.38860551762E+02 -0.21679707788E+02  0.47069016968E+02  0.00000000000E+00 0.  1.
          1    1    1    2  501    0  0.15863175268E+03  0.14799998125E+03 -0.10077971703E+04  0.10308846511E+04  0.00000000000E+00 0. -1.
<scales pt_clust_5="13000.00000" pt_clust_6="13000.00000" pt_clust_7="13000.00000" pt_clust_8="13000.00000" pt_clust_9="13000.00000"></scales>
<clustering>
<clus scale="   75.145">  5  6 -1 -1</clus>
<clus scale="   93.449">  7  8 -1 -1</clus>
<clus scale="  203.966">  2  5  1 -1</clus>
<clus scale="  105.197">  7  9 -1 -1</clus>
<clus scale="  402.489">  1  5  2 -1</clus>
</clustering>
</event>
<event>
 9    2  0.2147756E-005  0.1608092E+03  0.7546771E-02  0.1213561E+00
          2   -1    0    0  502    0 -0.00000000000E+00  0.00000000000E+00  0.96471386113E+02  0.96471386113E+02  0.00000000000E+00 0. -1.
         21   -1    0    0  501  502  0.00000000000E+00 -0.00000000000E+00 -0.20781698309E+03  0.20781698309E+03  0.00000000000E+00 0. -1.
         24    2    1    2    0    0 -0.37117718583E+02  0.14947221893E+02  0.22982725281E+02  0.94756310690E+02  0.82761151992E+02 0.  0.
         23    2    1    2    0    0  0.28489679878E+01  0.21122471770E+02 -0.12804215120E+03  0.15938341930E+03  0.92487871803E+02 0.  0.
        -13    1    3    3    0    0 -0.29005653744E+02 -0.22852812297E+02  0.38272147464E+02  0.53182104607E+02  0.00000000000E+00 0.  1.
         14    1    3    3    0    0 -0.81120648393E+01  0.37800034190E+02 -0.15289422182E+02  0.41574206082E+02  0.00000000000E+00 0. -1.
        -11    1    4    4    0    0 -0.20261706003E+01  0.44319001497E+02 -0.19811909778E+02  0.48587972072E+02  0.00000000000E+00 0.  1.
         11    1    4    4    0    0  0.48751385881E+01 -0.23196529727E+02 -0.10823024142E+03  0.11079544722E+03  0.00000000000E+00 0. -1.
          1    1    1    2  501    0  0.34268750595E+02 -0.36069693663E+02 -0.62861710561E+01  0.50148639213E+02  0.00000000000E+00 0. -1.
<scales pt_clust_5="13000.00000" pt_clust_6="13000.00000" pt_clust_7="13000.00000" pt_clust_8="13000.00000" pt_clust_9="13000.00000"></scales>
<clustering>
<clus scale="   82.761">  5  6 -1 -1</clus>
<clus scale="   91.927">  1  5  2 -1</clus>
<clus scale="   92.488">  7  8 -1 -1</clus>
<clus scale="   30.123">  7  9 -1 -1</clus>
<clus scale="  160.809">  2  5  1 -1</clus>
</clustering>
</event>
<event>
 9    2  0.2147756E-005  0.3357323E+03  0.7546771E-02  0.1108283E+00
         21   -1    0    0  501  502  0.00000000000E+00  0.00000000000E+00  0.87319571552E+03  0.87319571552E+03  0.00000000000E+00 0.  1.
          2   -1    0    0  502    0 -0.00000000000E+00 -0.00000000000E+00 -0.77712491017E+02  0.77712491017E+02  0.00000000000E+00 0. -1.
         24    2    1    2    0    0 -0.43598494992E+02  0.61360591305E+02  0.46590950149E+03  0.48044567308E+03  0.89946819158E+02 0.  0.
         23    2    1    2    0    0 -0.11495255457E+03  0.23232117444E+02  0.19860949417E+03  0.24809798834E+03  0.91395074043E+02 0.  0.
        -11    1    3    3    0    0 -0.50609677432E+01  0.75870820631E+02  0.29426192775E+03  0.30392774954E+03  0.00000000000E+00 0.  1.
         12    1    3    3    0    0 -0.38537527249E+02 -0.14510229326E+02  0.17164757374E+03  0.17651792354E+03  0.00000000000E+00 0. -1.
        -11    1    4    4    0    0  0.13151460437E+01 -0.23362666652E+02  0.29552015040E+02  0.37694368215E+02  0.00000000000E+00 0. -1.
         11    1    4    4    0    0 -0.11626770061E+03  0.46594784095E+02  0.16905747913E+03  0.21040362012E+03  0.00000000000E+00 0.  1.
          1    1    1    2  501    0  0.15855104956E+03 -0.84592708749E+02  0.13096422885E+03  0.22236454512E+03  0.00000000000E+00 0. -1.
<scales pt_clust_5="13000.00000" pt_clust_6="13000.00000" pt_clust_7="13000.00000" pt_clust_8="13000.00000" pt_clust_9="13000.00000"></scales>
<clustering>
<clus scale="   89.947">  5  6 -1 -1</clus>
<clus scale="   91.395">  7  8 -1 -1</clus>
<clus scale="  117.288">  2  5  1 -1</clus>
<clus scale="  137.751">  7  9 -1 -1</clus>
<clus scale="  335.732">  1  5  2 -1</clus>
</clustering>
</event>
<event>
 9    2  0.2147756E-005  0.3390638E+03  0.7546771E-02  0.1115540E+00
         21   -1    0    0  501  502  0.00000000000E+00  0.00000000000E+00  0.79591902633E+02  0.79591902633E+02  0.00000000000E+00 0. -1.
          2   -1    0    0  502    0 -0.00000000000E+00 -0.00000000000E+00 -0.69260900522E+03  0.69260900522E+03  0.00000000000E+00 0. -1.
         24    2    1    2    0    0  0.25340070321E+02 -0.40931360543E+02 -0.32894037032E+02  0.10025818304E+03  0.81560959748E+02 0.  0.
         23    2    1    2    0    0  0.68600348876E+02 -0.11076150201E+03 -0.30152821135E+03  0.34110950444E+03  0.91990834258E+02 0.  0.
        -13    1    3    3    0    0 -0.17771227755E+02 -0.46968453751E+02 -0.24692218119E+02  0.55960323617E+02  0.00000000000E+00 0.  1.
         14    1    3    3    0    0  0.43111298077E+02  0.60370932077E+01 -0.82018189135E+01  0.44297859426E+02  0.00000000000E+00 0. -1.
        -11    1    4    4    0    0  0.83660085678E+02 -0.80532163004E+02 -0.17403616971E+03  0.20922004584E+03  0.00000000000E+00 0. -1.
         11    1    4    4    0    0 -0.15059736802E+02 -0.30229339007E+02 -0.12749204163E+03  0.13188945860E+03  0.00000000000E+00 0.  1.
          1    1    1    2  501    0 -0.93940419197E+02  0.15169286255E+03 -0.27859485421E+03  0.33083322037E+03  0.00000000000E+00 0. -1.
<scales pt_clust_5="13000.00000" pt_clust_6="13000.00000" pt_clust_7="13000.00000" pt_clust_8="13000.00000" pt_clust_9="13000.00000"></scales>
<clustering>
<clus scale="   81.561">  5  6 -1 -1</clus>
<clus scale="   91.991">  7  8 -1 -1</clus>
<clus scale="   94.708">  2  5  1 -1</clus>
<clus scale="  154.993">  7  9 -1 -1</clus>
<clus scale="  339.064">  1  5  2 -1</clus>
</clustering>
</event>
<event>
 9    2  0.2147756E-005  0.2315943E+03  0.7546771E-02  0.1159640E+00
         21   -1    0    0  501  502  0.00000000000E+00  0.00000000000E+00  0.73582944992E+02  0.73582944992E+02  0.00000000000E+00 0. -1.
          2   -1    0    0  502    0 -0.00000000000E+00 -0.00000000000E+00 -0.39917675268E+03  0.39917675268E+03  0.00000000000E+00 0. -1.
         24    2    1    2    0    0 -0.46447310406E+02  0.39639945609E+02 -0.52804004766E+02  0.11491870704E+03  0.81788558959E+02 0.  0.
         23    2    1    2    0    0 -0.18877009546E+02  0.44674425412E+02 -0.59912370558E+02  0.11973811130E+03  0.91627383329E+02 0.  0.
        -11    1    3    3    0    0 -0.20409248550E+02 -0.53329918380E+01  0.17558732075E+02  0.27446079873E+02  0.00000000000E+00 0.  1.
         12    1    3    3    0    0 -0.26038061856E+02  0.44972937447E+02 -0.70362736840E+02  0.87472627167E+02  0.00000000000E+00 0. -1.
        -13    1    4    4    0    0 -0.48651816581E+02  0.76919165661E+01 -0.51963050763E+02  0.71598348317E+02  0.00000000000E+00 0.  1.
         13    1    4    4    0    0  0.29774807036E+02  0.36982508846E+02 -0.79493197947E+01  0.48139762980E+02  0.00000000000E+00 0. -1.
          1    1    1    2  501    0  0.65324319952E+02 -0.84314371020E+02 -0.21287743236E+03  0.23810287933E+03  0.00000000000E+00 0. -1.
<scales pt_clust_5="13000.00000" pt_clust_6="13000.00000" pt_clust_7="13000.00000" pt_clust_8="13000.00000" pt_clust_9="13000.00000"></scales>
<clustering>
<clus scale="   81.789">  5  6 -1 -1</clus>
<clus scale="   91.627">  7  8 -1 -1</clus>
<clus scale="  102.069">  2  5  1 -1</clus>
<clus scale="   64.523">  7  9 -1 -1</clus>
<clus scale="  231.594">  1  5  2 -1</clus>
</clustering>
</event>
<event>
 9    2  0.2147756E-005  0.1843855E+03  0.7546771E-02  0.1192348E+00
          2   -1    0    0  502    0 -0.00000000000E+00  0.00000000000E+00  0.19611088564E+03  0.19611088564E+03  0.00000000000E+00 0. -1.
         21   -1    0    0  501  502  0.00000000000E+00 -0.00000000000E+00 -0.10180343898E+03  0.10180343898E+03  0.00000000000E+00 0. -1.
         24    2    1    2    0    0  0.48134184375E+02 -0.21461117744E+02  0.48343108008E+02  0.10788610273E+03  0.80776703269E+02 0.  0.
         23    2    1    2    0    0  0.14890744931E+02  0.11558244089E+02  0.75542418352E+02  0.11970702011E+03  0.90927368830E+02 0.  0.
        -11    1    3    3    0    0  0.29931853340E+02 -0.51369176792E+02  0.40699780251E+02  0.72049845810E+02  0.00000000000E+00 0.  1.
         12    1    3    3    0    0  0.18202331034E+02  0.29908059049E+02  0.76433277575E+01  0.35836256924E+02  0.00000000000E+00 0. -1.
        -11    1    4    4    0    0 -0.36027979314E+02  0.55784282849E+01  0.12703743148E+02  0.38607243433E+02  0.00000000000E+00 0.  1.
         11    1    4    4    0    0  0.50918724244E+02  0.59798158043E+01  0.62838675204E+02  0.81099776678E+02  0.00000000000E+00 0. -1.
          1    1    1    2  501    0 -0.63024929305E+02  0.99028736544E+01 -0.29578079704E+02  0.70321201778E+02  0.00000000000E+00 0. -1.
<scales pt_clust_5="13000.00000" pt_clust_6="13000.00000" pt_clust_7="13000.00000" pt_clust_8="13000.00000" pt_clust_9="13000.00000"></scales>
<clustering>
<clus scale="   80.777">  5  6 -1 -1</clus>
<clus scale="   90.927">  7  8 -1 -1</clus>
<clus scale="   63.798">  7  9 -1 -1</clus>
<clus scale="   96.449">  1  5  2 -1</clus>
<clus scale="  184.385">  2  5  1 -1</clus>
</clustering>
</event>
<event>
 9    2  0.2147756E-005  0.2602387E+03  0.7546771E-02  0.1152718E+00
         21   -1    0    0  501  502  0.00000000000E+00  0.00000000000E+00  0.90775453157E+02  0.90775453157E+02  0.00000000000E+00 0. -1.
          2   -1    0    0  502    0 -0.00000000000E+00 -0.00000000000E+00 -0.33034958002E+03  0.33034958002E+03  0.00000000000E+00 0. -1.
         24    2    1    2    0    0 -0.23610004601E+02  0.61390227699E+01 -0.76123488219E+02  0.11381367579E+03  0.81016340448E+02 0.  0.
         23    2    1    2    0    0 -0.10036512728E+03  0.66112821124E+01 -0.73458399064E+02  0.15358755707E+03  0.89867310339E+02 0.  0.
        -11    1    3    3    0    0 -0.21697732598E+02  0.14382333723E+02  0.95464304011E+01  0.27726836397E+02  0.00000000000E+00 0.  1.
         12    1    3    3    0    0 -0.19122720036E+01 -0.82433109529E+01 -0.85669918620E+02  0.86086839389E+02  0.00000000000E+00 0. -1.
        -11    1    4    4    0    0 -0.25663128468E+01  0.24954290722E+02  0.65269185745E+01  0.25921096681E+02  0.00000000000E+00 0. -1.
         11    1    4    4    0    0 -0.97798814438E+02 -0.18343008610E+02 -0.79985317638E+02  0.12766646039E+03  0.00000000000E+00 0.  1.
          1    1    1    2  501    0  0.12397513189E+03 -0.12750304882E+02 -0.89992239581E+02  0.15372380032E+03  0.00000000000E+00 0. -1.
<scales pt_clust_5="13000.00000" pt_clust_6="13000.00000" pt_clust_7="13000.00000" pt_clust_8="13000.00000" pt_clust_9="13000.00000"></scales>
<clustering>
<clus scale="   81.016">  5  6 -1 -1</clus>
<clus scale="   84.609">  2  5  1 -1</clus>
<clus scale="   89.867">  7  8 -1 -1</clus>
<clus scale="  112.161">  7  9 -1 -1</clus>
<clus scale="  260.239">  1  5  2 -1</clus>
</clustering>
</event>
<event>
 9    2  0.2147756E-005  0.3063409E+03  0.7546771E-02  0.1104036E+00
          4   -1    0    0  502    0 -0.00000000000E+00  0.00000000000E+00  0.19789295621E+03  0.19789295621E+03  0.00000000000E+00 0. -1.
         21   -1    0    0  501  502  0.00000000000E+00 -0.00000000000E+00 -0.29032383991E+03  0.29032383991E+03  0.00000000000E+00 0. -1.
         24    2    1    2    0    0  0.14552917632E+03 -0.40931358417E+02 -0.19067664494E+02  0.17321379879E+03  0.82373096336E+02 0.  0.
         23    2    1    2    0    0 -0.23566446898E+00  0.17933039894E+02  0.64926805044E+02  0.11310386894E+03  0.90858932956E+02 0.  0.
        -13    1    3    3    0    0  0.74946050198E+02 -0.37920098368E+01  0.28588339730E+02  0.80303069352E+02  0.00000000000E+00 0.  1.
         14    1    3    3    0    0  0.70583126118E+02 -0.37139348581E+02 -0.47656004224E+02  0.92910729435E+02  0.00000000000E+00 0. -1.
        -11    1    4    4    0    0 -0.21736058213E+02 -0.31722322291E+02  0.25200660504E+02  0.45976464066E+02  0.00000000000E+00 0.  1.
         11    1    4    4    0    0  0.21500393744E+02  0.49655362185E+02  0.39726144539E+02  0.67127404872E+02  0.00000000000E+00 0. -1.
          3    1    1    2  501    0 -0.14529351185E+03  0.22998318523E+02 -0.13829002426E+03  0.20189912840E+03  0.00000000000E+00 0. -1.
<scales pt_clust_5="13000.00000" pt_clust_6="13000.00000" pt_clust_7="13000.00000" pt_clust_8="13000.00000" pt_clust_9="13000.00000"></scales>
<clustering>
<clus scale="   82.373">  5  6 -1 -1</clus>
<clus scale="   90.859">  7  8 -1 -1</clus>
<clus scale="  147.103">  7  9 -1 -1</clus>
<clus scale="  172.161">  1  5  2 -1</clus>
<clus scale="  306.341">  2  5  1 -1</clus>
</clustering>
</event>
<event>
 9    2  0.2147756E-005  0.3374436E+03  0.7546771E-02  0.1085880E+00
          2   -1    0    0  502    0 -0.00000000000E+00  0.00000000000E+00  0.19711311626E+04  0.19711311626E+04  0.00000000000E+00 0. -1.
         21   -1    0    0  501  502  0.00000000000E+00 -0.00000000000E+00 -0.39064794976E+02  0.39064794976E+02  0.00000000000E+00 0.  1.
         24    2    1    2    0    0 -0.25638993986E+02  0.18865489308E+03  0.93094579400E+03  0.95373460430E+03  0.81863284723E+02 0.  0.
         23    2    1    2    0    0 -0.37968499096E+02 -0.10850653682E+03  0.19426621845E+03  0.24314491875E+03  0.90359351645E+02 0.  0.
        -11    1    3    3    0    0  0.27871240632E+02  0.93167117542E+02  0.40385897739E+03  0.41540220445E+03  0.00000000000E+00 0.  1.
         12    1    3    3    0    0 -0.53510234619E+02  0.95487775533E+02  0.52708681661E+03  0.53833239985E+03  0.00000000000E+00 0. -1.
        -13    1    4    4    0    0 -0.12437023404E+02 -0.10724477749E+03  0.10619180724E+03  0.15143586687E+03  0.00000000000E+00 0.  1.
         13    1    4    4    0    0 -0.25531475692E+02 -0.12617593320E+01  0.88074411210E+02  0.91709051884E+02  0.00000000000E+00 0. -1.
          1    1    1    2  501    0  0.63607493082E+02 -0.80148356250E+02  0.80685435516E+03  0.81331643450E+03  0.00000000000E+00 0. -1.
<scales pt_clust_5="13000.00000" pt_clust_6="13000.00000" pt_clust_7="13000.00000" pt_clust_8="13000.00000" pt_clust_9="13000.00000"></scales>
<clustering>
<clus scale="   81.863">  5  6 -1 -1</clus>
<clus scale="   90.359">  7  8 -1 -1</clus>
<clus scale="  102.321">  7  9 -1 -1</clus>
<clus scale="  207.243">  1  5  2 -1</clus>
<clus scale="  337.444">  2  5  1 -1</clus>
</clustering>
</event>
<event>
 9    2  0.2147756E-005  0.3064629E+03  0.7546771E-02  0.1130018E+00
         21   -1    0    0  501  502  0.00000000000E+00  0.00000000000E+00  0.59237430799E+03  0.59237430799E+03  0.00000000000E+00 0.  1.
         -1   -1    0    0    0  501 -0.00000000000E+00 -0.00000000000E+00 -0.16546546842E+03  0.16546546842E+03  0.00000000000E+00 0.  1.
         24    2    1    2    0    0 -0.26834077215E+02  0.29365887774E+02 -0.10868320438E+03  0.14076738897E+03  0.80131116408E+02 0.  0.
         23    2    1    2    0    0 -0.51969199769E+02 -0.42908556006E+02  0.47914513388E+02  0.12288342141E+03  0.90898805054E+02 0.  0.
        -11    1    3    3    0    0 -0.47396996871E+02  0.37464261492E+02 -0.10038015524E+03  0.11715895940E+03  0.00000000000E+00 0.  1.
         12    1    3    3    0    0  0.20562919656E+02 -0.80983737181E+01 -0.83030491481E+01  0.23608429571E+02  0.00000000000E+00 0. -1.
        -13    1    4    4    0    0  0.19888004093E+02 -0.37677877962E+01  0.34450895095E+02  0.39957391112E+02  0.00000000000E+00 0. -1.
         13    1    4    4    0    0 -0.71857203862E+02 -0.39140768210E+02  0.13463618293E+02  0.82926030295E+02  0.00000000000E+00 0.  1.
         -2    1    1    2    0  502  0.78803276984E+02  0.13542668233E+02  0.48767753057E+03  0.49418896603E+03  0.00000000000E+00 0.  1.
<scales pt_clust_5="13000.00000" pt_clust_6="13000.00000" pt_clust_7="13000.00000" pt_clust_8="13000.00000" pt_clust_9="13000.00000"></scales>
<clustering>
<clus scale="   80.131">  5  6 -1 -1</clus>
<clus scale="   89.462">  2  5  1 -1</clus>
<clus scale="   90.899">  7  8 -1 -1</clus>
<clus scale="   78.288">  7  9 -1 -1</clus>
<clus scale="  306.463">  1  5  2 -1</clus>
</clustering>
</event>
<event>
 9    2  0.2147756E-005  0.5439001E+03  0.7546771E-02  0.1054277E+00
         21   -1    0    0  501  502  0.00000000000E+00  0.00000000000E+00  0.79511252138E+02  0.79511252138E+02  0.00000000000E+00 0. -1.
          2   -1    0    0  502    0 -0.00000000000E+00 -0.00000000000E+00 -0.13796968674E+04  0.13796968674E+04  0.00000000000E+00 0. -1.
         24    2    1    2    0    0 -0.76394162728E+02  0.36175078284E+02 -0.25744543180E+03  0.28314074980E+03  0.82132998567E+02 0.  0.
         23    2    1    2    0    0 -0.13761609740E+03  0.12041996590E+03 -0.76605489193E+03  0.79282182202E+03  0.91033980248E+02 0.  0.
        -11    1    3    3    0    0 -0.34700494534E+02  0.50798391085E+02 -0.83767381480E+02  0.10393062618E+03  0.00000000000E+00 0.  1.
         12    1    3    3    0    0 -0.41693668194E+02 -0.14623312801E+02 -0.17367805032E+03  0.17921012362E+03  0.00000000000E+00 0. -1.
        -11    1    4    4    0    0 -0.52619656187E+02 -0.25749339462E+01 -0.25302365245E+03  0.25845004778E+03  0.00000000000E+00 0.  1.
         11    1    4    4    0    0 -0.84996441213E+02  0.12299489985E+03 -0.51303123949E+03  0.53437177423E+03  0.00000000000E+00 0. -1.
          1    1    1    2  501    0  0.21401026013E+03 -0.15659504419E+03 -0.27668529154E+03  0.38324554774E+03  0.00000000000E+00 0. -1.
<scales pt_clust_5="13000.00000" pt_clust_6="13000.00000" pt_clust_7="13000.00000" pt_clust_8="13000.00000" pt_clust_9="13000.00000"></scales>
<clustering>
<clus scale="   82.133">  5  6 -1 -1</clus>
<clus scale="   91.034">  7  8 -1 -1</clus>
<clus scale="  117.858">  2  5  1 -1</clus>
<clus scale="  240.540">  7  9 -1 -1</clus>
<clus scale="  543.900">  1  5  2 -1</clus>
</clustering>
</event>
<event>
 9    2  0.2147756E-005  0.1615384E+03  0.7546771E-02  0.1198598E+00
         -1   -1    0    0    0  501 -0.00000000000E+00  0.00000000000E+00  0.26763311301E+03  0.26763311301E+03  0.00000000000E+00 0.  1.
         21   -1    0    0  501  502  0.00000000000E+00 -0.00000000000E+00 -0.10566402802E+03  0.10566402802E+03  0.00000000000E+00 0. -1.
         24    2    1    2    0    0  0.52055536790E+02  0.59115804208E+02 -0.23563628821E+02  0.12729505135E+03  0.97181933910E+02 0.  0.
         23    2    1    2    0    0 -0.20632574491E+02 -0.80155817018E+02  0.13089710471E+03  0.17955561136E+03  0.90859822903E+02 0.  0.
        -11    1    3    3    0    0 -0.22524441257E+02  0.79353166237E+01 -0.27917118431E+02  0.36738062079E+02  0.00000000000E+00 0.  1.
         12    1    3    3    0    0  0.74579978047E+02  0.51180487584E+02  0.43534896098E+01  0.90556989275E+02  0.00000000000E+00 0. -1.
        -13    1    4    4    0    0 -0.35867145658E+02  0.50677349263E+01  0.35208009487E+02  0.50514730594E+02  0.00000000000E+00 0. -1.
         13    1    4    4    0    0  0.15234571167E+02 -0.85223551944E+02  0.95689095223E+02  0.12904088077E+03  0.00000000000E+00 0.  1.
         -2    1    1    2    0  502 -0.31422962299E+02  0.21040012810E+02  0.54635609103E+02  0.66446478317E+02  0.00000000000E+00 0.  1.
<scales pt_clust_5="13000.00000" pt_clust_6="13000.00000" pt_clust_7="13000.00000" pt_clust_8="13000.00000" pt_clust_9="13000.00000"></scales>
<clustering>
<clus scale="   90.860">  7  8 -1 -1</clus>
<clus scale="   37.816">  7  9 -1 -1</clus>
<clus scale="   97.182">  5  6 -1 -1</clus>
<clus scale="  125.095">  1  5  2 -1</clus>
<clus scale="  161.538">  2  5  1 -1</clus>
</clustering>
</event>
<event>
 9    2  0.2147756E-005  0.4504145E+03  0.7546771E-02  0.1056223E+00
         21   -1    0    0  501  502  0.00000000000E+00  0.00000000000E+00  0.19538379414E+03  0.19538379414E+03  0.00000000000E+00 0. -1.
          2   -1    0    0  502    0 -0.00000000000E+00 -0.00000000000E+00 -0.56236742058E+03  0.56236742058E+03  0.00000000000E+00 0. -1.
         24    2    1    2    0    0 -0.14842589646E+03  0.10084806067E+03 -0.19157964876E+03  0.27438818750E+03  0.79909558497E+02 0.  0.
         23    2    1    2    0    0 -0.24243058174E+02 -0.75097499173E+02 -0.26421280650E+03  0.28749402153E+03  0.81345221416E+02 0.  0.
        -11    1    3    3    0    0 -0.13107796880E+03  0.73598188429E+02 -0.10891405396E+03  0.18563512167E+03  0.00000000000E+00 0.  1.
         12    1    3    3    0    0 -0.17347927653E+02  0.27249872244E+02 -0.82665594797E+02  0.88753065831E+02  0.00000000000E+00 0. -1.
        -13    1    4    4    0    0 -0.36908855692E+02 -0.23194316817E+02 -0.19631650755E+03  0.20109801366E+03  0.00000000000E+00 0.  1.
         13    1    4    4    0    0  0.12665797518E+02 -0.51903182356E+02 -0.67896298948E+02  0.86396007872E+02  0.00000000000E+00 0. -1.
          1    1    1    2  501    0  0.17266895463E+03 -0.25750561499E+02  0.88808828817E+02  0.19586900568E+03  0.00000000000E+00 0. -1.
<scales pt_clust_5="13000.00000" pt_clust_6="13000.00000" pt_clust_7="13000.00000" pt_clust_8="13000.00000" pt_clust_9="13000.00000"></scales>
<clustering>
<clus scale="   79.910">  5  6 -1 -1</clus>
<clus scale="   81.345">  7  8 -1 -1</clus>
<clus scale="  174.579">  7  9 -1 -1</clus>
<clus scale="  196.433">  2  5  1 -1</clus>
<clus scale="  450.415">  1  5  2 -1</clus>
</clustering>
</event>
<event>
 9    2  0.2147756E-005  0.2016253E+03  0.7546771E-02  0.1177988E+00
         -3   -1    0    0    0  501 -0.00000000000E+00  0.00000000000E+00  0.19163406553E+03  0.19163406553E+03  0.00000000000E+00 0.  1.
         21   -1    0    0  501  502  0.00000000000E+00 -0.00000000000E+00 -0.13679199013E+03  0.13679199013E+03  0.00000000000E+00 0.  1.
         24    2    1    2    0    0  0.27078839835E+02 -0.52482050144E+02 -0.35346036537E+02  0.10754899694E+03  0.82642696537E+02 0.  0.
         23    2    1    2    0    0 -0.15270204841E+02 -0.28396284413E+02  0.99398980373E+02  0.13862385843E+03  0.91087258725E+02 0.  0.
        -13    1    3    3    0    0  0.52553800587E+02 -0.13216621987E+02 -0.13231436763E+02  0.55782183282E+02  0.00000000000E+00 0.  1.
         14    1    3    3    0    0 -0.25474960752E+02 -0.39265428157E+02 -0.22114599774E+02  0.51766813663E+02  0.00000000000E+00 0. -1.
        -11    1    4    4    0    0  0.35698647130E+02 -0.28460902191E+02  0.47254006326E+02  0.65706601451E+02  0.00000000000E+00 0. -1.
         11    1    4    4    0    0 -0.50968851971E+02  0.64617777466E-01  0.52144974048E+02  0.72917256977E+02  0.00000000000E+00 0.  1.
         -4    1    1    2    0  502 -0.11808634994E+02  0.80878334558E+02 -0.92108684383E+01  0.82253200294E+02  0.00000000000E+00 0.  1.
<scales pt_clust_5="13000.00000" pt_clust_6="13000.00000" pt_clust_7="13000.00000" pt_clust_8="13000.00000" pt_clust_9="13000.00000"></scales>
<clustering>
<clus scale="   82.643">  5  6 -1 -1</clus>
<clus scale="   91.087">  7  8 -1 -1</clus>
<clus scale="   81.736">  7  9 -1 -1</clus>
<clus scale="  101.575">  1  5  2 -1</clus>
<clus scale="  201.625">  2  5  1 -1</clus>
</clustering>
</event>
<event>
 9    2  0.2147756E-005  0.1556026E+03  0.7546771E-02  0.1217740E+00
         -3   -1    0    0    0  501 -0.00000000000E+00  0.00000000000E+00  0.11950934119E+03  0.11950934119E+03  0.00000000000E+00 0.  1.
         21   -1    0    0  501  502  0.00000000000E+00 -0.00000000000E+00 -0.17566086090E+03  0.17566086090E+03  0.00000000000E+00 0.  1.
         24    2    1    2    0    0  0.39991759084E+02  0.16481272759E+02  0.51265494588E+02  0.10609197890E+03  0.82197225658E+02 0.  0.
         23    2    1    2    0    0 -0.20227605608E+01  0.22700427197E+02 -0.42957779789E+02  0.10462798119E+03  0.92640394258E+02 0.  0.
        -11    1    3    3    0    0  0.42303332430E+02  0.18968875215E+02  0.71696768794E+02  0.85380424086E+02  0.00000000000E+00 0.  1.
         12    1    3    3    0    0 -0.23115733460E+01 -0.24876024554E+01 -0.20431274206E+02  0.20711554818E+02  0.00000000000E+00 0. -1.
        -13    1    4    4    0    0 -0.37593932174E+02  0.19967891429E+02  0.71021792773E+01  0.43156243754E+02  0.00000000000E+00 0.  1.
         13    1    4    4    0    0  0.35571171613E+02  0.27325357683E+01 -0.50059959067E+02  0.61471737436E+02  0.00000000000E+00 0. -1.
         -4    1    1    2    0  502 -0.37968998523E+02 -0.39181699957E+02 -0.64459234503E+02  0.84450241995E+02  0.00000000000E+00 0.  1.
<scales pt_clust_5="13000.00000" pt_clust_6="13000.00000" pt_clust_7="13000.00000" pt_clust_8="13000.00000" pt_clust_9="13000.00000"></scales>
<clustering>
<clus scale="   82.197">  5  6 -1 -1</clus>
<clus scale="   92.640">  7  8 -1 -1</clus>
<clus scale="   54.561">  7  9 -1 -1</clus>
<clus scale="   92.884">  1  5  2 -1</clus>
<clus scale="  155.603">  2  5  1 -1</clus>
</clustering>
</event>
<event>
 9    2  0.2147756E-005  0.2275249E+03  0.7546771E-02  0.1141870E+00
         21   -1    0    0  501  502  0.00000000000E+00  0.00000000000E+00  0.92976057416E+02  0.92976057416E+02  0.00000000000E+00 0. -1.
          2   -1    0    0  502    0 -0.00000000000E+00 -0.00000000000E+00 -0.54231515787E+03  0.54231515787E+03  0.00000000000E+00 0. -1.
         24    2    1    2    0    0 -0.95118749795E+02  0.10588706203E+03 -0.35107121738E+03  0.38745223880E+03  0.81293242088E+02 0.  0.
         23    2    1    2    0    0  0.39194328539E+01 -0.46330283833E+02 -0.94768853957E+02  0.13885930662E+03  0.90215930969E+02 0.  0.
        -13    1    3    3    0    0 -0.10824133956E+03  0.85036648283E+02 -0.31509423645E+03  0.34384850877E+03  0.00000000000E+00 0.  1.
         14    1    3    3    0    0  0.13122589761E+02  0.20850413749E+02 -0.35976980933E+02  0.43603730031E+02  0.00000000000E+00 0. -1.
        -11    1    4    4    0    0 -0.26268194758E+02 -0.56001484102E+02 -0.86064108643E+02  0.10598686274E+03  0.00000000000E+00 0.  1.
         11    1    4    4    0    0  0.30187627612E+02  0.96712002692E+01 -0.87047453140E+01  0.32872443877E+02  0.00000000000E+00 0. -1.
          1    1    1    2  501    0  0.91199316941E+02 -0.59556778199E+02 -0.34990291178E+01  0.10897966987E+03  0.00000000000E+00 0. -1.
<scales pt_clust_5="13000.00000" pt_clust_6="13000.00000" pt_clust_7="13000.00000" pt_clust_8="13000.00000" pt_clust_9="13000.00000"></scales>
<clustering>
<clus scale="   81.293">  5  6 -1 -1</clus>
<clus scale="   90.216">  7  8 -1 -1</clus>
<clus scale="  108.924">  7  9 -1 -1</clus>
<clus scale="  163.915">  2  5  1 -1</clus>
<clus scale="  227.525">  1  5  2 -1</clus>
</clustering>
</event>
<event>
 9    2  0.2147756E-005  0.1589688E+03  0.7546771E-02  0.1217024E+00
          2   -1    0    0  502    0 -0.00000000000E+00  0.00000000000E+00  0.34491486776E+03  0.34491486776E+03  0.00000000000E+00 0. -1.
         21   -1    0    0  501  502  0.00000000000E+00 -0.00000000000E+00 -0.58692211133E+02  0.58692211133E+02  0.00000000000E+00 0.  1.
         24    2    1    2    0    0  0.35518258674E+02  0.85677311649E+01  0.20886687024E+03  0.22681628349E+03  0.80531386799E+02 0.  0.
         23    2    1    2    0    0 -0.20435069370E+02 -0.54563416373E+02  0.34337759861E+02  0.11203234989E+03  0.89316332236E+02 0.  0.
        -11    1    3    3    0    0 -0.11987340428E+02 -0.26604997791E+02  0.75194191905E+02  0.80657849799E+02  0.00000000000E+00 0.  1.
         12    1    3    3    0    0  0.47505599101E+02  0.35172728956E+02  0.13367267833E+03  0.14615843370E+03  0.00000000000E+00 0. -1.
        -11    1    4    4    0    0 -0.40807062625E+02 -0.51508432691E+02  0.52855521028E+02  0.84332918256E+02  0.00000000000E+00 0. -1.
         11    1    4    4    0    0  0.20371993255E+02 -0.30549836821E+01 -0.18517761167E+02  0.27699431639E+02  0.00000000000E+00 0.  1.
          1    1    1    2  501    0 -0.15083189303E+02  0.45995685209E+02  0.43018026527E+02  0.64758445500E+02  0.00000000000E+00 0. -1.
<scales pt_clust_5="13000.00000" pt_clust_6="13000.00000" pt_clust_7="13000.00000" pt_clust_8="13000.00000" pt_clust_9="13000.00000"></scales>
<clustering>
<clus scale="   80.531">  5  6 -1 -1</clus>
<clus scale="   88.432">  1  5  2 -1</clus>
<clus scale="   89.316">  7  8 -1 -1</clus>
<clus scale="   49.629">  7  9 -1 -1</clus>
<clus scale="  158.969">  2  5  1 -1</clus>
</clustering>
</event>
<event>
 9    2  0.2147756E-005  0.2469530E+03  0.7546771E-02  0.1154717E+00
         -1   -1    0    0    0  501 -0.00000000000E+00  0.00000000000E+00  0.65788021572E+02  0.65788021572E+02  0.00000000000E+00 0.  1.
         21   -1    0    0  501  502  0.00000000000E+00 -0.00000000000E+00 -0.46904701628E+03  0.46904701628E+03  0.00000000000E+00 0.  1.
         24    2    1    2    0    0 -0.29845516952E+02  0.32999978916E+02 -0.17340441790E+03  0.19746448869E+03  0.83326938367E+02 0.  0.
         23    2    1    2    0    0 -0.72142229714E+02  0.31581724072E+02 -0.78531468034E+02  0.14379632546E+03  0.91149795068E+02 0.  0.
        -13    1    3    3    0    0 -0.44217566934E+02  0.44884065350E+02 -0.16572187516E+03  0.17729498711E+03  0.00000000000E+00 0.  1.
         14    1    3    3    0    0  0.14372049983E+02 -0.11884086434E+02 -0.76825427343E+01  0.20169501579E+02  0.00000000000E+00 0. -1.
        -13    1    4    4    0    0 -0.77173809256E+02  0.55088419352E+02 -0.71483731689E+02  0.11874533539E+03  0.00000000000E+00 0.  1.
         13    1    4    4    0    0  0.50315795416E+01 -0.23506695281E+02 -0.70477363452E+01  0.25050990066E+02  0.00000000000E+00 0. -1.
         -2    1    1    2    0  502  0.10198774667E+03 -0.64581702987E+02 -0.15132310878E+03  0.19357422370E+03  0.00000000000E+00 0.  1.
<scales pt_clust_5="13000.00000" pt_clust_6="13000.00000" pt_clust_7="13000.00000" pt_clust_8="13000.00000" pt_clust_9="13000.00000"></scales>
<clustering>
<clus scale="   83.327">  5  6 -1 -1</clus>
<clus scale="   91.150">  7  8 -1 -1</clus>
<clus scale="   94.462">  1  5  2 -1</clus>
<clus scale="  103.974">  7  9 -1 -1</clus>
<clus scale="  246.953">  2  5  1 -1</clus>
</clustering>
</event>
<event>
 9    2  0.2147756E-005  0.5510916E+03  0.7546771E-02  0.1006687E+00
         21   -1    0    0  501  502  0.00000000000E+00  0.00000000000E+00  0.20727957970E+03  0.20727957970E+03  0.00000000000E+00 0. -1.
          2   -1    0    0  502    0 -0.00000000000E+00 -0.00000000000E+00 -0.14692000303E+04  0.14692000303E+04  0.00000000000E+00 0. -1.
         24    2    1    2    0    0 -0.44890317601E+03  0.89812298794E+02 -0.25897174612E+03  0.53209851513E+03  0.80511825599E+02 0.  0.
         23    2    1    2    0    0  0.34827331385E+02 -0.68677306505E+02 -0.11994199791E+03  0.16887797502E+03  0.90576885271E+02 0.  0.
        -11    1    3    3    0    0 -0.14968213563E+03  0.62032568070E+02 -0.11627969557E+03  0.19943356997E+03  0.00000000000E+00 0.  1.
         12    1    3    3    0    0 -0.29922104038E+03  0.27779730725E+02 -0.14269205055E+03  0.33266494516E+03  0.00000000000E+00 0. -1.
        -13    1    4    4    0    0 -0.35087739499E+00 -0.61386769744E+02 -0.11786379282E+03  0.13289218289E+03  0.00000000000E+00 0. -1.
         13    1    4    4    0    0  0.35178208780E+02 -0.72905367615E+01 -0.20782050887E+01  0.35985792136E+02  0.00000000000E+00 0.  1.
          1    1    1    2  501    0  0.41407584463E+03 -0.21134992289E+02 -0.88300670657E+03  0.97550311985E+03  0.00000000000E+00 0. -1.
<scales pt_clust_5="13000.00000" pt_clust_6="13000.00000" pt_clust_7="13000.00000" pt_clust_8="13000.00000" pt_clust_9="13000.00000"></scales>
<clustering>
<clus scale="   80.512">  5  6 -1 -1</clus>
<clus scale="   90.577">  7  8 -1 -1</clus>
<clus scale="  414.615">  7  9 -1 -1</clus>
<clus scale="  464.825">  2  5  1 -1</clus>
<clus scale="  551.092">  1  5  2 -1</clus>
</clustering>
</event>
<event>
 9    2  0.2147756E-005  0.2594163E+03  0.7546771E-02  0.1134148E+00
         -1   -1    0    0    0  501 -0.00000000000E+00  0.00000000000E+00  0.17121061485E+03  0.17121061485E+03  0.00000000000E+00 0.  1.
         21   -1    0    0  501  502  0.00000000000E+00 -0.00000000000E+00 -0.26460836589E+03  0.26460836589E+03  0.00000000000E+00 0. -1.
         24    2    1    2    0    0  0.91228787351E+02 -0.55468420671E+02 -0.11423613434E+03  0.17556703078E+03  0.79840156407E+02 0.  0.
         23    2    1    2    0    0  0.30367027951E+02 -0.26152985317E+02 -0.29961232940E+02  0.10524163667E+03  0.92585050534E+02 0.  0.
        -11    1    3    3    0    0  0.20053102682E+02 -0.42922874853E+02 -0.95064576497E+01  0.48320522036E+02  0.00000000000E+00 0.  1.
         12    1    3    3    0    0  0.71175684670E+02 -0.12545545818E+02 -0.10472967669E+03  0.12724650875E+03  0.00000000000E+00 0. -1.
        -13    1    4    4    0    0  0.26759944854E+02  0.21540445118E+02  0.16897525298E+02  0.38283309492E+02  0.00000000000E+00 0.  1.
         13    1    4    4    0    0  0.36070830976E+01 -0.47693430435E+02 -0.46858758237E+02  0.66958327180E+02  0.00000000000E+00 0. -1.
         -2    1    1    2    0  502 -0.12159581530E+03  0.81621405988E+02  0.50799616248E+02  0.15501031329E+03  0.00000000000E+00 0.  1.
<scales pt_clust_5="13000.00000" pt_clust_6="13000.00000" pt_clust_7="13000.00000" pt_clust_8="13000.00000" pt_clust_9="13000.00000"></scales>
<clustering>
<clus scale="   79.840">  5  6 -1 -1</clus>
<clus scale="   92.585">  7  8 -1 -1</clus>
<clus scale="  133.319">  1  5  2 -1</clus>
<clus scale="   68.445">  7  9 -1 -1</clus>
<clus scale="  259.416">  2  5  1 -1</clus>
</clustering>
</event>
<event>
 9    2  0.2147756E-005  0.5622090E+03  0.7546771E-02  0.1022294E+00
          2   -1    0    0  502    0 -0.00000000000E+00  0.00000000000E+00  0.20275182393E+03  0.20275182393E+03  0.00000000000E+00 0. -1.
         21   -1    0    0  501  502  0.00000000000E+00 -0.00000000000E+00 -0.10764501904E+04  0.10764501904E+04  0.00000000000E+00 0. -1.
         24    2    1    2    0    0  0.24771111435E+03 -0.77006767390E+02 -0.58997592003E+03  0.64945809430E+03  0.80208426189E+02 0.  0.
         23    2    1    2    0    0 -0.76623654450E+02 -0.10956145583E+03  0.83288365995E+02  0.18390139480E+03  0.94909820757E+02 0.  0.
        -13    1    3    3    0    0  0.10836933542E+03 -0.74810499243E+02 -0.30594719764E+03  0.33308288969E+03  0.00000000000E+00 0.  1.
         14    1    3    3    0    0  0.13934177893E+03 -0.21962681468E+01 -0.28402872239E+03  0.31637520461E+03  0.00000000000E+00 0. -1.
        -11    1    4    4    0    0  0.13510446024E+02 -0.35112333067E+02 -0.42401093595E+01  0.37860092611E+02  0.00000000000E+00 0.  1.
         11    1    4    4    0    0 -0.90134100474E+02 -0.74449122762E+02  0.87528475354E+02  0.14604130219E+03  0.00000000000E+00 0. -1.
          1    1    1    2  501    0 -0.17108745990E+03  0.18656822322E+03 -0.36701081242E+03  0.44584252521E+03  0.00000000000E+00 0. -1.
<scales pt_clust_5="13000.00000" pt_clust_6="13000.00000" pt_clust_7="13000.00000" pt_clust_8="13000.00000" pt_clust_9="13000.00000"></scales>
<clustering>
<clus scale="   80.208">  5  6 -1 -1</clus>
<clus scale="   94.910">  7  8 -1 -1</clus>
<clus scale="  253.138">  7  9 -1 -1</clus>
<clus scale="  271.522">  1  5  2 -1</clus>
<clus scale="  562.209">  2  5  1 -1</clus>
</clustering>
</event>
<event>
 9    2  0.2147756E-005  0.5040767E+03  0.7546771E-02  0.1037378E+00
          2   -1    0    0  502    0 -0.00000000000E+00  0.00000000000E+00  0.26756724254E+03  0.26756724254E+03  0.00000000000E+00 0. -1.
         21   -1    0    0  501  502  0.00000000000E+00 -0.00000000000E+00 -0.59218206934E+03  0.59218206934E+03  0.00000000000E+00 0. -1.
         24    2    1    2    0    0 -0.18108965190E+03 -0.13760210185E+03 -0.25534330648E+03  0.35093517463E+03  0.78914461105E+02 0.  0.
         23    2    1    2    0    0 -0.11546403500E+03  0.24944824825E+02 -0.11446854357E+03  0.18837924185E+03  0.91812328298E+02 0.  0.
        -13    1    3    3    0    0 -0.40628640434E+02 -0.30862871026E+02 -0.11394512733E+03  0.12484668708E+03  0.00000000000E+00 0.  1.
         14    1    3    3    0    0 -0.14046101146E+03 -0.10673923083E+03 -0.14139817915E+03  0.22608848756E+03  0.00000000000E+00 0. -1.
        -13    1    4    4    0    0 -0.11245514207E+03 -0.33772882057E+01 -0.61447562009E+02  0.12819269843E+03  0.00000000000E+00 0.  1.
         13    1    4    4    0    0 -0.30088929333E+01  0.28322113031E+02 -0.53020981561E+02  0.60186543421E+02  0.00000000000E+00 0. -1.
          1    1    1    2  501    0  0.29655368690E+03  0.11265727703E+03  0.45197023248E+02  0.32043489540E+03  0.00000000000E+00 0. -1.
<scales pt_clust_5="13000.00000" pt_clust_6="13000.00000" pt_clust_7="13000.00000" pt_clust_8="13000.00000" pt_clust_9="13000.00000"></scales>
<clustering>
<clus scale="   78.914">  5  6 -1 -1</clus>
<clus scale="   91.812">  7  8 -1 -1</clus>
<clus scale="  240.739">  1  5  2 -1</clus>
<clus scale="  145.926">  7  9 -1 -1</clus>
<clus scale="  504.077">  2  5  1 -1</clus>
</clustering>
</event>
<event>
 9    2  0.2147756E-005  0.6280882E+03  0.7546771E-02  0.9959797E-01
         21   -1    0    0  501  502  0.00000000000E+00  0.00000000000E+00  0.38576674769E+03  0.38576674769E+03  0.00000000000E+00 0. -1.
          2   -1    0    0  502    0 -0.00000000000E+00 -0.00000000000E+00 -0.12755737944E+04  0.12755737944E+04  0.00000000000E+00 0. -1.
         24    2    1    2    0    0 -0.18858193223E+03  0.38884015838E+03 -0.93340198196E+03  0.10317411749E+04  0.80565365504E+02 0.  0.
         23    2    1    2    0    0 -0.67464409542E+02  0.48607937500E+02  0.24376370535E+02  0.12236183014E+03  0.86394628832E+02 0.  0.
        -13    1    3    3    0    0 -0.18366089443E+02  0.36952891700E+02 -0.44503630886E+02  0.60691042243E+02  0.00000000000E+00 0.  1.
         14    1    3    3    0    0 -0.17021584278E+03  0.35188726668E+03 -0.88889835107E+03  0.97105013265E+03  0.00000000000E+00 0. -1.
        -11    1    4    4    0    0  0.13211252719E+02  0.35271547027E+02  0.26688234644E+01  0.37758996898E+02  0.00000000000E+00 0.  1.
         11    1    4    4    0    0 -0.80675662261E+02  0.13336390473E+02  0.21707547071E+02  0.84602833238E+02  0.00000000000E+00 0. -1.
          1    1    1    2  501    0  0.25604634177E+03 -0.43744809588E+03  0.19218564757E+02  0.50723753701E+03  0.00000000000E+00 0. -1.
<scales pt_clust_5="13000.00000" pt_clust_6="13000.00000" pt_clust_7="13000.00000" pt_clust_8="13000.00000" pt_clust_9="13000.00000"></scales>
<clustering>
<clus scale="   80.565">  5  6 -1 -1</clus>
<clus scale="   86.395">  7  8 -1 -1</clus>
<clus scale="  439.603">  2  5  1 -1</clus>
<clus scale="  150.702">  7  9 -1 -1</clus>
<clus scale="  628.088">  1  5  2 -1</clus>
</clustering>
</event>
<event>
 9    2  0.2147756E-005  0.1937460E+03  0.7546771E-02  0.1180534E+00
         21   -1    0    0  501  502  0.00000000000E+00  0.00000000000E+00  0.76141950895E+02  0.76141950895E+02  0.00000000000E+00 0.  1.
          2   -1    0    0  502    0 -0.00000000000E+00 -0.00000000000E+00 -0.36437337316E+03  0.36437337316E+03  0.00000000000E+00 0. -1.
         24    2    1    2    0    0 -0.13028022555E+01  0.73732736999E+02 -0.20059760860E+03  0.22787198934E+03  0.79044475765E+02 0.  0.
         23    2    1    2    0    0  0.62953161976E+02 -0.21286791248E+02 -0.70157576046E+02  0.12983776147E+03  0.86715227862E+02 0.  0.
        -13    1    3    3    0    0  0.20037264912E+02  0.45081527645E+02 -0.17999138120E+03  0.18662993711E+03  0.00000000000E+00 0.  1.
         14    1    3    3    0    0 -0.21340067168E+02  0.28651209354E+02 -0.20606227403E+02  0.41242052228E+02  0.00000000000E+00 0. -1.
        -13    1    4    4    0    0  0.30848401382E+02 -0.36915470670E+01 -0.84873046872E+02  0.90380780440E+02  0.00000000000E+00 0. -1.
         13    1    4    4    0    0  0.32104760594E+02 -0.17595244181E+02  0.14715470826E+02  0.39456981033E+02  0.00000000000E+00 0.  1.
          1    1    1    2  501    0 -0.61650359720E+02 -0.52445945751E+02 -0.17476237618E+02  0.82805573246E+02  0.00000000000E+00 0. -1.
<scales pt_clust_5="13000.00000" pt_clust_6="13000.00000" pt_clust_7="13000.00000" pt_clust_8="13000.00000" pt_clust_9="13000.00000"></scales>
<clustering>
<clus scale="   79.044">  5  6 -1 -1</clus>
<clus scale="   86.715">  7  8 -1 -1</clus>
<clus scale="   80.940">  7  9 -1 -1</clus>
<clus scale="  108.103">  2  5  1 -1</clus>
<clus scale="  193.746">  1  5  2 -1</clus>
</clustering>
</event>
<event>
 9    2  0.2147756E-005  0.3469805E+03  0.7546771E-02  0.1119013E+00
         21   -1    0    0  501  502  0.00000000000E+00  0.00000000000E+00  0.50439695979E+02  0.50439695979E+02  0.00000000000E+00 0. -1.
          2   -1    0    0  502    0 -0.00000000000E+00 -0.00000000000E+00 -0.95136342640E+03  0.95136342640E+03  0.00000000000E+00 0. -1.
         24    2    1    2    0    0  0.14375150025E+02 -0.32435665750E+02 -0.26848464322E+03  0.28043313264E+03  0.72801242339E+02 0.  0.
         23    2    1    2    0    0 -0.91169816732E+02  0.28374779439E+02 -0.59555459824E+02  0.14334787758E+03  0.88795819834E+02 0.  0.
        -13    1    3    3    0    0 -0.28783683796E+02 -0.10477180175E+02 -0.75759267810E+02  0.81717430309E+02  0.00000000000E+00 0.  1.
         14    1    3    3    0    0  0.43158833821E+02 -0.21958485575E+02 -0.19272537541E+03  0.19871570233E+03  0.00000000000E+00 0. -1.
        -13    1    4    4    0    0 -0.21102529431E+02  0.16267042832E+02  0.22425964533E+02  0.34826101076E+02  0.00000000000E+00 0. -1.
         13    1    4    4    0    0 -0.70067287301E+02  0.12107736607E+02 -0.81981424357E+02  0.10852177650E+03  0.00000000000E+00 0.  1.
          1    1    1    2  501    0  0.76794666707E+02  0.40608863112E+01 -0.57288362738E+03  0.57802211217E+03  0.00000000000E+00 0. -1.
<scales pt_clust_5="13000.00000" pt_clust_6="13000.00000" pt_clust_7="13000.00000" pt_clust_8="13000.00000" pt_clust_9="13000.00000"></scales>
<clustering>
<clus scale="   72.801">  5  6 -1 -1</clus>
<clus scale="   80.986">  2  5  1 -1</clus>
<clus scale="   88.796">  7  8 -1 -1</clus>
<clus scale="   92.069">  7  9 -1 -1</clus>
<clus scale="  346.980">  1  5  2 -1</clus>
</clustering>
</event>
<event>
 9    2  0.2147756E-005  0.1866725E+03  0.7546771E-02  0.1186661E+00
         21   -1    0    0  501  502  0.00000000000E+00  0.00000000000E+00  0.66626256598E+02  0.66626256598E+02  0.00000000000E+00 0.  1.
         -1   -1    0    0    0  501 -0.00000000000E+00 -0.00000000000E+00 -0.34437643031E+03  0.34437643031E+03  0.00000000000E+00 0.  1.
         24    2    1    2    0    0 -0.29239825658E+02  0.59189565826E+02 -0.15551949389E+03  0.18787273008E+03  0.82167375661E+02 0.  0.
         23    2    1    2    0    0 -0.11048459406E+01  0.23726186571E+02 -0.89824682258E+02  0.12907694109E+03  0.89600393775E+02 0.  0.
        -13    1    3    3    0    0 -0.25657897456E+02  0.37673269544E+02 -0.15933738766E+03  0.16572871220E+03  0.00000000000E+00 0.  1.
         14    1    3    3    0    0 -0.35819282018E+01  0.21516296283E+02  0.38178937720E+01  0.22144017888E+02  0.00000000000E+00 0. -1.
        -11    1    4    4    0    0  0.37640332022E+02  0.17491379575E+02 -0.77549466713E+02  0.87958301153E+02  0.00000000000E+00 0. -1.
         11    1    4    4    0    0 -0.38745177963E+02  0.62348069962E+01 -0.12275215545E+02  0.41118639938E+02  0.00000000000E+00 0.  1.
         -2    1    1    2    0  502  0.30344671598E+02 -0.82915752397E+02 -0.32405997564E+02  0.94053015731E+02  0.00000000000E+00 0.  1.
<scales pt_clust_5="13000.00000" pt_clust_6="13000.00000" pt_clust_7="13000.00000" pt_clust_8="13000.00000" pt_clust_9="13000.00000"></scales>
<clustering>
<clus scale="   82.167">  5  6 -1 -1</clus>
<clus scale="   89.600">  7  8 -1 -1</clus>
<clus scale="   88.294">  7  9 -1 -1</clus>
<clus scale="  105.403">  2  5  1 -1</clus>
<clus scale="  186.673">  1  5  2 -1</clus>
</clustering>
</event>
<event>
 9    2  0.2147756E-005  0.1984727E+03  0.7546771E-02  0.1189229E+00
         21   -1    0    0  501  502  0.00000000000E+00  0.00000000000E+00  0.52909067105E+02  0.52909067105E+02  0.00000000000E+00 0. -1.
          2   -1    0    0  502    0 -0.00000000000E+00 -0.00000000000E+00 -0.38935743154E+03  0.38935743154E+03  0.00000000000E+00 0. -1.
         24    2    1    2    0    0 -0.18280117268E+02  0.37244028674E+01 -0.61541401469E+02  0.10320124534E+03  0.80716287582E+02 0.  0.
         23    2    1    2    0    0  0.88955767961E+02  0.37474364156E+01 -0.19069992416E+03  0.22887586467E+03  0.89947364726E+02 0.  0.
        -13    1    3    3    0    0 -0.57666826546E+01  0.38876034732E+02 -0.51080397693E+02  0.64450040603E+02  0.00000000000E+00 0.  1.
         14    1    3    3    0    0 -0.12513434613E+02 -0.35151631864E+02 -0.10461003776E+02  0.38751204737E+02  0.00000000000E+00 0. -1.
        -11    1    4    4    0    0  0.46472533028E+02 -0.15036997257E+02 -0.21413843792E+02  0.53332544647E+02  0.00000000000E+00 0. -1.
         11    1    4    4    0    0  0.42483234932E+02  0.18784433673E+02 -0.16928608037E+03  0.17554332002E+03  0.00000000000E+00 0.  1.
          1    1    1    2  501    0 -0.70675650693E+02 -0.74718392830E+01 -0.84207038805E+02  0.11018938863E+03  0.00000000000E+00 0. -1.
<scales pt_clust_5="13000.00000" pt_clust_6="13000.00000" pt_clust_7="13000.00000" pt_clust_8="13000.00000" pt_clust_9="13000.00000"></scales>
<clustering>
<clus scale="   80.716">  5  6 -1 -1</clus>
<clus scale="   82.844">  2  5  1 -1</clus>
<clus scale="   89.947">  7  8 -1 -1</clus>
<clus scale="   76.722">  7  9 -1 -1</clus>
<clus scale="  198.473">  1  5  2 -1</clus>
</clustering>
</event>
<event>
 9    2  0.2147756E-005  0.2132227E+03  0.7546771E-02  0.1173995E+00
         21   -1    0    0  501  502  0.00000000000E+00  0.00000000000E+00  0.50003222655E+02  0.50003222655E+02  0.00000000000E+00 0. -1.
          2   -1    0    0  502    0 -0.00000000000E+00 -0.00000000000E+00 -0.62382863002E+03  0.62382863002E+03  0.00000000000E+00 0. -1.
         24    2    1    2    0    0  0.19620159673E+02  0.42181123035E+02 -0.35918912314E+03  0.37128819531E+03  0.81693940940E+02 0.  0.
         23    2    1    2    0    0  0.47345519686E+02 -0.74354681484E+02 -0.93431448012E+02  0.16038124181E+03  0.96033797980E+02 0.  0.
        -13    1    3    3    0    0  0.45244016848E+02  0.49730841641E+02 -0.26322087564E+03  0.27167150576E+03  0.00000000000E+00 0.  1.
         14    1    3    3    0    0 -0.25623857175E+02 -0.75497186053E+01 -0.95968247498E+02  0.99616689542E+02  0.00000000000E+00 0. -1.
        -11    1    4    4    0    0  0.36127193621E+02 -0.97519061707E+02 -0.68368107894E+02  0.12445617579E+03  0.00000000000E+00 0. -1.
         11    1    4    4    0    0  0.11218326065E+02  0.23164380223E+02 -0.25063340118E+02  0.35925066022E+02  0.00000000000E+00 0.  1.
          1    1    1    2  501    0 -0.66965679359E+02  0.32173558448E+02 -0.12120483621E+03  0.14216241556E+03  0.00000000000E+00 0. -1.
<scales pt_clust_5="13000.00000" pt_clust_6="13000.00000" pt_clust_7="13000.00000" pt_clust_8="13000.00000" pt_clust_9="13000.00000"></scales>
<clustering>
<clus scale="   81.694">  5  6 -1 -1</clus>
<clus scale="   94.011">  2  5  1 -1</clus>
<clus scale="   96.034">  7  8 -1 -1</clus>
<clus scale="   78.261">  7  9 -1 -1</clus>
<clus scale="  213.223">  1  5  2 -1</clus>
</clustering>
</event>
<event>
 9    2  0.2147756E-005  0.3484723E+03  0.7546771E-02  0.1064995E+00
          2   -1    0    0  502    0 -0.00000000000E+00  0.00000000000E+00  0.40335558787E+03  0.40335558787E+03  0.00000000000E+00 0. -1.
         21   -1    0    0  501  502  0.00000000000E+00 -0.00000000000E+00 -0.35219233150E+03  0.35219233150E+03  0.00000000000E+00 0.  1.
         24    2    1    2    0    0 -0.24433120580E+03 -0.20992225970E+03  0.18764779621E+03  0.38130069042E+03  0.80083880053E+02 0.  0.
         23    2    1    2    0    0  0.15061760851E+03  0.15639730505E+03 -0.12219711331E+03  0.26538360030E+03  0.91381287938E+02 0.  0.
        -11    1    3    3    0    0 -0.45429282494E+02 -0.78424040172E+02  0.74762041025E+02  0.11748835075E+03  0.00000000000E+00 0.  1.
         12    1    3    3    0    0 -0.19890192331E+03 -0.13149821953E+03  0.11288575518E+03  0.26381233967E+03  0.00000000000E+00 0. -1.
        -11    1    4    4    0    0  0.70316513950E+02  0.94872726751E+02 -0.16773746068E+02  0.11927533262E+03  0.00000000000E+00 0. -1.
         11    1    4    4    0    0  0.80301094564E+02  0.61524578302E+02 -0.10542336724E+03  0.14610826768E+03  0.00000000000E+00 0.  1.
          1    1    1    2  501    0  0.93713597290E+02  0.53524954649E+02 -0.14287426538E+02  0.10886362866E+03  0.00000000000E+00 0. -1.
<scales pt_clust_5="13000.00000" pt_clust_6="13000.00000" pt_clust_7="13000.00000" pt_clust_8="13000.00000" pt_clust_9="13000.00000"></scales>
<clustering>
<clus scale="   80.084">  5  6 -1 -1</clus>
<clus scale="   91.381">  7  8 -1 -1</clus>
<clus scale="  107.922">  7  9 -1 -1</clus>
<clus scale="  331.932">  1  5  2 -1</clus>
<clus scale="  348.472">  2  5  1 -1</clus>
</clustering>
</event>
<event>
 9    2  0.2147756E-005  0.1611677E+03  0.7546771E-02  0.1207227E+00
         -1   -1    0    0    0  501 -0.00000000000E+00  0.00000000000E+00  0.20553008880E+03  0.20553008880E+03  0.00000000000E+00 0.  1.
         21   -1    0    0  501  502  0.00000000000E+00 -0.00000000000E+00 -0.14288595710E+03  0.14288595710E+03  0.00000000000E+00 0.  1.
         24    2    1    2    0    0  0.63344473139E+02  0.59384747744E+01  0.13584257877E+03  0.17140465099E+03  0.82937087087E+02 0.  0.
         23    2    1    2    0    0 -0.44300150201E+01 -0.30832064188E+02 -0.42048944055E+02  0.10587142227E+03  0.92034793105E+02 0.  0.
        -13    1    3    3    0    0  0.58440190122E+02  0.20487467616E+02  0.14195847954E+03  0.15487802318E+03  0.00000000000E+00 0.  1.
         14    1    3    3    0    0  0.49042830175E+01 -0.14548992841E+02 -0.61159007694E+01  0.16526627812E+02  0.00000000000E+00 0. -1.
        -11    1    4    4    0    0  0.13820974758E+01 -0.51073677602E+02 -0.59567809095E+02  0.78477733260E+02  0.00000000000E+00 0.  1.
         11    1    4    4    0    0 -0.58121124958E+01  0.20241613414E+02  0.17518865039E+02  0.27393689009E+02  0.00000000000E+00 0. -1.
         -2    1    1    2    0  502 -0.58914458119E+02  0.24893589413E+02 -0.31149503011E+02  0.71139972640E+02  0.00000000000E+00 0.  1.
<scales pt_clust_5="13000.00000" pt_clust_6="13000.00000" pt_clust_7="13000.00000" pt_clust_8="13000.00000" pt_clust_9="13000.00000"></scales>
<clustering>
<clus scale="   82.937">  5  6 -1 -1</clus>
<clus scale="   92.035">  7  8 -1 -1</clus>
<clus scale="   63.958">  7  9 -1 -1</clus>
<clus scale="  104.529">  1  5  2 -1</clus>
<clus scale="  161.168">  2  5  1 -1</clus>
</clustering>
</event>
<event>
 9    2  0.2147756E-005  0.1796699E+03  0.7546771E-02  0.1203638E+00
         21   -1    0    0  501  502  0.00000000000E+00  0.00000000000E+00  0.35309982766E+02  0.35309982766E+02  0.00000000000E+00 0.  1.
          4   -1    0    0  502    0 -0.00000000000E+00 -0.00000000000E+00 -0.49673181814E+03  0.49673181814E+03  0.00000000000E+00 0. -1.
         24    2    1    2    0    0  0.12989339623E+02  0.36852017575E+01 -0.10525376485E+03  0.13312205892E+03  0.80379250431E+02 0.  0.
         23    2    1    2    0    0 -0.63199644873E+02  0.29064219921E+02 -0.23161680127E+03  0.26069305120E+03  0.97342695262E+02 0.  0.
        -13    1    3    3    0    0 -0.20330237215E+02  0.27974640407E+02 -0.72984876915E+02  0.80763180407E+02  0.00000000000E+00 0.  1.
         14    1    3    3    0    0  0.33319576838E+02 -0.24289438649E+02 -0.32268887939E+02  0.52358878515E+02  0.00000000000E+00 0. -1.
        -11    1    4    4    0    0 -0.71964186404E+02 -0.15834725887E+02 -0.15033235095E+03  0.16741982681E+03  0.00000000000E+00 0.  1.
         11    1    4    4    0    0  0.87645415313E+01  0.44898945808E+02 -0.81284450325E+02  0.93273224387E+02  0.00000000000E+00 0. -1.
          3    1    1    2  501    0  0.50210305250E+02 -0.32749421678E+02 -0.12455126925E+03  0.13822669078E+03  0.00000000000E+00 0. -1.
<scales pt_clust_5="13000.00000" pt_clust_6="13000.00000" pt_clust_7="13000.00000" pt_clust_8="13000.00000" pt_clust_9="13000.00000"></scales>
<clustering>
<clus scale="   80.379">  5  6 -1 -1</clus>
<clus scale="   81.505">  2  5  1 -1</clus>
<clus scale="   97.343">  7  8 -1 -1</clus>
<clus scale="   63.132">  7  9 -1 -1</clus>
<clus scale="  179.670">  1  5  2 -1</clus>
</clustering>
</event>
<event>
 9    2  0.2147756E-005  0.1904658E+03  0.7546771E-02  0.1174623E+00
         21   -1    0    0  501  502  0.00000000000E+00  0.00000000000E+00  0.47416837107E+02  0.47416837107E+02  0.00000000000E+00 0. -1.
          2   -1    0    0  502    0 -0.00000000000E+00 -0.00000000000E+00 -0.69180396799E+03  0.69180396799E+03  0.00000000000E+00 0. -1.
         24    2    1    2    0    0 -0.67435662391E+02  0.77629852379E+02 -0.44446394385E+03  0.46309314308E+03  0.79580771824E+02 0.  0.
         23    2    1    2    0    0  0.26847729620E+02 -0.41015229647E+02 -0.56667949997E+02  0.12279771118E+03  0.97288085940E+02 0.  0.
        -11    1    3    3    0    0 -0.21853110575E+02  0.15987667342E+01 -0.20655013751E+02  0.30112191715E+02  0.00000000000E+00 0.  1.
         12    1    3    3    0    0 -0.45582551817E+02  0.76031085645E+02 -0.42380893010E+03  0.43298095136E+03  0.00000000000E+00 0. -1.
        -11    1    4    4    0    0  0.52246811317E+02 -0.52272288003E+02 -0.19575700944E+02  0.76454754288E+02  0.00000000000E+00 0. -1.
         11    1    4    4    0    0 -0.25399081696E+02  0.11257058356E+02 -0.37092249053E+02  0.46342956894E+02  0.00000000000E+00 0.  1.
          1    1    1    2  501    0  0.40587932771E+02 -0.36614622732E+02 -0.14325523704E+03  0.15332995084E+03  0.00000000000E+00 0. -1.
<scales pt_clust_5="13000.00000" pt_clust_6="13000.00000" pt_clust_7="13000.00000" pt_clust_8="13000.00000" pt_clust_9="13000.00000"></scales>
<clustering>
<clus scale="   79.581">  5  6 -1 -1</clus>
<clus scale="   97.288">  7  8 -1 -1</clus>
<clus scale="   54.663">  7  9 -1 -1</clus>
<clus scale="  130.027">  2  5  1 -1</clus>
<clus scale="  190.466">  1  5  2 -1</clus>
</clustering>
</event>
<event>
 9    2  0.2147756E-005  0.5308895E+03  0.7546771E-02  0.1050358E+00
         21   -1    0    0  501  502  0.00000000000E+00  0.00000000000E+00  0.10960475968E+03  0.10960475968E+03  0.00000000000E+00 0. -1.
          2   -1    0    0  502    0 -0.00000000000E+00 -0.00000000000E+00 -0.10586410482E+04  0.10586410482E+04  0.00000000000E+00 0. -1.
         24    2    1    2    0    0 -0.46037198468E+02 -0.10798670242E+03 -0.28334215383E+03  0.31678097953E+03  0.79289730162E+02 0.  0.
         23    2    1    2    0    0 -0.12644983272E+03  0.23502755956E+03 -0.22123058845E+03  0.35806945013E+03  0.89684134083E+02 0.  0.
        -11    1    3    3    0    0 -0.32982111508E+02 -0.11579392359E+03 -0.27304546258E+03  0.29841226023E+03  0.00000000000E+00 0.  1.
         12    1    3    3    0    0 -0.13055086961E+02  0.78072211651E+01 -0.10296691248E+02  0.18368719295E+02  0.00000000000E+00 0. -1.
        -13    1    4    4    0    0 -0.34108893617E+02  0.10190878708E+03 -0.14099032426E+03  0.17727687114E+03  0.00000000000E+00 0.  1.
         13    1    4    4    0    0 -0.92340939100E+02  0.13311877249E+03 -0.80240264192E+02  0.18079257899E+03  0.00000000000E+00 0. -1.
          1    1    1    2  501    0  0.17248703118E+03 -0.12704085714E+03 -0.44446354620E+03  0.49339537818E+03  0.00000000000E+00 0. -1.
<scales pt_clust_5="13000.00000" pt_clust_6="13000.00000" pt_clust_7="13000.00000" pt_clust_8="13000.00000" pt_clust_9="13000.00000"></scales>
<clustering>
<clus scale="   79.290">  5  6 -1 -1</clus>
<clus scale="   89.684">  7  8 -1 -1</clus>
<clus scale="  141.659">  2  5  1 -1</clus>
<clus scale="  241.455">  7  9 -1 -1</clus>
<clus scale="  530.890">  1  5  2 -1</clus>
</clustering>
</event>
<event>
 9    2  0.2147756E-005  0.2517381E+03  0.7546771E-02  0.1154384E+00
          2   -1    0    0  502    0 -0.00000000000E+00  0.00000000000E+00  0.57375796929E+03  0.57375796929E+03  0.00000000000E+00 0. -1.
         21   -1    0    0  501  502  0.00000000000E+00 -0.00000000000E+00 -0.62343839121E+02  0.62343839121E+02  0.00000000000E+00 0. -1.
         24    2    1    2    0    0 -0.39924586949E+01  0.38305149601E+02  0.28032032305E+03  0.29437618267E+03  0.81207322309E+02 0.  0.
         23    2    1    2    0    0  0.10036262929E+03 -0.15572363435E+02  0.19123416258E+03  0.23498865646E+03  0.91290787415E+02 0.  0.
        -11    1    3    3    0    0 -0.30653826641E+02  0.14202135940E+01  0.43574751638E+02  0.53295713474E+02  0.00000000000E+00 0.  1.
         12    1    3    3    0    0  0.26661367946E+02  0.36884936007E+02  0.23674557142E+03  0.24108046920E+03  0.00000000000E+00 0. -1.
        -13    1    4    4    0    0  0.50253805091E+02 -0.18743347754E+02  0.17372183235E+03  0.18181318171E+03  0.00000000000E+00 0.  1.
         13    1    4    4    0    0  0.50108824202E+02  0.31709843189E+01  0.17512330232E+02  0.53175474748E+02  0.00000000000E+00 0. -1.
          1    1    1    2  501    0 -0.96370170598E+02 -0.22732786166E+02  0.39859644540E+02  0.10673696928E+03  0.00000000000E+00 0. -1.
<scales pt_clust_5="13000.00000" pt_clust_6="13000.00000" pt_clust_7="13000.00000" pt_clust_8="13000.00000" pt_clust_9="13000.00000"></scales>
<clustering>
<clus scale="   81.207">  5  6 -1 -1</clus>
<clus scale="   89.877">  1  5  2 -1</clus>
<clus scale="   91.291">  7  8 -1 -1</clus>
<clus scale="   98.246">  7  9 -1 -1</clus>
<clus scale="  251.738">  2  5  1 -1</clus>
</clustering>
</event>
<event>
 9    2  0.2147756E-005  0.3075635E+03  0.7546771E-02  0.1100896E+00
         21   -1    0    0  501  502  0.00000000000E+00  0.00000000000E+00  0.44607995989E+02  0.44607995989E+02  0.00000000000E+00 0. -1.
          4   -1    0    0  502    0 -0.00000000000E+00 -0.00000000000E+00 -0.14201900804E+04  0.14201900804E+04  0.00000000000E+00 0. -1.
         24    2    1    2    0    0 -0.84233171942E+02  0.14234572099E+03 -0.67335410504E+03  0.69816946319E+03  0.81714851835E+02 0.  0.
         23    2    1    2    0    0 -0.32717183500E+02  0.72624067108E+01 -0.38155823739E+03  0.39395038613E+03  0.92125249327E+02 0.  0.
        -11    1    3    3    0    0 -0.93788032834E+01  0.32018099843E+02 -0.46121676262E+02  0.56923893839E+02  0.00000000000E+00 0.  1.
         12    1    3    3    0    0 -0.74854368658E+02  0.11032762115E+03 -0.62723242878E+03  0.64124556935E+03  0.00000000000E+00 0. -1.
        -13    1    4    4    0    0 -0.58443539488E+02  0.16937419218E+02 -0.32960574274E+03  0.33517528120E+03  0.00000000000E+00 0. -1.
         13    1    4    4    0    0  0.25726355989E+02 -0.96750125069E+01 -0.51952494646E+02  0.58775104929E+02  0.00000000000E+00 0.  1.
          3    1    1    2  501    0  0.11695035544E+03 -0.14960812770E+03 -0.32066974198E+03  0.37267822707E+03  0.00000000000E+00 0. -1.
<scales pt_clust_5="13000.00000" pt_clust_6="13000.00000" pt_clust_7="13000.00000" pt_clust_8="13000.00000" pt_clust_9="13000.00000"></scales>
<clustering>
<clus scale="   81.715">  5  6 -1 -1</clus>
<clus scale="   92.125">  7  8 -1 -1</clus>
<clus scale="  184.485">  2  5  1 -1</clus>
<clus scale="  112.919">  7  9 -1 -1</clus>
<clus scale="  307.563">  1  5  2 -1</clus>
</clustering>
</event>
<event>
 9    2  0.2147756E-005  0.2792819E+03  0.7546771E-02  0.1117124E+00
         -3   -1    0    0    0  501 -0.00000000000E+00  0.00000000000E+00  0.11684394352E+04  0.11684394352E+04  0.00000000000E+00 0.  1.
         21   -1    0    0  501  502  0.00000000000E+00 -0.00000000000E+00 -0.45290637428E+02  0.45290637428E+02  0.00000000000E+00 0.  1.
         24    2    1    2    0    0  0.19898920580E+02  0.13997886902E+03  0.58741419907E+03  0.60956957038E+03  0.80805748907E+02 0.  0.
         23    2    1    2    0    0 -0.84758930412E+02 -0.35136413410E+02  0.14383797203E+03  0.19332996860E+03  0.90931131800E+02 0.  0.
        -11    1    3    3    0    0 -0.16315456440E+02  0.11429917527E+03  0.36715784628E+03  0.38488359237E+03  0.00000000000E+00 0.  1.
         12    1    3    3    0    0  0.36214377020E+02  0.25679693747E+02  0.22025635278E+03  0.22468597801E+03  0.00000000000E+00 0. -1.
        -13    1    4    4    0    0  0.43338452442E+01  0.21873627256E+02  0.35486601220E+02  0.41911056418E+02  0.00000000000E+00 0. -1.
         13    1    4    4    0    0 -0.89092775657E+02 -0.57010040666E+02  0.10835137081E+03  0.15141891219E+03  0.00000000000E+00 0.  1.
         -4    1    1    2    0  502  0.64860009833E+02 -0.10484245561E+03  0.39189662665E+03  0.41083053362E+03  0.00000000000E+00 0.  1.
<scales pt_clust_5="13000.00000" pt_clust_6="13000.00000" pt_clust_7="13000.00000" pt_clust_8="13000.00000" pt_clust_9="13000.00000"></scales>
<clustering>
<clus scale="   80.806">  5  6 -1 -1</clus>
<clus scale="   90.931">  7  8 -1 -1</clus>
<clus scale="  123.283">  7  9 -1 -1</clus>
<clus scale="  162.848">  1  5  2 -1</clus>
<clus scale="  279.282">  2  5  1 -1</clus>
</clustering>
</event>
<event>
 9    2  0.2147756E-005  0.1802268E+03  0.7546771E-02  0.1198877E+00
         21   -1    0    0  501  502  0.00000000000E+00  0.00000000000E+00  0.27848467829E+03  0.27848467829E+03  0.00000000000E+00 0. -1.
         -3   -1    0    0    0  501 -0.00000000000E+00 -0.00000000000E+00 -0.69791369193E+02  0.69791369193E+02  0.00000000000E+00 0.  1.
         24    2    1    2    0    0  0.23282744658E+02 -0.11883622123E+02  0.11316260528E+03  0.14429612211E+03  0.85628785750E+02 0.  0.
         23    2    1    2    0    0  0.47527948895E+02 -0.12438825003E+02  0.72981459315E+02  0.12578654852E+03  0.89901791369E+02 0.  0.
        -13    1    3    3    0    0  0.50469004688E+02  0.75854004679E+01  0.43639685057E+02  0.67149689845E+02  0.00000000000E+00 0.  1.
         14    1    3    3    0    0 -0.27186260030E+02 -0.19469022591E+02  0.69522920221E+02  0.77146432264E+02  0.00000000000E+00 0. -1.
        -11    1    4    4    0    0  0.30697022036E+02  0.37119049221E+02  0.47217627213E+02  0.67450984401E+02  0.00000000000E+00 0.  1.
         11    1    4    4    0    0  0.16830926859E+02 -0.49557874224E+02  0.25763832102E+02  0.58335564119E+02  0.00000000000E+00 0. -1.
         -4    1    1    2    0  502 -0.70810693553E+02  0.24322447126E+02  0.22549244499E+02  0.78193376849E+02  0.00000000000E+00 0.  1.
<scales pt_clust_5="13000.00000" pt_clust_6="13000.00000" pt_clust_7="13000.00000" pt_clust_8="13000.00000" pt_clust_9="13000.00000"></scales>
<clustering>
<clus scale="   85.629">  5  6 -1 -1</clus>
<clus scale="   89.530">  2  5  1 -1</clus>
<clus scale="   89.902">  7  8 -1 -1</clus>
<clus scale="   61.621">  7  9 -1 -1</clus>
<clus scale="  180.227">  1  5  2 -1</clus>
</clustering>
</event>
<event>
 9    2  0.2147756E-005  0.2076368E+03  0.7546771E-02  0.1162473E+00
         21   -1    0    0  501  502  0.00000000000E+00  0.00000000000E+00  0.59046663095E+03  0.59046663095E+03  0.00000000000E+00 0.  1.
          2   -1    0    0  502    0 -0.00000000000E+00 -0.00000000000E+00 -0.70302964178E+02  0.70302964178E+02  0.00000000000E+00 0. -1.
         24    2    1    2    0    0 -0.89770667135E+02 -0.43424590501E+02  0.39878918724E+03  0.42026012945E+03  0.87414488531E+02 0.  0.
         23    2    1    2    0    0  0.16773889151E+02 -0.97623015884E+01  0.11620957856E+03  0.15004371919E+03  0.92907403523E+02 0.  0.
        -13    1    3    3    0    0 -0.80028795213E+02 -0.42470970401E+02  0.40023868375E+03  0.41036495386E+03  0.00000000000E+00 0.  1.
         14    1    3    3    0    0 -0.97418719217E+01 -0.95362009995E+00 -0.14494965028E+01  0.98951755894E+01  0.00000000000E+00 0. -1.
        -13    1    4    4    0    0 -0.38319206472E+02 -0.75045632669E+01  0.57458342900E+02  0.69470434167E+02  0.00000000000E+00 0. -1.
         13    1    4    4    0    0  0.55093095623E+02 -0.22577383215E+01  0.58751235656E+02  0.80573285019E+02  0.00000000000E+00 0.  1.
          1    1    1    2  501    0  0.72996777984E+02  0.53186892089E+02  0.51649009699E+01  0.90465746491E+02  0.00000000000E+00 0. -1.
<scales pt_clust_5="13000.00000" pt_clust_6="13000.00000" pt_clust_7="13000.00000" pt_clust_8="13000.00000" pt_clust_9="13000.00000"></scales>
<clustering>
<clus scale="   87.414">  5  6 -1 -1</clus>
<clus scale="   92.907">  7  8 -1 -1</clus>
<clus scale="   90.318">  7  9 -1 -1</clus>
<clus scale="  132.611">  2  5  1 -1</clus>
<clus scale="  207.637">  1  5  2 -1</clus>
</clustering>
</event>
<event>
 9    2  0.2147756E-005  0.2402599E+03  0.7546771E-02  0.1142041E+00
         21   -1    0    0  501  502  0.00000000000E+00  0.00000000000E+00  0.62934651779E+02  0.62934651779E+02  0.00000000000E+00 0. -1.
          2   -1    0    0  502    0 -0.00000000000E+00 -0.00000000000E+00 -0.62928826680E+03  0.62928826680E+03  0.00000000000E+00 0. -1.
         24    2    1    2    0    0  0.95415615274E+02  0.59875334649E+02 -0.11187821972E+03  0.17814833088E+03  0.80813961728E+02 0.  0.
         23    2    1    2    0    0  0.37152875928E+01 -0.79576887474E+02 -0.14398349702E+03  0.18754693805E+03  0.89979565325E+02 0.  0.
        -13    1    3    3    0    0 -0.23245274105E+01  0.37000961343E+02 -0.20288923229E+02  0.42262453476E+02  0.00000000000E+00 0.  1.
         14    1    3    3    0    0  0.97740142685E+02  0.22874373306E+02 -0.91589296492E+02  0.13588587741E+03  0.00000000000E+00 0. -1.
        -13    1    4    4    0    0 -0.13115549413E+02  0.17123857510E+02 -0.32558007615E+02  0.39054679519E+02  0.00000000000E+00 0.  1.
         13    1    4    4    0    0  0.16830837006E+02 -0.96700744985E+02 -0.11142548940E+03  0.14849225853E+03  0.00000000000E+00 0. -1.
          1    1    1    2  501    0 -0.99130902867E+02  0.19701552825E+02 -0.31049189829E+03  0.32652764965E+03  0.00000000000E+00 0. -1.
<scales pt_clust_5="13000.00000" pt_clust_6="13000.00000" pt_clust_7="13000.00000" pt_clust_8="13000.00000" pt_clust_9="13000.00000"></scales>
<clustering>
<clus scale="   80.814">  5  6 -1 -1</clus>
<clus scale="   89.980">  7  8 -1 -1</clus>
<clus scale="  101.070">  7  9 -1 -1</clus>
<clus scale="  138.637">  2  5  1 -1</clus>
<clus scale="  240.260">  1  5  2 -1</clus>
</clustering>
</event>
<event>
 9    2  0.2147756E-005  0.2001481E+03  0.7546771E-02  0.1169095E+00
         -3   -1    0    0    0  501 -0.00000000000E+00  0.00000000000E+00  0.13919473458E+03  0.13919473458E+03  0.00000000000E+00 0.  1.
         21   -1    0    0  501  502  0.00000000000E+00 -0.00000000000E+00 -0.20961183462E+03  0.20961183462E+03  0.00000000000E+00 0.  1.
         24    2    1    2    0    0 -0.89083009203E+02  0.42273250813E+02  0.20895917551E+02  0.12881260605E+03  0.80207467504E+02 0.  0.
         23    2    1    2    0    0 -0.32666629781E+01 -0.22777561245E+02 -0.85342910784E+02  0.12542025625E+03  0.88979435113E+02 0.  0.
        -11    1    3    3    0    0 -0.24979308770E+02  0.52049812090E+02 -0.71269003376E+01  0.58171655586E+02  0.00000000000E+00 0.  1.
         12    1    3    3    0    0 -0.64103700432E+02 -0.97765612773E+01  0.28022817888E+02  0.70640950460E+02  0.00000000000E+00 0. -1.
        -13    1    4    4    0    0 -0.55285307188E+01  0.21512520323E+02  0.67425005823E+01  0.23212378091E+02  0.00000000000E+00 0. -1.
         13    1    4    4    0    0  0.22618677407E+01 -0.44290081567E+02 -0.92085411366E+02  0.10220787816E+03  0.00000000000E+00 0.  1.
         -4    1    1    2    0  502  0.92349672181E+02 -0.19495689568E+02 -0.59701068076E+01  0.94573706911E+02  0.00000000000E+00 0.  1.
<scales pt_clust_5="13000.00000" pt_clust_6="13000.00000" pt_clust_7="13000.00000" pt_clust_8="13000.00000" pt_clust_9="13000.00000"></scales>
<clustering>
<clus scale="   80.207">  5  6 -1 -1</clus>
<clus scale="   88.979">  7  8 -1 -1</clus>
<clus scale="   94.385">  7  9 -1 -1</clus>
<clus scale="  127.106">  1  5  2 -1</clus>
<clus scale="  200.148">  2  5  1 -1</clus>
</clustering>
</event>
<event>
 9    2  0.2147756E-005  0.5167404E+03  0.7546771E-02  0.1067570E+00
         21   -1    0    0  501  502  0.00000000000E+00  0.00000000000E+00  0.45239848181E+02  0.45239848181E+02  0.00000000000E+00 0. -1.
          2   -1    0    0  502    0 -0.00000000000E+00 -0.00000000000E+00 -0.20678884371E+04  0.20678884371E+04  0.00000000000E+00 0. -1.
         24    2    1    2    0    0  0.28865655021E+02  0.50979691323E+02 -0.29544745886E+03  0.31028487190E+03  0.74534192236E+02 0.  0.
         23    2    1    2    0    0  0.35988363258E+02  0.21848921594E+03 -0.79627155903E+03  0.83153017766E+03  0.91440367880E+02 0.  0.
        -11    1    3    3    0    0  0.19029355371E+02 -0.14129186833E+02 -0.40070832198E+02  0.46555578392E+02  0.00000000000E+00 0.  1.
         12    1    3    3    0    0  0.98362996499E+01  0.65108878156E+02 -0.25537662667E+03  0.26372929351E+03  0.00000000000E+00 0. -1.
        -11    1    4    4    0    0  0.16753862013E+02  0.15326153193E+03 -0.38583211730E+03  0.41549514053E+03  0.00000000000E+00 0. -1.
         11    1    4    4    0    0  0.19234501245E+02  0.65227684009E+02 -0.41043944172E+03  0.41603503713E+03  0.00000000000E+00 0.  1.
          1    1    1    2  501    0 -0.64854018279E+02 -0.26946890726E+03 -0.93092957105E+03  0.97131323574E+03  0.00000000000E+00 0. -1.
<scales pt_clust_5="13000.00000" pt_clust_6="13000.00000" pt_clust_7="13000.00000" pt_clust_8="13000.00000" pt_clust_9="13000.00000"></scales>
<clustering>
<clus scale="   74.534">  5  6 -1 -1</clus>
<clus scale="   91.440">  7  8 -1 -1</clus>
<clus scale="   94.802">  2  5  1 -1</clus>
<clus scale="  246.968">  7  9 -1 -1</clus>
<clus scale="  516.740">  1  5  2 -1</clus>
</clustering>
</event>
<event>
 9    2  0.2147756E-005  0.5061256E+03  0.7546771E-02  0.1055426E+00
          2   -1    0    0  502    0 -0.00000000000E+00  0.00000000000E+00  0.54673786976E+03  0.54673786976E+03  0.00000000000E+00 0. -1.
         21   -1    0    0  501  502  0.00000000000E+00 -0.00000000000E+00 -0.24943383697E+03  0.24943383697E+03  0.00000000000E+00 0. -1.
         24    2    1    2    0    0  0.91734188750E+02 -0.68472721792E+02 -0.82062116139E+02  0.16365147717E+03  0.83330306962E+02 0.  0.
         23    2    1    2    0    0  0.16423885982E+03  0.46689051541E+01  0.23154083587E+02  0.18925939877E+03  0.91031899272E+02 0.  0.
        -13    1    3    3    0    0  0.43732426583E+02 -0.23875624527E+02 -0.84487353741E+02  0.98085083083E+02  0.00000000000E+00 0.  1.
         14    1    3    3    0    0  0.48001762167E+02 -0.44597097265E+02  0.24252376016E+01  0.65566394083E+02  0.00000000000E+00 0. -1.
        -13    1    4    4    0    0  0.52611279452E+01 -0.23553227435E+02 -0.67285768329E+01  0.25054096193E+02  0.00000000000E+00 0.  1.
         13    1    4    4    0    0  0.15897773188E+03  0.28222132589E+02  0.29882660420E+02  0.16420530258E+03  0.00000000000E+00 0. -1.
          1    1    1    2  501    0 -0.25597304857E+03  0.63803816638E+02  0.35621206535E+03  0.44326083079E+03  0.00000000000E+00 0. -1.
<scales pt_clust_5="13000.00000" pt_clust_6="13000.00000" pt_clust_7="13000.00000" pt_clust_8="13000.00000" pt_clust_9="13000.00000"></scales>
<clustering>
<clus scale="   83.330">  5  6 -1 -1</clus>
<clus scale="   91.032">  7  8 -1 -1</clus>
<clus scale="  141.590">  1  5  2 -1</clus>
<clus scale="  183.752">  7  9 -1 -1</clus>
<clus scale="  506.126">  2  5  1 -1</clus>
</clustering>
</event>
<event>
 9    2  0.2147756E-005  0.2605423E+03  0.7546771E-02  0.1153103E+00
         21   -1    0    0  501  502  0.00000000000E+00  0.00000000000E+00  0.17932970091E+03  0.17932970091E+03  0.00000000000E+00 0.  1.
         -1   -1    0    0    0  501 -0.00000000000E+00 -0.00000000000E+00 -0.23025535784E+03  0.23025535784E+03  0.00000000000E+00 0.  1.
         24    2    1    2    0    0 -0.17025274554E+01  0.21262399571E+02  0.82021216696E+02  0.11708349764E+03  0.80784139510E+02 0.  0.
         23    2    1    2    0    0 -0.23984875376E+02  0.37176690780E+02 -0.18473516761E+03  0.21030060406E+03  0.90232374069E+02 0.  0.
        -13    1    3    3    0    0 -0.81427143010E+01  0.50400712209E+02  0.36925452143E+02  0.63008131248E+02  0.00000000000E+00 0.  1.
         14    1    3    3    0    0  0.64401868457E+01 -0.29138312638E+02  0.45095764553E+02  0.54075366394E+02  0.00000000000E+00 0. -1.
        -11    1    4    4    0    0 -0.49968859255E+02 -0.57320396932E+01 -0.89694386458E+02  0.10283397365E+03  0.00000000000E+00 0.  1.
         11    1    4    4    0    0  0.25983983879E+02  0.42908730473E+02 -0.95040781153E+02  0.10746663041E+03  0.00000000000E+00 0. -1.
         -2    1    1    2    0  502  0.25687402831E+02 -0.58439090351E+02  0.51788293983E+02  0.82200957044E+02  0.00000000000E+00 0.  1.
<scales pt_clust_5="13000.00000" pt_clust_6="13000.00000" pt_clust_7="13000.00000" pt_clust_8="13000.00000" pt_clust_9="13000.00000"></scales>
<clustering>
<clus scale="   80.784">  5  6 -1 -1</clus>
<clus scale="   83.553">  2  5  1 -1</clus>
<clus scale="   90.232">  7  8 -1 -1</clus>
<clus scale="   62.397">  7  9 -1 -1</clus>
<clus scale="  260.542">  1  5  2 -1</clus>
</clustering>
</event>
<event>
 9    2  0.2147756E-005  0.1747277E+03  0.7546771E-02  0.1204035E+00
          4   -1    0    0  502    0 -0.00000000000E+00  0.00000000000E+00  0.85619491809E+02  0.85619491809E+02  0.00000000000E+00 0. -1.
         21   -1    0    0  501  502  0.00000000000E+00 -0.00000000000E+00 -0.22419348373E+03  0.22419348373E+03  0.00000000000E+00 0. -1.
         24    2    1    2    0    0 -0.81177193584E+00 -0.33207483780E+02 -0.95668091298E+02  0.12989446270E+03  0.81343664749E+02 0.  0.
         23    2    1    2    0    0 -0.14610885144E+02  0.70855693975E+02  0.96734043529E+01  0.11343671537E+03  0.86834937150E+02 0.  0.
        -11    1    3    3    0    0  0.39339565086E+02 -0.11904838938E+02 -0.34338317274E+02  0.53557880882E+02  0.00000000000E+00 0.  1.
         12    1    3    3    0    0 -0.40151337022E+02 -0.21302644841E+02 -0.61329774024E+02  0.76336581818E+02  0.00000000000E+00 0. -1.
        -11    1    4    4    0    0 -0.29905838805E+02 -0.89988699553E+01  0.74179996604E+01  0.32099308000E+02  0.00000000000E+00 0.  1.
         11    1    4    4    0    0  0.15294953662E+02  0.79854563931E+02  0.22554046925E+01  0.81337407374E+02  0.00000000000E+00 0. -1.
          3    1    1    2  501    0  0.15422657080E+02 -0.37648210196E+02 -0.52579304974E+02  0.66481797463E+02  0.00000000000E+00 0. -1.
<scales pt_clust_5="13000.00000" pt_clust_6="13000.00000" pt_clust_7="13000.00000" pt_clust_8="13000.00000" pt_clust_9="13000.00000"></scales>
<clustering>
<clus scale="   81.344">  5  6 -1 -1</clus>
<clus scale="   86.835">  7  8 -1 -1</clus>
<clus scale="   40.685">  7  9 -1 -1</clus>
<clus scale="   87.865">  1  5  2 -1</clus>
<clus scale="  174.728">  2  5  1 -1</clus>
</clustering>
</event>
<event>
 9    2  0.2147756E-005  0.1501853E+03  0.7546771E-02  0.1225531E+00
         21   -1    0    0  501  502  0.00000000000E+00  0.00000000000E+00  0.14852353988E+03  0.14852353988E+03  0.00000000000E+00 0.  1.
          2   -1    0    0  502    0 -0.00000000000E+00 -0.00000000000E+00 -0.93478252712E+03  0.93478252712E+03  0.00000000000E+00 0. -1.
         24    2    1    2    0    0 -0.10623339598E+02  0.31812263761E+02 -0.89411115030E+03  0.89840689451E+03  0.81088368733E+02 0.  0.
         23    2    1    2    0    0  0.50062092529E+02 -0.29562508019E+02  0.88815881164E+02  0.14104878296E+03  0.92878110647E+02 0.  0.
        -13    1    3    3    0    0 -0.24433846231E+02  0.15036536506E+02 -0.10093696085E+03  0.10493512442E+03  0.00000000000E+00 0.  1.
         14    1    3    3    0    0  0.13810506633E+02  0.16775727255E+02 -0.79317418946E+03  0.79347177010E+03  0.00000000000E+00 0. -1.
        -11    1    4    4    0    0  0.38663528537E+02 -0.62646881097E+02  0.68659030223E+02  0.10066559780E+03  0.00000000000E+00 0.  1.
         11    1    4    4    0    0  0.11398563992E+02  0.33084373078E+02  0.20156850941E+02  0.40383185151E+02  0.00000000000E+00 0. -1.
          1    1    1    2  501    0 -0.39438752930E+02 -0.22497557423E+01  0.19036281896E+02  0.43850389531E+02  0.00000000000E+00 0. -1.
<scales pt_clust_5="13000.00000" pt_clust_6="13000.00000" pt_clust_7="13000.00000" pt_clust_8="13000.00000" pt_clust_9="13000.00000"></scales>
<clustering>
<clus scale="   81.088">  5  6 -1 -1</clus>
<clus scale="   87.751">  2  5  1 -1</clus>
<clus scale="   92.878">  7  8 -1 -1</clus>
<clus scale="   43.600">  7  9 -1 -1</clus>
<clus scale="  150.185">  1  5  2 -1</clus>
</clustering>
</event>
<event>
 9    2  0.2147756E-005  0.1438966E+03  0.7546771E-02  0.1230940E+00
          2   -1    0    0  502    0 -0.00000000000E+00  0.00000000000E+00  0.26228816209E+03  0.26228816209E+03  0.00000000000E+00 0. -1.
         21   -1    0    0  501  502  0.00000000000E+00 -0.00000000000E+00 -0.59306941421E+02  0.59306941421E+02  0.00000000000E+00 0.  1.
         24    2    1    2    0    0 -0.36698194540E+02 -0.84783613308E+01  0.24823817631E+02  0.92583522365E+02  0.80850767457E+02 0.  0.
         23    2    1    2    0    0 -0.36388046221E+01 -0.49166367399E+01  0.78644889966E+02  0.12080234063E+03  0.91491926247E+02 0.  0.
        -11    1    3    3    0    0 -0.58132190705E+02 -0.64098978469E+01 -0.15878897528E+01  0.58506066185E+02  0.00000000000E+00 0.  1.
         12    1    3    3    0    0  0.21433996165E+02 -0.20684634839E+01  0.26411707384E+02  0.34077456180E+02  0.00000000000E+00 0. -1.
        -13    1    4    4    0    0  0.14231888067E+02  0.40268915364E+02  0.31221025755E+02  0.52904485932E+02  0.00000000000E+00 0.  1.
         13    1    4    4    0    0 -0.17870692689E+02 -0.45185552104E+02  0.47423864210E+02  0.67897854699E+02  0.00000000000E+00 0. -1.
          1    1    1    2  501    0  0.40336999162E+02  0.13394998071E+02  0.99512513070E+02  0.10820924051E+03  0.00000000000E+00 0. -1.
<scales pt_clust_5="13000.00000" pt_clust_6="13000.00000" pt_clust_7="13000.00000" pt_clust_8="13000.00000" pt_clust_9="13000.00000"></scales>
<clustering>
<clus scale="   80.851">  5  6 -1 -1</clus>
<clus scale="   89.194">  1  5  2 -1</clus>
<clus scale="   91.492">  7  8 -1 -1</clus>
<clus scale="   23.441">  7  9 -1 -1</clus>
<clus scale="  143.897">  2  5  1 -1</clus>
</clustering>
</event>
<event>
 9    2  0.2147756E-005  0.1887950E+03  0.7546771E-02  0.1196023E+00
         21   -1    0    0  501  502  0.00000000000E+00  0.00000000000E+00  0.50988417568E+02  0.50988417568E+02  0.00000000000E+00 0. -1.
          2   -1    0    0  502    0 -0.00000000000E+00 -0.00000000000E+00 -0.39082659113E+03  0.39082659113E+03  0.00000000000E+00 0. -1.
         24    2    1    2    0    0  0.96667882635E+01  0.17745206980E+02 -0.52878834568E+02  0.98319410338E+02  0.80387786000E+02 0.  0.
         23    2    1    2    0    0 -0.51839637611E+01  0.29278133718E+02 -0.69610751689E+02  0.12107325530E+03  0.94493353232E+02 0.  0.
        -13    1    3    3    0    0  0.20249255892E+00 -0.32123400649E+02 -0.21067415667E+02  0.38416010664E+02  0.00000000000E+00 0.  1.
         14    1    3    3    0    0  0.94642957046E+01  0.49868607629E+02 -0.31811418901E+02  0.59903399674E+02  0.00000000000E+00 0. -1.
        -11    1    4    4    0    0 -0.27863648842E+02  0.48514083658E+02 -0.72066138975E+02  0.91233369042E+02  0.00000000000E+00 0.  1.
         11    1    4    4    0    0  0.22679685081E+02 -0.19235949940E+02  0.24553872864E+01  0.29839886263E+02  0.00000000000E+00 0. -1.
          1    1    1    2  501    0 -0.44828245024E+01 -0.47023340699E+02 -0.21734858731E+03  0.22242234306E+03  0.00000000000E+00 0. -1.
<scales pt_clust_5="13000.00000" pt_clust_6="13000.00000" pt_clust_7="13000.00000" pt_clust_8="13000.00000" pt_clust_9="13000.00000"></scales>
<clustering>
<clus scale="   80.388">  5  6 -1 -1</clus>
<clus scale="   82.889">  2  5  1 -1</clus>
<clus scale="   94.493">  7  8 -1 -1</clus>
<clus scale="   34.719">  7  9 -1 -1</clus>
<clus scale="  188.795">  1  5  2 -1</clus>
</clustering>
</event>
<event>
 9    2  0.2147756E-005  0.8734640E+03  0.7546771E-02  0.9799997E-01
         -3   -1    0    0    0  501 -0.00000000000E+00  0.00000000000E+00  0.15612506759E+04  0.15612506759E+04  0.00000000000E+00 0.  1.
         21   -1    0    0  501  502  0.00000000000E+00 -0.00000000000E+00 -0.22840403268E+03  0.22840403268E+03  0.00000000000E+00 0.  1.
         24    2    1    2    0    0  0.24474299371E+03 -0.93102877415E+02  0.13015472900E+03  0.30324723517E+03  0.80320317540E+02 0.  0.
         23    2    1    2    0    0  0.24132676450E+02 -0.26492729570E+03  0.90768017063E+03  0.95020633601E+03  0.90774064351E+02 0.  0.
        -11    1    3    3    0    0  0.13738772792E+03 -0.47613177044E+02  0.11557938932E+03  0.18574444176E+03  0.00000000000E+00 0.  1.
         12    1    3    3    0    0  0.10735526579E+03 -0.45489700371E+02  0.14575339674E+02  0.11750279341E+03  0.00000000000E+00 0. -1.
        -11    1    4    4    0    0 -0.27596499360E+02 -0.38770424802E+02  0.12070562172E+03  0.12974806253E+03  0.00000000000E+00 0. -1.
         11    1    4    4    0    0  0.51729175810E+02 -0.22615687090E+03  0.78697454891E+03  0.82045827348E+03  0.00000000000E+00 0.  1.
         -4    1    1    2    0  502 -0.26887567016E+03  0.35803017311E+03  0.29501174355E+03  0.53620113735E+03  0.00000000000E+00 0.  1.
<scales pt_clust_5="13000.00000" pt_clust_6="13000.00000" pt_clust_7="13000.00000" pt_clust_8="13000.00000" pt_clust_9="13000.00000"></scales>
<clustering>
<clus scale="   80.320">  5  6 -1 -1</clus>
<clus scale="   90.774">  7  8 -1 -1</clus>
<clus scale="  273.895">  1  5  2 -1</clus>
<clus scale="  381.762">  7  9 -1 -1</clus>
<clus scale="  873.464">  2  5  1 -1</clus>
</clustering>
</event>
<event>
 9    2  0.2147756E-005  0.2274391E+03  0.7546771E-02  0.1171496E+00
          2   -1    0    0  502    0 -0.00000000000E+00  0.00000000000E+00  0.32710279231E+03  0.32710279231E+03  0.00000000000E+00 0. -1.
         21   -1    0    0  501  502  0.00000000000E+00 -0.00000000000E+00 -0.27595012115E+03  0.27595012115E+03  0.00000000000E+00 0. -1.
         24    2    1    2    0    0 -0.17507592395E+02 -0.22766970335E+02  0.27317354989E+03  0.28521359926E+03  0.76799466868E+02 0.  0.
         23    2    1    2    0    0  0.74928749413E+01 -0.64880464015E+02 -0.19327940133E+03  0.22505763585E+03  0.95017865102E+02 0.  0.
        -11    1    3    3    0    0  0.28281752027E+02 -0.16345230266E+02  0.76577927301E+02  0.83253846757E+02  0.00000000000E+00 0.  1.
         12    1    3    3    0    0 -0.45789344422E+02 -0.64217400691E+01  0.19659562259E+03  0.20195975250E+03  0.00000000000E+00 0. -1.
        -13    1    4    4    0    0 -0.23033645732E+02 -0.38020451338E+02 -0.23117590592E+02  0.50105154929E+02  0.00000000000E+00 0.  1.
         13    1    4    4    0    0  0.30526520673E+02 -0.26860012677E+02 -0.17016181074E+03  0.17495248092E+03  0.00000000000E+00 0. -1.
          1    1    1    2  501    0  0.10014717454E+02  0.87647434351E+02 -0.28741477402E+02  0.92781678349E+02  0.00000000000E+00 0. -1.
<scales pt_clust_5="13000.00000" pt_clust_6="13000.00000" pt_clust_7="13000.00000" pt_clust_8="13000.00000" pt_clust_9="13000.00000"></scales>
<clustering>
<clus scale="   76.799">  5  6 -1 -1</clus>
<clus scale="   81.994">  1  5  2 -1</clus>
<clus scale="   95.018">  7  8 -1 -1</clus>
<clus scale="   72.451">  7  9 -1 -1</clus>
<clus scale="  227.439">  2  5  1 -1</clus>
</clustering>
</event>
<event>
 9    2  0.2147756E-005  0.2231884E+03  0.7546771E-02  0.1153786E+00
          2   -1    0    0  502    0 -0.00000000000E+00  0.00000000000E+00  0.40327948461E+02  0.40327948461E+02  0.00000000000E+00 0. -1.
         21   -1    0    0  501  502  0.00000000000E+00 -0.00000000000E+00 -0.97091549090E+03  0.97091549090E+03  0.00000000000E+00 0. -1.
         24    2    1    2    0    0  0.10006673936E+03 -0.24571297852E+02 -0.14829070308E+03  0.19773166464E+03  0.80564120909E+02 0.  0.
         23    2    1    2    0    0  0.16303171899E+02 -0.19316792570E+02 -0.26493169423E+03  0.28140763630E+03  0.91446833030E+02 0.  0.
        -13    1    3    3    0    0  0.36693399237E+02 -0.41451661843E+02 -0.10631853306E+03  0.11986774500E+03  0.00000000000E+00 0.  1.
         14    1    3    3    0    0  0.63373340123E+02  0.16880363992E+02 -0.41972170011E+02  0.77863919644E+02  0.00000000000E+00 0. -1.
        -13    1    4    4    0    0  0.48622127895E+02 -0.21537194573E+02 -0.99353752072E+02  0.11269041717E+03  0.00000000000E+00 0. -1.
         13    1    4    4    0    0 -0.32318955997E+02  0.22204020030E+01 -0.16557794215E+03  0.16871721913E+03  0.00000000000E+00 0.  1.
          1    1    1    2  501    0 -0.11636991126E+03  0.43888090422E+02 -0.51736514513E+03  0.53210413842E+03  0.00000000000E+00 0. -1.
<scales pt_clust_5="13000.00000" pt_clust_6="13000.00000" pt_clust_7="13000.00000" pt_clust_8="13000.00000" pt_clust_9="13000.00000"></scales>
<clustering>
<clus scale="   80.564">  5  6 -1 -1</clus>
<clus scale="   91.447">  7  8 -1 -1</clus>
<clus scale="  124.371">  7  9 -1 -1</clus>
<clus scale="  130.796">  1  5  2 -1</clus>
<clus scale="  223.188">  2  5  1 -1</clus>
</clustering>
</event>
<event>
 9    2  0.2147756E-005  0.3624043E+03  0.7546771E-02  0.1101727E+00
         -1   -1    0    0    0  501 -0.00000000000E+00  0.00000000000E+00  0.22805703968E+03  0.22805703968E+03  0.00000000000E+00 0.  1.
         21   -1    0    0  501  502  0.00000000000E+00 -0.00000000000E+00 -0.27181710722E+03  0.27181710722E+03  0.00000000000E+00 0. -1.
         24    2    1    2    0    0 -0.63767294061E+00 -0.75063901788E+02  0.56316001423E+02  0.12390589808E+03  0.80908488953E+02 0.  0.
         23    2    1    2    0    0  0.11567615555E+03 -0.80730382576E+02 -0.52994374676E+02  0.17666346348E+03  0.92212840481E+02 0.  0.
        -11    1    3    3    0    0  0.80457285018E+01 -0.87133811254E+02  0.62776957014E+02  0.10769392343E+03  0.00000000000E+00 0.  1.
         12    1    3    3    0    0 -0.86834014424E+01  0.12069909465E+02 -0.64609555913E+01  0.16211974657E+02  0.00000000000E+00 0. -1.
        -11    1    4    4    0    0  0.39378871682E+02  0.18305138260E+02 -0.16128712512E+02  0.46323956966E+02  0.00000000000E+00 0.  1.
         11    1    4    4    0    0  0.76297283863E+02 -0.99035520836E+02 -0.36865662163E+02  0.13033950652E+03  0.00000000000E+00 0. -1.
         -2    1    1    2    0  502 -0.11503848260E+03  0.15579428436E+03 -0.47081694291E+02  0.19930478534E+03  0.00000000000E+00 0.  1.
<scales pt_clust_5="13000.00000" pt_clust_6="13000.00000" pt_clust_7="13000.00000" pt_clust_8="13000.00000" pt_clust_9="13000.00000"></scales>
<clustering>
<clus scale="   80.908">  5  6 -1 -1</clus>
<clus scale="   92.213">  7  8 -1 -1</clus>
<clus scale="  110.368">  1  5  2 -1</clus>
<clus scale="  162.472">  7  9 -1 -1</clus>
<clus scale="  362.404">  2  5  1 -1</clus>
</clustering>
</event>
<event>
 9    2  0.2147756E-005  0.2805783E+03  0.7546771E-02  0.1127720E+00
         21   -1    0    0  501  502  0.00000000000E+00  0.00000000000E+00  0.35440673399E+02  0.35440673399E+02  0.00000000000E+00 0.  1.
          2   -1    0    0  502    0 -0.00000000000E+00 -0.00000000000E+00 -0.11742447734E+04  0.11742447734E+04  0.00000000000E+00 0. -1.
         24    2    1    2    0    0 -0.55864126065E+02  0.77158366765E+02 -0.43076126977E+03  0.44807608730E+03  0.78375342609E+02 0.  0.
         23    2    1    2    0    0  0.29801341533E+02  0.76674093602E+02 -0.18817500854E+03  0.21883293534E+03  0.75571047117E+02 0.  0.
        -13    1    3    3    0    0 -0.50054213087E+02  0.59673997849E+01 -0.21368887715E+03  0.21955402598E+03  0.00000000000E+00 0.  1.
         14    1    3    3    0    0 -0.58099129780E+01  0.71190966980E+02 -0.21707239262E+03  0.22852206132E+03  0.00000000000E+00 0. -1.
        -11    1    4    4    0    0  0.34576202379E+02  0.51609170896E+02 -0.54175489797E+02  0.82425748321E+02  0.00000000000E+00 0.  1.
         11    1    4    4    0    0 -0.47748608457E+01  0.25064922707E+02 -0.13399951874E+03  0.13640718702E+03  0.00000000000E+00 0. -1.
          1    1    1    2  501    0  0.26062784532E+02 -0.15383246037E+03 -0.51986782166E+03  0.54277642413E+03  0.00000000000E+00 0. -1.
<scales pt_clust_5="13000.00000" pt_clust_6="13000.00000" pt_clust_7="13000.00000" pt_clust_8="13000.00000" pt_clust_9="13000.00000"></scales>
<clustering>
<clus scale="   75.571">  7  8 -1 -1</clus>
<clus scale="   78.375">  5  6 -1 -1</clus>
<clus scale="  123.357">  2  5  1 -1</clus>
<clus scale="   99.084">  7  9 -1 -1</clus>
<clus scale="  280.578">  1  5  2 -1</clus>
</clustering>
</event>
<event>
 9    2  0.2147756E-005  0.5825225E+03  0.7546771E-02  0.1008158E+00
         21   -1    0    0  501  502  0.00000000000E+00  0.00000000000E+00  0.16807252332E+03  0.16807252332E+03  0.00000000000E+00 0. -1.
          2   -1    0    0  502    0 -0.00000000000E+00 -0.00000000000E+00 -0.13920358353E+04  0.13920358353E+04  0.00000000000E+00 0. -1.
         24    2    1    2    0    0 -0.34986484364E+03 -0.11215429722E+03 -0.58548345592E+03  0.69582313038E+03  0.79968471401E+02 0.  0.
         23    2    1    2    0    0 -0.69846377135E+02 -0.42837089039E+02 -0.71524301483E+02  0.14205365905E+03  0.91378245497E+02 0.  0.
        -13    1    3    3    0    0 -0.45715920575E+02 -0.29370229931E+02 -0.13933731800E+03  0.14955749392E+03  0.00000000000E+00 0.  1.
         14    1    3    3    0    0 -0.30414892306E+03 -0.82784067290E+02 -0.44614613792E+03  0.54626563646E+03  0.00000000000E+00 0. -1.
        -11    1    4    4    0    0 -0.37651939676E+02 -0.58737942509E+02 -0.95384556964E+01  0.70418723282E+02  0.00000000000E+00 0. -1.
         11    1    4    4    0    0 -0.32194437459E+02  0.15900853470E+02 -0.61985845786E+02  0.71634935766E+02  0.00000000000E+00 0.  1.
          1    1    1    2  501    0  0.41971122077E+03  0.15499138626E+03 -0.56695555453E+03  0.72223156915E+03  0.00000000000E+00 0. -1.
<scales pt_clust_5="13000.00000" pt_clust_6="13000.00000" pt_clust_7="13000.00000" pt_clust_8="13000.00000" pt_clust_9="13000.00000"></scales>
<clustering>
<clus scale="   79.968">  5  6 -1 -1</clus>
<clus scale="   91.378">  7  8 -1 -1</clus>
<clus scale="  376.004">  2  5  1 -1</clus>
<clus scale="  133.236">  7  9 -1 -1</clus>
<clus scale="  582.522">  1  5  2 -1</clus>
</clustering>
</event>
<event>
 9    2  0.2147756E-005  0.3544286E+03  0.7546771E-02  0.1070262E+00
          2   -1    0    0  502    0 -0.00000000000E+00  0.00000000000E+00  0.74236787335E+03  0.74236787335E+03  0.00000000000E+00 0. -1.
         21   -1    0    0  501  502  0.00000000000E+00 -0.00000000000E+00 -0.15713574741E+03  0.15713574741E+03  0.00000000000E+00 0.  1.
         24    2    1    2    0    0  0.23455036160E+03 -0.11066926263E+03  0.83704242015E+02  0.28537833133E+03  0.84692585538E+02 0.  0.
         23    2    1    2    0    0 -0.72391615808E+01  0.62228142292E+02  0.24389707184E+03  0.26715186231E+03  0.89216527227E+02 0.  0.
        -11    1    3    3    0    0  0.20868903028E+03 -0.69513010701E+02  0.48188035668E+02  0.22517827781E+03  0.00000000000E+00 0.  1.
         12    1    3    3    0    0  0.25861331315E+02 -0.41156251933E+02  0.35516206346E+02  0.60200053520E+02  0.00000000000E+00 0. -1.
        -13    1    4    4    0    0 -0.20880376369E+02 -0.15852729639E+02  0.35054854735E+02  0.43773759204E+02  0.00000000000E+00 0.  1.
         13    1    4    4    0    0  0.13641214788E+02  0.78080871931E+02  0.20884221711E+03  0.22337810311E+03  0.00000000000E+00 0. -1.
          1    1    1    2  501    0 -0.22731120002E+03  0.48441120342E+02  0.25763081208E+03  0.34697342712E+03  0.00000000000E+00 0. -1.
<scales pt_clust_5="13000.00000" pt_clust_6="13000.00000" pt_clust_7="13000.00000" pt_clust_8="13000.00000" pt_clust_9="13000.00000"></scales>
<clustering>
<clus scale="   84.693">  5  6 -1 -1</clus>
<clus scale="   89.217">  7  8 -1 -1</clus>
<clus scale="  232.416">  7  9 -1 -1</clus>
<clus scale="  272.827">  1  5  2 -1</clus>
<clus scale="  354.429">  2  5  1 -1</clus>
</clustering>
</event>
<event>
 9    2  0.2147756E-005  0.2546753E+03  0.7546771E-02  0.1115887E+00
          2   -1    0    0  502    0 -0.00000000000E+00  0.00000000000E+00  0.14684303394E+03  0.14684303394E+03  0.00000000000E+00 0. -1.
         21   -1    0    0  501  502  0.00000000000E+00 -0.00000000000E+00 -0.40264495659E+03  0.40264495659E+03  0.00000000000E+00 0.  1.
         24    2    1    2    0    0  0.51324322262E+01  0.19987095635E+03 -0.63824381223E+02  0.23056026189E+03  0.95444966715E+02 0.  0.
         23    2    1    2    0    0  0.36366682123E+02 -0.18707912151E+03 -0.15812657044E+03  0.26386689168E+03  0.91107579094E+02 0.  0.
        -11    1    3    3    0    0  0.12162517815E+02  0.19212252403E+03 -0.29596329002E+02  0.19476892403E+03  0.00000000000E+00 0.  1.
         12    1    3    3    0    0 -0.70300855891E+01  0.77484323248E+01 -0.34228052221E+02  0.35791337859E+02  0.00000000000E+00 0. -1.
        -11    1    4    4    0    0 -0.20106719468E+02 -0.12539246059E+02 -0.35179153271E+01  0.23955971860E+02  0.00000000000E+00 0.  1.
         11    1    4    4    0    0  0.56473401591E+02 -0.17453987545E+03 -0.15460865512E+03  0.23991091982E+03  0.00000000000E+00 0. -1.
          1    1    1    2  501    0 -0.41499114349E+02 -0.12791834838E+02 -0.33850970981E+02  0.55060836959E+02  0.00000000000E+00 0. -1.
<scales pt_clust_5="13000.00000" pt_clust_6="13000.00000" pt_clust_7="13000.00000" pt_clust_8="13000.00000" pt_clust_9="13000.00000"></scales>
<clustering>
<clus scale="   91.108">  7  8 -1 -1</clus>
<clus scale="   43.426">  7  9 -1 -1</clus>
<clus scale="   95.445">  5  6 -1 -1</clus>
<clus scale="  221.550">  1  5  2 -1</clus>
<clus scale="  254.675">  2  5  1 -1</clus>
</clustering>
</event>
<event>
 9    2  0.2147756E-005  0.3103558E+03  0.7546771E-02  0.1098367E+00
          2   -1    0    0  502    0 -0.00000000000E+00  0.00000000000E+00  0.66442464906E+03  0.66442464906E+03  0.00000000000E+00 0. -1.
         21   -1    0    0  501  502  0.00000000000E+00 -0.00000000000E+00 -0.10112774104E+03  0.10112774104E+03  0.00000000000E+00 0.  1.
         24    2    1    2    0    0 -0.16913526778E+03 -0.42682009176E+02  0.12643186233E+03  0.22966824553E+03  0.79586396301E+02 0.  0.
         23    2    1    2    0    0  0.63325358703E+02  0.11901949635E+03  0.15902088503E+03  0.22893052199E+03  0.94582241753E+02 0.  0.
        -11    1    3    3    0    0 -0.62479062687E+02  0.77889375999E+01  0.97303997240E+01  0.63710136571E+02  0.00000000000E+00 0.  1.
         12    1    3    3    0    0 -0.10665620510E+03 -0.50470946775E+02  0.11670146260E+03  0.16595810895E+03  0.00000000000E+00 0. -1.
        -13    1    4    4    0    0 -0.21537901965E+02  0.46419908192E+01  0.25611540266E+02  0.33784320248E+02  0.00000000000E+00 0.  1.
         13    1    4    4    0    0  0.84863260668E+02  0.11437750553E+03  0.13340934477E+03  0.19514620174E+03  0.00000000000E+00 0. -1.
          1    1    1    2  501    0  0.10580990908E+03 -0.76337487170E+02  0.27784416066E+03  0.30695362259E+03  0.00000000000E+00 0. -1.
<scales pt_clust_5="13000.00000" pt_clust_6="13000.00000" pt_clust_7="13000.00000" pt_clust_8="13000.00000" pt_clust_9="13000.00000"></scales>
<clustering>
<clus scale="   79.586">  5  6 -1 -1</clus>
<clus scale="   94.582">  7  8 -1 -1</clus>
<clus scale="  130.473">  7  9 -1 -1</clus>
<clus scale="  191.736">  1  5  2 -1</clus>
<clus scale="  310.356">  2  5  1 -1</clus>
</clustering>
</event>
<event>
 9    2  0.2147756E-005  0.4065582E+03  0.7546771E-02  0.1100105E+00
          2   -1    0    0  502    0 -0.00000000000E+00  0.00000000000E+00  0.40766764911E+03  0.40766764911E+03  0.00000000000E+00 0. -1.
         21   -1    0    0  501  502  0.00000000000E+00 -0.00000000000E+00 -0.15475076127E+03  0.15475076127E+03  0.00000000000E+00 0. -1.
         24    2    1    2    0    0 -0.13479722924E+02 -0.16797317307E+02 -0.37608734212E+01  0.81613872940E+02  0.78630956300E+02 0.  0.
         23    2    1    2    0    0  0.68150607598E+02  0.18380680063E+03  0.20519321989E+03  0.29768782288E+03  0.89912941927E+02 0.  0.
        -13    1    3    3    0    0  0.15501592928E+02 -0.37952077883E+02  0.11566561836E+02  0.42596302089E+02  0.00000000000E+00 0.  1.
         14    1    3    3    0    0 -0.28981315852E+02  0.21154760576E+02 -0.15327435258E+02  0.39017570851E+02  0.00000000000E+00 0. -1.
        -11    1    4    4    0    0  0.23034284733E+02  0.12329075505E+02  0.69992026926E+02  0.74709224391E+02  0.00000000000E+00 0.  1.
         11    1    4    4    0    0  0.45116322865E+02  0.17147772513E+03  0.13520119296E+03  0.22297859849E+03  0.00000000000E+00 0. -1.
          1    1    1    2  501    0 -0.54670884674E+02 -0.16700948333E+03  0.51484541377E+02  0.18311671457E+03  0.00000000000E+00 0. -1.
<scales pt_clust_5="13000.00000" pt_clust_6="13000.00000" pt_clust_7="13000.00000" pt_clust_8="13000.00000" pt_clust_9="13000.00000"></scales>
<clustering>
<clus scale="   78.631">  5  6 -1 -1</clus>
<clus scale="   81.527">  1  5  2 -1</clus>
<clus scale="   89.913">  7  8 -1 -1</clus>
<clus scale="  182.158">  7  9 -1 -1</clus>
<clus scale="  406.558">  2  5  1 -1</clus>
</clustering>
</event>
<event>
 9    2  0.2147756E-005  0.1771630E+03  0.7546771E-02  0.1196910E+00
          4   -1    0    0  502    0 -0.00000000000E+00  0.00000000000E+00  0.49835897152E+03  0.49835897152E+03  0.00000000000E+00 0. -1.
         21   -1    0    0  501  502  0.00000000000E+00 -0.00000000000E+00 -0.48224929268E+02  0.48224929268E+02  0.00000000000E+00 0.  1.
         24    2    1    2    0    0 -0.43306864084E+02  0.22727044695E+02  0.53062206731E+02  0.11178192706E+03  0.85367431712E+02 0.  0.
         23    2    1    2    0    0  0.14579611720E+00  0.39536049689E+02  0.18049223250E+03  0.20535416887E+03  0.89608973861E+02 0.  0.
        -13    1    3    3    0    0 -0.50894877144E+02  0.49193884285E+02  0.40055164060E+02  0.81331069945E+02  0.00000000000E+00 0.  1.
         14    1    3    3    0    0  0.75880130605E+01 -0.26466839590E+02  0.13007042671E+02  0.30450857117E+02  0.00000000000E+00 0. -1.
        -13    1    4    4    0    0 -0.38848494268E+02  0.83679005539E+01  0.40555989961E+02  0.56780415534E+02  0.00000000000E+00 0.  1.
         13    1    4    4    0    0  0.38994290385E+02  0.31168149135E+02  0.13993624254E+03  0.14857375333E+03  0.00000000000E+00 0. -1.
          3    1    1    2  501    0  0.43161067967E+02 -0.62263094384E+02  0.21657960302E+03  0.22944780486E+03  0.00000000000E+00 0. -1.
<scales pt_clust_5="13000.00000" pt_clust_6="13000.00000" pt_clust_7="13000.00000" pt_clust_8="13000.00000" pt_clust_9="13000.00000"></scales>
<clustering>
<clus scale="   85.367">  5  6 -1 -1</clus>
<clus scale="   89.609">  7  8 -1 -1</clus>
<clus scale="   75.760">  7  9 -1 -1</clus>
<clus scale="   98.385">  1  5  2 -1</clus>
<clus scale="  177.163">  2  5  1 -1</clus>
</clustering>
</event>
<event>
 9    2  0.2147756E-005  0.1734556E+03  0.7546771E-02  0.1183092E+00
          2   -1    0    0  502    0 -0.00000000000E+00  0.00000000000E+00  0.12486487359E+04  0.12486487359E+04  0.00000000000E+00 0. -1.
         21   -1    0    0  501  502  0.00000000000E+00 -0.00000000000E+00 -0.57341361484E+02  0.57341361484E+02  0.00000000000E+00 0. -1.
         24    2    1    2    0    0  0.11827840497E+03  0.82676592364E+01  0.11015301017E+04  0.11106779896E+04  0.78605956951E+02 0.  0.
         23    2    1    2    0    0 -0.42561202092E+02 -0.26490292518E+01  0.46306677911E+02  0.10782292882E+03  0.87538575957E+02 0.  0.
        -11    1    3    3    0    0  0.60498952957E+02  0.30462719471E+02  0.34283924776E+03  0.34946652256E+03  0.00000000000E+00 0.  1.
         12    1    3    3    0    0  0.57779452016E+02 -0.22195060235E+02  0.75869085394E+03  0.76121146708E+03  0.00000000000E+00 0. -1.
        -13    1    4    4    0    0 -0.53951775606E+02 -0.33984501520E+02  0.34165437871E+02  0.72339598973E+02  0.00000000000E+00 0.  1.
         13    1    4    4    0    0  0.11390573514E+02  0.31335472268E+02  0.12141240040E+02  0.35483329846E+02  0.00000000000E+00 0. -1.
          1    1    1    2  501    0 -0.75717202881E+02 -0.56186299846E+01  0.43470594810E+02  0.87489178920E+02  0.00000000000E+00 0. -1.
<scales pt_clust_5="13000.00000" pt_clust_6="13000.00000" pt_clust_7="13000.00000" pt_clust_8="13000.00000" pt_clust_9="13000.00000"></scales>
<clustering>
<clus scale="   78.606">  5  6 -1 -1</clus>
<clus scale="   87.539">  7  8 -1 -1</clus>
<clus scale="   75.925">  7  9 -1 -1</clus>
<clus scale="  142.257">  1  5  2 -1</clus>
<clus scale="  173.456">  2  5  1 -1</clus>
</clustering>
</event>
<event>
 9    2  0.2147756E-005  0.4503633E+03  0.7546771E-02  0.1080254E+00
         21   -1    0    0  501  502  0.00000000000E+00  0.00000000000E+00  0.77310706598E+02  0.77310706598E+02  0.00000000000E+00 0. -1.
          2   -1    0    0  502    0 -0.00000000000E+00 -0.00000000000E+00 -0.99714223020E+03  0.99714223020E+03  0.00000000000E+00 0. -1.
         24    2    1    2    0    0 -0.50958616689E+02  0.26739282753E+02 -0.12530798909E+03  0.16116506646E+03  0.83428512276E+02 0.  0.
         23    2    1    2    0    0  0.14233576677E+03 -0.19447691421E+03 -0.42568562266E+03  0.49792405176E+03  0.92948218489E+02 0.  0.
        -13    1    3    3    0    0 -0.63457681137E+02  0.32778352898E+02 -0.12841398605E+03  0.14694029239E+03  0.00000000000E+00 0.  1.
         14    1    3    3    0    0  0.12499064448E+02 -0.60390701453E+01  0.31059969600E+01  0.14224774072E+02  0.00000000000E+00 0. -1.
        -11    1    4    4    0    0  0.75763536998E+02 -0.31359929376E+02 -0.12803058254E+03  0.15203745845E+03  0.00000000000E+00 0.  1.
         11    1    4    4    0    0  0.66572229772E+02 -0.16311698483E+03 -0.29765504012E+03  0.34588659330E+03  0.00000000000E+00 0. -1.
          1    1    1    2  501    0 -0.91377150081E+02  0.16773763145E+03 -0.36883791185E+03  0.41536381858E+03  0.00000000000E+00 0. -1.
<scales pt_clust_5="13000.00000" pt_clust_6="13000.00000" pt_clust_7="13000.00000" pt_clust_8="13000.00000" pt_clust_9="13000.00000"></scales>
<clustering>
<clus scale="   83.429">  5  6 -1 -1</clus>
<clus scale="   92.948">  7  8 -1 -1</clus>
<clus scale="  101.351">  2  5  1 -1</clus>
<clus scale="  213.493">  7  9 -1 -1</clus>
<clus scale="  450.363">  1  5  2 -1</clus>
</clustering>
</event>
<event>
 9    2  0.2147756E-005  0.2184340E+03  0.7546771E-02  0.1156337E+00
          2   -1    0    0  502    0 -0.00000000000E+00  0.00000000000E+00  0.88281252777E+03  0.88281252777E+03  0.00000000000E+00 0. -1.
         21   -1    0    0  501  502  0.00000000000E+00 -0.00000000000E+00 -0.80733160878E+02  0.80733160878E+02  0.00000000000E+00 0.  1.
         24    2    1    2    0    0  0.99419617892E+02  0.34653744173E+02  0.71729719260E+03  0.72923510830E+03  0.78634841229E+02 0.  0.
         23    2    1    2    0    0 -0.11520546668E+03  0.19210667052E+02  0.96390741659E+02  0.17699281124E+03  0.91618398112E+02 0.  0.
        -11    1    3    3    0    0  0.73669350450E+02  0.26643354062E+01  0.26453373720E+03  0.27461312787E+03  0.00000000000E+00 0.  1.
         12    1    3    3    0    0  0.25750267442E+02  0.31989408767E+02  0.45276345540E+03  0.45462198043E+03  0.00000000000E+00 0. -1.
        -13    1    4    4    0    0 -0.12469076004E+03 -0.25209526005E+01  0.80059503695E+02  0.14820143378E+03  0.00000000000E+00 0.  1.
         13    1    4    4    0    0  0.94852933623E+01  0.21731619652E+02  0.16331237964E+02  0.28791377465E+02  0.00000000000E+00 0. -1.
          1    1    1    2  501    0  0.15785848789E+02 -0.53864411225E+02 -0.11608567370E+02  0.57317769103E+02  0.00000000000E+00 0. -1.
<scales pt_clust_5="13000.00000" pt_clust_6="13000.00000" pt_clust_7="13000.00000" pt_clust_8="13000.00000" pt_clust_9="13000.00000"></scales>
<clustering>
<clus scale="   78.635">  5  6 -1 -1</clus>
<clus scale="   91.618">  7  8 -1 -1</clus>
<clus scale="   56.130">  7  9 -1 -1</clus>
<clus scale="  131.410">  1  5  2 -1</clus>
<clus scale="  218.434">  2  5  1 -1</clus>
</clustering>
</event>
<event>
 9    2  0.2147756E-005  0.2783257E+03  0.7546771E-02  0.1142094E+00
          2   -1    0    0  502    0 -0.00000000000E+00  0.00000000000E+00  0.22685718807E+03  0.22685718807E+03  0.00000000000E+00 0. -1.
         21   -1    0    0  501  502  0.00000000000E+00 -0.00000000000E+00 -0.14910710703E+03  0.14910710703E+03  0.00000000000E+00 0. -1.
         24    2    1    2    0    0 -0.90700292253E+01  0.39422630542E+02  0.26842701301E+02  0.93021223467E+02  0.79347389201E+02 0.  0.
         23    2    1    2    0    0  0.61588993051E+00  0.98946937056E+02  0.44856703616E+02  0.14418349398E+03  0.94793883784E+02 0.  0.
        -13    1    3    3    0    0 -0.23392625257E+02  0.13071859080E+02  0.48920952092E+02  0.55779458314E+02  0.00000000000E+00 0.  1.
         14    1    3    3    0    0  0.14322596031E+02  0.26350771462E+02 -0.22078250791E+02  0.37241765153E+02  0.00000000000E+00 0. -1.
        -11    1    4    4    0    0 -0.32547429531E+02  0.77461196805E+01 -0.69599378594E+01  0.34172770947E+02  0.00000000000E+00 0.  1.
         11    1    4    4    0    0  0.33163319462E+02  0.91200817376E+02  0.51816641476E+02  0.11001072303E+03  0.00000000000E+00 0. -1.
          1    1    1    2  501    0  0.84541392947E+01 -0.13836956760E+03  0.60506761266E+01  0.13875957765E+03  0.00000000000E+00 0. -1.
<scales pt_clust_5="13000.00000" pt_clust_6="13000.00000" pt_clust_7="13000.00000" pt_clust_8="13000.00000" pt_clust_9="13000.00000"></scales>
<clustering>
<clus scale="   79.347">  5  6 -1 -1</clus>
<clus scale="   89.064">  1  5  2 -1</clus>
<clus scale="   94.794">  7  8 -1 -1</clus>
<clus scale="  121.354">  7  9 -1 -1</clus>
<clus scale="  278.326">  2  5  1 -1</clus>
</clustering>
</event>
<event>
 9    2  0.2147756E-005  0.5379455E+03  0.7546771E-02  0.1013564E+00
          2   -1    0    0  502    0 -0.00000000000E+00  0.00000000000E+00  0.35123067278E+04  0.35123067278E+04  0.00000000000E+00 0. -1.
         21   -1    0    0  501  502  0.00000000000E+00 -0.00000000000E+00 -0.99690345664E+02  0.99690345664E+02  0.00000000000E+00 0. -1.
         24    2    1    2    0    0  0.83637795942E+02 -0.38681687321E+03  0.46665977214E+03  0.61732752123E+03  0.81849564552E+02 0.  0.
         23    2    1    2    0    0 -0.31224216326E+02 -0.41229729685E+02  0.54141079872E+03  0.55175906757E+03  0.92938546263E+02 0.  0.
        -13    1    3    3    0    0  0.29311547605E+02 -0.69984553481E+02  0.13870602654E+03  0.15810239197E+03  0.00000000000E+00 0.  1.
         14    1    3    3    0    0  0.54326248337E+02 -0.31683231973E+03  0.32795374560E+03  0.45922512926E+03  0.00000000000E+00 0. -1.
        -11    1    4    4    0    0 -0.49269748205E+02 -0.61743677317E+02  0.39506756140E+03  0.40288728926E+03  0.00000000000E+00 0. -1.
         11    1    4    4    0    0  0.18045531879E+02  0.20513947632E+02  0.14634323733E+03  0.14887177832E+03  0.00000000000E+00 0.  1.
          1    1    1    2  501    0 -0.52413579616E+02  0.42804660290E+03  0.24045458112E+04  0.24429104846E+04  0.00000000000E+00 0. -1.
<scales pt_clust_5="13000.00000" pt_clust_6="13000.00000" pt_clust_7="13000.00000" pt_clust_8="13000.00000" pt_clust_9="13000.00000"></scales>
<clustering>
<clus scale="   81.850">  5  6 -1 -1</clus>
<clus scale="   92.939">  7  8 -1 -1</clus>
<clus scale="  404.131">  1  5  2 -1</clus>
<clus scale="  113.520">  7  9 -1 -1</clus>
<clus scale="  537.946">  2  5  1 -1</clus>
</clustering>
</event>
<event>
 9    2  0.2147756E-005  0.1563067E+03  0.7546771E-02  0.1218505E+00
         21   -1    0    0  501  502  0.00000000000E+00  0.00000000000E+00  0.31684067658E+02  0.31684067658E+02  0.00000000000E+00 0. -1.
          2   -1    0    0  502    0 -0.00000000000E+00 -0.00000000000E+00 -0.50909894732E+03  0.50909894732E+03  0.00000000000E+00 0. -1.
         24    2    1    2    0    0 -0.37385231295E+02  0.20306203181E+02 -0.24151409741E+03  0.25779720264E+03  0.79500572554E+02 0.  0.
         23    2    1    2    0    0  0.34857266462E+02  0.17469087771E+02 -0.97485816887E+02  0.13948645397E+03  0.91830214502E+02 0.  0.
        -11    1    3    3    0    0 -0.30546791432E+02 -0.18468020577E+02 -0.18800440631E+03  0.19136308694E+03  0.00000000000E+00 0.  1.
         12    1    3    3    0    0 -0.68384398632E+01  0.38774223759E+02 -0.53509691101E+02  0.66434115706E+02  0.00000000000E+00 0. -1.
        -13    1    4    4    0    0 -0.11054710113E+02 -0.30698343801E+02 -0.25129147404E+02  0.41183358011E+02  0.00000000000E+00 0. -1.
         13    1    4    4    0    0  0.45911976575E+02  0.48167431572E+02 -0.72356669483E+02  0.98303095963E+02  0.00000000000E+00 0.  1.
          1    1    1    2  501    0  0.25279648331E+01 -0.37775290952E+02 -0.13841496536E+03  0.14349935836E+03  0.00000000000E+00 0. -1.
<scales pt_clust_5="13000.00000" pt_clust_6="13000.00000" pt_clust_7="13000.00000" pt_clust_8="13000.00000" pt_clust_9="13000.00000"></scales>
<clustering>
<clus scale="   79.501">  5  6 -1 -1</clus>
<clus scale="   90.168">  2  5  1 -1</clus>
<clus scale="   91.830">  7  8 -1 -1</clus>
<clus scale="   32.116">  7  9 -1 -1</clus>
<clus scale="  156.307">  1  5  2 -1</clus>
</clustering>
</event>
<event>
 9    2  0.2147756E-005  0.1939219E+03  0.7546771E-02  0.1182499E+00
         -1   -1    0    0    0  501 -0.00000000000E+00  0.00000000000E+00  0.10870785630E+03  0.10870785630E+03  0.00000000000E+00 0.  1.
         21   -1    0    0  501  502  0.00000000000E+00 -0.00000000000E+00 -0.21404098831E+03  0.21404098831E+03  0.00000000000E+00 0.  1.
         24    2    1    2    0    0 -0.33923821003E+02 -0.59096924550E+02 -0.72442187728E+02  0.12605740253E+03  0.77455316450E+02 0.  0.
         23    2    1    2    0    0  0.46942143157E+02  0.12846451557E+02 -0.78890409942E+02  0.13017427284E+03  0.91395013028E+02 0.  0.
        -13    1    3    3    0    0 -0.45178357716E+02 -0.23403806774E+02 -0.79572965505E+01  0.51498939269E+02  0.00000000000E+00 0.  1.
         14    1    3    3    0    0  0.11254536714E+02 -0.35693117776E+02 -0.64484891178E+02  0.74558463258E+02  0.00000000000E+00 0. -1.
        -13    1    4    4    0    0  0.16850564363E+02 -0.27149441812E+02  0.51424610287E+01  0.32364774300E+02  0.00000000000E+00 0. -1.
         13    1    4    4    0    0  0.30091578793E+02  0.39995893370E+02 -0.84032870971E+02  0.97809498538E+02  0.00000000000E+00 0.  1.
         -2    1    1    2    0  502 -0.13018322154E+02  0.46250472992E+02  0.45999465654E+02  0.66517169244E+02  0.00000000000E+00 0.  1.
<scales pt_clust_5="13000.00000" pt_clust_6="13000.00000" pt_clust_7="13000.00000" pt_clust_8="13000.00000" pt_clust_9="13000.00000"></scales>
<clustering>
<clus scale="   77.455">  5  6 -1 -1</clus>
<clus scale="   91.395">  7  8 -1 -1</clus>
<clus scale="   48.048">  7  9 -1 -1</clus>
<clus scale="  103.163">  1  5  2 -1</clus>
<clus scale="  193.922">  2  5  1 -1</clus>
</clustering>
</event>
<event>
 9    2  0.2147756E-005  0.1473532E+03  0.7546771E-02  0.1222289E+00
          2   -1    0    0  502    0 -0.00000000000E+00  0.00000000000E+00  0.10490019318E+03  0.10490019318E+03  0.00000000000E+00 0. -1.
         21   -1    0    0  501  502  0.00000000000E+00 -0.00000000000E+00 -0.14582862938E+03  0.14582862938E+03  0.00000000000E+00 0. -1.
         24    2    1    2    0    0 -0.57706848683E+02  0.11911841085E+02 -0.25092932058E+02  0.10252717078E+03  0.80063681942E+02 0.  0.
         23    2    1    2    0    0  0.15887417845E+02  0.17743205420E+02 -0.61964830912E+01  0.96036555158E+02  0.92829909725E+02 0.  0.
        -13    1    3    3    0    0 -0.55536329563E+02  0.17847639814E+02  0.16368563343E+02  0.60586731338E+02  0.00000000000E+00 0.  1.
         14    1    3    3    0    0 -0.21705191197E+01 -0.59357987288E+01 -0.41461495401E+02  0.41940439443E+02  0.00000000000E+00 0. -1.
        -13    1    4    4    0    0  0.18674833169E+02 -0.31551519543E+02  0.18235809351E+02  0.40948657146E+02  0.00000000000E+00 0.  1.
         13    1    4    4    0    0 -0.27874153242E+01  0.49294724963E+02 -0.24432292442E+02  0.55087898012E+02  0.00000000000E+00 0. -1.
          1    1    1    2  501    0  0.41819430838E+02 -0.29655046504E+02 -0.96390210551E+01  0.52165096623E+02  0.00000000000E+00 0. -1.
<scales pt_clust_5="13000.00000" pt_clust_6="13000.00000" pt_clust_7="13000.00000" pt_clust_8="13000.00000" pt_clust_9="13000.00000"></scales>
<clustering>
<clus scale="   80.064">  5  6 -1 -1</clus>
<clus scale="   92.830">  7  8 -1 -1</clus>
<clus scale="   51.267">  7  9 -1 -1</clus>
<clus scale="   99.409">  1  5  2 -1</clus>
<clus scale="  147.353">  2  5  1 -1</clus>
</clustering>
</event>
<event>
 9    2  0.2147756E-005  0.3124287E+03  0.7546771E-02  0.1130321E+00
         21   -1    0    0  501  502  0.00000000000E+00  0.00000000000E+00  0.62387549548E+02  0.62387549548E+02  0.00000000000E+00 0. -1.
          2   -1    0    0  502    0 -0.00000000000E+00 -0.00000000000E+00 -0.73267384930E+03  0.73267384930E+03  0.00000000000E+00 0. -1.
         24    2    1    2    0    0 -0.18090546670E+02  0.12177918688E+02 -0.29537566908E+03  0.30703506508E+03  0.80920799037E+02 0.  0.
         23    2    1    2    0    0  0.13512689891E+03 -0.44703771045E+02 -0.11903821733E+03  0.20478415696E+03  0.86653031118E+02 0.  0.
        -13    1    3    3    0    0  0.25719621227E+02  0.25202205244E+02 -0.97157491870E+02  0.10361577241E+03  0.00000000000E+00 0.  1.
         14    1    3    3    0    0 -0.43810167897E+02 -0.13024286556E+02 -0.19821817721E+03  0.20341929267E+03  0.00000000000E+00 0. -1.
        -13    1    4    4    0    0  0.31182813763E+02 -0.37333823926E+02 -0.79758747984E+02  0.93421839861E+02  0.00000000000E+00 0.  1.
         13    1    4    4    0    0  0.10394408515E+03 -0.73699471188E+01 -0.39279469351E+02  0.11136231710E+03  0.00000000000E+00 0. -1.
          1    1    1    2  501    0 -0.11703635224E+03  0.32525852356E+02 -0.25587241333E+03  0.28324217681E+03  0.00000000000E+00 0. -1.
<scales pt_clust_5="13000.00000" pt_clust_6="13000.00000" pt_clust_7="13000.00000" pt_clust_8="13000.00000" pt_clust_9="13000.00000"></scales>
<clustering>
<clus scale="   80.921">  5  6 -1 -1</clus>
<clus scale="   83.808">  2  5  1 -1</clus>
<clus scale="   86.653">  7  8 -1 -1</clus>
<clus scale="  134.467">  7  9 -1 -1</clus>
<clus scale="  312.429">  1  5  2 -1</clus>
</clustering>
</event>
<event>
 9    2  0.2147756E-005  0.1662784E+03  0.7546771E-02  0.1199899E+00
          2   -1    0    0  502    0 -0.00000000000E+00  0.00000000000E+00  0.51755143189E+03  0.51755143189E+03  0.00000000000E+00 0. -1.
         21   -1    0    0  501  502  0.00000000000E+00 -0.00000000000E+00 -0.68335594513E+02  0.68335594513E+02  0.00000000000E+00 0.  1.
         24    2    1    2    0    0 -0.68560894977E+02  0.33247435655E+02  0.50457582502E+01  0.11161331490E+03  0.81400762207E+02 0.  0.
         23    2    1    2    0    0  0.12215307625E+02 -0.83822195710E+00  0.16241181748E+03  0.18511475807E+03  0.87977035880E+02 0.  0.
        -13    1    3    3    0    0 -0.36695029561E+02  0.46081763662E+02 -0.26848301140E+02  0.64737048209E+02  0.00000000000E+00 0.  1.
         14    1    3    3    0    0 -0.31865865417E+02 -0.12834328006E+02  0.31894059390E+02  0.46876266687E+02  0.00000000000E+00 0. -1.
        -13    1    4    4    0    0  0.28133053828E+02 -0.38422325437E+02  0.78781252181E+02  0.92055578348E+02  0.00000000000E+00 0. -1.
         13    1    4    4    0    0 -0.15917746203E+02  0.37584103480E+02  0.83630565300E+02  0.93059179725E+02  0.00000000000E+00 0.  1.
          1    1    1    2  501    0  0.56345587352E+02 -0.32409213698E+02  0.28175826165E+03  0.28915895344E+03  0.00000000000E+00 0. -1.
<scales pt_clust_5="13000.00000" pt_clust_6="13000.00000" pt_clust_7="13000.00000" pt_clust_8="13000.00000" pt_clust_9="13000.00000"></scales>
<clustering>
<clus scale="   81.401">  5  6 -1 -1</clus>
<clus scale="   87.977">  7  8 -1 -1</clus>
<clus scale="   65.001">  7  9 -1 -1</clus>
<clus scale="  111.499">  1  5  2 -1</clus>
<clus scale="  166.278">  2  5  1 -1</clus>
</clustering>
</event>
<event>
 9    2  0.2147756E-005  0.3403953E+03  0.7546771E-02  0.1102101E+00
          2   -1    0    0  502    0 -0.00000000000E+00  0.00000000000E+00  0.97796351057E+03  0.97796351057E+03  0.00000000000E+00 0. -1.
         21   -1    0    0  501  502  0.00000000000E+00 -0.00000000000E+00 -0.60006973482E+02  0.60006973482E+02  0.00000000000E+00 0. -1.
         24    2    1    2    0    0 -0.19011123398E+02  0.10157137655E+03  0.37087974704E+03  0.39363983376E+03  0.81990027483E+02 0.  0.
         23    2    1    2    0    0 -0.45712187619E+02  0.65557646440E+02  0.37338601473E+03  0.39475159920E+03  0.10012142614E+03 0.  0.
        -11    1    3    3    0    0  0.91453471229E+01  0.71443166125E+02  0.32070562716E+03  0.32869417800E+03  0.00000000000E+00 0.  1.
         12    1    3    3    0    0 -0.28156470521E+02  0.30128210426E+02  0.50174119887E+02  0.64945655760E+02  0.00000000000E+00 0. -1.
        -13    1    4    4    0    0 -0.28773182020E+02  0.91294773123E+02  0.30672812204E+03  0.32131724581E+03  0.00000000000E+00 0. -1.
         13    1    4    4    0    0 -0.16939005599E+02 -0.25737126684E+02  0.66657892687E+02  0.73434353392E+02  0.00000000000E+00 0.  1.
          1    1    1    2  501    0  0.64723311016E+02 -0.16712902299E+03  0.17369077531E+03  0.24957905109E+03  0.00000000000E+00 0. -1.
<scales pt_clust_5="13000.00000" pt_clust_6="13000.00000" pt_clust_7="13000.00000" pt_clust_8="13000.00000" pt_clust_9="13000.00000"></scales>
<clustering>
<clus scale="   81.990">  5  6 -1 -1</clus>
<clus scale="  100.121">  7  8 -1 -1</clus>
<clus scale="  131.911">  1  5  2 -1</clus>
<clus scale="  143.293">  7  9 -1 -1</clus>
<clus scale="  340.395">  2  5  1 -1</clus>
</clustering>
</event>
<event>
 9    2  0.2147756E-005  0.1735487E+03  0.7546771E-02  0.1200791E+00
         21   -1    0    0  501  502  0.00000000000E+00  0.00000000000E+00  0.11031925072E+03  0.11031925072E+03  0.00000000000E+00 0. -1.
          2   -1    0    0  502    0 -0.00000000000E+00 -0.00000000000E+00 -0.17021538424E+03  0.17021538424E+03  0.00000000000E+00 0. -1.
         24    2    1    2    0    0  0.89774909371E+01 -0.54838154805E+02  0.22041413941E+01  0.96209935002E+02  0.78509074557E+02 0.  0.
         23    2    1    2    0    0  0.11466201323E+02 -0.17565345678E+02 -0.14998809935E+02  0.95562323699E+02  0.92017271584E+02 0.  0.
        -11    1    3    3    0    0 -0.28486131417E+02 -0.52301692681E-01  0.79968284185E+01  0.29587356816E+02  0.00000000000E+00 0.  1.
         12    1    3    3    0    0  0.37463622355E+02 -0.54785853112E+02 -0.57926870244E+01  0.66622578186E+02  0.00000000000E+00 0. -1.
        -11    1    4    4    0    0  0.34800663168E+02  0.17126760970E+02 -0.32142803167E+02  0.50374317799E+02  0.00000000000E+00 0.  1.
         11    1    4    4    0    0 -0.23334461845E+02 -0.34692106648E+02  0.17143993232E+02  0.45188005900E+02  0.00000000000E+00 0. -1.
          1    1    1    2  501    0 -0.20443692260E+02  0.72403500483E+02 -0.47101464986E+02  0.88762376260E+02  0.00000000000E+00 0. -1.
<scales pt_clust_5="13000.00000" pt_clust_6="13000.00000" pt_clust_7="13000.00000" pt_clust_8="13000.00000" pt_clust_9="13000.00000"></scales>
<clustering>
<clus scale="   78.509">  5  6 -1 -1</clus>
<clus scale="   92.017">  7  8 -1 -1</clus>
<clus scale="   75.234">  7  9 -1 -1</clus>
<clus scale="   96.185">  2  5  1 -1</clus>
<clus scale="  173.549">  1  5  2 -1</clus>
</clustering>
</event>
<event>
 9    2  0.2147756E-005  0.2373332E+03  0.7546771E-02  0.1151308E+00
          2   -1    0    0  502    0 -0.00000000000E+00  0.00000000000E+00  0.31436227182E+03  0.31436227182E+03  0.00000000000E+00 0. -1.
         21   -1    0    0  501  502  0.00000000000E+00 -0.00000000000E+00 -0.10686326620E+03  0.10686326620E+03  0.00000000000E+00 0.  1.
         24    2    1    2    0    0 -0.26507910340E+02 -0.78589683321E+02  0.16326373245E+02  0.11647312833E+03  0.80127595280E+02 0.  0.
         23    2    1    2    0    0  0.64840537626E+02 -0.22361998035E+02  0.15257790430E+03  0.19007815225E+03  0.90251497535E+02 0.  0.
        -13    1    3    3    0    0 -0.32424795380E+01 -0.60244096036E+02 -0.25264844356E+02  0.65407775845E+02  0.00000000000E+00 0.  1.
         14    1    3    3    0    0 -0.23265430802E+02 -0.18345587286E+02  0.41591217600E+02  0.51065352488E+02  0.00000000000E+00 0. -1.
        -13    1    4    4    0    0  0.21743522973E+02 -0.17486024018E+02 -0.34678425779E+01  0.28117036817E+02  0.00000000000E+00 0.  1.
         13    1    4    4    0    0  0.43097014653E+02 -0.48759740177E+01  0.15604574687E+03  0.16196111543E+03  0.00000000000E+00 0. -1.
          1    1    1    2  501    0 -0.38332627286E+02  0.10095168136E+03  0.38594728086E+02  0.11467425744E+03  0.00000000000E+00 0. -1.
<scales pt_clust_5="13000.00000" pt_clust_6="13000.00000" pt_clust_7="13000.00000" pt_clust_8="13000.00000" pt_clust_9="13000.00000"></scales>
<clustering>
<clus scale="   80.128">  5  6 -1 -1</clus>
<clus scale="   90.251">  7  8 -1 -1</clus>
<clus scale="  107.984">  7  9 -1 -1</clus>
<clus scale="  115.323">  1  5  2 -1</clus>
<clus scale="  237.333">  2  5  1 -1</clus>
</clustering>
</event>
<event>
 9    2  0.2147756E-005  0.2053674E+03  0.7546771E-02  0.1181905E+00
          2   -1    0    0  502    0 -0.00000000000E+00  0.00000000000E+00  0.78680086313E+02  0.78680086313E+02  0.00000000000E+00 0. -1.
         21   -1    0    0  501  502  0.00000000000E+00 -0.00000000000E+00 -0.31020832219E+03  0.31020832219E+03  0.00000000000E+00 0.  1.
         24    2    1    2    0    0 -0.12827641500E+02  0.31669622862E+02 -0.13693150190E+03  0.16278156556E+03  0.81117744505E+02 0.  0.
         23    2    1    2    0    0 -0.49242343074E+02  0.39933121866E+02 -0.37399940301E+02  0.11542211390E+03  0.88904703297E+02 0.  0.
        -11    1    3    3    0    0 -0.15860816753E+02  0.50418020898E+02 -0.13336624618E+03  0.14345765215E+03  0.00000000000E+00 0.  1.
         12    1    3    3    0    0  0.30331752529E+01 -0.18748398036E+02 -0.35652557190E+01  0.19323913408E+02  0.00000000000E+00 0. -1.
        -13    1    4    4    0    0  0.18040315353E+02  0.21884354366E+02  0.11189347004E+02  0.30489005074E+02  0.00000000000E+00 0. -1.
         13    1    4    4    0    0 -0.67282658427E+02  0.18048767500E+02 -0.48589287306E+02  0.84933108822E+02  0.00000000000E+00 0.  1.
          1    1    1    2  501    0  0.62069984575E+02 -0.71602744728E+02 -0.57196793669E+02  0.11068472904E+03  0.00000000000E+00 0. -1.
<scales pt_clust_5="13000.00000" pt_clust_6="13000.00000" pt_clust_7="13000.00000" pt_clust_8="13000.00000" pt_clust_9="13000.00000"></scales>
<clustering>
<clus scale="   81.118">  5  6 -1 -1</clus>
<clus scale="   88.021">  1  5  2 -1</clus>
<clus scale="   88.905">  7  8 -1 -1</clus>
<clus scale="   81.734">  7  9 -1 -1</clus>
<clus scale="  205.367">  2  5  1 -1</clus>
</clustering>
</event>
<event>
 9    2  0.2147756E-005  0.3531925E+03  0.7546771E-02  0.1100750E+00
         -1   -1    0    0    0  501 -0.00000000000E+00  0.00000000000E+00  0.17737407922E+03  0.17737407922E+03  0.00000000000E+00 0.  1.
         21   -1    0    0  501  502  0.00000000000E+00 -0.00000000000E+00 -0.52918259592E+03  0.52918259592E+03  0.00000000000E+00 0. -1.
         24    2    1    2    0    0  0.88407177693E+02  0.27206426715E+02  0.81937975593E+02  0.14719902841E+03  0.79985644951E+02 0.  0.
         23    2    1    2    0    0 -0.13945343617E+03 -0.10279554888E+03 -0.42455742505E+03  0.46768499622E+03  0.92011210176E+02 0.  0.
        -13    1    3    3    0    0  0.79876883241E+02  0.10585802509E+02  0.94876222051E+02  0.12447438773E+03  0.00000000000E+00 0.  1.
         14    1    3    3    0    0  0.85302944511E+01  0.16620624206E+02 -0.12938246458E+02  0.22724640675E+02  0.00000000000E+00 0. -1.
        -11    1    4    4    0    0 -0.39934740553E+02 -0.17868233597E+02 -0.32860250791E+02  0.54716116063E+02  0.00000000000E+00 0.  1.
         11    1    4    4    0    0 -0.99518695612E+02 -0.84927315286E+02 -0.39169717426E+03  0.41296888016E+03  0.00000000000E+00 0. -1.
         -2    1    1    2    0  502  0.51046258473E+02  0.75589122168E+02 -0.91890672409E+01  0.91672650507E+02  0.00000000000E+00 0.  1.
<scales pt_clust_5="13000.00000" pt_clust_6="13000.00000" pt_clust_7="13000.00000" pt_clust_8="13000.00000" pt_clust_9="13000.00000"></scales>
<clustering>
<clus scale="   79.986">  5  6 -1 -1</clus>
<clus scale="   92.011">  7  8 -1 -1</clus>
<clus scale="   91.211">  7  9 -1 -1</clus>
<clus scale="  122.285">  1  5  2 -1</clus>
<clus scale="  353.193">  2  5  1 -1</clus>
</clustering>
</event>
<event>
 9    2  0.2147756E-005  0.7156000E+03  0.7546771E-02  0.9958153E-01
         21   -1    0    0  501  502  0.00000000000E+00  0.00000000000E+00  0.28495736777E+03  0.28495736777E+03  0.00000000000E+00 0. -1.
          2   -1    0    0  502    0 -0.00000000000E+00 -0.00000000000E+00 -0.28743108931E+04  0.28743108931E+04  0.00000000000E+00 0. -1.
         24    2    1    2    0    0  0.27907052263E+03  0.69252989394E+02 -0.24006934421E+04  0.24192169114E+04  0.81271941081E+02 0.  0.
         23    2    1    2    0    0  0.16496938309E+03  0.19897055174E+02 -0.21427482335E+03  0.28642674337E+03  0.92281033981E+02 0.  0.
        -13    1    3    3    0    0  0.65756768448E+02 -0.76809407864E+01 -0.36735100704E+03  0.37326895373E+03  0.00000000000E+00 0.  1.
         14    1    3    3    0    0  0.21331375418E+03  0.76933930181E+02 -0.20333424351E+04  0.20459479577E+04  0.00000000000E+00 0. -1.
        -11    1    4    4    0    0  0.10503000155E+03  0.56889102251E+02 -0.14087678963E+03  0.18469959674E+03  0.00000000000E+00 0. -1.
         11    1    4    4    0    0  0.59939381545E+02 -0.36992047077E+02 -0.73398033716E+02  0.10172714662E+03  0.00000000000E+00 0.  1.
          1    1    1    2  501    0 -0.44403990572E+03 -0.89150044568E+02  0.25614740129E+02  0.45362460607E+03  0.00000000000E+00 0. -1.
<scales pt_clust_5="13000.00000" pt_clust_6="13000.00000" pt_clust_7="13000.00000" pt_clust_8="13000.00000" pt_clust_9="13000.00000"></scales>
<clustering>
<clus scale="   81.272">  5  6 -1 -1</clus>
<clus scale="   92.281">  7  8 -1 -1</clus>
<clus scale="  298.800">  2  5  1 -1</clus>
<clus scale="  320.577">  7  9 -1 -1</clus>
<clus scale="  715.600">  1  5  2 -1</clus>
</clustering>
</event>
<event>
 9    2  0.2147756E-005  0.2273967E+03  0.7546771E-02  0.1149339E+00
         21   -1    0    0  501  502  0.00000000000E+00  0.00000000000E+00  0.25697054474E+03  0.25697054474E+03  0.00000000000E+00 0. -1.
          4   -1    0    0  502    0 -0.00000000000E+00 -0.00000000000E+00 -0.17022801406E+03  0.17022801406E+03  0.00000000000E+00 0. -1.
         24    2    1    2    0    0 -0.99783572383E+02 -0.47208228266E+02 -0.66869156704E+02  0.15277948779E+03  0.81760073620E+02 0.  0.
         23    2    1    2    0    0  0.46402433805E+02 -0.36978856118E+02  0.13654466736E+03  0.17328404094E+03  0.88669560714E+02 0.  0.
        -13    1    3    3    0    0 -0.55077611055E+02 -0.35061707152E+02  0.69166552120E+01  0.65655972060E+02  0.00000000000E+00 0.  1.
         14    1    3    3    0    0 -0.44705961329E+02 -0.12146521115E+02 -0.73785811916E+02  0.87123515733E+02  0.00000000000E+00 0. -1.
        -11    1    4    4    0    0  0.64662476725E+02 -0.15645904216E+01  0.66955795081E+02  0.93095447441E+02  0.00000000000E+00 0.  1.
         11    1    4    4    0    0 -0.18260042920E+02 -0.35414265697E+02  0.69588872277E+02  0.80188593497E+02  0.00000000000E+00 0. -1.
          3    1    1    2  501    0  0.53381138579E+02  0.84187084384E+02  0.17067020029E+02  0.10113503006E+03  0.00000000000E+00 0. -1.
<scales pt_clust_5="13000.00000" pt_clust_6="13000.00000" pt_clust_7="13000.00000" pt_clust_8="13000.00000" pt_clust_9="13000.00000"></scales>
<clustering>
<clus scale="   81.760">  5  6 -1 -1</clus>
<clus scale="   88.670">  7  8 -1 -1</clus>
<clus scale="   99.685">  7  9 -1 -1</clus>
<clus scale="  137.368">  2  5  1 -1</clus>
<clus scale="  227.397">  1  5  2 -1</clus>
</clustering>
</event>
<event>
 9    2  0.2147756E-005  0.3818162E+03  0.7546771E-02  0.1100612E+00
         21   -1    0    0  501  502  0.00000000000E+00  0.00000000000E+00  0.69154851606E+03  0.69154851606E+03  0.00000000000E+00 0. -1.
          2   -1    0    0  502    0 -0.00000000000E+00 -0.00000000000E+00 -0.12447540573E+03  0.12447540573E+03  0.00000000000E+00 0. -1.
         24    2    1    2    0    0 -0.29123586216E+02 -0.45241206548E+02 -0.34860216901E+02  0.10320742203E+03  0.80880079099E+02 0.  0.
         23    2    1    2    0    0  0.53829293221E+02 -0.85139697158E+02  0.50655682328E+02  0.14579216716E+03  0.92428334459E+02 0.  0.
        -13    1    3    3    0    0  0.63644267459E+01 -0.54433850468E+02 -0.37573496493E+02  0.66447856574E+02  0.00000000000E+00 0.  1.
         14    1    3    3    0    0 -0.35488012962E+02  0.91926439192E+01  0.27132795914E+01  0.36759565454E+02  0.00000000000E+00 0. -1.
        -11    1    4    4    0    0  0.67761337951E+01 -0.88579291260E+02  0.26028931464E+02  0.92572739522E+02  0.00000000000E+00 0. -1.
         11    1    4    4    0    0  0.47053159426E+02  0.34395941024E+01  0.24626750864E+02  0.53219427634E+02  0.00000000000E+00 0.  1.
          1    1    1    2  501    0 -0.24705707005E+02  0.13038090371E+03  0.55127764490E+03  0.56702433262E+03  0.00000000000E+00 0. -1.
<scales pt_clust_5="13000.00000" pt_clust_6="13000.00000" pt_clust_7="13000.00000" pt_clust_8="13000.00000" pt_clust_9="13000.00000"></scales>
<clustering>
<clus scale="   80.880">  5  6 -1 -1</clus>
<clus scale="   92.428">  7  8 -1 -1</clus>
<clus scale="   97.142">  2  5  1 -1</clus>
<clus scale="  127.267">  7  9 -1 -1</clus>
<clus scale="  381.816">  1  5  2 -1</clus>
</clustering>
</event>
<event>
 9    2  0.2147756E-005  0.5598766E+03  0.7546771E-02  0.1064389E+00
          2   -1    0    0  502    0 -0.00000000000E+00  0.00000000000E+00  0.59747863429E+03  0.59747863429E+03  0.00000000000E+00 0. -1.
         21   -1    0    0  501  502  0.00000000000E+00 -0.00000000000E+00 -0.19283449276E+03  0.19283449276E+03  0.00000000000E+00 0. -1.
         24    2    1    2    0    0 -0.11423770124E+02 -0.12887865260E+02 -0.24373412697E+02  0.84963687104E+02  0.79549766091E+02 0.  0.
         23    2    1    2    0    0 -0.88652377527E+02 -0.10643973907E+03 -0.74686728698E+02  0.17811863933E+03  0.83423498712E+02 0.  0.
        -11    1    3    3    0    0 -0.44702131055E+02 -0.40356008882E+01 -0.23159394511E+02  0.50506674307E+02  0.00000000000E+00 0.  1.
         12    1    3    3    0    0  0.33278360931E+02 -0.88522643718E+01 -0.12140181857E+01  0.34457012797E+02  0.00000000000E+00 0. -1.
        -13    1    4    4    0    0 -0.32919873811E+02  0.74441232740E+01 -0.72911582406E+01  0.34529611227E+02  0.00000000000E+00 0. -1.
         13    1    4    4    0    0 -0.55732503716E+02 -0.11388386235E+03 -0.67395570457E+02  0.14358902810E+03  0.00000000000E+00 0.  1.
          1    1    1    2  501    0  0.10007614765E+03  0.11932760433E+03  0.50370428292E+03  0.52723080062E+03  0.00000000000E+00 0. -1.
<scales pt_clust_5="13000.00000" pt_clust_6="13000.00000" pt_clust_7="13000.00000" pt_clust_8="13000.00000" pt_clust_9="13000.00000"></scales>
<clustering>
<clus scale="   79.550">  5  6 -1 -1</clus>
<clus scale="   81.393">  1  5  2 -1</clus>
<clus scale="   83.423">  7  8 -1 -1</clus>
<clus scale="  140.093">  7  9 -1 -1</clus>
<clus scale="  559.877">  2  5  1 -1</clus>
</clustering>
</event>
<event>
 9    2  0.2147756E-005  0.3019291E+03  0.7546771E-02  0.1131874E+00
         21   -1    0    0  501  502  0.00000000000E+00  0.00000000000E+00  0.32379753984E+03  0.32379753984E+03  0.00000000000E+00 0. -1.
          2   -1    0    0  502    0 -0.00000000000E+00 -0.00000000000E+00 -0.11823319796E+03  0.11823319796E+03  0.00000000000E+00 0. -1.
         24    2    1    2    0    0  0.25069851660E+02 -0.24282275654E+02  0.46106817698E+02  0.10058109320E+03  0.82295755039E+02 0.  0.
         23    2    1    2    0    0 -0.32839150852E+01 -0.76321322504E+02  0.19845506787E+03  0.23137458199E+03  0.91181439231E+02 0.  0.
        -11    1    3    3    0    0  0.44283631947E+02 -0.34765310990E+02  0.83176269230E+01  0.56910893722E+02  0.00000000000E+00 0.  1.
         12    1    3    3    0    0 -0.19213780287E+02  0.10483035336E+02  0.37789190775E+02  0.43670199475E+02  0.00000000000E+00 0. -1.
        -13    1    4    4    0    0 -0.39584150858E+02 -0.46363971786E+02  0.15785292876E+03  0.16921604533E+03  0.00000000000E+00 0.  1.
         13    1    4    4    0    0  0.36300235773E+02 -0.29957350717E+02  0.40602139108E+02  0.62158536657E+02  0.00000000000E+00 0. -1.
          1    1    1    2  501    0 -0.21785936575E+02  0.10060359816E+03 -0.38997543696E+02  0.11007506261E+03  0.00000000000E+00 0. -1.
<scales pt_clust_5="13000.00000" pt_clust_6="13000.00000" pt_clust_7="13000.00000" pt_clust_8="13000.00000" pt_clust_9="13000.00000"></scales>
<clustering>
<clus scale="   82.296">  5  6 -1 -1</clus>
<clus scale="   89.391">  2  5  1 -1</clus>
<clus scale="   91.181">  7  8 -1 -1</clus>
<clus scale="   80.723">  7  9 -1 -1</clus>
<clus scale="  301.929">  1  5  2 -1</clus>
</clustering>
</event>
<event>
 9    2  0.2147756E-005  0.4102970E+03  0.7546771E-02  0.1059771E+00
         21   -1    0    0  501  502  0.00000000000E+00  0.00000000000E+00  0.16989960162E+03  0.16989960162E+03  0.00000000000E+00 0.  1.
         -1   -1    0    0    0  501 -0.00000000000E+00 -0.00000000000E+00 -0.61325819381E+03  0.61325819381E+03  0.00000000000E+00 0.  1.
         24    2    1    2    0    0 -0.36175103619E+02  0.21511247050E+03 -0.16680339631E+03  0.28835846898E+03  0.88006934546E+02 0.  0.
         23    2    1    2    0    0 -0.81985373625E+02 -0.66958379546E+02 -0.27177890516E+03  0.30523575927E+03  0.90000385380E+02 0.  0.
        -13    1    3    3    0    0 -0.62083151088E+02  0.10397141869E+03 -0.85975217073E+02  0.14851300113E+03  0.00000000000E+00 0.  1.
         14    1    3    3    0    0  0.25908047469E+02  0.11114105181E+03 -0.80828179233E+02  0.13984546785E+03  0.00000000000E+00 0. -1.
        -11    1    4    4    0    0 -0.47899837517E+02 -0.82423028383E+02 -0.14907478605E+03  0.17694982870E+03  0.00000000000E+00 0.  1.
         11    1    4    4    0    0 -0.34085536108E+02  0.15464648837E+02 -0.12270411912E+03  0.12828593057E+03  0.00000000000E+00 0. -1.
         -2    1    1    2    0  502  0.11816047724E+03 -0.14815409095E+03 -0.47762907242E+01  0.18956356718E+03  0.00000000000E+00 0.  1.
<scales pt_clust_5="13000.00000" pt_clust_6="13000.00000" pt_clust_7="13000.00000" pt_clust_8="13000.00000" pt_clust_9="13000.00000"></scales>
<clustering>
<clus scale="   88.007">  5  6 -1 -1</clus>
<clus scale="   90.000">  7  8 -1 -1</clus>
<clus scale="  189.503">  7  9 -1 -1</clus>
<clus scale="  235.217">  2  5  1 -1</clus>
<clus scale="  410.297">  1  5  2 -1</clus>
</clustering>
</event>
<event>
 9    2  0.2147756E-005  0.2929568E+03  0.7546771E-02  0.1110812E+00
          2   -1    0    0  502    0 -0.00000000000E+00  0.00000000000E+00  0.73755057278E+02  0.73755057278E+02  0.00000000000E+00 0. -1.
         21   -1    0    0  501  502  0.00000000000E+00 -0.00000000000E+00 -0.74573545511E+03  0.74573545511E+03  0.00000000000E+00 0. -1.
         24    2    1    2    0    0  0.95136644640E+02 -0.10904323944E+03 -0.33005043071E+03  0.36922413638E+03  0.80322891219E+02 0.  0.
         23    2    1    2    0    0 -0.65654241351E+01 -0.55330842565E+02 -0.12324325925E+03  0.16271190093E+03  0.90452500355E+02 0.  0.
        -11    1    3    3    0    0  0.16552278697E+02 -0.68181532592E+02 -0.95468832920E+02  0.11847783496E+03  0.00000000000E+00 0.  1.
         12    1    3    3    0    0  0.78584365943E+02 -0.40861706850E+02 -0.23458159779E+03  0.25074630142E+03  0.00000000000E+00 0. -1.
        -13    1    4    4    0    0  0.41560024652E+02 -0.18199607641E+02 -0.49529549337E+02  0.67168725050E+02  0.00000000000E+00 0. -1.
         13    1    4    4    0    0 -0.48125448787E+02 -0.37131234924E+02 -0.73713709916E+02  0.95543175881E+02  0.00000000000E+00 0.  1.
          1    1    1    2  501    0 -0.88571220505E+02  0.16437408201E+03 -0.21868670787E+03  0.28755447508E+03  0.00000000000E+00 0. -1.
<scales pt_clust_5="13000.00000" pt_clust_6="13000.00000" pt_clust_7="13000.00000" pt_clust_8="13000.00000" pt_clust_9="13000.00000"></scales>
<clustering>
<clus scale="   80.323">  5  6 -1 -1</clus>
<clus scale="   90.453">  7  8 -1 -1</clus>
<clus scale="  165.509">  1  5  2 -1</clus>
<clus scale="   99.122">  7  9 -1 -1</clus>
<clus scale="  292.957">  2  5  1 -1</clus>
</clustering>
</event>
<event>
 9    2  0.2147756E-005  0.2152538E+03  0.7546771E-02  0.1178497E+00
          2   -1    0    0  502    0 -0.00000000000E+00  0.00000000000E+00  0.90614427595E+03  0.90614427595E+03  0.00000000000E+00 0. -1.
         21   -1    0    0  501  502  0.00000000000E+00 -0.00000000000E+00 -0.24886320078E+02  0.24886320078E+02  0.00000000000E+00 0.  1.
         24    2    1    2    0    0 -0.51597665758E+01  0.27166739819E+02  0.19316909994E+03  0.21005868831E+03  0.77754076541E+02 0.  0.
         23    2    1    2    0    0 -0.27247983427E+01  0.42049791028E+02  0.16277000940E+03  0.19105400367E+03  0.90730077197E+02 0.  0.
        -11    1    3    3    0    0  0.24880585131E+02  0.34456428475E+02  0.15614904754E+03  0.16182958328E+03  0.00000000000E+00 0.  1.
         12    1    3    3    0    0 -0.30040351707E+02 -0.72896886551E+01  0.37020052402E+02  0.48229105022E+02  0.00000000000E+00 0. -1.
        -13    1    4    4    0    0  0.36679768636E+02  0.31441023562E+02  0.43547337170E+02  0.65040863805E+02  0.00000000000E+00 0.  1.
         13    1    4    4    0    0 -0.39404566979E+02  0.10608767466E+02  0.11922267223E+03  0.12601313987E+03  0.00000000000E+00 0. -1.
          1    1    1    2  501    0  0.78845649185E+01 -0.69216530848E+02  0.52531884654E+03  0.52991790405E+03  0.00000000000E+00 0. -1.
<scales pt_clust_5="13000.00000" pt_clust_6="13000.00000" pt_clust_7="13000.00000" pt_clust_8="13000.00000" pt_clust_9="13000.00000"></scales>
<clustering>
<clus scale="   77.754">  5  6 -1 -1</clus>
<clus scale="   82.525">  1  5  2 -1</clus>
<clus scale="   90.730">  7  8 -1 -1</clus>
<clus scale="   49.037">  7  9 -1 -1</clus>
<clus scale="  215.254">  2  5  1 -1</clus>
</clustering>
</event>
<event>
 9    2  0.2147756E-005  0.3099469E+03  0.7546771E-02  0.1097793E+00
         21   -1    0    0  501  502  0.00000000000E+00  0.00000000000E+00  0.71418056659E+02  0.71418056659E+02  0.00000000000E+00 0. -1.
          2   -1    0    0  502    0 -0.00000000000E+00 -0.00000000000E+00 -0.20324748026E+04  0.20324748026E+04  0.00000000000E+00 0. -1.
         24    2    1    2    0    0 -0.17909565106E+03  0.93811582656E+01 -0.16611513725E+04  0.16726037637E+04  0.77564229483E+02 0.  0.
         23    2    1    2    0    0 -0.28694457686E+02 -0.28120796117E+02 -0.11406309636E+03  0.15188749341E+03  0.91898148113E+02 0.  0.
        -13    1    3    3    0    0 -0.16492100567E+02 -0.17640166381E+02 -0.10471643934E+03  0.10746486644E+03  0.00000000000E+00 0.  1.
         14    1    3    3    0    0 -0.16260355049E+03  0.27021324647E+02 -0.15564349331E+04  0.15651388972E+04  0.00000000000E+00 0. -1.
        -13    1    4    4    0    0 -0.18344463679E+01 -0.41053150952E+02 -0.81963718490E+01  0.41903542905E+02  0.00000000000E+00 0. -1.
         13    1    4    4    0    0 -0.26860011318E+02  0.12932354834E+02 -0.10586672451E+03  0.10998395050E+03  0.00000000000E+00 0.  1.
          1    1    1    2  501    0  0.20779010875E+03  0.18739637852E+02 -0.18584227707E+03  0.27940160212E+03  0.00000000000E+00 0. -1.
<scales pt_clust_5="13000.00000" pt_clust_6="13000.00000" pt_clust_7="13000.00000" pt_clust_8="13000.00000" pt_clust_9="13000.00000"></scales>
<clustering>
<clus scale="   77.564">  5  6 -1 -1</clus>
<clus scale="   91.898">  7  8 -1 -1</clus>
<clus scale="  195.396">  2  5  1 -1</clus>
<clus scale="   97.034">  7  9 -1 -1</clus>
<clus scale="  309.947">  1  5  2 -1</clus>
</clustering>
</event>
<event>
 9    2  0.2147756E-005  0.1742776E+03  0.7546771E-02  0.1206301E+00
          2   -1    0    0  502    0 -0.00000000000E+00  0.00000000000E+00  0.35305843463E+03  0.35305843463E+03  0.00000000000E+00 0. -1.
         21   -1    0    0  501  502  0.00000000000E+00 -0.00000000000E+00 -0.43946962234E+03  0.43946962234E+03  0.00000000000E+00 0. -1.
         24    2    1    2    0    0  0.17111946864E+02 -0.22940300942E+02  0.33027145542E+03  0.34086768094E+03  0.79325062342E+02 0.  0.
         23    2    1    2    0    0  0.17672972549E+02 -0.36915269966E+02 -0.18755088472E+03  0.21229863576E+03  0.90665899183E+02 0.  0.
        -13    1    3    3    0    0  0.24715269758E+02 -0.65772908726E+01  0.27483562615E+02  0.37542662778E+02  0.00000000000E+00 0.  1.
         14    1    3    3    0    0 -0.76033228937E+01 -0.16363010070E+02  0.30278789280E+03  0.30332501816E+03  0.00000000000E+00 0. -1.
        -11    1    4    4    0    0  0.38941733793E+02  0.11223562601E+02 -0.46134751780E+02  0.61407184515E+02  0.00000000000E+00 0. -1.
         11    1    4    4    0    0 -0.21268761244E+02 -0.48138832568E+02 -0.14141613294E+03  0.15089145125E+03  0.00000000000E+00 0.  1.
          1    1    1    2  501    0 -0.34784919413E+02  0.59855570908E+02 -0.22913175841E+03  0.23936174026E+03  0.00000000000E+00 0. -1.
<scales pt_clust_5="13000.00000" pt_clust_6="13000.00000" pt_clust_7="13000.00000" pt_clust_8="13000.00000" pt_clust_9="13000.00000"></scales>
<clustering>
<clus scale="   79.325">  5  6 -1 -1</clus>
<clus scale="   84.330">  1  5  2 -1</clus>
<clus scale="   90.666">  7  8 -1 -1</clus>
<clus scale="   60.921">  7  9 -1 -1</clus>
<clus scale="  174.278">  2  5  1 -1</clus>
</clustering>
</event>
<event>
 9    2  0.2967289E-005  0.5087073E+03  0.7546771E-02  0.1027538E+00
         21   -1    0    0  501  502  0.00000000000E+00  0.00000000000E+00  0.41582349487E+03  0.41582349487E+03  0.00000000000E+00 0.  1.
          2   -1    0    0  502    0 -0.00000000000E+00 -0.00000000000E+00 -0.62605148528E+03  0.62605148528E+03  0.00000000000E+00 0. -1.
         24    2    1    2    0    0 -0.51277878980E+02  0.29827972672E+03  0.21413309482E+03  0.37940579059E+03  0.80595008494E+02 0.  0.
         23    2    1    2    0    0  0.43210904489E+02  0.67403719370E+02 -0.45237663636E+02  0.13566369640E+03  0.99738401119E+02 0.  0.
        -13    1    3    3    0    0 -0.47494107721E+02  0.26566196517E+03  0.21720687527E+03  0.34642574482E+03  0.00000000000E+00 0.  1.
         14    1    3    3    0    0 -0.37837712592E+01  0.32617761544E+02 -0.30737804485E+01  0.32980045776E+02  0.00000000000E+00 0. -1.
        -13    1    4    4    0    0  0.12274710250E+02  0.50399772324E+02 -0.73833080398E+02  0.90233748249E+02  0.00000000000E+00 0.  1.
         13    1    4    4    0    0  0.30936194239E+02  0.17003947046E+02  0.28595416762E+02  0.45429948150E+02  0.00000000000E+00 0. -1.
          1    1    1    2  501    0  0.80669744911E+01 -0.36568344609E+03 -0.37912342159E+03  0.52680549316E+03  0.00000000000E+00 0. -1.
<scales pt_clust_5="13000.00000" pt_clust_6="13000.00000" pt_clust_7="13000.00000" pt_clust_8="13000.00000" pt_clust_9="13000.00000"></scales>
<clustering>
<clus scale="   80.595">  5  6 -1 -1</clus>
<clus scale="   99.738">  7  8 -1 -1</clus>
<clus scale="  313.203">  2  5  1 -1</clus>
<clus scale="  122.080">  7  9 -1 -1</clus>
<clus scale="  508.707">  1  5  2 -1</clus>
</clustering>
</event>
<event>
 9    2  0.2147756E-005  0.2503228E+03  0.7546771E-02  0.1151607E+00
          2   -1    0    0  502    0 -0.00000000000E+00  0.00000000000E+00  0.52644076027E+03  0.52644076027E+03  0.00000000000E+00 0. -1.
         21   -1    0    0  501  502  0.00000000000E+00 -0.00000000000E+00 -0.65673754400E+02  0.65673754400E+02  0.00000000000E+00 0. -1.
         24    2    1    2    0    0  0.55050599583E+02  0.79972937603E-01  0.23719198650E+03  0.25648483652E+03  0.80584477373E+02 0.  0.
         23    2    1    2    0    0  0.39341008114E+02  0.11557268881E+02  0.37983764750E+02  0.12708875940E+03  0.11413807865E+03 0.  0.
        -13    1    3    3    0    0 -0.21244786054E+01 -0.29022188414E+02  0.11317526370E+03  0.11685649808E+03  0.00000000000E+00 0.  1.
         14    1    3    3    0    0  0.57175078189E+02  0.29102161351E+02  0.12401672280E+03  0.13962833844E+03  0.00000000000E+00 0. -1.
        -11    1    4    4    0    0  0.12946337295E+02  0.51108482553E+02  0.55373856503E+02  0.76458803432E+02  0.00000000000E+00 0.  1.
         11    1    4    4    0    0  0.26394670819E+02 -0.39551213672E+02 -0.17390091753E+02  0.50629955972E+02  0.00000000000E+00 0. -1.
          1    1    1    2  501    0 -0.94391607697E+02 -0.11637241818E+02  0.18559125461E+03  0.20854091874E+03  0.00000000000E+00 0. -1.
<scales pt_clust_5="13000.00000" pt_clust_6="13000.00000" pt_clust_7="13000.00000" pt_clust_8="13000.00000" pt_clust_9="13000.00000"></scales>
<clustering>
<clus scale="   80.584">  5  6 -1 -1</clus>
<clus scale="   97.593">  1  5  2 -1</clus>
<clus scale="  114.138">  7  8 -1 -1</clus>
<clus scale="   56.785">  7  9 -1 -1</clus>
<clus scale="  250.323">  2  5  1 -1</clus>
</clustering>
</event>
<event>
 9    2  0.2147756E-005  0.1351598E+03  0.7546771E-02  0.1245171E+00
          2   -1    0    0  502    0 -0.00000000000E+00  0.00000000000E+00  0.40207303323E+02  0.40207303323E+02  0.00000000000E+00 0. -1.
         21   -1    0    0  501  502  0.00000000000E+00 -0.00000000000E+00 -0.45076037296E+03  0.45076037296E+03  0.00000000000E+00 0. -1.
         24    2    1    2    0    0 -0.20123825370E+01  0.82296700664E+01 -0.28047451121E+02  0.85284634853E+02  0.80093896614E+02 0.  0.
         23    2    1    2    0    0  0.60089467075E+01  0.24926240831E+02 -0.33949787738E+03  0.35123166174E+03  0.86298589445E+02 0.  0.
        -11    1    3    3    0    0 -0.37958476499E+02 -0.10907147024E+02 -0.99926715247E+01  0.40738989660E+02  0.00000000000E+00 0.  1.
         12    1    3    3    0    0  0.35946093962E+02  0.19136817090E+02 -0.18054779596E+02  0.44545645194E+02  0.00000000000E+00 0. -1.
        -11    1    4    4    0    0  0.43167620165E+02  0.13463061201E+02 -0.24338928315E+03  0.24755411651E+03  0.00000000000E+00 0.  1.
         11    1    4    4    0    0 -0.37158673458E+02  0.11463179630E+02 -0.96108594231E+02  0.10367754523E+03  0.00000000000E+00 0. -1.
          1    1    1    2  501    0 -0.39965641705E+01 -0.33155910897E+02 -0.43007741139E+02  0.54451379692E+02  0.00000000000E+00 0. -1.
<scales pt_clust_5="13000.00000" pt_clust_6="13000.00000" pt_clust_7="13000.00000" pt_clust_8="13000.00000" pt_clust_9="13000.00000"></scales>
<clustering>
<clus scale="   80.094">  5  6 -1 -1</clus>
<clus scale="   80.541">  1  5  2 -1</clus>
<clus scale="   86.299">  7  8 -1 -1</clus>
<clus scale="   29.517">  7  9 -1 -1</clus>
<clus scale="  135.160">  2  5  1 -1</clus>
</clustering>
</event>
<event>
 9    2  0.2147756E-005  0.2369227E+03  0.7546771E-02  0.1141779E+00
         -3   -1    0    0    0  501 -0.00000000000E+00  0.00000000000E+00  0.33808017524E+03  0.33808017524E+03  0.00000000000E+00 0.  1.
         21   -1    0    0  501  502  0.00000000000E+00 -0.00000000000E+00 -0.10918563534E+03  0.10918563534E+03  0.00000000000E+00 0.  1.
         24    2    1    2    0    0 -0.21861666388E+01  0.12239113591E+03  0.10861536730E+03  0.18156020814E+03  0.78628504316E+02 0.  0.
         23    2    1    2    0    0 -0.67308626882E+02 -0.83953907593E+02  0.27604216698E+02  0.14365809408E+03  0.91087569753E+02 0.  0.
        -13    1    3    3    0    0 -0.57519538226E+01  0.95966299122E+02  0.11896723877E+03  0.15295692021E+03  0.00000000000E+00 0.  1.
         14    1    3    3    0    0  0.35657871838E+01  0.26424836788E+02 -0.10351871466E+02  0.28603287929E+02  0.00000000000E+00 0. -1.
        -11    1    4    4    0    0 -0.17044034507E+02 -0.15727453232E+02 -0.32383746876E+02  0.39831632645E+02  0.00000000000E+00 0.  1.
         11    1    4    4    0    0 -0.50264592375E+02 -0.68226454361E+02  0.59987963574E+02  0.10382646144E+03  0.00000000000E+00 0. -1.
         -4    1    1    2    0  502  0.69494793521E+02 -0.38437228316E+02  0.92674955899E+02  0.12204750836E+03  0.00000000000E+00 0.  1.
<scales pt_clust_5="13000.00000" pt_clust_6="13000.00000" pt_clust_7="13000.00000" pt_clust_8="13000.00000" pt_clust_9="13000.00000"></scales>
<clustering>
<clus scale="   78.629">  5  6 -1 -1</clus>
<clus scale="   91.088">  7  8 -1 -1</clus>
<clus scale="   79.416">  7  9 -1 -1</clus>
<clus scale="  145.488">  1  5  2 -1</clus>
<clus scale="  236.923">  2  5  1 -1</clus>
</clustering>
</event>
<event>
 9    2  0.2147756E-005  0.1758194E+03  0.7546771E-02  0.1188703E+00
          2   -1    0    0  502    0 -0.00000000000E+00  0.00000000000E+00  0.11005348504E+04  0.11005348504E+04  0.00000000000E+00 0. -1.
         21   -1    0    0  501  502  0.00000000000E+00 -0.00000000000E+00 -0.30296886351E+02  0.30296886351E+02  0.00000000000E+00 0.  1.
         24    2    1    2    0    0 -0.44258002690E+02  0.75116270240E+02  0.79595933830E+03  0.80503848491E+03  0.83273459790E+02 0.  0.
         23    2    1    2    0    0  0.48216149024E+02 -0.26844468729E+02  0.10110331043E+03  0.14597244220E+03  0.89669682576E+02 0.  0.
        -13    1    3    3    0    0  0.75877679109E+01  0.49250812164E+02  0.19402400141E+03  0.20032106690E+03  0.00000000000E+00 0.  1.
         14    1    3    3    0    0 -0.51845770601E+02  0.25865458077E+02  0.60193533689E+03  0.60471741801E+03  0.00000000000E+00 0. -1.
        -13    1    4    4    0    0  0.61328142755E+01  0.29093708762E+02  0.53857418705E+02  0.61519727325E+02  0.00000000000E+00 0. -1.
         13    1    4    4    0    0  0.42083334748E+02 -0.55938177491E+02  0.47245891721E+02  0.84452714871E+02  0.00000000000E+00 0.  1.
          1    1    1    2  501    0 -0.39581463337E+01 -0.48271801511E+02  0.17317531531E+03  0.17982080963E+03  0.00000000000E+00 0. -1.
<scales pt_clust_5="13000.00000" pt_clust_6="13000.00000" pt_clust_7="13000.00000" pt_clust_8="13000.00000" pt_clust_9="13000.00000"></scales>
<clustering>
<clus scale="   83.273">  5  6 -1 -1</clus>
<clus scale="   89.670">  7  8 -1 -1</clus>
<clus scale="   48.434">  7  9 -1 -1</clus>
<clus scale="  120.564">  1  5  2 -1</clus>
<clus scale="  175.819">  2  5  1 -1</clus>
</clustering>
</event>
<event>
 9    2  0.2147756E-005  0.2987509E+03  0.7546771E-02  0.1106546E+00
         21   -1    0    0  501  502  0.00000000000E+00  0.00000000000E+00  0.58130136962E+02  0.58130136962E+02  0.00000000000E+00 0. -1.
          2   -1    0    0  502    0 -0.00000000000E+00 -0.00000000000E+00 -0.16535669368E+04  0.16535669368E+04  0.00000000000E+00 0. -1.
         24    2    1    2    0    0  0.13640880413E+02 -0.15372515072E+03 -0.12178284752E+04  0.12301992846E+04  0.80415106236E+02 0.  0.
         23    2    1    2    0    0  0.13477817737E+02  0.36618327604E+02 -0.34178592455E+03  0.35606782401E+03  0.91891912537E+02 0.  0.
        -13    1    3    3    0    0 -0.19885375975E+02 -0.61509204959E+02 -0.28577197235E+03  0.29299220238E+03  0.00000000000E+00 0.  1.
         14    1    3    3    0    0  0.33526256388E+02 -0.92215945758E+02 -0.93205650281E+03  0.93720708222E+03  0.00000000000E+00 0. -1.
        -13    1    4    4    0    0  0.38217302790E+02  0.54490036343E+02 -0.19212290987E+03  0.20332471269E+03  0.00000000000E+00 0.  1.
         13    1    4    4    0    0 -0.24739485053E+02 -0.17871708739E+02 -0.14966301468E+03  0.15274311132E+03  0.00000000000E+00 0. -1.
          1    1    1    2  501    0 -0.27118698150E+02  0.11710682311E+03 -0.35822400126E+02  0.12542996516E+03  0.00000000000E+00 0. -1.
<scales pt_clust_5="13000.00000" pt_clust_6="13000.00000" pt_clust_7="13000.00000" pt_clust_8="13000.00000" pt_clust_9="13000.00000"></scales>
<clustering>
<clus scale="   80.415">  5  6 -1 -1</clus>
<clus scale="   91.892">  7  8 -1 -1</clus>
<clus scale="  120.206">  7  9 -1 -1</clus>
<clus scale="  174.023">  2  5  1 -1</clus>
<clus scale="  298.751">  1  5  2 -1</clus>
</clustering>
</event>
<event>
 9    2  0.2147756E-005  0.2025262E+03  0.7546771E-02  0.1184081E+00
         21   -1    0    0  501  502  0.00000000000E+00  0.00000000000E+00  0.35439174643E+02  0.35439174643E+02  0.00000000000E+00 0. -1.
          2   -1    0    0  502    0 -0.00000000000E+00 -0.00000000000E+00 -0.74826125574E+03  0.74826125574E+03  0.00000000000E+00 0. -1.
         24    2    1    2    0    0 -0.33105681525E+02 -0.97327759259E+01 -0.41121998041E+03  0.42040893727E+03  0.80318672604E+02 0.  0.
         23    2    1    2    0    0 -0.25152390868E+02  0.55018986128E+02 -0.86662447806E+02  0.13603855427E+03  0.85652651957E+02 0.  0.
        -11    1    3    3    0    0  0.24411475645E+02  0.86139743135E+01 -0.94232973693E+02  0.97723968543E+02  0.00000000000E+00 0.  1.
         12    1    3    3    0    0 -0.57517157170E+02 -0.18346750239E+02 -0.31698700672E+03  0.32268496873E+03  0.00000000000E+00 0. -1.
        -11    1    4    4    0    0 -0.30842532119E+02 -0.95037196349E+01 -0.64039182051E+01  0.32902775609E+02  0.00000000000E+00 0.  1.
         11    1    4    4    0    0  0.56901412503E+01  0.64522705763E+02 -0.80258529601E+02  0.10313577866E+03  0.00000000000E+00 0. -1.
          1    1    1    2  501    0  0.58258072393E+02 -0.45286210202E+02 -0.21493965288E+03  0.22725293884E+03  0.00000000000E+00 0. -1.
<scales pt_clust_5="13000.00000" pt_clust_6="13000.00000" pt_clust_7="13000.00000" pt_clust_8="13000.00000" pt_clust_9="13000.00000"></scales>
<clustering>
<clus scale="   80.319">  5  6 -1 -1</clus>
<clus scale="   85.653">  7  8 -1 -1</clus>
<clus scale="   73.789">  7  9 -1 -1</clus>
<clus scale="   87.417">  2  5  1 -1</clus>
<clus scale="  202.526">  1  5  2 -1</clus>
</clustering>
</event>
<event>
 9    2  0.2147756E-005  0.2374540E+03  0.7546771E-02  0.1156188E+00
          2   -1    0    0  502    0 -0.00000000000E+00  0.00000000000E+00  0.21323038615E+03  0.21323038615E+03  0.00000000000E+00 0. -1.
         21   -1    0    0  501  502  0.00000000000E+00 -0.00000000000E+00 -0.13855838261E+03  0.13855838261E+03  0.00000000000E+00 0. -1.
         24    2    1    2    0    0 -0.11593320903E+02 -0.63759462804E+02  0.46417594922E+02  0.11265967558E+03  0.79611149959E+02 0.  0.
         23    2    1    2    0    0  0.80108893027E+01 -0.43697036380E+02 -0.42537207595E+02  0.11039997464E+03  0.91679523536E+02 0.  0.
        -11    1    3    3    0    0 -0.18543471747E+02  0.14349661480E+02  0.49931044234E+01  0.23972989401E+02  0.00000000000E+00 0.  1.
         12    1    3    3    0    0  0.69501508439E+01 -0.78109124284E+02  0.41424490499E+02  0.88686686184E+02  0.00000000000E+00 0. -1.
        -13    1    4    4    0    0  0.42090333309E+02 -0.26493924939E+01 -0.10560065004E-01  0.42173635724E+02  0.00000000000E+00 0.  1.
         13    1    4    4    0    0 -0.34079444007E+02 -0.41047643886E+02 -0.42526647530E+02  0.68226338921E+02  0.00000000000E+00 0. -1.
          1    1    1    2  501    0  0.35824316005E+01  0.10745649918E+03  0.70791616209E+02  0.12872911853E+03  0.00000000000E+00 0. -1.
<scales pt_clust_5="13000.00000" pt_clust_6="13000.00000" pt_clust_7="13000.00000" pt_clust_8="13000.00000" pt_clust_9="13000.00000"></scales>
<clustering>
<clus scale="   79.611">  5  6 -1 -1</clus>
<clus scale="   91.680">  7  8 -1 -1</clus>
<clus scale="  102.653">  1  5  2 -1</clus>
<clus scale="   60.094">  7  9 -1 -1</clus>
<clus scale="  237.454">  2  5  1 -1</clus>
</clustering>
</event>
<event>
 9    2  0.2147756E-005  0.2554704E+03  0.7546771E-02  0.1146205E+00
         21   -1    0    0  501  502  0.00000000000E+00  0.00000000000E+00  0.82196536930E+02  0.82196536930E+02  0.00000000000E+00 0. -1.
          2   -1    0    0  502    0 -0.00000000000E+00 -0.00000000000E+00 -0.11082513912E+04  0.11082513912E+04  0.00000000000E+00 0. -1.
         24    2    1    2    0    0 -0.24387343258E+02 -0.61588315981E+02 -0.89916074277E+03  0.90519851009E+03  0.80662495311E+02 0.  0.
         23    2    1    2    0    0 -0.34671053458E+02  0.10502551080E+03 -0.15126039460E+03  0.20799399841E+03  0.90273786512E+02 0.  0.
        -11    1    3    3    0    0  0.17916016275E+02 -0.94863892581E+01 -0.59477727126E+02  0.62837689680E+02  0.00000000000E+00 0.  1.
         12    1    3    3    0    0 -0.42303359533E+02 -0.52101926723E+02 -0.83968301564E+03  0.84236082041E+03  0.00000000000E+00 0. -1.
        -11    1    4    4    0    0  0.23857734386E+01  0.91000455860E+02 -0.61448123630E+02  0.10983008140E+03  0.00000000000E+00 0.  1.
         11    1    4    4    0    0 -0.37056826897E+02  0.14025054939E+02 -0.89812270971E+02  0.98163917010E+02  0.00000000000E+00 0. -1.
          1    1    1    2  501    0  0.59058396717E+02 -0.43437194819E+02  0.24366283074E+02  0.77255419663E+02  0.00000000000E+00 0. -1.
<scales pt_clust_5="13000.00000" pt_clust_6="13000.00000" pt_clust_7="13000.00000" pt_clust_8="13000.00000" pt_clust_9="13000.00000"></scales>
<clustering>
<clus scale="   80.662">  5  6 -1 -1</clus>
<clus scale="   90.274">  7  8 -1 -1</clus>
<clus scale="   73.312">  7  9 -1 -1</clus>
<clus scale="  104.376">  2  5  1 -1</clus>
<clus scale="  255.470">  1  5  2 -1</clus>
</clustering>
</event>
<event>
 9    2  0.2147756E-005  0.2248018E+03  0.7546771E-02  0.1172959E+00
         21   -1    0    0  501  502  0.00000000000E+00  0.00000000000E+00  0.16969072055E+03  0.16969072055E+03  0.00000000000E+00 0.  1.
         -3   -1    0    0    0  501 -0.00000000000E+00 -0.00000000000E+00 -0.17144557938E+03  0.17144557938E+03  0.00000000000E+00 0.  1.
         24    2    1    2    0    0  0.36020975879E+01 -0.34328950267E+01  0.67067258814E+02  0.10603561101E+03  0.81980325211E+02 0.  0.
         23    2    1    2    0    0  0.14028001845E+02 -0.79548262841E+02 -0.79952429047E+02  0.14954031959E+03  0.97186446155E+02 0.  0.
        -11    1    3    3    0    0 -0.20325292918E+02  0.31216472090E+02  0.45252842912E+02  0.58612331923E+02  0.00000000000E+00 0.  1.
         12    1    3    3    0    0  0.23927390506E+02 -0.34649367116E+02  0.21814415903E+02  0.47423279085E+02  0.00000000000E+00 0. -1.
        -11    1    4    4    0    0  0.40122238257E+02 -0.88466368906E+02 -0.71767111109E+02  0.12077504157E+03  0.00000000000E+00 0.  1.
         11    1    4    4    0    0 -0.26094236412E+02  0.89181060650E+01 -0.81853179382E+01  0.28765278018E+02  0.00000000000E+00 0. -1.
         -4    1    1    2    0  502 -0.17630099433E+02  0.82981157868E+02  0.11130311406E+02  0.85560369325E+02  0.00000000000E+00 0.  1.
<scales pt_clust_5="13000.00000" pt_clust_6="13000.00000" pt_clust_7="13000.00000" pt_clust_8="13000.00000" pt_clust_9="13000.00000"></scales>
<clustering>
<clus scale="   81.980">  5  6 -1 -1</clus>
<clus scale="   82.131">  2  5  1 -1</clus>
<clus scale="   97.186">  7  8 -1 -1</clus>
<clus scale="   83.831">  7  9 -1 -1</clus>
<clus scale="  224.802">  1  5  2 -1</clus>
</clustering>
</event>
<event>
 9    2  0.2147756E-005  0.2599651E+03  0.7546771E-02  0.1130004E+00
         -1   -1    0    0    0  501 -0.00000000000E+00  0.00000000000E+00  0.72291908221E+02  0.72291908221E+02  0.00000000000E+00 0.  1.
         21   -1    0    0  501  502  0.00000000000E+00 -0.00000000000E+00 -0.57280109035E+03  0.57280109035E+03  0.00000000000E+00 0. -1.
         24    2    1    2    0    0 -0.16822685344E+02  0.12114828950E+03 -0.16678691021E+03  0.22206532415E+03  0.80840732194E+02 0.  0.
         23    2    1    2    0    0  0.76370057938E+02 -0.46237863329E+02 -0.29224298976E+03  0.31873005997E+03  0.90623177557E+02 0.  0.
        -13    1    3    3    0    0  0.64370488249E+01  0.73830229471E+02 -0.38820509057E+02  0.83662239420E+02  0.00000000000E+00 0.  1.
         14    1    3    3    0    0 -0.23259734169E+02  0.47318060027E+02 -0.12796640116E+03  0.13840308473E+03  0.00000000000E+00 0. -1.
        -11    1    4    4    0    0  0.67773486432E+01  0.23144566010E+02 -0.99500636099E+02  0.10238154118E+03  0.00000000000E+00 0.  1.
         11    1    4    4    0    0  0.69592709295E+02 -0.69382429339E+02 -0.19274235366E+03  0.21634851879E+03  0.00000000000E+00 0. -1.
         -2    1    1    2    0  502 -0.59547372594E+02 -0.74910426170E+02 -0.41479282160E+02  0.10429761445E+03  0.00000000000E+00 0.  1.
<scales pt_clust_5="13000.00000" pt_clust_6="13000.00000" pt_clust_7="13000.00000" pt_clust_8="13000.00000" pt_clust_9="13000.00000"></scales>
<clustering>
<clus scale="   80.841">  5  6 -1 -1</clus>
<clus scale="   90.623">  7  8 -1 -1</clus>
<clus scale="   95.695">  7  9 -1 -1</clus>
<clus scale="  146.612">  1  5  2 -1</clus>
<clus scale="  259.965">  2  5  1 -1</clus>
</clustering>
</event>
<event>
 9    2  0.2147756E-005  0.1590190E+03  0.7546771E-02  0.1208341E+00
         21   -1    0    0  501  502  0.00000000000E+00  0.00000000000E+00  0.39075217556E+02  0.39075217556E+02  0.00000000000E+00 0.  1.
          2   -1    0    0  502    0 -0.00000000000E+00 -0.00000000000E+00 -0.60577841690E+03  0.60577841690E+03  0.00000000000E+00 0. -1.
         24    2    1    2    0    0 -0.64717563124E+02 -0.20627262541E+02 -0.80499253274E+02  0.13330566844E+03  0.81709390673E+02 0.  0.
         23    2    1    2    0    0  0.15274992614E+02 -0.17979078972E+02 -0.23511361159E+03  0.25274036672E+03  0.89681157079E+02 0.  0.
        -13    1    3    3    0    0 -0.23906043207E+02  0.10758964619E+02  0.10909613156E+02  0.28394962241E+02  0.00000000000E+00 0.  1.
         14    1    3    3    0    0 -0.40811519917E+02 -0.31386227160E+02 -0.91408866430E+02  0.10491070620E+03  0.00000000000E+00 0. -1.
        -13    1    4    4    0    0 -0.12030843797E+02  0.27898468865E+02 -0.14371299681E+03  0.14688938430E+03  0.00000000000E+00 0.  1.
         13    1    4    4    0    0  0.27305836410E+02 -0.45877547836E+02 -0.91400614779E+02  0.10585098242E+03  0.00000000000E+00 0. -1.
          1    1    1    2  501    0  0.49442570510E+02  0.38606341513E+02 -0.25109033448E+03  0.25880759930E+03  0.00000000000E+00 0. -1.
<scales pt_clust_5="13000.00000" pt_clust_6="13000.00000" pt_clust_7="13000.00000" pt_clust_8="13000.00000" pt_clust_9="13000.00000"></scales>
<clustering>
<clus scale="   81.709">  5  6 -1 -1</clus>
<clus scale="   89.681">  7  8 -1 -1</clus>
<clus scale="   62.730">  7  9 -1 -1</clus>
<clus scale="  106.256">  2  5  1 -1</clus>
<clus scale="  159.019">  1  5  2 -1</clus>
</clustering>
</event>
<event>
 9    2  0.2147756E-005  0.2465033E+03  0.7546771E-02  0.1153286E+00
          2   -1    0    0  502    0 -0.00000000000E+00  0.00000000000E+00  0.37250703713E+03  0.37250703713E+03  0.00000000000E+00 0. -1.
         21   -1    0    0  501  502  0.00000000000E+00 -0.00000000000E+00 -0.95650664422E+02  0.95650664422E+02  0.00000000000E+00 0. -1.
         24    2    1    2    0    0  0.20685479791E+02  0.59915448628E+02  0.10348738093E+01  0.98236958432E+02  0.75044513322E+02 0.  0.
         23    2    1    2    0    0 -0.10968840616E+03 -0.65977710405E+02  0.16294084818E+03  0.22604470888E+03  0.90343155207E+02 0.  0.
        -13    1    3    3    0    0  0.49136773934E+02  0.36723792992E+02  0.35380301196E+01  0.61445725494E+02  0.00000000000E+00 0.  1.
         14    1    3    3    0    0 -0.28451294144E+02  0.23191655635E+02 -0.25031563104E+01  0.36791232938E+02  0.00000000000E+00 0. -1.
        -11    1    4    4    0    0 -0.53727358221E+02 -0.51931505878E+02  0.14900091851E+03  0.16668768413E+03  0.00000000000E+00 0.  1.
         11    1    4    4    0    0 -0.55961047940E+02 -0.14046204527E+02  0.13939929666E+02  0.59357024751E+02  0.00000000000E+00 0. -1.
          1    1    1    2  501    0  0.89002926371E+02  0.60622617775E+01  0.11288065072E+03  0.14387603424E+03  0.00000000000E+00 0. -1.
<scales pt_clust_5="13000.00000" pt_clust_6="13000.00000" pt_clust_7="13000.00000" pt_clust_8="13000.00000" pt_clust_9="13000.00000"></scales>
<clustering>
<clus scale="   75.045">  5  6 -1 -1</clus>
<clus scale="   90.343">  7  8 -1 -1</clus>
<clus scale="   89.209">  7  9 -1 -1</clus>
<clus scale="   98.232">  1  5  2 -1</clus>
<clus scale="  246.503">  2  5  1 -1</clus>
</clustering>
</event>
<event>
 9    2  0.2147756E-005  0.1680419E+03  0.7546771E-02  0.1201729E+00
          4   -1    0    0  502    0 -0.00000000000E+00  0.00000000000E+00  0.58412678714E+03  0.58412678714E+03  0.00000000000E+00 0. -1.
         21   -1    0    0  501  502  0.00000000000E+00 -0.00000000000E+00 -0.63624973799E+02  0.63624973799E+02  0.00000000000E+00 0. -1.
         24    2    1    2    0    0  0.19213893762E+01 -0.65396378837E+02  0.45613928961E+03  0.46780558304E+03  0.80614104808E+02 0.  0.
         23    2    1    2    0    0  0.44261967406E+02  0.40679419322E+02  0.63665461692E+02  0.12755995427E+03  0.92759441599E+02 0.  0.
        -11    1    3    3    0    0 -0.20126668705E+02  0.10228899273E+02  0.64900870290E+02  0.68715617860E+02  0.00000000000E+00 0.  1.
         12    1    3    3    0    0  0.22048058081E+02 -0.75625278110E+02  0.39123841932E+03  0.39908996518E+03  0.00000000000E+00 0. -1.
        -11    1    4    4    0    0 -0.27403467992E+02  0.34895393414E+01  0.27867833798E+02  0.39239560438E+02  0.00000000000E+00 0.  1.
         11    1    4    4    0    0  0.71665435397E+02  0.37189879981E+02  0.35797627894E+02  0.88320393831E+02  0.00000000000E+00 0. -1.
          3    1    1    2  501    0 -0.46183356782E+02  0.24716959515E+02  0.69706204258E+00  0.52386223636E+02  0.00000000000E+00 0. -1.
<scales pt_clust_5="13000.00000" pt_clust_6="13000.00000" pt_clust_7="13000.00000" pt_clust_8="13000.00000" pt_clust_9="13000.00000"></scales>
<clustering>
<clus scale="   80.614">  5  6 -1 -1</clus>
<clus scale="   92.759">  7  8 -1 -1</clus>
<clus scale="   52.382">  7  9 -1 -1</clus>
<clus scale="  103.822">  1  5  2 -1</clus>
<clus scale="  168.042">  2  5  1 -1</clus>
</clustering>
</event>
<event>
 9    2  0.2147756E-005  0.1376841E+03  0.7546771E-02  0.1235965E+00
         21   -1    0    0  501  502  0.00000000000E+00  0.00000000000E+00  0.29498948415E+02  0.29498948415E+02  0.00000000000E+00 0. -1.
          2   -1    0    0  502    0 -0.00000000000E+00 -0.00000000000E+00 -0.46958337733E+03  0.46958337733E+03  0.00000000000E+00 0. -1.
         24    2    1    2    0    0  0.51639722621E+02  0.10774193675E+02 -0.12394843090E+03  0.15426514072E+03  0.75178294180E+02 0.  0.
         23    2    1    2    0    0 -0.26953667155E+02 -0.33062510610E+02 -0.25330137522E+03  0.27372316117E+03  0.94568242521E+02 0.  0.
        -13    1    3    3    0    0  0.40282506748E+02 -0.26090628785E+02 -0.93585319500E+02  0.10517420447E+03  0.00000000000E+00 0.  1.
         14    1    3    3    0    0  0.11357215873E+02  0.36864822461E+02 -0.30363111401E+02  0.49090936245E+02  0.00000000000E+00 0. -1.
        -11    1    4    4    0    0 -0.47900826888E+01  0.33199434141E+02 -0.92664194965E+02  0.98548467000E+02  0.00000000000E+00 0.  1.
         11    1    4    4    0    0 -0.22163584466E+02 -0.66261944751E+02 -0.16063718026E+03  0.17517469417E+03  0.00000000000E+00 0. -1.
          1    1    1    2  501    0 -0.24686055466E+02  0.22288316935E+02 -0.62834622794E+02  0.71094023855E+02  0.00000000000E+00 0. -1.
<scales pt_clust_5="13000.00000" pt_clust_6="13000.00000" pt_clust_7="13000.00000" pt_clust_8="13000.00000" pt_clust_9="13000.00000"></scales>
<clustering>
<clus scale="   75.178">  5  6 -1 -1</clus>
<clus scale="   91.840">  2  5  1 -1</clus>
<clus scale="   94.568">  7  8 -1 -1</clus>
<clus scale="   28.304">  7  9 -1 -1</clus>
<clus scale="  137.684">  1  5  2 -1</clus>
</clustering>
</event>
<event>
 9    2  0.2147756E-005  0.1071146E+04  0.7546771E-02  0.9759910E-01
         21   -1    0    0  501  502  0.00000000000E+00  0.00000000000E+00  0.97809073431E+02  0.97809073431E+02  0.00000000000E+00 0. -1.
          2   -1    0    0  502    0 -0.00000000000E+00 -0.00000000000E+00 -0.41727668085E+04  0.41727668085E+04  0.00000000000E+00 0. -1.
         24    2    1    2    0    0  0.13986579262E+03 -0.51266285795E+02 -0.27967244179E+03  0.32703135822E+03  0.80883635894E+02 0.  0.
         23    2    1    2    0    0  0.36969046370E+03 -0.16247774364E+03 -0.83056888970E+03  0.92777307313E+03  0.88589720452E+02 0.  0.
        -11    1    3    3    0    0  0.33222342042E+02  0.10634073389E+02 -0.12188346781E+03  0.12677691925E+03  0.00000000000E+00 0.  1.
         12    1    3    3    0    0  0.10664345058E+03 -0.61900359183E+02 -0.15778897398E+03  0.20025443897E+03  0.00000000000E+00 0. -1.
        -11    1    4    4    0    0  0.22853188122E+03 -0.74466962756E+02 -0.57035130790E+03  0.61892872263E+03  0.00000000000E+00 0. -1.
         11    1    4    4    0    0  0.14115858248E+03 -0.88010780888E+02 -0.26021758179E+03  0.30884435050E+03  0.00000000000E+00 0.  1.
          1    1    1    2  501    0 -0.50955625632E+03  0.21374402944E+03 -0.29647164036E+04  0.30157714506E+04  0.00000000000E+00 0. -1.
<scales pt_clust_5="13000.00000" pt_clust_6="13000.00000" pt_clust_7="13000.00000" pt_clust_8="13000.00000" pt_clust_9="13000.00000"></scales>
<clustering>
<clus scale="   80.884">  5  6 -1 -1</clus>
<clus scale="   88.590">  7  8 -1 -1</clus>
<clus scale="  169.508">  2  5  1 -1</clus>
<clus scale="  437.605">  7  9 -1 -1</clus>
<clus scale=" 1071.146">  1  5  2 -1</clus>
</clustering>
</event>
<event>
 9    2  0.2147756E-005  0.2618958E+03  0.7546771E-02  0.1119470E+00
          2   -1    0    0  502    0 -0.00000000000E+00  0.00000000000E+00  0.45807009388E+03  0.45807009388E+03  0.00000000000E+00 0. -1.
         21   -1    0    0  501  502  0.00000000000E+00 -0.00000000000E+00 -0.15228241647E+03  0.15228241647E+03  0.00000000000E+00 0.  1.
         24    2    1    2    0    0  0.14392651808E+03  0.85268796829E+02 -0.25626737498E+02  0.18794877437E+03  0.81745958872E+02 0.  0.
         23    2    1    2    0    0 -0.38300253474E+02 -0.17651013364E+02  0.46667773567E+02  0.11126112852E+03  0.91775214201E+02 0.  0.
        -13    1    3    3    0    0  0.14034006658E+03  0.98244584367E+02 -0.29738190826E+02  0.17387263338E+03  0.00000000000E+00 0.  1.
         14    1    3    3    0    0  0.35864515017E+01 -0.12975787539E+02  0.41114533280E+01  0.14076140987E+02  0.00000000000E+00 0. -1.
        -13    1    4    4    0    0 -0.12796424198E+02 -0.46301312144E+02  0.53930486088E+02  0.72222277091E+02  0.00000000000E+00 0.  1.
         13    1    4    4    0    0 -0.25503829276E+02  0.28650298781E+02 -0.72627125206E+01  0.39038851432E+02  0.00000000000E+00 0. -1.
          1    1    1    2  501    0 -0.10562626461E+03 -0.67617783465E+02  0.28474664134E+03  0.31114260745E+03  0.00000000000E+00 0. -1.
<scales pt_clust_5="13000.00000" pt_clust_6="13000.00000" pt_clust_7="13000.00000" pt_clust_8="13000.00000" pt_clust_9="13000.00000"></scales>
<clustering>
<clus scale="   81.746">  5  6 -1 -1</clus>
<clus scale="   91.775">  7  8 -1 -1</clus>
<clus scale="  125.416">  7  9 -1 -1</clus>
<clus scale="  186.194">  1  5  2 -1</clus>
<clus scale="  261.896">  2  5  1 -1</clus>
</clustering>
</event>
<event>
 9    2  0.2147756E-005  0.2386590E+03  0.7546771E-02  0.1144039E+00
         21   -1    0    0  501  502  0.00000000000E+00  0.00000000000E+00  0.42641070408E+02  0.42641070408E+02  0.00000000000E+00 0. -1.
          2   -1    0    0  502    0 -0.00000000000E+00 -0.00000000000E+00 -0.15125589678E+04  0.15125589678E+04  0.00000000000E+00 0. -1.
         24    2    1    2    0    0 -0.52420698228E+02  0.95212226452E+02 -0.11403548605E+04  0.11482972217E+04  0.79774708000E+02 0.  0.
         23    2    1    2    0    0 -0.12446618523E+02  0.28354233429E+02 -0.10902307442E+03  0.14591562549E+03  0.91904614347E+02 0.  0.
        -11    1    3    3    0    0 -0.13399373632E+02  0.43627693889E+02 -0.17754057154E+03  0.18331277487E+03  0.00000000000E+00 0.  1.
         12    1    3    3    0    0 -0.39021324596E+02  0.51584532563E+02 -0.96281428891E+03  0.96498444687E+03  0.00000000000E+00 0. -1.
        -11    1    4    4    0    0  0.17771517772E+02  0.35049638035E+02 -0.10802242294E+03  0.11494845727E+03  0.00000000000E+00 0.  1.
         11    1    4    4    0    0 -0.30218136295E+02 -0.66954046058E+01 -0.10006514807E+01  0.30967168216E+02  0.00000000000E+00 0. -1.
          1    1    1    2  501    0  0.64867316751E+02 -0.12356645988E+03 -0.22053996254E+03  0.26098719100E+03  0.00000000000E+00 0. -1.
<scales pt_clust_5="13000.00000" pt_clust_6="13000.00000" pt_clust_7="13000.00000" pt_clust_8="13000.00000" pt_clust_9="13000.00000"></scales>
<clustering>
<clus scale="   79.775">  5  6 -1 -1</clus>
<clus scale="   91.905">  7  8 -1 -1</clus>
<clus scale="  134.823">  2  5  1 -1</clus>
<clus scale="   68.522">  7  9 -1 -1</clus>
<clus scale="  238.659">  1  5  2 -1</clus>
</clustering>
</event>
<event>
 9    2  0.2147756E-005  0.2319223E+03  0.7546771E-02  0.1161697E+00
          2   -1    0    0  502    0 -0.00000000000E+00  0.00000000000E+00  0.56152334238E+03  0.56152334238E+03  0.00000000000E+00 0. -1.
         21   -1    0    0  501  502  0.00000000000E+00 -0.00000000000E+00 -0.23964279149E+03  0.23964279149E+03  0.00000000000E+00 0. -1.
         24    2    1    2    0    0 -0.40676520680E+02 -0.32707051962E+02  0.49964552999E+03  0.50895326667E+03  0.81629905303E+02 0.  0.
         23    2    1    2    0    0 -0.44474004526E+02  0.72197636250E+02 -0.50494852696E+02  0.13407431002E+03  0.90751058950E+02 0.  0.
        -13    1    3    3    0    0 -0.32793018629E+02 -0.49726910083E+02  0.19901349351E+03  0.20773665602E+03  0.00000000000E+00 0.  1.
         14    1    3    3    0    0 -0.78835020512E+01  0.17019858121E+02  0.30063203648E+03  0.30121661065E+03  0.00000000000E+00 0. -1.
        -11    1    4    4    0    0 -0.51509074085E+01  0.75468391011E+02 -0.79702373551E+01  0.76062701585E+02  0.00000000000E+00 0. -1.
         11    1    4    4    0    0 -0.39323097118E+02 -0.32707547606E+01 -0.42524615341E+02  0.58011608437E+02  0.00000000000E+00 0.  1.
          1    1    1    2  501    0  0.85150525207E+02 -0.39490584288E+02 -0.12727012640E+03  0.15813855717E+03  0.00000000000E+00 0. -1.
<scales pt_clust_5="13000.00000" pt_clust_6="13000.00000" pt_clust_7="13000.00000" pt_clust_8="13000.00000" pt_clust_9="13000.00000"></scales>
<clustering>
<clus scale="   81.630">  5  6 -1 -1</clus>
<clus scale="   90.751">  7  8 -1 -1</clus>
<clus scale="   93.862">  7  9 -1 -1</clus>
<clus scale="   96.891">  1  5  2 -1</clus>
<clus scale="  231.922">  2  5  1 -1</clus>
</clustering>
</event>
<event>
 9    2  0.2147756E-005  0.1250920E+03  0.7546771E-02  0.1249333E+00
          2   -1    0    0  502    0 -0.00000000000E+00  0.00000000000E+00  0.18112533485E+03  0.18112533485E+03  0.00000000000E+00 0. -1.
         21   -1    0    0  501  502  0.00000000000E+00 -0.00000000000E+00 -0.66872507620E+02  0.66872507620E+02  0.00000000000E+00 0. -1.
         24    2    1    2    0    0  0.46184222313E+02 -0.58945132826E+01  0.63586265871E+02  0.11303450164E+03  0.81029980107E+02 0.  0.
         23    2    1    2    0    0 -0.14129804892E+02  0.14668947211E+02  0.34649218646E+02  0.98071178593E+02  0.89457019397E+02 0.  0.
        -11    1    3    3    0    0  0.54831816611E+02 -0.33624586570E+02  0.41539033214E+02  0.76567827547E+02  0.00000000000E+00 0.  1.
         12    1    3    3    0    0 -0.86475942980E+01  0.27730073287E+02  0.22047232657E+02  0.36466674094E+02  0.00000000000E+00 0. -1.
        -13    1    4    4    0    0 -0.30640783727E+02 -0.30949108051E+01  0.57194231164E+02  0.64958572789E+02  0.00000000000E+00 0.  1.
         13    1    4    4    0    0  0.16510978836E+02  0.17763858016E+02 -0.22545012518E+02  0.33112605805E+02  0.00000000000E+00 0. -1.
          1    1    1    2  501    0 -0.32054417422E+02 -0.87744339281E+01  0.16017342718E+02  0.36892162240E+02  0.00000000000E+00 0. -1.
<scales pt_clust_5="13000.00000" pt_clust_6="13000.00000" pt_clust_7="13000.00000" pt_clust_8="13000.00000" pt_clust_9="13000.00000"></scales>
<clustering>
<clus scale="   81.030">  5  6 -1 -1</clus>
<clus scale="   89.457">  7  8 -1 -1</clus>
<clus scale="   33.234">  7  9 -1 -1</clus>
<clus scale="   93.454">  1  5  2 -1</clus>
<clus scale="  125.092">  2  5  1 -1</clus>
</clustering>
</event>
<event>
 9    2  0.2147756E-005  0.3105735E+03  0.7546771E-02  0.1105902E+00
         21   -1    0    0  501  502  0.00000000000E+00  0.00000000000E+00  0.64396149362E+03  0.64396149362E+03  0.00000000000E+00 0. -1.
         -1   -1    0    0    0  501 -0.00000000000E+00 -0.00000000000E+00 -0.94261923682E+02  0.94261923682E+02  0.00000000000E+00 0.  1.
         24    2    1    2    0    0 -0.12067687109E+03  0.59952031961E+02  0.30342091956E+03  0.34185357313E+03  0.81501274106E+02 0.  0.
         23    2    1    2    0    0  0.48977579712E+02 -0.11140602831E+03  0.24873742462E+02  0.15802464206E+03  0.97688167023E+02 0.  0.
        -11    1    3    3    0    0 -0.43753218954E+02 -0.16698842909E+02  0.67677029211E+02  0.82300521300E+02  0.00000000000E+00 0.  1.
         12    1    3    3    0    0 -0.76923652132E+02  0.76650874869E+02  0.23574389035E+03  0.25955305183E+03  0.00000000000E+00 0. -1.
        -13    1    4    4    0    0  0.72551833820E+02 -0.10430955453E+03  0.63565571021E+01  0.12721893560E+03  0.00000000000E+00 0.  1.
         13    1    4    4    0    0 -0.23574254108E+02 -0.70964737773E+01  0.18517185360E+02  0.30805706460E+02  0.00000000000E+00 0. -1.
         -2    1    1    2    0  502  0.71699291373E+02  0.51453996345E+02  0.22140490791E+03  0.23834520211E+03  0.00000000000E+00 0.  1.
<scales pt_clust_5="13000.00000" pt_clust_6="13000.00000" pt_clust_7="13000.00000" pt_clust_8="13000.00000" pt_clust_9="13000.00000"></scales>
<clustering>
<clus scale="   81.501">  5  6 -1 -1</clus>
<clus scale="   97.688">  7  8 -1 -1</clus>
<clus scale="   88.251">  7  9 -1 -1</clus>
<clus scale="  157.479">  2  5  1 -1</clus>
<clus scale="  310.573">  1  5  2 -1</clus>
</clustering>
</event>
<event>
 9    2  0.2147756E-005  0.1809032E+03  0.7546771E-02  0.1175690E+00
          2   -1    0    0  502    0 -0.00000000000E+00  0.00000000000E+00  0.41935491189E+03  0.41935491189E+03  0.00000000000E+00 0. -1.
         21   -1    0    0  501  502  0.00000000000E+00 -0.00000000000E+00 -0.10098300825E+03  0.10098300825E+03  0.00000000000E+00 0.  1.
         24    2    1    2    0    0 -0.72278858386E+02 -0.10041300683E+03 -0.67408957683E+01  0.14828373953E+03  0.81459329880E+02 0.  0.
         23    2    1    2    0    0  0.34578151208E+02  0.99208333736E+02  0.22233257917E+03  0.26257099362E+03  0.92053293851E+02 0.  0.
        -11    1    3    3    0    0 -0.47923035370E+02 -0.10773472213E+03  0.91955998826E+01  0.11827065033E+03  0.00000000000E+00 0.  1.
         12    1    3    3    0    0 -0.24355823016E+02  0.73217153076E+01 -0.15936495651E+02  0.30013089202E+02  0.00000000000E+00 0. -1.
        -13    1    4    4    0    0  0.30409377944E+02 -0.67385873503E+01  0.31733496132E+02  0.44465195414E+02  0.00000000000E+00 0.  1.
         13    1    4    4    0    0  0.41687732638E+01  0.10594692109E+03  0.19059908303E+03  0.21810579821E+03  0.00000000000E+00 0. -1.
          1    1    1    2  501    0  0.37700707178E+02  0.12046730898E+01  0.10278022025E+03  0.10948318699E+03  0.00000000000E+00 0. -1.
<scales pt_clust_5="13000.00000" pt_clust_6="13000.00000" pt_clust_7="13000.00000" pt_clust_8="13000.00000" pt_clust_9="13000.00000"></scales>
<clustering>
<clus scale="   81.459">  5  6 -1 -1</clus>
<clus scale="   92.053">  7  8 -1 -1</clus>
<clus scale="   37.720">  7  9 -1 -1</clus>
<clus scale="  148.131">  1  5  2 -1</clus>
<clus scale="  180.903">  2  5  1 -1</clus>
</clustering>
</event>
<event>
 9    2  0.2147756E-005  0.7210015E+03  0.7546771E-02  0.1014090E+00
          2   -1    0    0  502    0 -0.00000000000E+00  0.00000000000E+00  0.21566074489E+04  0.21566074489E+04  0.00000000000E+00 0. -1.
         21   -1    0    0  501  502  0.00000000000E+00 -0.00000000000E+00 -0.92855753648E+02  0.92855753648E+02  0.00000000000E+00 0.  1.
         24    2    1    2    0    0 -0.13078204601E+03 -0.61131566540E+02  0.52080574686E+03  0.54637032208E+03  0.80255161223E+02 0.  0.
         23    2    1    2    0    0 -0.64201561210E+02  0.34570884292E+03  0.63099790815E+03  0.72807900292E+03  0.91127547218E+02 0.  0.
        -13    1    3    3    0    0 -0.10794431911E+02 -0.24067368124E+02  0.30910929772E+02  0.40635496159E+02  0.00000000000E+00 0.  1.
         14    1    3    3    0    0 -0.11998761410E+03 -0.37064198416E+02  0.48989481708E+03  0.50573482592E+03  0.00000000000E+00 0. -1.
        -13    1    4    4    0    0 -0.14671069736E+01  0.21405626650E+03  0.32583949840E+03  0.38986358685E+03  0.00000000000E+00 0.  1.
         13    1    4    4    0    0 -0.62734454237E+02  0.13165257642E+03  0.30515840975E+03  0.33821541607E+03  0.00000000000E+00 0. -1.
          1    1    1    2  501    0  0.19498360722E+03 -0.28457727638E+03  0.91194804028E+03  0.97501387759E+03  0.00000000000E+00 0. -1.
<scales pt_clust_5="13000.00000" pt_clust_6="13000.00000" pt_clust_7="13000.00000" pt_clust_8="13000.00000" pt_clust_9="13000.00000"></scales>
<clustering>
<clus scale="   80.255">  5  6 -1 -1</clus>
<clus scale="   91.128">  7  8 -1 -1</clus>
<clus scale="  165.172">  1  5  2 -1</clus>
<clus scale="  341.503">  7  9 -1 -1</clus>
<clus scale="  721.001">  2  5  1 -1</clus>
</clustering>
</event>
<event>
 9    2  0.2147756E-005  0.3303532E+03  0.7546771E-02  0.1107651E+00
         -1   -1    0    0    0  501 -0.00000000000E+00  0.00000000000E+00  0.31633248997E+03  0.31633248997E+03  0.00000000000E+00 0.  1.
         21   -1    0    0  501  502  0.00000000000E+00 -0.00000000000E+00 -0.28806578726E+03  0.28806578726E+03  0.00000000000E+00 0.  1.
         24    2    1    2    0    0  0.86516968501E+02 -0.44428374173E+02  0.19705736666E+03  0.23342186400E+03  0.78708923040E+02 0.  0.
         23    2    1    2    0    0  0.21336958135E+02 -0.23079459086E+02  0.57362826642E+02  0.11148618539E+03  0.90281495542E+02 0.  0.
        -13    1    3    3    0    0  0.50857361714E+02 -0.19229817259E+02  0.17738447606E+03  0.18553034647E+03  0.00000000000E+00 0.  1.
         14    1    3    3    0    0  0.35659606787E+02 -0.25198556914E+02  0.19672890598E+02  0.47891517529E+02  0.00000000000E+00 0. -1.
        -13    1    4    4    0    0  0.25332364036E+02 -0.51511638550E+02  0.59523385370E+02  0.82693476041E+02  0.00000000000E+00 0. -1.
         13    1    4    4    0    0 -0.39954059013E+01  0.28432179464E+02 -0.21605587282E+01  0.28792709344E+02  0.00000000000E+00 0.  1.
         -2    1    1    2    0  502 -0.10785392664E+03  0.67507833259E+02 -0.22615349060E+03  0.25949022785E+03  0.00000000000E+00 0.  1.
<scales pt_clust_5="13000.00000" pt_clust_6="13000.00000" pt_clust_7="13000.00000" pt_clust_8="13000.00000" pt_clust_9="13000.00000"></scales>
<clustering>
<clus scale="   78.709">  5  6 -1 -1</clus>
<clus scale="   90.281">  7  8 -1 -1</clus>
<clus scale="  125.117">  1  5  2 -1</clus>
<clus scale="  111.269">  7  9 -1 -1</clus>
<clus scale="  330.353">  2  5  1 -1</clus>
</clustering>
</event>
<event>
 9    2  0.2147756E-005  0.1368773E+03  0.7546771E-02  0.1239108E+00
         21   -1    0    0  501  502  0.00000000000E+00  0.00000000000E+00  0.76512086378E+02  0.76512086378E+02  0.00000000000E+00 0.  1.
         -3   -1    0    0    0  501 -0.00000000000E+00 -0.00000000000E+00 -0.22064527054E+03  0.22064527054E+03  0.00000000000E+00 0.  1.
         24    2    1    2    0    0 -0.70048105507E+01  0.32629821814E+02  0.13155141372E+02  0.88650699892E+02  0.81068589505E+02 0.  0.
         23    2    1    2    0    0 -0.81768860831E+01  0.32463548411E+01 -0.13796321321E+03  0.16502052211E+03  0.90113951370E+02 0.  0.
        -11    1    3    3    0    0 -0.34422171761E+01  0.59621691819E+02  0.14269041616E+02  0.61401958789E+02  0.00000000000E+00 0.  1.
         12    1    3    3    0    0 -0.35625933746E+01 -0.26991870005E+02 -0.11139002441E+01  0.27248741103E+02  0.00000000000E+00 0. -1.
        -13    1    4    4    0    0 -0.40104159474E+02 -0.37426356258E+01 -0.12233064025E+03  0.12879105742E+03  0.00000000000E+00 0. -1.
         13    1    4    4    0    0  0.31927273391E+02  0.69889904668E+01 -0.15632572962E+02  0.36229464685E+02  0.00000000000E+00 0.  1.
         -4    1    1    2    0  502  0.15181696634E+02 -0.35876176655E+02 -0.19325112328E+02  0.43486134923E+02  0.00000000000E+00 0.  1.
<scales pt_clust_5="13000.00000" pt_clust_6="13000.00000" pt_clust_7="13000.00000" pt_clust_8="13000.00000" pt_clust_9="13000.00000"></scales>
<clustering>
<clus scale="   81.069">  5  6 -1 -1</clus>
<clus scale="   87.669">  2  5  1 -1</clus>
<clus scale="   90.114">  7  8 -1 -1</clus>
<clus scale="   33.345">  7  9 -1 -1</clus>
<clus scale="  136.877">  1  5  2 -1</clus>
</clustering>
</event>
<event>
 9    2  0.2147756E-005  0.2444636E+03  0.7546771E-02  0.1135682E+00
          4   -1    0    0  502    0 -0.00000000000E+00  0.00000000000E+00  0.27669647401E+03  0.27669647401E+03  0.00000000000E+00 0. -1.
         21   -1    0    0  501  502  0.00000000000E+00 -0.00000000000E+00 -0.14488217422E+03  0.14488217422E+03  0.00000000000E+00 0. -1.
         24    2    1    2    0    0  0.11558295972E+03 -0.61490914060E+02  0.28084967336E+02  0.15601845349E+03  0.80077708189E+02 0.  0.
         23    2    1    2    0    0 -0.12242324757E+03 -0.19734203180E+02  0.10074114733E+03  0.18399280874E+03  0.91256148184E+02 0.  0.
        -13    1    3    3    0    0  0.10294046279E+02 -0.44590612540E+02  0.70935258596E-01  0.45763469572E+02  0.00000000000E+00 0.  1.
         14    1    3    3    0    0  0.10528891344E+03 -0.16900301520E+02  0.28014032078E+02  0.11025498391E+03  0.00000000000E+00 0. -1.
        -13    1    4    4    0    0 -0.62153512910E+01 -0.36074532061E+02  0.23277800469E+02  0.43380392457E+02  0.00000000000E+00 0.  1.
         13    1    4    4    0    0 -0.11620789628E+03  0.16340328881E+02  0.77463346858E+02  0.14061241628E+03  0.00000000000E+00 0. -1.
          3    1    1    2  501    0  0.68402878515E+01  0.81225117240E+02  0.29881851298E+01  0.81567386000E+02  0.00000000000E+00 0. -1.
<scales pt_clust_5="13000.00000" pt_clust_6="13000.00000" pt_clust_7="13000.00000" pt_clust_8="13000.00000" pt_clust_9="13000.00000"></scales>
<clustering>
<clus scale="   80.078">  5  6 -1 -1</clus>
<clus scale="   91.256">  7  8 -1 -1</clus>
<clus scale="   81.513">  7  9 -1 -1</clus>
<clus scale="  153.470">  1  5  2 -1</clus>
<clus scale="  244.464">  2  5  1 -1</clus>
</clustering>
</event>
<event>
 9    2  0.2147756E-005  0.2589350E+03  0.7546771E-02  0.1151741E+00
          2   -1    0    0  502    0 -0.00000000000E+00  0.00000000000E+00  0.44004967952E+03  0.44004967952E+03  0.00000000000E+00 0. -1.
         21   -1    0    0  501  502  0.00000000000E+00 -0.00000000000E+00 -0.70778175944E+02  0.70778175944E+02  0.00000000000E+00 0.  1.
         24    2    1    2    0    0 -0.54700575579E+01  0.33963203839E+02  0.55254265159E+02  0.10382148971E+03  0.80885395237E+02 0.  0.
         23    2    1    2    0    0 -0.41526550820E+02 -0.21845058598E+01  0.13241035342E+02  0.10092648863E+03  0.91003321925E+02 0.  0.
        -11    1    3    3    0    0 -0.27384341764E+02  0.92862656062E+01 -0.10081816480E+02  0.30623192621E+02  0.00000000000E+00 0.  1.
         12    1    3    3    0    0  0.21914284206E+02  0.24676938233E+02  0.65336081639E+02  0.73198297089E+02  0.00000000000E+00 0. -1.
        -11    1    4    4    0    0  0.55133697052E+01  0.25230378759E+02  0.33966450976E+02  0.42669533038E+02  0.00000000000E+00 0.  1.
         11    1    4    4    0    0 -0.47039920525E+02 -0.27414884618E+02 -0.20725415633E+02  0.58256955591E+02  0.00000000000E+00 0. -1.
          1    1    1    2  501    0  0.46996608377E+02 -0.31778697979E+02  0.30077620307E+03  0.30607987712E+03  0.00000000000E+00 0. -1.
<scales pt_clust_5="13000.00000" pt_clust_6="13000.00000" pt_clust_7="13000.00000" pt_clust_8="13000.00000" pt_clust_9="13000.00000"></scales>
<clustering>
<clus scale="   80.885">  5  6 -1 -1</clus>
<clus scale="   87.897">  1  5  2 -1</clus>
<clus scale="   91.003">  7  8 -1 -1</clus>
<clus scale="   42.513">  7  9 -1 -1</clus>
<clus scale="  258.935">  2  5  1 -1</clus>
</clustering>
</event>
<event>
 9    2  0.2147756E-005  0.2025209E+03  0.7546771E-02  0.1173270E+00
          2   -1    0    0  502    0 -0.00000000000E+00  0.00000000000E+00  0.11244028298E+04  0.11244028298E+04  0.00000000000E+00 0. -1.
         21   -1    0    0  501  502  0.00000000000E+00 -0.00000000000E+00 -0.49646052882E+02  0.49646052882E+02  0.00000000000E+00 0. -1.
         24    2    1    2    0    0 -0.73410309245E+02  0.12948399928E+02  0.89901440985E+03  0.90590695200E+03  0.82968439749E+02 0.  0.
         23    2    1    2    0    0 -0.90677649829E+00 -0.78051398518E+01  0.23175832658E+02  0.98359629547E+02  0.95266757337E+02 0.  0.
        -11    1    3    3    0    0 -0.47898492819E+02  0.20999290214E+02  0.21143257039E+03  0.21780488430E+03  0.00000000000E+00 0.  1.
         12    1    3    3    0    0 -0.25511816427E+02 -0.80508902864E+01  0.68758183946E+03  0.68810206770E+03  0.00000000000E+00 0. -1.
        -11    1    4    4    0    0  0.10301190077E+02 -0.39604798070E+02  0.42907440390E+02  0.59293363777E+02  0.00000000000E+00 0.  1.
         11    1    4    4    0    0 -0.11207966575E+02  0.31799658218E+02 -0.19731607732E+02  0.39066265770E+02  0.00000000000E+00 0. -1.
          1    1    1    2  501    0  0.74317085743E+02 -0.51432600762E+01  0.15256653440E+03  0.16978230113E+03  0.00000000000E+00 0. -1.
<scales pt_clust_5="13000.00000" pt_clust_6="13000.00000" pt_clust_7="13000.00000" pt_clust_8="13000.00000" pt_clust_9="13000.00000"></scales>
<clustering>
<clus scale="   82.968">  5  6 -1 -1</clus>
<clus scale="   95.267">  7  8 -1 -1</clus>
<clus scale="   74.495">  7  9 -1 -1</clus>
<clus scale="  111.537">  1  5  2 -1</clus>
<clus scale="  202.521">  2  5  1 -1</clus>
</clustering>
</event>
<event>
 9    2  0.2147756E-005  0.2152645E+03  0.7546771E-02  0.1178376E+00
          2   -1    0    0  502    0 -0.00000000000E+00  0.00000000000E+00  0.30069076081E+03  0.30069076081E+03  0.00000000000E+00 0. -1.
         21   -1    0    0  501  502  0.00000000000E+00 -0.00000000000E+00 -0.78177690975E+02  0.78177690975E+02  0.00000000000E+00 0. -1.
         24    2    1    2    0    0  0.57826057030E+01  0.18748634603E+02  0.10479143508E+03  0.13351731857E+03  0.80378353208E+02 0.  0.
         23    2    1    2    0    0 -0.90100716387E+02 -0.21317020597E+02  0.69003181504E+02  0.14793641111E+03  0.92472634940E+02 0.  0.
        -13    1    3    3    0    0 -0.19946014150E+02 -0.18435195372E+02  0.10826668022E+02  0.29238957733E+02  0.00000000000E+00 0.  1.
         14    1    3    3    0    0  0.25728619853E+02  0.37183829975E+02  0.93964767054E+02  0.10427836084E+03  0.00000000000E+00 0. -1.
        -13    1    4    4    0    0 -0.33498238508E+02 -0.13852769279E+02  0.81760388445E+02  0.89435967700E+02  0.00000000000E+00 0. -1.
         13    1    4    4    0    0 -0.56602477879E+02 -0.74642513171E+01 -0.12757206941E+02  0.58500443406E+02  0.00000000000E+00 0.  1.
          1    1    1    2  501    0  0.84318110684E+02  0.25683859934E+01  0.48718453253E+02  0.97414722107E+02  0.00000000000E+00 0. -1.
<scales pt_clust_5="13000.00000" pt_clust_6="13000.00000" pt_clust_7="13000.00000" pt_clust_8="13000.00000" pt_clust_9="13000.00000"></scales>
<clustering>
<clus scale="   80.378">  5  6 -1 -1</clus>
<clus scale="   82.738">  1  5  2 -1</clus>
<clus scale="   92.473">  7  8 -1 -1</clus>
<clus scale="   87.234">  7  9 -1 -1</clus>
<clus scale="  215.264">  2  5  1 -1</clus>
</clustering>
</event>
<event>
 9    2  0.2147756E-005  0.1897059E+03  0.7546771E-02  0.1198499E+00
         21   -1    0    0  501  502  0.00000000000E+00  0.00000000000E+00  0.36484997149E+02  0.36484997149E+02  0.00000000000E+00 0. -1.
          2   -1    0    0  502    0 -0.00000000000E+00 -0.00000000000E+00 -0.52764216833E+03  0.52764216833E+03  0.00000000000E+00 0. -1.
         24    2    1    2    0    0 -0.64045627700E+01 -0.18412574359E+02 -0.21982393940E+03  0.23305307492E+03  0.74907476767E+02 0.  0.
         23    2    1    2    0    0 -0.31653636321E+02  0.64703757127E+02 -0.23146022141E+03  0.25909383580E+03  0.91472688682E+02 0.  0.
        -13    1    3    3    0    0  0.41082603162E+01  0.27785441030E+02 -0.10828522655E+03  0.11186866775E+03  0.00000000000E+00 0.  1.
         14    1    3    3    0    0 -0.10512823086E+02 -0.46198015388E+02 -0.11153871286E+03  0.12118440717E+03  0.00000000000E+00 0. -1.
        -11    1    4    4    0    0 -0.19373431362E+02  0.87746465145E+02 -0.18846107749E+03  0.20878781027E+03  0.00000000000E+00 0. -1.
         11    1    4    4    0    0 -0.12280204959E+02 -0.23042708018E+02 -0.42999143918E+02  0.50306025528E+02  0.00000000000E+00 0.  1.
          1    1    1    2  501    0  0.38058199091E+02 -0.46291182768E+02 -0.39873010374E+02  0.71980254767E+02  0.00000000000E+00 0. -1.
<scales pt_clust_5="13000.00000" pt_clust_6="13000.00000" pt_clust_7="13000.00000" pt_clust_8="13000.00000" pt_clust_9="13000.00000"></scales>
<clustering>
<clus scale="   74.907">  5  6 -1 -1</clus>
<clus scale="   77.403">  2  5  1 -1</clus>
<clus scale="   91.473">  7  8 -1 -1</clus>
<clus scale="   61.890">  7  9 -1 -1</clus>
<clus scale="  189.706">  1  5  2 -1</clus>
</clustering>
</event>
<event>
 9    2  0.4068742E-005  0.1059296E+04  0.7546771E-02  0.9712316E-01
         21   -1    0    0  501  502  0.00000000000E+00  0.00000000000E+00  0.38392079113E+03  0.38392079113E+03  0.00000000000E+00 0. -1.
          2   -1    0    0  502    0 -0.00000000000E+00 -0.00000000000E+00 -0.11818270899E+04  0.11818270899E+04  0.00000000000E+00 0. -1.
         24    2    1    2    0    0 -0.11159139653E+03 -0.14410953748E+03 -0.37025660543E+03  0.42338560644E+03  0.94579169506E+02 0.  0.
         23    2    1    2    0    0 -0.12162120970E+03 -0.11619649940E+03 -0.68147601462E+03  0.71041881315E+03  0.10950792874E+03 0.  0.
        -13    1    3    3    0    0  0.16880131190E+02 -0.13309034421E+02 -0.48716044929E+02  0.53247744175E+02  0.00000000000E+00 0.  1.
         14    1    3    3    0    0 -0.12847152772E+03 -0.13080050306E+03 -0.32154056050E+03  0.37013786226E+03  0.00000000000E+00 0. -1.
        -11    1    4    4    0    0 -0.11183800427E+03 -0.43862679094E+02 -0.32370061784E+03  0.34527346235E+03  0.00000000000E+00 0. -1.
         11    1    4    4    0    0 -0.97832054307E+01 -0.72333820310E+02 -0.35777539678E+03  0.36514535080E+03  0.00000000000E+00 0.  1.
          1    1    1    2  501    0  0.23321260623E+03  0.26030603688E+03  0.25382632125E+03  0.43194346147E+03  0.00000000000E+00 0. -1.
<scales pt_clust_5="13000.00000" pt_clust_6="13000.00000" pt_clust_7="13000.00000" pt_clust_8="13000.00000" pt_clust_9="13000.00000"></scales>
<clustering>
<clus scale="   94.579">  5  6 -1 -1</clus>
<clus scale="  109.508">  7  8 -1 -1</clus>
<clus scale="  205.342">  2  5  1 -1</clus>
<clus scale="  328.875">  7  9 -1 -1</clus>
<clus scale=" 1059.296">  1  5  2 -1</clus>
</clustering>
</event>
<event>
 9    2  0.2147756E-005  0.2930240E+03  0.7546771E-02  0.1130824E+00
         -1   -1    0    0    0  501 -0.00000000000E+00  0.00000000000E+00  0.23513728827E+03  0.23513728827E+03  0.00000000000E+00 0.  1.
         21   -1    0    0  501  502  0.00000000000E+00 -0.00000000000E+00 -0.16458279177E+03  0.16458279177E+03  0.00000000000E+00 0.  1.
         24    2    1    2    0    0 -0.58308934770E+02  0.49420842219E+01  0.21520872338E+02  0.10262186886E+03  0.81509164835E+02 0.  0.
         23    2    1    2    0    0 -0.81471274590E+01  0.20779440125E+02 -0.97822232971E+02  0.13386632766E+03  0.88616271646E+02 0.  0.
        -11    1    3    3    0    0 -0.45203913165E+02  0.29601880180E+02  0.41628699931E+02  0.68210070617E+02  0.00000000000E+00 0.  1.
         12    1    3    3    0    0 -0.13105021605E+02 -0.24659795958E+02 -0.20107827593E+02  0.34411798245E+02  0.00000000000E+00 0. -1.
        -11    1    4    4    0    0 -0.33903983272E+02 -0.18220826995E+02 -0.20741951588E+02  0.43723073700E+02  0.00000000000E+00 0. -1.
         11    1    4    4    0    0  0.25756855813E+02  0.39000267120E+02 -0.77080281383E+02  0.90143253962E+02  0.00000000000E+00 0.  1.
         -2    1    1    2    0  502  0.66456062229E+02 -0.25721524347E+02  0.14685585714E+03  0.16323188352E+03  0.00000000000E+00 0.  1.
<scales pt_clust_5="13000.00000" pt_clust_6="13000.00000" pt_clust_7="13000.00000" pt_clust_8="13000.00000" pt_clust_9="13000.00000"></scales>
<clustering>
<clus scale="   81.509">  5  6 -1 -1</clus>
<clus scale="   88.616">  7  8 -1 -1</clus>
<clus scale="   71.260">  7  9 -1 -1</clus>
<clus scale="  100.340">  1  5  2 -1</clus>
<clus scale="  293.024">  2  5  1 -1</clus>
</clustering>
</event>
<event>
 9    2  0.2147756E-005  0.1519095E+03  0.7546771E-02  0.1221130E+00
          4   -1    0    0  502    0 -0.00000000000E+00  0.00000000000E+00  0.32077014239E+02  0.32077014239E+02  0.00000000000E+00 0. -1.
         21   -1    0    0  501  502  0.00000000000E+00 -0.00000000000E+00 -0.47505785289E+03  0.47505785289E+03  0.00000000000E+00 0. -1.
         24    2    1    2    0    0  0.43800425982E+02  0.15187493453E+02 -0.13759671076E+03  0.16605428033E+03  0.80573146446E+02 0.  0.
         23    2    1    2    0    0 -0.51935255212E+02  0.25064173374E+02 -0.24357011363E+03  0.26686910192E+03  0.92559352787E+02 0.  0.
        -13    1    3    3    0    0 -0.14778809063E+02 -0.19801628915E+02 -0.35227527205E+02  0.43029017860E+02  0.00000000000E+00 0.  1.
         14    1    3    3    0    0  0.58579235045E+02  0.34989122368E+02 -0.10236918356E+03  0.12302526247E+03  0.00000000000E+00 0. -1.
        -11    1    4    4    0    0 -0.47748791739E+02  0.50352852613E+02 -0.22433320560E+03  0.23482066351E+03  0.00000000000E+00 0. -1.
         11    1    4    4    0    0 -0.41864634737E+01 -0.25288679238E+02 -0.19236908028E+02  0.32048438410E+02  0.00000000000E+00 0.  1.
          3    1    1    2  501    0  0.81348292307E+01 -0.40251666828E+02 -0.61814014264E+02  0.74211484882E+02  0.00000000000E+00 0. -1.
<scales pt_clust_5="13000.00000" pt_clust_6="13000.00000" pt_clust_7="13000.00000" pt_clust_8="13000.00000" pt_clust_9="13000.00000"></scales>
<clustering>
<clus scale="   80.573">  5  6 -1 -1</clus>
<clus scale="   92.559">  7  8 -1 -1</clus>
<clus scale="   41.065">  7  9 -1 -1</clus>
<clus scale="   92.958">  1  5  2 -1</clus>
<clus scale="  151.910">  2  5  1 -1</clus>
</clustering>
</event>
<event>
 9    2  0.2147756E-005  0.5295897E+03  0.7546771E-02  0.1046643E+00
         21   -1    0    0  501  502  0.00000000000E+00  0.00000000000E+00  0.14953946895E+03  0.14953946895E+03  0.00000000000E+00 0. -1.
          2   -1    0    0  502    0 -0.00000000000E+00 -0.00000000000E+00 -0.96037348333E+03  0.96037348333E+03  0.00000000000E+00 0. -1.
         24    2    1    2    0    0  0.94686833005E+01  0.13683392835E+03 -0.42788658041E+03  0.45637333080E+03  0.79853061637E+02 0.  0.
         23    2    1    2    0    0  0.57135414736E+02  0.60445359167E+02 -0.42309611138E+03  0.44148505432E+03  0.94766221102E+02 0.  0.
        -13    1    3    3    0    0  0.34278088806E+02  0.12078100176E+03 -0.37895094824E+03  0.39920778917E+03  0.00000000000E+00 0.  1.
         14    1    3    3    0    0 -0.24809405506E+02  0.16052926584E+02 -0.48935632170E+02  0.57165541625E+02  0.00000000000E+00 0. -1.
        -13    1    4    4    0    0  0.67814984480E+02  0.45114325872E+01 -0.25989039467E+03  0.26863030802E+03  0.00000000000E+00 0. -1.
         13    1    4    4    0    0 -0.10679569744E+02  0.55933926580E+02 -0.16320571670E+03  0.17285474630E+03  0.00000000000E+00 0.  1.
          1    1    1    2  501    0 -0.66604098036E+02 -0.19727928751E+03  0.40148677416E+02  0.21205456716E+03  0.00000000000E+00 0. -1.
<scales pt_clust_5="13000.00000" pt_clust_6="13000.00000" pt_clust_7="13000.00000" pt_clust_8="13000.00000" pt_clust_9="13000.00000"></scales>
<clustering>
<clus scale="   79.853">  5  6 -1 -1</clus>
<clus scale="   94.766">  7  8 -1 -1</clus>
<clus scale="  158.713">  2  5  1 -1</clus>
<clus scale="  186.304">  7  9 -1 -1</clus>
<clus scale="  529.590">  1  5  2 -1</clus>
</clustering>
</event>
<event>
 9    2  0.2147756E-005  0.6459470E+03  0.7546771E-02  0.1008719E+00
         21   -1    0    0  501  502  0.00000000000E+00  0.00000000000E+00  0.85836639927E+02  0.85836639927E+02  0.00000000000E+00 0.  1.
          2   -1    0    0  502    0 -0.00000000000E+00 -0.00000000000E+00 -0.25592002557E+04  0.25592002557E+04  0.00000000000E+00 0. -1.
         24    2    1    2    0    0  0.23070604043E+03 -0.11530947443E+03 -0.10044691557E+04  0.10403878647E+04  0.83229034300E+02 0.  0.
         23    2    1    2    0    0  0.11472011899E+03 -0.65059146441E+02 -0.11973675723E+03  0.20034187863E+03  0.91687398614E+02 0.  0.
        -13    1    3    3    0    0  0.14574146746E+03 -0.44304789073E+02 -0.45339942771E+03  0.47830380588E+03  0.00000000000E+00 0.  1.
         14    1    3    3    0    0  0.84964572971E+02 -0.71004685352E+02 -0.55106972802E+03  0.56208405878E+03  0.00000000000E+00 0. -1.
        -11    1    4    4    0    0  0.18170969164E+02  0.19965603022E+02 -0.42310086904E+02  0.50189170926E+02  0.00000000000E+00 0. -1.
         11    1    4    4    0    0  0.96549149831E+02 -0.85024749462E+02 -0.77426670324E+02  0.15015270771E+03  0.00000000000E+00 0.  1.
          1    1    1    2  501    0 -0.34542615943E+03  0.18036862087E+03 -0.13491577028E+04  0.14043071523E+04  0.00000000000E+00 0. -1.
<scales pt_clust_5="13000.00000" pt_clust_6="13000.00000" pt_clust_7="13000.00000" pt_clust_8="13000.00000" pt_clust_9="13000.00000"></scales>
<clustering>
<clus scale="   83.229">  5  6 -1 -1</clus>
<clus scale="   91.687">  7  8 -1 -1</clus>
<clus scale="  271.014">  2  5  1 -1</clus>
<clus scale="  158.713">  7  9 -1 -1</clus>
<clus scale="  645.947">  1  5  2 -1</clus>
</clustering>
</event>
<event>
 9    2  0.2147756E-005  0.1564830E+03  0.7546771E-02  0.1217155E+00
         21   -1    0    0  501  502  0.00000000000E+00  0.00000000000E+00  0.39657445012E+03  0.39657445012E+03  0.00000000000E+00 0. -1.
          4   -1    0    0  502    0 -0.00000000000E+00 -0.00000000000E+00 -0.40314001109E+02  0.40314001109E+02  0.00000000000E+00 0. -1.
         24    2    1    2    0    0 -0.40229544713E+02 -0.20711402357E+02  0.96565228795E+02  0.13369128040E+03  0.80629625986E+02 0.  0.
         23    2    1    2    0    0  0.16953490898E+02 -0.25800995318E+02  0.21030538945E+03  0.23147176946E+03  0.91639025600E+02 0.  0.
        -11    1    3    3    0    0  0.15758593764E+02  0.14110749036E+02  0.45899474265E+02  0.50539175434E+02  0.00000000000E+00 0.  1.
         12    1    3    3    0    0 -0.55988138477E+02 -0.34822151393E+02  0.50665754530E+02  0.83152104963E+02  0.00000000000E+00 0. -1.
        -13    1    4    4    0    0  0.23205864315E+02 -0.57517106640E+02  0.11251855428E+03  0.12848017260E+03  0.00000000000E+00 0. -1.
         13    1    4    4    0    0 -0.62523734176E+01  0.31716111322E+02  0.97786835177E+02  0.10299159686E+03  0.00000000000E+00 0.  1.
          3    1    1    2  501    0  0.23276053815E+02  0.46512397675E+02  0.49389830763E+02  0.71725401368E+02  0.00000000000E+00 0. -1.
<scales pt_clust_5="13000.00000" pt_clust_6="13000.00000" pt_clust_7="13000.00000" pt_clust_8="13000.00000" pt_clust_9="13000.00000"></scales>
<clustering>
<clus scale="   80.630">  5  6 -1 -1</clus>
<clus scale="   91.639">  7  8 -1 -1</clus>
<clus scale="   52.011">  7  9 -1 -1</clus>
<clus scale="   92.458">  2  5  1 -1</clus>
<clus scale="  156.483">  1  5  2 -1</clus>
</clustering>
</event>
<event>
 9    2  0.2147756E-005  0.2060094E+03  0.7546771E-02  0.1183569E+00
         21   -1    0    0  501  502  0.00000000000E+00  0.00000000000E+00  0.94811810852E+03  0.94811810852E+03  0.00000000000E+00 0. -1.
          4   -1    0    0  502    0 -0.00000000000E+00 -0.00000000000E+00 -0.11672961499E+03  0.11672961499E+03  0.00000000000E+00 0. -1.
         24    2    1    2    0    0  0.24863485944E+02 -0.45632064360E+00 -0.88586208929E+02  0.12208936119E+03  0.80248953521E+02 0.  0.
         23    2    1    2    0    0  0.29702291285E+01  0.73912385122E+02  0.39668894193E+03  0.41360952100E+03  0.90768145730E+02 0.  0.
        -11    1    3    3    0    0  0.23965399548E+02 -0.35031486883E+02 -0.23833231748E+02  0.48678212624E+02  0.00000000000E+00 0.  1.
         12    1    3    3    0    0  0.89808639547E+00  0.34575166240E+02 -0.64752977181E+02  0.73411148564E+02  0.00000000000E+00 0. -1.
        -13    1    4    4    0    0  0.36262252919E+02  0.38818450786E+02  0.30836198233E+03  0.31290403522E+03  0.00000000000E+00 0.  1.
         13    1    4    4    0    0 -0.33292023790E+02  0.35093934336E+02  0.88326959596E+02  0.10070548578E+03  0.00000000000E+00 0. -1.
          3    1    1    2  501    0 -0.27833715072E+02 -0.73456064478E+02  0.52328576052E+03  0.52914884132E+03  0.00000000000E+00 0. -1.
<scales pt_clust_5="13000.00000" pt_clust_6="13000.00000" pt_clust_7="13000.00000" pt_clust_8="13000.00000" pt_clust_9="13000.00000"></scales>
<clustering>
<clus scale="   80.249">  5  6 -1 -1</clus>
<clus scale="   84.014">  2  5  1 -1</clus>
<clus scale="   90.768">  7  8 -1 -1</clus>
<clus scale="   76.633">  7  9 -1 -1</clus>
<clus scale="  206.009">  1  5  2 -1</clus>
</clustering>
</event>
<event>
 9    2  0.2147756E-005  0.4787773E+03  0.7546771E-02  0.1081945E+00
         -3   -1    0    0    0  501 -0.00000000000E+00  0.00000000000E+00  0.14145772019E+03  0.14145772019E+03  0.00000000000E+00 0.  1.
         21   -1    0    0  501  502  0.00000000000E+00 -0.00000000000E+00 -0.56233559299E+03  0.56233559299E+03  0.00000000000E+00 0.  1.
         24    2    1    2    0    0 -0.71146689060E+01  0.12314957539E+02 -0.31035764355E+02  0.86375655629E+02  0.79342665215E+02 0.  0.
         23    2    1    2    0    0  0.20336918487E+03 -0.12178204768E+03 -0.20078090924E+03  0.32374604520E+03  0.91151718433E+02 0.  0.
        -13    1    3    3    0    0  0.28249979198E+02  0.29396349146E+02 -0.20899918049E+02  0.45814989275E+02  0.00000000000E+00 0.  1.
         14    1    3    3    0    0 -0.35364648104E+02 -0.17081391607E+02 -0.10135846306E+02  0.40560666354E+02  0.00000000000E+00 0. -1.
        -11    1    4    4    0    0  0.18395148926E+03 -0.11252628312E+03 -0.20939262308E+03  0.30057542380E+03  0.00000000000E+00 0.  1.
         11    1    4    4    0    0  0.19417695615E+02 -0.92557645611E+01  0.86117138417E+01  0.23170621397E+02  0.00000000000E+00 0. -1.
         -4    1    1    2    0  502 -0.19625451597E+03  0.10946709014E+03 -0.18906119921E+03  0.29367161236E+03  0.00000000000E+00 0.  1.
<scales pt_clust_5="13000.00000" pt_clust_6="13000.00000" pt_clust_7="13000.00000" pt_clust_8="13000.00000" pt_clust_9="13000.00000"></scales>
<clustering>
<clus scale="   79.343">  5  6 -1 -1</clus>
<clus scale="   80.607">  1  5  2 -1</clus>
<clus scale="   91.152">  7  8 -1 -1</clus>
<clus scale="  230.358">  7  9 -1 -1</clus>
<clus scale="  478.777">  2  5  1 -1</clus>
</clustering>
</event>
<event>
 9    2  0.2147756E-005  0.1969809E+03  0.7546771E-02  0.1175596E+00
         21   -1    0    0  501  502  0.00000000000E+00  0.00000000000E+00  0.52743866749E+02  0.52743866749E+02  0.00000000000E+00 0. -1.
          2   -1    0    0  502    0 -0.00000000000E+00 -0.00000000000E+00 -0.47656039816E+03  0.47656039816E+03  0.00000000000E+00 0. -1.
         24    2    1    2    0    0  0.82794940155E+02 -0.47604564006E+00 -0.11223248735E+03  0.16067698183E+03  0.79785540915E+02 0.  0.
         23    2    1    2    0    0 -0.14518716537E+02  0.42214190055E+02 -0.24104582315E+03  0.26195321866E+03  0.92323176587E+02 0.  0.
        -13    1    3    3    0    0  0.55974406348E+02  0.37339482597E+02 -0.78215102526E+02  0.10317448032E+03  0.00000000000E+00 0.  1.
         14    1    3    3    0    0  0.26820533807E+02 -0.37815528237E+02 -0.34017384823E+02  0.57502501508E+02  0.00000000000E+00 0. -1.
        -13    1    4    4    0    0  0.27201874816E+02 -0.10958119116E+02 -0.11776360254E+03  0.12136016007E+03  0.00000000000E+00 0.  1.
         13    1    4    4    0    0 -0.41720591353E+02  0.53172309171E+02 -0.12328222060E+03  0.14059305859E+03  0.00000000000E+00 0. -1.
          1    1    1    2  501    0 -0.68276223617E+02 -0.41738144415E+02 -0.70538220915E+02  0.10667406442E+03  0.00000000000E+00 0. -1.
<scales pt_clust_5="13000.00000" pt_clust_6="13000.00000" pt_clust_7="13000.00000" pt_clust_8="13000.00000" pt_clust_9="13000.00000"></scales>
<clustering>
<clus scale="   79.786">  5  6 -1 -1</clus>
<clus scale="   92.323">  7  8 -1 -1</clus>
<clus scale="   80.023">  7  9 -1 -1</clus>
<clus scale="  114.982">  2  5  1 -1</clus>
<clus scale="  196.981">  1  5  2 -1</clus>
</clustering>
</event>
<event>
 9    2  0.2147756E-005  0.2286576E+03  0.7546771E-02  0.1167192E+00
          4   -1    0    0  502    0 -0.00000000000E+00  0.00000000000E+00  0.22401321467E+03  0.22401321467E+03  0.00000000000E+00 0. -1.
         21   -1    0    0  501  502  0.00000000000E+00 -0.00000000000E+00 -0.11603137593E+03  0.11603137593E+03  0.00000000000E+00 0.  1.
         24    2    1    2    0    0 -0.38829852366E+02 -0.70137905972E+01  0.57130303692E+02  0.10580079453E+03  0.79830982896E+02 0.  0.
         23    2    1    2    0    0  0.54311325791E+02 -0.43301526127E+02 -0.36675263397E+02  0.13210542149E+03  0.10621687798E+03 0.  0.
        -13    1    3    3    0    0 -0.52780511255E+02  0.21681986612E+02  0.38811289169E+02  0.69008746393E+02  0.00000000000E+00 0.  1.
         14    1    3    3    0    0  0.13950658889E+02 -0.28695777210E+02  0.18319014523E+02  0.36792048138E+02  0.00000000000E+00 0. -1.
        -11    1    4    4    0    0  0.35288231730E+02 -0.14079669874E+02  0.35469276107E+02  0.51976590403E+02  0.00000000000E+00 0. -1.
         11    1    4    4    0    0  0.19023094061E+02 -0.29221856252E+02 -0.72144539504E+02  0.80128831083E+02  0.00000000000E+00 0.  1.
          3    1    1    2  501    0 -0.15481473425E+02  0.50315316724E+02  0.87526798447E+02  0.10213837458E+03  0.00000000000E+00 0. -1.
<scales pt_clust_5="13000.00000" pt_clust_6="13000.00000" pt_clust_7="13000.00000" pt_clust_8="13000.00000" pt_clust_9="13000.00000"></scales>
<clustering>
<clus scale="   79.831">  5  6 -1 -1</clus>
<clus scale="   89.050">  1  5  2 -1</clus>
<clus scale="  106.217">  7  8 -1 -1</clus>
<clus scale="   61.569">  7  9 -1 -1</clus>
<clus scale="  228.658">  2  5  1 -1</clus>
</clustering>
</event>
<event>
 9    2  0.2147756E-005  0.1851491E+03  0.7546771E-02  0.1182803E+00
         21   -1    0    0  501  502  0.00000000000E+00  0.00000000000E+00  0.72285035185E+02  0.72285035185E+02  0.00000000000E+00 0. -1.
          2   -1    0    0  502    0 -0.00000000000E+00 -0.00000000000E+00 -0.80678083866E+03  0.80678083866E+03  0.00000000000E+00 0. -1.
         24    2    1    2    0    0 -0.87743941822E+02  0.19353679614E+02 -0.67411760046E+03  0.68432064226E+03  0.76069954199E+02 0.  0.
         23    2    1    2    0    0 -0.33845402092E+00 -0.12343650553E+01 -0.47577625124E+02  0.10391201734E+03  0.92371200741E+02 0.  0.
        -13    1    3    3    0    0 -0.37083737499E+02  0.47073199725E+02 -0.35381166907E+03  0.35885064705E+03  0.00000000000E+00 0.  1.
         14    1    3    3    0    0 -0.50660204323E+02 -0.27719520111E+02 -0.32030593138E+03  0.32546999520E+03  0.00000000000E+00 0. -1.
        -11    1    4    4    0    0 -0.11339430925E+02 -0.28155845611E+02 -0.63770197083E+02  0.70625578736E+02  0.00000000000E+00 0.  1.
         11    1    4    4    0    0  0.11000976904E+02  0.26921480556E+02  0.16192571958E+02  0.33286438602E+02  0.00000000000E+00 0. -1.
          1    1    1    2  501    0  0.88082395843E+02 -0.18119314558E+02 -0.12800577898E+02  0.90833214256E+02  0.00000000000E+00 0. -1.
<scales pt_clust_5="13000.00000" pt_clust_6="13000.00000" pt_clust_7="13000.00000" pt_clust_8="13000.00000" pt_clust_9="13000.00000"></scales>
<clustering>
<clus scale="   76.070">  5  6 -1 -1</clus>
<clus scale="   92.371">  7  8 -1 -1</clus>
<clus scale="   89.927">  7  9 -1 -1</clus>
<clus scale="  117.729">  2  5  1 -1</clus>
<clus scale="  185.149">  1  5  2 -1</clus>
</clustering>
</event>
<event>
 9    2  0.2147756E-005  0.1421951E+03  0.7546771E-02  0.1229934E+00
          4   -1    0    0  502    0 -0.00000000000E+00  0.00000000000E+00  0.63223758006E+02  0.63223758006E+02  0.00000000000E+00 0. -1.
         21   -1    0    0  501  502  0.00000000000E+00 -0.00000000000E+00 -0.43842900941E+03  0.43842900941E+03  0.00000000000E+00 0. -1.
         24    2    1    2    0    0  0.21750560984E+02 -0.41978067651E+02  0.62273695613E+01  0.94577487332E+02  0.81675430281E+02 0.  0.
         23    2    1    2    0    0 -0.37132989112E+02 -0.84970623446E-01 -0.24093826721E+03  0.25961483888E+03  0.89273455507E+02 0.  0.
        -11    1    3    3    0    0 -0.88627012203E+01  0.20548046625E+02 -0.75343484684E+01  0.23612202351E+02  0.00000000000E+00 0.  1.
         12    1    3    3    0    0  0.30613262204E+02 -0.62526114276E+02  0.13761718030E+02  0.70965284981E+02  0.00000000000E+00 0. -1.
        -11    1    4    4    0    0  0.64766742848E+01  0.33808809915E+02 -0.48966927005E+02  0.59856017893E+02  0.00000000000E+00 0.  1.
         11    1    4    4    0    0 -0.43609663397E+02 -0.33893780538E+02 -0.19197134020E+03  0.19975882098E+03  0.00000000000E+00 0. -1.
          3    1    1    2  501    0  0.15382428128E+02  0.42063038275E+02 -0.14049435375E+03  0.14746044121E+03  0.00000000000E+00 0. -1.
<scales pt_clust_5="13000.00000" pt_clust_6="13000.00000" pt_clust_7="13000.00000" pt_clust_8="13000.00000" pt_clust_9="13000.00000"></scales>
<clustering>
<clus scale="   81.675">  5  6 -1 -1</clus>
<clus scale="   89.273">  7  8 -1 -1</clus>
<clus scale="   44.788">  7  9 -1 -1</clus>
<clus scale="   94.372">  1  5  2 -1</clus>
<clus scale="  142.195">  2  5  1 -1</clus>
</clustering>
</event>
<event>
 9    2  0.2147756E-005  0.3701111E+03  0.7546771E-02  0.1087362E+00
         21   -1    0    0  501  502  0.00000000000E+00  0.00000000000E+00  0.45251771616E+02  0.45251771616E+02  0.00000000000E+00 0. -1.
          2   -1    0    0  502    0 -0.00000000000E+00 -0.00000000000E+00 -0.15026678811E+04  0.15026678811E+04  0.00000000000E+00 0. -1.
         24    2    1    2    0    0 -0.70504658108E+02  0.10591640820E+03 -0.39446212006E+03  0.42237381110E+03  0.81302397288E+02 0.  0.
         23    2    1    2    0    0 -0.10181066471E+03  0.20397278609E+02 -0.60009119290E+03  0.61575207315E+03  0.90882976229E+02 0.  0.
        -13    1    3    3    0    0 -0.63417574728E+02  0.10425094553E+03 -0.39646867669E+03  0.41482220291E+03  0.00000000000E+00 0.  1.
         14    1    3    3    0    0 -0.70870833802E+01  0.16654626647E+01  0.20065566373E+01  0.75516081906E+01  0.00000000000E+00 0. -1.
        -13    1    4    4    0    0 -0.29385729272E+02 -0.35070156278E+02 -0.23701373743E+03  0.24138962006E+03  0.00000000000E+00 0.  1.
         13    1    4    4    0    0 -0.72424935439E+02  0.55467434888E+02 -0.36307745548E+03  0.37436245309E+03  0.00000000000E+00 0. -1.
          1    1    1    2  501    0  0.17231532282E+03 -0.12631368681E+03 -0.46286279651E+03  0.50979376845E+03  0.00000000000E+00 0. -1.
<scales pt_clust_5="13000.00000" pt_clust_6="13000.00000" pt_clust_7="13000.00000" pt_clust_8="13000.00000" pt_clust_9="13000.00000"></scales>
<clustering>
<clus scale="   81.302">  5  6 -1 -1</clus>
<clus scale="   90.883">  7  8 -1 -1</clus>
<clus scale="  150.994">  2  5  1 -1</clus>
<clus scale="  161.723">  7  9 -1 -1</clus>
<clus scale="  370.111">  1  5  2 -1</clus>
</clustering>
</event>
<event>
 9    2  0.2147756E-005  0.1615295E+03  0.7546771E-02  0.1221545E+00
          2   -1    0    0  502    0 -0.00000000000E+00  0.00000000000E+00  0.15405636721E+03  0.15405636721E+03  0.00000000000E+00 0. -1.
         21   -1    0    0  501  502  0.00000000000E+00 -0.00000000000E+00 -0.13672978274E+03  0.13672978274E+03  0.00000000000E+00 0.  1.
         24    2    1    2    0    0  0.35989518208E+01 -0.10148599238E+02  0.86056291766E+02  0.11524260295E+03  0.75889562274E+02 0.  0.
         23    2    1    2    0    0  0.24538835266E+02  0.21416228122E+02 -0.95078324036E+02  0.13538207134E+03  0.90706164493E+02 0.  0.
        -13    1    3    3    0    0  0.33762638243E+02 -0.24658814546E+02  0.36848492498E+02  0.55729563746E+02  0.00000000000E+00 0.  1.
         14    1    3    3    0    0 -0.30163686422E+02  0.14510215308E+02  0.49207799268E+02  0.59513039207E+02  0.00000000000E+00 0. -1.
        -13    1    4    4    0    0  0.36427749685E+02  0.39843640529E+02 -0.99321659406E+02  0.11304551590E+03  0.00000000000E+00 0.  1.
         13    1    4    4    0    0 -0.11888914420E+02 -0.18427412407E+02  0.42433353701E+01  0.22336555446E+02  0.00000000000E+00 0. -1.
          1    1    1    2  501    0 -0.28137787086E+02 -0.11267628884E+02  0.26348616740E+02  0.40161475656E+02  0.00000000000E+00 0. -1.
<scales pt_clust_5="13000.00000" pt_clust_6="13000.00000" pt_clust_7="13000.00000" pt_clust_8="13000.00000" pt_clust_9="13000.00000"></scales>
<clustering>
<clus scale="   75.890">  5  6 -1 -1</clus>
<clus scale="   76.650">  1  5  2 -1</clus>
<clus scale="   90.706">  7  8 -1 -1</clus>
<clus scale="   31.304">  7  9 -1 -1</clus>
<clus scale="  161.529">  2  5  1 -1</clus>
</clustering>
</event>
<event>
 9    2  0.2147756E-005  0.8561762E+03  0.7546771E-02  0.9872879E-01
          2   -1    0    0  502    0 -0.00000000000E+00  0.00000000000E+00  0.92451736389E+03  0.92451736389E+03  0.00000000000E+00 0. -1.
         21   -1    0    0  501  502  0.00000000000E+00 -0.00000000000E+00 -0.47915595464E+03  0.47915595464E+03  0.00000000000E+00 0. -1.
         24    2    1    2    0    0 -0.17970161468E+03  0.11854191393E+03  0.49553477664E+03  0.54602824573E+03  0.79039702675E+02 0.  0.
         23    2    1    2    0    0  0.53069313628E+02  0.33628170024E+03 -0.13505747988E+03  0.37795186644E+03  0.93302500031E+02 0.  0.
        -13    1    3    3    0    0 -0.13412447220E+02  0.43511969707E+02  0.76878063309E+02  0.89349996455E+02  0.00000000000E+00 0.  1.
         14    1    3    3    0    0 -0.16628916746E+03  0.75029944218E+02  0.41865671333E+03  0.45667824928E+03  0.00000000000E+00 0. -1.
        -13    1    4    4    0    0  0.51244539586E+02  0.17795849071E+03 -0.29166843272E+02  0.18747248332E+03  0.00000000000E+00 0.  1.
         13    1    4    4    0    0  0.18247740420E+01  0.15832320952E+03 -0.10589063661E+03  0.19047938313E+03  0.00000000000E+00 0. -1.
          1    1    1    2  501    0  0.12663230105E+03 -0.45482361416E+03  0.84884112503E+02  0.47969320636E+03  0.00000000000E+00 0. -1.
<scales pt_clust_5="13000.00000" pt_clust_6="13000.00000" pt_clust_7="13000.00000" pt_clust_8="13000.00000" pt_clust_9="13000.00000"></scales>
<clustering>
<clus scale="   79.040">  5  6 -1 -1</clus>
<clus scale="   93.303">  7  8 -1 -1</clus>
<clus scale="  229.330">  1  5  2 -1</clus>
<clus scale="  371.942">  7  9 -1 -1</clus>
<clus scale="  856.176">  2  5  1 -1</clus>
</clustering>
</event>
<event>
 9    2  0.2147756E-005  0.2487924E+03  0.7546771E-02  0.1152835E+00
          2   -1    0    0  502    0 -0.00000000000E+00  0.00000000000E+00  0.57655464900E+03  0.57655464900E+03  0.00000000000E+00 0. -1.
         21   -1    0    0  501  502  0.00000000000E+00 -0.00000000000E+00 -0.52367134490E+02  0.52367134490E+02  0.00000000000E+00 0. -1.
         24    2    1    2    0    0 -0.13659586856E+02 -0.44818948408E+02  0.11652135407E+03  0.15133474973E+03  0.84437302617E+02 0.  0.
         23    2    1    2    0    0 -0.41196864699E+02 -0.75887596727E+01  0.38594411282E+03  0.39867160120E+03  0.90727153852E+02 0.  0.
        -13    1    3    3    0    0 -0.56469310529E+01  0.19409870308E+02  0.26968954902E+01  0.20393727981E+02  0.00000000000E+00 0.  1.
         14    1    3    3    0    0 -0.80126558036E+01 -0.64228818716E+02  0.11382445858E+03  0.13094102175E+03  0.00000000000E+00 0. -1.
        -11    1    4    4    0    0 -0.66901216592E+02 -0.21922035734E+02  0.28010296341E+03  0.28881485167E+03  0.00000000000E+00 0. -1.
         11    1    4    4    0    0  0.25704351893E+02  0.14333276062E+02  0.10584114941E+03  0.10985674953E+03  0.00000000000E+00 0.  1.
          1    1    1    2  501    0  0.54856451555E+02  0.52407708081E+02  0.21722047623E+02  0.78915432562E+02  0.00000000000E+00 0. -1.
<scales pt_clust_5="13000.00000" pt_clust_6="13000.00000" pt_clust_7="13000.00000" pt_clust_8="13000.00000" pt_clust_9="13000.00000"></scales>
<clustering>
<clus scale="   84.437">  5  6 -1 -1</clus>
<clus scale="   90.727">  7  8 -1 -1</clus>
<clus scale="   75.867">  7  9 -1 -1</clus>
<clus scale="   96.566">  1  5  2 -1</clus>
<clus scale="  248.792">  2  5  1 -1</clus>
</clustering>
</event>
<event>
 9    2  0.2147756E-005  0.2248006E+03  0.7546771E-02  0.1162232E+00
         -1   -1    0    0    0  501 -0.00000000000E+00  0.00000000000E+00  0.17709076264E+03  0.17709076264E+03  0.00000000000E+00 0.  1.
         21   -1    0    0  501  502  0.00000000000E+00 -0.00000000000E+00 -0.18473832105E+03  0.18473832105E+03  0.00000000000E+00 0.  1.
         24    2    1    2    0    0 -0.62975717043E+02 -0.19327869750E+02  0.67390933715E+02  0.12483522825E+03  0.81870561126E+02 0.  0.
         23    2    1    2    0    0 -0.37803073822E+02 -0.72947353696E+01  0.25605971914E+02  0.92099287107E+02  0.79651285825E+02 0.  0.
        -11    1    3    3    0    0 -0.80961284951E+02 -0.21609427530E+02  0.65974066166E+02  0.10665024344E+03  0.00000000000E+00 0.  1.
         12    1    3    3    0    0  0.17985567909E+02  0.22815577794E+01  0.14168675484E+01  0.18184984810E+02  0.00000000000E+00 0. -1.
        -11    1    4    4    0    0 -0.72246693933E+01  0.34567342855E+02  0.18212065226E+02  0.39733818841E+02  0.00000000000E+00 0.  1.
         11    1    4    4    0    0 -0.30578404429E+02 -0.41862078224E+02  0.73939066872E+01  0.52365468266E+02  0.00000000000E+00 0. -1.
         -2    1    1    2    0  502  0.10077879086E+03  0.26622605120E+02 -0.10064446404E+03  0.14489456833E+03  0.00000000000E+00 0.  1.
<scales pt_clust_5="13000.00000" pt_clust_6="13000.00000" pt_clust_7="13000.00000" pt_clust_8="13000.00000" pt_clust_9="13000.00000"></scales>
<clustering>
<clus scale="   79.651">  7  8 -1 -1</clus>
<clus scale="   81.871">  5  6 -1 -1</clus>
<clus scale="  104.236">  7  9 -1 -1</clus>
<clus scale="  105.082">  1  5  2 -1</clus>
<clus scale="  224.801">  2  5  1 -1</clus>
</clustering>
</event>
<event>
 9    2  0.2147756E-005  0.2571914E+03  0.7546771E-02  0.1147160E+00
         -1   -1    0    0    0  501 -0.00000000000E+00  0.00000000000E+00  0.27738813610E+03  0.27738813610E+03  0.00000000000E+00 0.  1.
         21   -1    0    0  501  502  0.00000000000E+00 -0.00000000000E+00 -0.12131480221E+03  0.12131480221E+03  0.00000000000E+00 0.  1.
         24    2    1    2    0    0  0.37836668522E+02  0.14664970819E+02  0.86634710105E+02  0.13230257150E+03  0.91387759449E+02 0.  0.
         23    2    1    2    0    0  0.55330746990E+02 -0.74873550270E+02 -0.88252171659E+01  0.13064150281E+03  0.91223778183E+02 0.  0.
        -13    1    3    3    0    0  0.46659391612E+02  0.20645543348E+02  0.10173889157E+03  0.11381625255E+03  0.00000000000E+00 0.  1.
         14    1    3    3    0    0 -0.88227230900E+01 -0.59805725284E+01 -0.15104181470E+02  0.18486318951E+02  0.00000000000E+00 0. -1.
        -13    1    4    4    0    0  0.27206624741E+02 -0.22649531144E+02 -0.47937228819E+02  0.59591774580E+02  0.00000000000E+00 0.  1.
         13    1    4    4    0    0  0.28124122249E+02 -0.52224019126E+02  0.39112011653E+02  0.71049728230E+02  0.00000000000E+00 0. -1.
         -2    1    1    2    0  502 -0.93167415512E+02  0.60208579451E+02  0.78263840950E+02  0.13575886399E+03  0.00000000000E+00 0.  1.
<scales pt_clust_5="13000.00000" pt_clust_6="13000.00000" pt_clust_7="13000.00000" pt_clust_8="13000.00000" pt_clust_9="13000.00000"></scales>
<clustering>
<clus scale="   91.224">  7  8 -1 -1</clus>
<clus scale="   91.388">  5  6 -1 -1</clus>
<clus scale="   99.992">  1  5  2 -1</clus>
<clus scale="   98.012">  7  9 -1 -1</clus>
<clus scale="  257.191">  2  5  1 -1</clus>
</clustering>
</event>
<event>
 9    2  0.2147756E-005  0.1730139E+03  0.7546771E-02  0.1209574E+00
          2   -1    0    0  502    0 -0.00000000000E+00  0.00000000000E+00  0.12283298650E+03  0.12283298650E+03  0.00000000000E+00 0. -1.
         21   -1    0    0  501  502  0.00000000000E+00 -0.00000000000E+00 -0.18399016763E+03  0.18399016763E+03  0.00000000000E+00 0. -1.
         24    2    1    2    0    0 -0.98854585680E+01  0.17410162665E+01  0.55939322510E+02  0.97908367906E+02  0.79725073060E+02 0.  0.
         23    2    1    2    0    0 -0.37663948987E+02 -0.46312381609E+02 -0.64181368350E+02  0.12496501368E+03  0.89070740748E+02 0.  0.
        -13    1    3    3    0    0  0.34649611745E+02  0.69795046823E+01  0.21540461707E+02  0.41392035106E+02  0.00000000000E+00 0.  1.
         14    1    3    3    0    0 -0.44535070313E+02 -0.52384884159E+01  0.34398860803E+02  0.56516332800E+02  0.00000000000E+00 0. -1.
        -13    1    4    4    0    0 -0.42200007897E+02 -0.67803459083E+02 -0.65020327070E+02  0.10298442922E+03  0.00000000000E+00 0. -1.
         13    1    4    4    0    0  0.45360589091E+01  0.21491077474E+02  0.83895871989E+00  0.21980584459E+02  0.00000000000E+00 0.  1.
          1    1    1    2  501    0  0.47549407556E+02  0.44571365343E+02 -0.52915135287E+02  0.83949772542E+02  0.00000000000E+00 0. -1.
<scales pt_clust_5="13000.00000" pt_clust_6="13000.00000" pt_clust_7="13000.00000" pt_clust_8="13000.00000" pt_clust_9="13000.00000"></scales>
<clustering>
<clus scale="   79.725">  5  6 -1 -1</clus>
<clus scale="   80.354">  1  5  2 -1</clus>
<clus scale="   89.071">  7  8 -1 -1</clus>
<clus scale="   63.196">  7  9 -1 -1</clus>
<clus scale="  173.014">  2  5  1 -1</clus>
</clustering>
</event>
<event>
 9    2  0.2147756E-005  0.3475269E+03  0.7546771E-02  0.1090967E+00
         21   -1    0    0  501  502  0.00000000000E+00  0.00000000000E+00  0.47342284588E+03  0.47342284588E+03  0.00000000000E+00 0.  1.
         -3   -1    0    0    0  501 -0.00000000000E+00 -0.00000000000E+00 -0.14017309486E+03  0.14017309486E+03  0.00000000000E+00 0.  1.
         24    2    1    2    0    0 -0.53334626724E+02  0.13574374190E+03  0.13269947444E+03  0.21235369306E+03  0.78828894239E+02 0.  0.
         23    2    1    2    0    0 -0.46076620449E+02 -0.57588298511E+02 -0.44658561694E+02  0.12534689838E+03  0.90983464017E+02 0.  0.
        -13    1    3    3    0    0 -0.68973523636E+02  0.93198453952E+02  0.11610151136E+03  0.16408186896E+03  0.00000000000E+00 0.  1.
         14    1    3    3    0    0  0.15638896912E+02  0.42545287953E+02  0.16597963077E+02  0.48271824100E+02  0.00000000000E+00 0. -1.
        -11    1    4    4    0    0  0.27516780596E+02 -0.13332397801E+02 -0.59473165049E+01  0.31149584574E+02  0.00000000000E+00 0. -1.
         11    1    4    4    0    0 -0.73593401045E+02 -0.44255900710E+02 -0.38711245189E+02  0.94197313811E+02  0.00000000000E+00 0.  1.
         -4    1    1    2    0  502  0.99411247173E+02 -0.78155443394E+02  0.24520883827E+03  0.27589534930E+03  0.00000000000E+00 0.  1.
<scales pt_clust_5="13000.00000" pt_clust_6="13000.00000" pt_clust_7="13000.00000" pt_clust_8="13000.00000" pt_clust_9="13000.00000"></scales>
<clustering>
<clus scale="   78.829">  5  6 -1 -1</clus>
<clus scale="   90.983">  7  8 -1 -1</clus>
<clus scale="  126.455">  7  9 -1 -1</clus>
<clus scale="  165.786">  2  5  1 -1</clus>
<clus scale="  347.527">  1  5  2 -1</clus>
</clustering>
</event>
<event>
 9    2  0.2147756E-005  0.2956063E+03  0.7546771E-02  0.1111685E+00
         21   -1    0    0  501  502  0.00000000000E+00  0.00000000000E+00  0.28286354885E+03  0.28286354885E+03  0.00000000000E+00 0. -1.
          2   -1    0    0  502    0 -0.00000000000E+00 -0.00000000000E+00 -0.32704577245E+03  0.32704577245E+03  0.00000000000E+00 0. -1.
         24    2    1    2    0    0 -0.12842283661E+03 -0.41303254565E+02  0.17977118178E+03  0.23904790760E+03  0.81411550356E+02 0.  0.
         23    2    1    2    0    0  0.85521995418E+02  0.11935705993E+03 -0.22643490290E+03  0.28176014245E+03  0.80968470202E+02 0.  0.
        -13    1    3    3    0    0 -0.23994570934E+02  0.21150178334E+02  0.18257862884E+02  0.36829594553E+02  0.00000000000E+00 0.  1.
         14    1    3    3    0    0 -0.10442826567E+03 -0.62453432898E+02  0.16151331890E+03  0.20221831305E+03  0.00000000000E+00 0. -1.
        -11    1    4    4    0    0  0.50194050845E+02  0.11511861820E+03 -0.13882625377E+03  0.18720167663E+03  0.00000000000E+00 0.  1.
         11    1    4    4    0    0  0.35327944574E+02  0.42384417296E+01 -0.87608649131E+02  0.94558465823E+02  0.00000000000E+00 0. -1.
          1    1    1    2  501    0  0.42900841187E+02 -0.78053805370E+02  0.24814975086E+01  0.89101271243E+02  0.00000000000E+00 0. -1.
<scales pt_clust_5="13000.00000" pt_clust_6="13000.00000" pt_clust_7="13000.00000" pt_clust_8="13000.00000" pt_clust_9="13000.00000"></scales>
<clustering>
<clus scale="   80.968">  7  8 -1 -1</clus>
<clus scale="   81.412">  5  6 -1 -1</clus>
<clus scale="   89.067">  7  9 -1 -1</clus>
<clus scale="  157.563">  2  5  1 -1</clus>
<clus scale="  295.606">  1  5  2 -1</clus>
</clustering>
</event>
<event>
 9    2  0.2147756E-005  0.4686817E+03  0.7546771E-02  0.1080883E+00
          2   -1    0    0  502    0 -0.00000000000E+00  0.00000000000E+00  0.11842009560E+04  0.11842009560E+04  0.00000000000E+00 0. -1.
         21   -1    0    0  501  502  0.00000000000E+00 -0.00000000000E+00 -0.29237102384E+03  0.29237102384E+03  0.00000000000E+00 0. -1.
         24    2    1    2    0    0  0.28081387672E+02 -0.29209189852E+02  0.99313818479E+03  0.99706612630E+03  0.78585399550E+02 0.  0.
         23    2    1    2    0    0  0.62622188270E+02  0.10526147961E+03  0.13981915199E+03  0.21089179079E+03  0.99621456552E+02 0.  0.
        -11    1    3    3    0    0  0.32034262168E+02  0.11445098509E+02  0.19964742465E+03  0.20252475997E+03  0.00000000000E+00 0.  1.
         12    1    3    3    0    0 -0.39528744955E+01 -0.40654288361E+02  0.79349076014E+03  0.79454136633E+03  0.00000000000E+00 0. -1.
        -13    1    4    4    0    0  0.20347418690E+02 -0.16813780905E+02  0.11454616437E+02  0.28773753898E+02  0.00000000000E+00 0.  1.
         13    1    4    4    0    0  0.42274769580E+02  0.12207526052E+03  0.12836453555E+03  0.18211803689E+03  0.00000000000E+00 0. -1.
          1    1    1    2  501    0 -0.90703575942E+02 -0.76052289762E+02 -0.24112740461E+03  0.26861406277E+03  0.00000000000E+00 0. -1.
<scales pt_clust_5="13000.00000" pt_clust_6="13000.00000" pt_clust_7="13000.00000" pt_clust_8="13000.00000" pt_clust_9="13000.00000"></scales>
<clustering>
<clus scale="   78.585">  5  6 -1 -1</clus>
<clus scale="   88.416">  1  5  2 -1</clus>
<clus scale="   99.621">  7  8 -1 -1</clus>
<clus scale="  118.205">  7  9 -1 -1</clus>
<clus scale="  468.682">  2  5  1 -1</clus>
</clustering>
</event>
<event>
 9    2  0.2147756E-005  0.3111262E+03  0.7546771E-02  0.1140805E+00
         -1   -1    0    0    0  501 -0.00000000000E+00  0.00000000000E+00  0.73198079212E+03  0.73198079212E+03  0.00000000000E+00 0.  1.
         21   -1    0    0  501  502  0.00000000000E+00 -0.00000000000E+00 -0.50073066876E+02  0.50073066876E+02  0.00000000000E+00 0.  1.
         24    2    1    2    0    0 -0.38724060386E+02  0.80930858123E+01  0.17883805049E+03  0.19054847985E+03  0.52541640452E+02 0.  0.
         23    2    1    2    0    0  0.15093986704E+03  0.27338752228E+02  0.21094755415E+03  0.27657183734E+03  0.91993802890E+02 0.  0.
        -13    1    3    3    0    0 -0.45855567069E+02  0.25845198086E+01  0.17469298100E+03  0.18062959443E+03  0.00000000000E+00 0.  1.
         14    1    3    3    0    0  0.71315066834E+01  0.55085660038E+01  0.41450694919E+01  0.99188854256E+01  0.00000000000E+00 0. -1.
        -13    1    4    4    0    0  0.10800913229E+03  0.31284322419E+02  0.78115061860E+02  0.13691838583E+03  0.00000000000E+00 0.  1.
         13    1    4    4    0    0  0.42930734743E+02 -0.39455701907E+01  0.13283249229E+03  0.13965345151E+03  0.00000000000E+00 0. -1.
         -2    1    1    2    0  502 -0.11221580665E+03 -0.35431838040E+02  0.29212212060E+03  0.31493354180E+03  0.00000000000E+00 0.  1.
<scales pt_clust_5="13000.00000" pt_clust_6="13000.00000" pt_clust_7="13000.00000" pt_clust_8="13000.00000" pt_clust_9="13000.00000"></scales>
<clustering>
<clus scale="   52.542">  5  6 -1 -1</clus>
<clus scale="   65.770">  1  5  2 -1</clus>
<clus scale="   91.994">  7  8 -1 -1</clus>
<clus scale="  137.227">  7  9 -1 -1</clus>
<clus scale="  311.126">  2  5  1 -1</clus>
</clustering>
</event>
<event>
 9    2  0.2147756E-005  0.2264898E+03  0.7546771E-02  0.1163058E+00
         21   -1    0    0  501  502  0.00000000000E+00  0.00000000000E+00  0.58381145094E+02  0.58381145094E+02  0.00000000000E+00 0. -1.
          2   -1    0    0  502    0 -0.00000000000E+00 -0.00000000000E+00 -0.48028418234E+03  0.48028418234E+03  0.00000000000E+00 0. -1.
         24    2    1    2    0    0  0.20010504355E+02 -0.57592136563E+02 -0.18650116990E+03  0.21199778173E+03  0.80268914305E+02 0.  0.
         23    2    1    2    0    0  0.76274634756E+02  0.40747660234E+02 -0.16275779230E+03  0.20488197170E+03  0.89489282339E+02 0.  0.
        -11    1    3    3    0    0  0.73144782539E+01 -0.25483626751E+02 -0.46740240982E+01  0.26921428747E+02  0.00000000000E+00 0.  1.
         12    1    3    3    0    0  0.12696026101E+02 -0.32108509812E+02 -0.18182714580E+03  0.18507635298E+03  0.00000000000E+00 0. -1.
        -11    1    4    4    0    0  0.56687521039E+02  0.59473782275E+02 -0.15696944645E+03  0.17717226911E+03  0.00000000000E+00 0. -1.
         11    1    4    4    0    0  0.19587113717E+02 -0.18726122041E+02 -0.57883458440E+01  0.27709702598E+02  0.00000000000E+00 0.  1.
          1    1    1    2  501    0 -0.96285139111E+02  0.16844476329E+02 -0.72644075046E+02  0.12178557400E+03  0.00000000000E+00 0. -1.
<scales pt_clust_5="13000.00000" pt_clust_6="13000.00000" pt_clust_7="13000.00000" pt_clust_8="13000.00000" pt_clust_9="13000.00000"></scales>
<clustering>
<clus scale="   80.269">  5  6 -1 -1</clus>
<clus scale="   89.489">  7  8 -1 -1</clus>
<clus scale="   97.748">  7  9 -1 -1</clus>
<clus scale="  100.799">  2  5  1 -1</clus>
<clus scale="  226.490">  1  5  2 -1</clus>
</clustering>
</event>
<event>
 9    2  0.2147756E-005  0.1932697E+03  0.7546771E-02  0.1174024E+00
          2   -1    0    0  502    0 -0.00000000000E+00  0.00000000000E+00  0.48142315496E+03  0.48142315496E+03  0.00000000000E+00 0. -1.
         21   -1    0    0  501  502  0.00000000000E+00 -0.00000000000E+00 -0.14108546018E+03  0.14108546018E+03  0.00000000000E+00 0. -1.
         24    2    1    2    0    0 -0.25313050432E+02  0.93966560434E+02  0.40065430218E+03  0.42004561757E+03  0.80274441636E+02 0.  0.
         23    2    1    2    0    0  0.74631005021E+02 -0.78153541795E+02 -0.47739368903E+02  0.14916666439E+03  0.91070760486E+02 0.  0.
        -11    1    3    3    0    0 -0.26200802975E+02  0.33733159802E+02  0.57415943100E+02  0.71561153351E+02  0.00000000000E+00 0.  1.
         12    1    3    3    0    0  0.88775254319E+00  0.60233400632E+02  0.34323835908E+03  0.34848446422E+03  0.00000000000E+00 0. -1.
        -11    1    4    4    0    0  0.90688531494E+02 -0.51218745374E+02 -0.53801751310E+02  0.11722797476E+03  0.00000000000E+00 0. -1.
         11    1    4    4    0    0 -0.16057526473E+02 -0.26934796422E+02  0.60623824067E+01  0.31938689628E+02  0.00000000000E+00 0.  1.
          1    1    1    2  501    0 -0.49317954589E+02 -0.15813018639E+02 -0.12577238499E+02  0.53296333190E+02  0.00000000000E+00 0. -1.
<scales pt_clust_5="13000.00000" pt_clust_6="13000.00000" pt_clust_7="13000.00000" pt_clust_8="13000.00000" pt_clust_9="13000.00000"></scales>
<clustering>
<clus scale="   80.274">  5  6 -1 -1</clus>
<clus scale="   91.071">  7  8 -1 -1</clus>
<clus scale="   51.791">  7  9 -1 -1</clus>
<clus scale="  126.152">  1  5  2 -1</clus>
<clus scale="  193.270">  2  5  1 -1</clus>
</clustering>
</event>
<event>
 9    2  0.2147756E-005  0.2318785E+03  0.7546771E-02  0.1158026E+00
          2   -1    0    0  502    0 -0.00000000000E+00  0.00000000000E+00  0.31322785970E+03  0.31322785970E+03  0.00000000000E+00 0. -1.
         21   -1    0    0  501  502  0.00000000000E+00 -0.00000000000E+00 -0.10116809496E+03  0.10116809496E+03  0.00000000000E+00 0. -1.
         24    2    1    2    0    0  0.21153503012E+02 -0.68325920464E+02  0.86615883483E+01  0.10595071820E+03  0.77682877637E+02 0.  0.
         23    2    1    2    0    0 -0.76741569433E+02  0.31777120609E+02  0.20681609772E+02  0.11399423590E+03  0.75285476446E+02 0.  0.
        -13    1    3    3    0    0 -0.21613652545E+02 -0.14917825327E+02  0.24283947709E+02  0.35768723840E+02  0.00000000000E+00 0.  1.
         14    1    3    3    0    0  0.42767155557E+02 -0.53408095138E+02 -0.15622359361E+02  0.70181994363E+02  0.00000000000E+00 0. -1.
        -11    1    4    4    0    0 -0.20743611406E+02 -0.72364625970E+01  0.37719670214E+02  0.43651315285E+02  0.00000000000E+00 0.  1.
         11    1    4    4    0    0 -0.55997958027E+02  0.39013583206E+02 -0.17038060442E+02  0.70342920620E+02  0.00000000000E+00 0. -1.
          1    1    1    2  501    0  0.55588066420E+02  0.36548799856E+02  0.18271656661E+03  0.19445100055E+03  0.00000000000E+00 0. -1.
<scales pt_clust_5="13000.00000" pt_clust_6="13000.00000" pt_clust_7="13000.00000" pt_clust_8="13000.00000" pt_clust_9="13000.00000"></scales>
<clustering>
<clus scale="   75.285">  7  8 -1 -1</clus>
<clus scale="   66.527">  7  9 -1 -1</clus>
<clus scale="   77.683">  5  6 -1 -1</clus>
<clus scale="  105.596">  1  5  2 -1</clus>
<clus scale="  231.879">  2  5  1 -1</clus>
</clustering>
</event>
<event>
 9    2  0.2147756E-005  0.2462910E+03  0.7546771E-02  0.1160782E+00
         -1   -1    0    0    0  501 -0.00000000000E+00  0.00000000000E+00  0.23826076675E+03  0.23826076675E+03  0.00000000000E+00 0.  1.
         21   -1    0    0  501  502  0.00000000000E+00 -0.00000000000E+00 -0.11597164381E+03  0.11597164381E+03  0.00000000000E+00 0.  1.
         24    2    1    2    0    0  0.21052636646E+02  0.72742354746E+01  0.89767540016E+01  0.83125556115E+02  0.79581077874E+02 0.  0.
         23    2    1    2    0    0  0.53302349276E+02  0.78195518428E+02  0.76366415439E+02  0.15194836232E+03  0.91108703567E+02 0.  0.
        -11    1    3    3    0    0 -0.11422900733E+02  0.33345122976E+02  0.19347317215E+02  0.40208190346E+02  0.00000000000E+00 0.  1.
         12    1    3    3    0    0  0.32475537379E+02 -0.26070887502E+02 -0.10370563213E+02  0.42917365769E+02  0.00000000000E+00 0. -1.
        -13    1    4    4    0    0  0.39582794587E+02  0.98899534922E+02  0.61826554591E+02  0.12316833395E+03  0.00000000000E+00 0.  1.
         13    1    4    4    0    0  0.13719554690E+02 -0.20704016494E+02  0.14539860848E+02  0.28780028377E+02  0.00000000000E+00 0. -1.
         -2    1    1    2    0  502 -0.74354985922E+02 -0.85469753902E+02  0.36945953507E+02  0.11915849212E+03  0.00000000000E+00 0.  1.
<scales pt_clust_5="13000.00000" pt_clust_6="13000.00000" pt_clust_7="13000.00000" pt_clust_8="13000.00000" pt_clust_9="13000.00000"></scales>
<clustering>
<clus scale="   79.581">  5  6 -1 -1</clus>
<clus scale="   82.639">  1  5  2 -1</clus>
<clus scale="   91.109">  7  8 -1 -1</clus>
<clus scale="  105.543">  7  9 -1 -1</clus>
<clus scale="  246.291">  2  5  1 -1</clus>
</clustering>
</event>
<event>
 9    2  0.2147756E-005  0.8871491E+03  0.7546771E-02  0.9824161E-01
         21   -1    0    0  501  502  0.00000000000E+00  0.00000000000E+00  0.36697231964E+03  0.36697231964E+03  0.00000000000E+00 0.  1.
         -1   -1    0    0    0  501 -0.00000000000E+00 -0.00000000000E+00 -0.89063209079E+03  0.89063209079E+03  0.00000000000E+00 0.  1.
         24    2    1    2    0    0  0.21855098450E+03  0.63263725882E+02 -0.19890893400E+03  0.31288401250E+03  0.81023511510E+02 0.  0.
         23    2    1    2    0    0  0.17903109221E+03 -0.18057608649E+03 -0.43836278848E+03  0.51490488733E+03  0.91133164532E+02 0.  0.
        -11    1    3    3    0    0  0.21155646110E+03  0.77272129575E+02 -0.17988979845E+03  0.28824895114E+03  0.00000000000E+00 0.  1.
         12    1    3    3    0    0  0.69945233929E+01 -0.14008403693E+02 -0.19019135547E+02  0.24635061366E+02  0.00000000000E+00 0. -1.
        -11    1    4    4    0    0  0.89128572893E+02 -0.14428865105E+03 -0.31755225781E+03  0.36000354688E+03  0.00000000000E+00 0.  1.
         11    1    4    4    0    0  0.89902519318E+02 -0.36287435444E+02 -0.12081053067E+03  0.15490134044E+03  0.00000000000E+00 0. -1.
         -2    1    1    2    0  502 -0.39758207671E+03  0.11731236061E+03  0.11361195132E+03  0.42981551060E+03  0.00000000000E+00 0.  1.
<scales pt_clust_5="13000.00000" pt_clust_6="13000.00000" pt_clust_7="13000.00000" pt_clust_8="13000.00000" pt_clust_9="13000.00000"></scales>
<clustering>
<clus scale="   81.024">  5  6 -1 -1</clus>
<clus scale="   91.133">  7  8 -1 -1</clus>
<clus scale="  241.519">  2  5  1 -1</clus>
<clus scale="  368.044">  7  9 -1 -1</clus>
<clus scale="  887.149">  1  5  2 -1</clus>
</clustering>
</event>
<event>
 9    2  0.2147756E-005  0.2246632E+03  0.7546771E-02  0.1168682E+00
          2   -1    0    0  502    0 -0.00000000000E+00  0.00000000000E+00  0.35458867272E+03  0.35458867272E+03  0.00000000000E+00 0. -1.
         21   -1    0    0  501  502  0.00000000000E+00 -0.00000000000E+00 -0.70251401882E+02  0.70251401882E+02  0.00000000000E+00 0. -1.
         24    2    1    2    0    0  0.25082867211E+02 -0.33239055988E+02  0.89863972456E+02  0.12769800735E+03  0.80605598226E+02 0.  0.
         23    2    1    2    0    0  0.40233789309E+01 -0.67964961781E+02  0.13412497357E+03  0.17576930637E+03  0.90939083549E+02 0.  0.
        -11    1    3    3    0    0  0.21821578083E+02  0.89639464933E+01 -0.47343001316E+01  0.24061321753E+02  0.00000000000E+00 0.  1.
         12    1    3    3    0    0  0.32612891280E+01 -0.42203002482E+02  0.94598272587E+02  0.10363668560E+03  0.00000000000E+00 0. -1.
        -11    1    4    4    0    0 -0.24598239119E+02 -0.69297957857E+02  0.55623528424E+02  0.92202262690E+02  0.00000000000E+00 0. -1.
         11    1    4    4    0    0  0.28621618050E+02  0.13329960755E+01  0.78501445150E+02  0.83567043677E+02  0.00000000000E+00 0.  1.
          1    1    1    2  501    0 -0.29106246142E+02  0.10120401777E+03  0.60348324810E+02  0.12137276088E+03  0.00000000000E+00 0. -1.
<scales pt_clust_5="13000.00000" pt_clust_6="13000.00000" pt_clust_7="13000.00000" pt_clust_8="13000.00000" pt_clust_9="13000.00000"></scales>
<clustering>
<clus scale="   80.606">  5  6 -1 -1</clus>
<clus scale="   90.726">  1  5  2 -1</clus>
<clus scale="   90.939">  7  8 -1 -1</clus>
<clus scale="   91.103">  7  9 -1 -1</clus>
<clus scale="  224.663">  2  5  1 -1</clus>
</clustering>
</event>
<event>
 9    2  0.2147756E-005  0.1525445E+03  0.7546771E-02  0.1216574E+00
          2   -1    0    0  502    0 -0.00000000000E+00  0.00000000000E+00  0.37772652447E+03  0.37772652447E+03  0.00000000000E+00 0. -1.
         21   -1    0    0  501  502  0.00000000000E+00 -0.00000000000E+00 -0.42603361676E+02  0.42603361676E+02  0.00000000000E+00 0. -1.
         24    2    1    2    0    0  0.33432683339E+02 -0.45960602896E+02  0.14017159320E+03  0.17279009204E+03  0.83535735064E+02 0.  0.
         23    2    1    2    0    0  0.14251693282E+01  0.18223517335E+01  0.93561973088E+02  0.13159538765E+03  0.92510276023E+02 0.  0.
        -11    1    3    3    0    0  0.94728621251E+01  0.23767523908E+02  0.51217215631E+02  0.57252366646E+02  0.00000000000E+00 0.  1.
         12    1    3    3    0    0  0.23959821213E+02 -0.69728126805E+02  0.88954377566E+02  0.11553772539E+03  0.00000000000E+00 0. -1.
        -11    1    4    4    0    0 -0.20319427776E+02  0.12199801780E+02 -0.96638203177E+01  0.25594994271E+02  0.00000000000E+00 0. -1.
         11    1    4    4    0    0  0.21744597104E+02 -0.10377450046E+02  0.10322579341E+03  0.10600039338E+03  0.00000000000E+00 0.  1.
          1    1    1    2  501    0 -0.34857852667E+02  0.44138251163E+02  0.10138959651E+03  0.11594440646E+03  0.00000000000E+00 0. -1.
<scales pt_clust_5="13000.00000" pt_clust_6="13000.00000" pt_clust_7="13000.00000" pt_clust_8="13000.00000" pt_clust_9="13000.00000"></scales>
<clustering>
<clus scale="   83.536">  5  6 -1 -1</clus>
<clus scale="   92.510">  7  8 -1 -1</clus>
<clus scale="   56.243">  7  9 -1 -1</clus>
<clus scale="  101.036">  1  5  2 -1</clus>
<clus scale="  152.545">  2  5  1 -1</clus>
</clustering>
</event>
<event>
 9    2  0.2147756E-005  0.3301150E+03  0.7546771E-02  0.1098879E+00
          4   -1    0    0  502    0 -0.00000000000E+00  0.00000000000E+00  0.53901642458E+03  0.53901642458E+03  0.00000000000E+00 0. -1.
         21   -1    0    0  501  502  0.00000000000E+00 -0.00000000000E+00 -0.12394073938E+03  0.12394073938E+03  0.00000000000E+00 0. -1.
         24    2    1    2    0    0  0.13199566305E+03 -0.21439493177E+02  0.37902941995E+02  0.16172346947E+03  0.82676118882E+02 0.  0.
         23    2    1    2    0    0  0.13758474602E+02  0.11404997919E+03  0.23865471337E+03  0.27985570247E+03  0.90368404936E+02 0.  0.
        -11    1    3    3    0    0  0.15582682161E+02  0.18913399753E+02  0.29325464296E+02  0.38216744101E+02  0.00000000000E+00 0.  1.
         12    1    3    3    0    0  0.11641298089E+03 -0.40352892929E+02  0.85774776995E+01  0.12350672537E+03  0.00000000000E+00 0. -1.
        -11    1    4    4    0    0  0.45490369523E+02  0.35701454136E+02  0.12927526503E+03  0.14161942556E+03  0.00000000000E+00 0.  1.
         11    1    4    4    0    0 -0.31731894921E+02  0.78348525056E+02  0.10937944834E+03  0.13823627691E+03  0.00000000000E+00 0. -1.
          3    1    1    2  501    0 -0.14575413765E+03 -0.92610486016E+02  0.13851802983E+03  0.22137799202E+03  0.00000000000E+00 0. -1.
<scales pt_clust_5="13000.00000" pt_clust_6="13000.00000" pt_clust_7="13000.00000" pt_clust_8="13000.00000" pt_clust_9="13000.00000"></scales>
<clustering>
<clus scale="   82.676">  5  6 -1 -1</clus>
<clus scale="   90.368">  7  8 -1 -1</clus>
<clus scale="  157.219">  1  5  2 -1</clus>
<clus scale="  136.693">  7  9 -1 -1</clus>
<clus scale="  330.115">  2  5  1 -1</clus>
</clustering>
</event>
<event>
 9    2  0.2147756E-005  0.1463035E+03  0.7546771E-02  0.1225454E+00
          2   -1    0    0  502    0 -0.00000000000E+00  0.00000000000E+00  0.53433773910E+03  0.53433773910E+03  0.00000000000E+00 0. -1.
         21   -1    0    0  501  502  0.00000000000E+00 -0.00000000000E+00 -0.30592292406E+02  0.30592292406E+02  0.00000000000E+00 0. -1.
         24    2    1    2    0    0 -0.93344368164E+01  0.40935325124E+02  0.29557883502E+03  0.31049328085E+03  0.85301800586E+02 0.  0.
         23    2    1    2    0    0  0.34499646105E+02 -0.26896992695E+02  0.11330710080E+03  0.15529700415E+03  0.96772860907E+02 0.  0.
        -13    1    3    3    0    0 -0.32534840466E+02  0.37748357020E+01  0.42529252861E+02  0.53679629075E+02  0.00000000000E+00 0.  1.
         14    1    3    3    0    0  0.23200403649E+02  0.37160489422E+02  0.25304958216E+03  0.25681365177E+03  0.00000000000E+00 0. -1.
        -11    1    4    4    0    0  0.58793848594E+02 -0.30500922242E+02  0.11270855681E+03  0.13072965106E+03  0.00000000000E+00 0.  1.
         11    1    4    4    0    0 -0.24294202489E+02  0.36039295467E+01  0.59854399894E+00  0.24567353087E+02  0.00000000000E+00 0. -1.
          1    1    1    2  501    0 -0.25165209289E+02 -0.14038332429E+02  0.94859510864E+02  0.99139746506E+02  0.00000000000E+00 0. -1.
<scales pt_clust_5="13000.00000" pt_clust_6="13000.00000" pt_clust_7="13000.00000" pt_clust_8="13000.00000" pt_clust_9="13000.00000"></scales>
<clustering>
<clus scale="   85.302">  5  6 -1 -1</clus>
<clus scale="   95.075">  1  5  2 -1</clus>
<clus scale="   96.773">  7  8 -1 -1</clus>
<clus scale="   29.248">  7  9 -1 -1</clus>
<clus scale="  146.304">  2  5  1 -1</clus>
</clustering>
</event>
<event>
 9    2  0.2147756E-005  0.2974471E+03  0.7546771E-02  0.1133235E+00
          2   -1    0    0  502    0 -0.00000000000E+00  0.00000000000E+00  0.13136881402E+04  0.13136881402E+04  0.00000000000E+00 0. -1.
         21   -1    0    0  501  502  0.00000000000E+00 -0.00000000000E+00 -0.28885372362E+02  0.28885372362E+02  0.00000000000E+00 0. -1.
         24    2    1    2    0    0 -0.17921219805E+02 -0.31407599548E+02  0.35586490998E+03  0.36717598306E+03  0.82890053385E+02 0.  0.
         23    2    1    2    0    0 -0.61336353337E+02 -0.82593961051E+02  0.27905327159E+03  0.31084648242E+03  0.90393011908E+02 0.  0.
        -13    1    3    3    0    0 -0.61104003787E+01  0.28391722471E+02  0.13233302950E+03  0.13548231469E+03  0.00000000000E+00 0.  1.
         14    1    3    3    0    0 -0.11810819427E+02 -0.59799322019E+02  0.22353188048E+03  0.23169366836E+03  0.00000000000E+00 0. -1.
        -11    1    4    4    0    0 -0.64506971333E+02 -0.18649291733E+02  0.97925187026E+02  0.11873621051E+03  0.00000000000E+00 0. -1.
         11    1    4    4    0    0  0.31706179956E+01 -0.63944669319E+02  0.18112808457E+03  0.19211027191E+03  0.00000000000E+00 0.  1.
          1    1    1    2  501    0  0.79257573142E+02  0.11400156060E+03  0.64988458627E+03  0.66455104709E+03  0.00000000000E+00 0. -1.
<scales pt_clust_5="13000.00000" pt_clust_6="13000.00000" pt_clust_7="13000.00000" pt_clust_8="13000.00000" pt_clust_9="13000.00000"></scales>
<clustering>
<clus scale="   82.890">  5  6 -1 -1</clus>
<clus scale="   90.393">  7  8 -1 -1</clus>
<clus scale="   90.434">  1  5  2 -1</clus>
<clus scale="  114.007">  7  9 -1 -1</clus>
<clus scale="  297.447">  2  5  1 -1</clus>
</clustering>
</event>
<event>
 9    2  0.2147756E-005  0.2132170E+03  0.7546771E-02  0.1167458E+00
         21   -1    0    0  501  502  0.00000000000E+00  0.00000000000E+00  0.10046481556E+03  0.10046481556E+03  0.00000000000E+00 0. -1.
          2   -1    0    0  502    0 -0.00000000000E+00 -0.00000000000E+00 -0.29246033683E+03  0.29246033683E+03  0.00000000000E+00 0. -1.
         24    2    1    2    0    0 -0.29708667324E+01 -0.61179902454E+02 -0.49198475895E+01  0.10927253915E+03  0.90357492211E+02 0.  0.
         23    2    1    2    0    0 -0.73774095224E+02  0.41093481550E+02 -0.15587693052E+03  0.19840817023E+03  0.89089242853E+02 0.  0.
        -13    1    3    3    0    0  0.24196047841E+02 -0.37347192824E+02 -0.39316814629E+02  0.59380749873E+02  0.00000000000E+00 0.  1.
         14    1    3    3    0    0 -0.27166914574E+02 -0.23832709630E+02  0.34396967040E+02  0.49891789277E+02  0.00000000000E+00 0. -1.
        -13    1    4    4    0    0  0.47801355776E+01 -0.20889956781E+02 -0.39406980549E+02  0.44856996182E+02  0.00000000000E+00 0. -1.
         13    1    4    4    0    0 -0.78554230802E+02  0.61983438331E+02 -0.11646994997E+03  0.15355117405E+03  0.00000000000E+00 0.  1.
          1    1    1    2  501    0  0.76744961957E+02  0.20086420904E+02 -0.31198743158E+02  0.85244443016E+02  0.00000000000E+00 0. -1.
<scales pt_clust_5="13000.00000" pt_clust_6="13000.00000" pt_clust_7="13000.00000" pt_clust_8="13000.00000" pt_clust_9="13000.00000"></scales>
<clustering>
<clus scale="   89.089">  7  8 -1 -1</clus>
<clus scale="   79.330">  7  9 -1 -1</clus>
<clus scale="   90.357">  5  6 -1 -1</clus>
<clus scale="  109.162">  2  5  1 -1</clus>
<clus scale="  213.217">  1  5  2 -1</clus>
</clustering>
</event>
<event>
 9    2  0.2147756E-005  0.2748351E+03  0.7546771E-02  0.1146628E+00
         21   -1    0    0  501  502  0.00000000000E+00  0.00000000000E+00  0.59982288209E+02  0.59982288209E+02  0.00000000000E+00 0. -1.
          4   -1    0    0  502    0 -0.00000000000E+00 -0.00000000000E+00 -0.54963147986E+03  0.54963147986E+03  0.00000000000E+00 0. -1.
         24    2    1    2    0    0  0.14388798687E+02  0.14102116367E+02 -0.16151062317E+03  0.18158428441E+03  0.80506296235E+02 0.  0.
         23    2    1    2    0    0  0.57402555599E+02 -0.68152282618E+02 -0.31206070790E+03  0.33673919599E+03  0.89842159853E+02 0.  0.
        -11    1    3    3    0    0 -0.21020291415E+01  0.42841898322E+02 -0.53309493884E+02  0.68423306822E+02  0.00000000000E+00 0.  1.
         12    1    3    3    0    0  0.16490827828E+02 -0.28739781955E+02 -0.10820112929E+03  0.11316097759E+03  0.00000000000E+00 0. -1.
        -11    1    4    4    0    0  0.29001961496E+02 -0.56805271180E+02 -0.29480101397E+03  0.30162160142E+03  0.00000000000E+00 0.  1.
         11    1    4    4    0    0  0.28400594103E+02 -0.11347011438E+02 -0.17259693927E+02  0.35117594571E+02  0.00000000000E+00 0. -1.
          3    1    1    2  501    0 -0.71791354286E+02  0.54050166251E+02 -0.16077860582E+02  0.91290287670E+02  0.00000000000E+00 0. -1.
<scales pt_clust_5="13000.00000" pt_clust_6="13000.00000" pt_clust_7="13000.00000" pt_clust_8="13000.00000" pt_clust_9="13000.00000"></scales>
<clustering>
<clus scale="   80.506">  5  6 -1 -1</clus>
<clus scale="   82.989">  2  5  1 -1</clus>
<clus scale="   89.842">  7  8 -1 -1</clus>
<clus scale="   89.480">  7  9 -1 -1</clus>
<clus scale="  274.835">  1  5  2 -1</clus>
</clustering>
</event>
<event>
 9    2  0.2147756E-005  0.5966152E+03  0.7546771E-02  0.1003815E+00
         21   -1    0    0  501  502  0.00000000000E+00  0.00000000000E+00  0.30332420259E+03  0.30332420259E+03  0.00000000000E+00 0.  1.
         -1   -1    0    0    0  501 -0.00000000000E+00 -0.00000000000E+00 -0.82082620959E+03  0.82082620959E+03  0.00000000000E+00 0.  1.
         24    2    1    2    0    0 -0.23384010535E+03  0.31562712919E+03 -0.18752129260E+03  0.44236089474E+03  0.78849517826E+02 0.  0.
         23    2    1    2    0    0 -0.18384542590E+02 -0.59806934435E+01  0.71600419246E+02  0.11542779989E+03  0.88448837476E+02 0.  0.
        -13    1    3    3    0    0 -0.18906378432E+03  0.19428389380E+03 -0.13368043366E+03  0.30226115244E+03  0.00000000000E+00 0.  1.
         14    1    3    3    0    0 -0.44776321036E+02  0.12134323539E+03 -0.53840858936E+02  0.14009974230E+03  0.00000000000E+00 0. -1.
        -11    1    4    4    0    0 -0.40978410870E+02 -0.17859217767E+02  0.77280445137E+02  0.89277371250E+02  0.00000000000E+00 0.  1.
         11    1    4    4    0    0  0.22593868280E+02  0.11878524323E+02 -0.56800258910E+01  0.26150428640E+02  0.00000000000E+00 0. -1.
         -2    1    1    2    0  502  0.25222464794E+03 -0.30964643575E+03 -0.40158113365E+03  0.56636171755E+03  0.00000000000E+00 0.  1.
<scales pt_clust_5="13000.00000" pt_clust_6="13000.00000" pt_clust_7="13000.00000" pt_clust_8="13000.00000" pt_clust_9="13000.00000"></scales>
<clustering>
<clus scale="   78.850">  5  6 -1 -1</clus>
<clus scale="   88.449">  7  8 -1 -1</clus>
<clus scale="  399.372">  7  9 -1 -1</clus>
<clus scale="  400.648">  2  5  1 -1</clus>
<clus scale="  596.615">  1  5  2 -1</clus>
</clustering>
</event>
<event>
 9    2  0.2147756E-005  0.2436330E+03  0.7546771E-02  0.1156602E+00
         -1   -1    0    0    0  501 -0.00000000000E+00  0.00000000000E+00  0.18891000423E+03  0.18891000423E+03  0.00000000000E+00 0.  1.
         21   -1    0    0  501  502  0.00000000000E+00 -0.00000000000E+00 -0.17651554097E+03  0.17651554097E+03  0.00000000000E+00 0.  1.
         24    2    1    2    0    0  0.54431119393E+02  0.49569493072E+01 -0.59568203681E+02  0.11138688482E+03  0.76624729142E+02 0.  0.
         23    2    1    2    0    0 -0.65169164473E+02  0.67958492213E+02 -0.26207459863E+02  0.13128141611E+03  0.87650456932E+02 0.  0.
        -13    1    3    3    0    0  0.29899252467E+02  0.28780250749E+02 -0.64641548920E+02  0.76816651697E+02  0.00000000000E+00 0.  1.
         14    1    3    3    0    0  0.24531866926E+02 -0.23823301442E+02  0.50733452385E+01  0.34570233126E+02  0.00000000000E+00 0. -1.
        -11    1    4    4    0    0 -0.43796002761E+02  0.13986062667E+01 -0.40794440812E+02  0.59868458795E+02  0.00000000000E+00 0.  1.
         11    1    4    4    0    0 -0.21373161712E+02  0.66559885946E+02  0.14586980948E+02  0.71412957311E+02  0.00000000000E+00 0. -1.
         -2    1    1    2    0  502  0.10738045080E+02 -0.72915441520E+02  0.98170126806E+02  0.12275724427E+03  0.00000000000E+00 0.  1.
<scales pt_clust_5="13000.00000" pt_clust_6="13000.00000" pt_clust_7="13000.00000" pt_clust_8="13000.00000" pt_clust_9="13000.00000"></scales>
<clustering>
<clus scale="   76.625">  5  6 -1 -1</clus>
<clus scale="   87.650">  7  8 -1 -1</clus>
<clus scale="   73.702">  7  9 -1 -1</clus>
<clus scale="   94.121">  1  5  2 -1</clus>
<clus scale="  243.633">  2  5  1 -1</clus>
</clustering>
</event>
<event>
 9    2  0.2147756E-005  0.1283010E+03  0.7546771E-02  0.1251588E+00
          2   -1    0    0  502    0 -0.00000000000E+00  0.00000000000E+00  0.18896497718E+03  0.18896497718E+03  0.00000000000E+00 0. -1.
         21   -1    0    0  501  502  0.00000000000E+00 -0.00000000000E+00 -0.63069660428E+02  0.63069660428E+02  0.00000000000E+00 0.  1.
         24    2    1    2    0    0 -0.12973806469E+02 -0.18708805226E+02  0.18796626652E+02  0.84908081916E+02  0.79609862164E+02 0.  0.
         23    2    1    2    0    0  0.37445072665E+02  0.18931909973E+02  0.98781608536E+02  0.14127957345E+03  0.91877968024E+02 0.  0.
        -13    1    3    3    0    0 -0.73580083332E+01  0.30232400095E+02 -0.25506753517E+01  0.31219292864E+02  0.00000000000E+00 0.  1.
         14    1    3    3    0    0 -0.56157981358E+01 -0.48941205322E+02  0.21347302004E+02  0.53688789052E+02  0.00000000000E+00 0. -1.
        -13    1    4    4    0    0 -0.17274912840E+02 -0.20031637937E+02  0.55187073768E+02  0.61198874525E+02  0.00000000000E+00 0.  1.
         13    1    4    4    0    0  0.54719985505E+02  0.38963547909E+02  0.43594534768E+02  0.80080698929E+02  0.00000000000E+00 0. -1.
          1    1    1    2  501    0 -0.24471266196E+02 -0.22310474623E+00  0.83170815600E+01  0.25846982234E+02  0.00000000000E+00 0. -1.
<scales pt_clust_5="13000.00000" pt_clust_6="13000.00000" pt_clust_7="13000.00000" pt_clust_8="13000.00000" pt_clust_9="13000.00000"></scales>
<clustering>
<clus scale="   79.610">  5  6 -1 -1</clus>
<clus scale="   82.801">  1  5  2 -1</clus>
<clus scale="   91.878">  7  8 -1 -1</clus>
<clus scale="   26.212">  7  9 -1 -1</clus>
<clus scale="  128.301">  2  5  1 -1</clus>
</clustering>
</event>
<event>
 9    2  0.2147756E-005  0.1542131E+03  0.7546771E-02  0.1220938E+00
         21   -1    0    0  501  502  0.00000000000E+00  0.00000000000E+00  0.45964887666E+03  0.45964887666E+03  0.00000000000E+00 0.  1.
          4   -1    0    0  502    0 -0.00000000000E+00 -0.00000000000E+00 -0.49267071045E+02  0.49267071045E+02  0.00000000000E+00 0. -1.
         24    2    1    2    0    0  0.34000482861E+02 -0.21782109298E+02  0.23239299553E+02  0.92189421417E+02  0.79550809281E+02 0.  0.
         23    2    1    2    0    0 -0.60684132592E+02  0.13833273387E+02  0.20508158943E+03  0.23254895295E+03  0.90258704814E+02 0.  0.
        -11    1    3    3    0    0  0.55711595127E+02  0.33988841811E+01  0.17127637014E+02  0.58383989200E+02  0.00000000000E+00 0.  1.
         12    1    3    3    0    0 -0.21711112265E+02 -0.25180993480E+02  0.61116625389E+01  0.33805432217E+02  0.00000000000E+00 0. -1.
        -11    1    4    4    0    0 -0.94994965278E+01  0.47415964618E+02  0.86638951635E+02  0.99221076770E+02  0.00000000000E+00 0.  1.
         11    1    4    4    0    0 -0.51184636064E+02 -0.33582691231E+02  0.11844263779E+03  0.13332787618E+03  0.00000000000E+00 0. -1.
          3    1    1    2  501    0  0.26683649730E+02  0.79488359116E+01  0.18206091664E+03  0.18417757334E+03  0.00000000000E+00 0. -1.
<scales pt_clust_5="13000.00000" pt_clust_6="13000.00000" pt_clust_7="13000.00000" pt_clust_8="13000.00000" pt_clust_9="13000.00000"></scales>
<clustering>
<clus scale="   79.551">  5  6 -1 -1</clus>
<clus scale="   89.212">  2  5  1 -1</clus>
<clus scale="   90.259">  7  8 -1 -1</clus>
<clus scale="   29.809">  7  9 -1 -1</clus>
<clus scale="  154.213">  1  5  2 -1</clus>
</clustering>
</event>
<event>
 9    2  0.2147756E-005  0.2627289E+03  0.7546771E-02  0.1120807E+00
          4   -1    0    0  502    0 -0.00000000000E+00  0.00000000000E+00  0.10709700269E+03  0.10709700269E+03  0.00000000000E+00 0. -1.
         21   -1    0    0  501  502  0.00000000000E+00 -0.00000000000E+00 -0.45469292020E+03  0.45469292020E+03  0.00000000000E+00 0. -1.
         24    2    1    2    0    0 -0.58459064425E+02  0.14750711155E+03 -0.13130018177E+03  0.22148076681E+03  0.81475040137E+02 0.  0.
         23    2    1    2    0    0  0.91645315417E+02 -0.22904921795E+02 -0.81162562055E+02  0.15352583890E+03  0.89773729174E+02 0.  0.
        -11    1    3    3    0    0 -0.66088443841E+01  0.27611634300E+02 -0.73204850497E+02  0.78517700610E+02  0.00000000000E+00 0.  1.
         12    1    3    3    0    0 -0.51850220041E+02  0.11989547725E+03 -0.58095331272E+02  0.14296306620E+03  0.00000000000E+00 0. -1.
        -13    1    4    4    0    0  0.30231783002E+02 -0.18938914586E+02  0.15531653030E+02  0.38908552210E+02  0.00000000000E+00 0.  1.
         13    1    4    4    0    0  0.61413532415E+02 -0.39660072084E+01 -0.96694215085E+02  0.11461728669E+03  0.00000000000E+00 0. -1.
          3    1    1    2  501    0 -0.33186250992E+02 -0.12460218975E+03 -0.13513317368E+03  0.18678331718E+03  0.00000000000E+00 0. -1.
<scales pt_clust_5="13000.00000" pt_clust_6="13000.00000" pt_clust_7="13000.00000" pt_clust_8="13000.00000" pt_clust_9="13000.00000"></scales>
<clustering>
<clus scale="   81.475">  5  6 -1 -1</clus>
<clus scale="   89.774">  7  8 -1 -1</clus>
<clus scale="  128.946">  7  9 -1 -1</clus>
<clus scale="  178.365">  1  5  2 -1</clus>
<clus scale="  262.729">  2  5  1 -1</clus>
</clustering>
</event>
<event>
 9    2  0.2147756E-005  0.3483348E+03  0.7546771E-02  0.1108434E+00
          2   -1    0    0  502    0 -0.00000000000E+00  0.00000000000E+00  0.53296244447E+03  0.53296244447E+03  0.00000000000E+00 0. -1.
         21   -1    0    0  501  502  0.00000000000E+00 -0.00000000000E+00 -0.10047895013E+03  0.10047895013E+03  0.00000000000E+00 0.  1.
         24    2    1    2    0    0 -0.67724674501E+02 -0.38336850290E+01  0.16013589624E+03  0.19127587669E+03  0.79634333453E+02 0.  0.
         23    2    1    2    0    0  0.66536951488E+02  0.82507625174E+02 -0.10725314187E+02  0.14836069627E+03  0.10325303728E+03 0.  0.
        -13    1    3    3    0    0 -0.28729613072E+02  0.69599169342E+01  0.38177702728E+01  0.29806148373E+02  0.00000000000E+00 0.  1.
         14    1    3    3    0    0 -0.38995061429E+02 -0.10793601963E+02  0.15631812596E+03  0.16146972832E+03  0.00000000000E+00 0. -1.
        -11    1    4    4    0    0  0.58318698571E+02  0.75779642554E+01  0.26249802774E+02  0.64401461870E+02  0.00000000000E+00 0. -1.
         11    1    4    4    0    0  0.82182529167E+01  0.74929660919E+02 -0.36975116961E+02  0.83959234398E+02  0.00000000000E+00 0.  1.
          1    1    1    2  501    0  0.11877230133E+01 -0.78673940145E+02  0.28307291229E+03  0.29380482164E+03  0.00000000000E+00 0. -1.
<scales pt_clust_5="13000.00000" pt_clust_6="13000.00000" pt_clust_7="13000.00000" pt_clust_8="13000.00000" pt_clust_9="13000.00000"></scales>
<clustering>
<clus scale="   79.634">  5  6 -1 -1</clus>
<clus scale="  103.253">  7  8 -1 -1</clus>
<clus scale="   78.683">  7  9 -1 -1</clus>
<clus scale="  104.609">  1  5  2 -1</clus>
<clus scale="  348.335">  2  5  1 -1</clus>
</clustering>
</event>
<event>
 9    2  0.2147756E-005  0.3806079E+03  0.7546771E-02  0.1091249E+00
         -1   -1    0    0    0  501 -0.00000000000E+00  0.00000000000E+00  0.67882344068E+03  0.67882344068E+03  0.00000000000E+00 0.  1.
         21   -1    0    0  501  502  0.00000000000E+00 -0.00000000000E+00 -0.96284664683E+02  0.96284664683E+02  0.00000000000E+00 0. -1.
         24    2    1    2    0    0  0.53448941807E+02 -0.83017025456E+02  0.98532613444E+02  0.15937739051E+03  0.77096438286E+02 0.  0.
         23    2    1    2    0    0 -0.17400603990E+03 -0.86648264764E+01  0.39121539949E+03  0.43810835820E+03  0.92391902161E+02 0.  0.
        -13    1    3    3    0    0  0.21796363113E+02 -0.79246024383E+02  0.97451582085E+02  0.12748264461E+03  0.00000000000E+00 0.  1.
         14    1    3    3    0    0  0.31652578693E+02 -0.37710010728E+01  0.10810313587E+01  0.31894745897E+02  0.00000000000E+00 0. -1.
        -13    1    4    4    0    0 -0.14683270915E+03 -0.25763762707E+02  0.23257081124E+03  0.27624771164E+03  0.00000000000E+00 0. -1.
         13    1    4    4    0    0 -0.27173330758E+02  0.17098936231E+02  0.15864458824E+03  0.16186064656E+03  0.00000000000E+00 0.  1.
         -2    1    1    2    0  502  0.12055709810E+03  0.91681851932E+02  0.92790763066E+02  0.17762235666E+03  0.00000000000E+00 0.  1.
<scales pt_clust_5="13000.00000" pt_clust_6="13000.00000" pt_clust_7="13000.00000" pt_clust_8="13000.00000" pt_clust_9="13000.00000"></scales>
<clustering>
<clus scale="   77.096">  5  6 -1 -1</clus>
<clus scale="   92.392">  7  8 -1 -1</clus>
<clus scale="  125.270">  1  5  2 -1</clus>
<clus scale="  151.509">  7  9 -1 -1</clus>
<clus scale="  380.608">  2  5  1 -1</clus>
</clustering>
</event>
<event>
 9    2  0.2147756E-005  0.4547877E+03  0.7546771E-02  0.1064968E+00
         21   -1    0    0  501  502  0.00000000000E+00  0.00000000000E+00  0.90922931212E+02  0.90922931212E+02  0.00000000000E+00 0.  1.
          2   -1    0    0  502    0 -0.00000000000E+00 -0.00000000000E+00 -0.10568723946E+04  0.10568723946E+04  0.00000000000E+00 0. -1.
         24    2    1    2    0    0 -0.12570523983E+03  0.11789021581E+02 -0.36303043867E+03  0.39258460910E+03  0.79942401478E+02 0.  0.
         23    2    1    2    0    0 -0.90675581373E+02  0.13290412042E+03 -0.31827887189E+03  0.36949478271E+03  0.96640508494E+02 0.  0.
        -11    1    3    3    0    0 -0.74845055235E+01 -0.23218551990E+02 -0.85228263597E+02  0.88650865169E+02  0.00000000000E+00 0.  1.
         12    1    3    3    0    0 -0.11822073431E+03  0.35007573571E+02 -0.27780217507E+03  0.30393374394E+03  0.00000000000E+00 0. -1.
        -11    1    4    4    0    0 -0.11667229860E+02  0.10020062100E+03 -0.19368332716E+03  0.21837930287E+03  0.00000000000E+00 0.  1.
         11    1    4    4    0    0 -0.79008351513E+02  0.32703499413E+02 -0.12459554473E+03  0.15111547985E+03  0.00000000000E+00 0. -1.
          1    1    1    2  501    0  0.21638082120E+03 -0.14469314200E+03 -0.28464015280E+03  0.38571593396E+03  0.00000000000E+00 0. -1.
<scales pt_clust_5="13000.00000" pt_clust_6="13000.00000" pt_clust_7="13000.00000" pt_clust_8="13000.00000" pt_clust_9="13000.00000"></scales>
<clustering>
<clus scale="   79.942">  5  6 -1 -1</clus>
<clus scale="   96.641">  7  8 -1 -1</clus>
<clus scale="  149.438">  2  5  1 -1</clus>
<clus scale="  207.618">  7  9 -1 -1</clus>
<clus scale="  454.788">  1  5  2 -1</clus>
</clustering>
</event>
<event>
 9    2  0.2147756E-005  0.3652565E+03  0.7546771E-02  0.1089423E+00
         -3   -1    0    0    0  501 -0.00000000000E+00  0.00000000000E+00  0.14431291041E+03  0.14431291041E+03  0.00000000000E+00 0.  1.
         21   -1    0    0  501  502  0.00000000000E+00 -0.00000000000E+00 -0.48282980858E+03  0.48282980858E+03  0.00000000000E+00 0.  1.
         24    2    1    2    0    0  0.43679165648E+02  0.11694991287E+03 -0.16695143999E+03  0.22359965245E+03  0.80863277388E+02 0.  0.
         23    2    1    2    0    0 -0.14757335621E+02  0.88980796464E+02  0.93703691670E+01  0.12789527876E+03  0.90188898517E+02 0.  0.
        -13    1    3    3    0    0 -0.35496007304E+01  0.93327567044E+02 -0.86075296775E+02  0.12701020097E+03  0.00000000000E+00 0.  1.
         14    1    3    3    0    0  0.47228766378E+02  0.23622345821E+02 -0.80876143210E+02  0.96589451475E+02  0.00000000000E+00 0. -1.
        -11    1    4    4    0    0 -0.28279677193E+02  0.25529914154E+02 -0.33004583296E+02  0.50406539034E+02  0.00000000000E+00 0. -1.
         11    1    4    4    0    0  0.13522341572E+02  0.63450882309E+02  0.42374952463E+02  0.77488739722E+02  0.00000000000E+00 0.  1.
         -4    1    1    2    0  502 -0.28921830027E+02 -0.20593070933E+03 -0.18093582735E+03  0.27564778779E+03  0.00000000000E+00 0.  1.
<scales pt_clust_5="13000.00000" pt_clust_6="13000.00000" pt_clust_7="13000.00000" pt_clust_8="13000.00000" pt_clust_9="13000.00000"></scales>
<clustering>
<clus scale="   80.863">  5  6 -1 -1</clus>
<clus scale="   90.189">  7  8 -1 -1</clus>
<clus scale="  148.742">  1  5  2 -1</clus>
<clus scale="  158.571">  7  9 -1 -1</clus>
<clus scale="  365.256">  2  5  1 -1</clus>
</clustering>
</event>
<event>
 9    2  0.2147756E-005  0.2591903E+03  0.7546771E-02  0.1127944E+00
         21   -1    0    0  501  502  0.00000000000E+00  0.00000000000E+00  0.32414370752E+03  0.32414370752E+03  0.00000000000E+00 0. -1.
          2   -1    0    0  502    0 -0.00000000000E+00 -0.00000000000E+00 -0.13885522961E+03  0.13885522961E+03  0.00000000000E+00 0. -1.
         24    2    1    2    0    0  0.10239166461E+03 -0.39525398829E+02  0.23314500956E+02  0.15735995708E+03  0.11032805629E+03 0.  0.
         23    2    1    2    0    0 -0.21181292019E+02  0.98670861509E+02  0.15161326275E+03  0.20464068912E+03  0.93309400163E+02 0.  0.
        -13    1    3    3    0    0  0.58383340517E+02 -0.36510564750E+02  0.66428264530E+02  0.95678368071E+02  0.00000000000E+00 0.  1.
         14    1    3    3    0    0  0.44008324090E+02 -0.30148340791E+01 -0.43113763574E+02  0.61681589014E+02  0.00000000000E+00 0. -1.
        -13    1    4    4    0    0  0.18528317581E+02  0.14066976185E+02 -0.35221706269E+01  0.23528367077E+02  0.00000000000E+00 0.  1.
         13    1    4    4    0    0 -0.39709609600E+02  0.84603885324E+02  0.15513543338E+03  0.18111232204E+03  0.00000000000E+00 0. -1.
          1    1    1    2  501    0 -0.81210372588E+02 -0.59145462680E+02  0.10360714205E+02  0.10099829093E+03  0.00000000000E+00 0. -1.
<scales pt_clust_5="13000.00000" pt_clust_6="13000.00000" pt_clust_7="13000.00000" pt_clust_8="13000.00000" pt_clust_9="13000.00000"></scales>
<clustering>
<clus scale="   93.309">  7  8 -1 -1</clus>
<clus scale="  100.466">  7  9 -1 -1</clus>
<clus scale="  110.328">  5  6 -1 -1</clus>
<clus scale="  155.623">  2  5  1 -1</clus>
<clus scale="  259.190">  1  5  2 -1</clus>
</clustering>
</event>
<event>
 9    2  0.2147756E-005  0.3909223E+03  0.7546771E-02  0.1104646E+00
         -3   -1    0    0    0  501 -0.00000000000E+00  0.00000000000E+00  0.24415034099E+03  0.24415034099E+03  0.00000000000E+00 0.  1.
         21   -1    0    0  501  502  0.00000000000E+00 -0.00000000000E+00 -0.23053304892E+03  0.23053304892E+03  0.00000000000E+00 0.  1.
         24    2    1    2    0    0 -0.22142998145E+01 -0.11862264586E+02 -0.14157464954E+02  0.82775682892E+02  0.80658312774E+02 0.  0.
         23    2    1    2    0    0 -0.43353927666E+02 -0.15877196561E+03 -0.56508633909E+02  0.19621357359E+03  0.90655615654E+02 0.  0.
        -11    1    3    3    0    0 -0.78196461757E+01 -0.35056726081E+02  0.19998197155E+02  0.41110203104E+02  0.00000000000E+00 0.  1.
         12    1    3    3    0    0  0.56053463613E+01  0.23194461495E+02 -0.34155662109E+02  0.41665479788E+02  0.00000000000E+00 0. -1.
        -13    1    4    4    0    0 -0.45815836731E+02 -0.23945892678E+02 -0.26389843382E+02  0.58042402649E+02  0.00000000000E+00 0. -1.
         13    1    4    4    0    0  0.24619090645E+01 -0.13482607293E+03 -0.30118790527E+02  0.13817117095E+03  0.00000000000E+00 0.  1.
         -4    1    1    2    0  502  0.45568227481E+02  0.17063423019E+03  0.84283390931E+02  0.19569413342E+03  0.00000000000E+00 0.  1.
<scales pt_clust_5="13000.00000" pt_clust_6="13000.00000" pt_clust_7="13000.00000" pt_clust_8="13000.00000" pt_clust_9="13000.00000"></scales>
<clustering>
<clus scale="   80.658">  5  6 -1 -1</clus>
<clus scale="   81.556">  1  5  2 -1</clus>
<clus scale="   90.656">  7  8 -1 -1</clus>
<clus scale="  168.588">  7  9 -1 -1</clus>
<clus scale="  390.922">  2  5  1 -1</clus>
</clustering>
</event>
<event>
 9    2  0.2147756E-005  0.2360372E+03  0.7546771E-02  0.1166887E+00
          2   -1    0    0  502    0 -0.00000000000E+00  0.00000000000E+00  0.31407733809E+03  0.31407733809E+03  0.00000000000E+00 0. -1.
         21   -1    0    0  501  502  0.00000000000E+00 -0.00000000000E+00 -0.95952313425E+02  0.95952313425E+02  0.00000000000E+00 0. -1.
         24    2    1    2    0    0 -0.18983904642E+02 -0.15991360391E+01  0.13888842760E+03  0.16104777502E+03  0.79268181792E+02 0.  0.
         23    2    1    2    0    0 -0.83222230569E+02  0.60485270218E+00  0.60932496352E+01  0.12329563243E+03  0.90765520868E+02 0.  0.
        -11    1    3    3    0    0  0.16247534976E+02  0.29961119815E+02  0.53513543985E+02  0.63445649837E+02  0.00000000000E+00 0.  1.
         12    1    3    3    0    0 -0.35231439617E+02 -0.31560255854E+02  0.85374883616E+02  0.97602125179E+02  0.00000000000E+00 0. -1.
        -11    1    4    4    0    0 -0.61982022282E+02  0.23660836860E+01  0.46561093368E+02  0.77558396410E+02  0.00000000000E+00 0.  1.
         11    1    4    4    0    0 -0.21240208288E+02 -0.17612309838E+01 -0.40467843733E+02  0.45737236024E+02  0.00000000000E+00 0. -1.
          1    1    1    2  501    0  0.10220613521E+03  0.99428333691E+00  0.73143347429E+02  0.12568624407E+03  0.00000000000E+00 0. -1.
<scales pt_clust_5="13000.00000" pt_clust_6="13000.00000" pt_clust_7="13000.00000" pt_clust_8="13000.00000" pt_clust_9="13000.00000"></scales>
<clustering>
<clus scale="   79.268">  5  6 -1 -1</clus>
<clus scale="   81.525">  1  5  2 -1</clus>
<clus scale="   90.766">  7  8 -1 -1</clus>
<clus scale="   90.706">  7  9 -1 -1</clus>
<clus scale="  236.037">  2  5  1 -1</clus>
</clustering>
</event>
<event>
 9    2  0.2147756E-005  0.3271253E+03  0.7546771E-02  0.1088118E+00
         21   -1    0    0  501  502  0.00000000000E+00  0.00000000000E+00  0.85697013342E+02  0.85697013342E+02  0.00000000000E+00 0. -1.
         -3   -1    0    0    0  501 -0.00000000000E+00 -0.00000000000E+00 -0.10055986495E+04  0.10055986495E+04  0.00000000000E+00 0.  1.
         24    2    1    2    0    0 -0.11813387706E+03 -0.16041872374E+03 -0.17144111375E+03  0.27447004516E+03  0.79069402248E+02 0.  0.
         23    2    1    2    0    0 -0.22057371284E+02 -0.12020812199E+02 -0.13666852351E+03  0.16591976460E+03  0.90664521241E+02 0.  0.
        -11    1    3    3    0    0 -0.58121795859E+02 -0.30740377519E+02 -0.85018033841E+02  0.10747641621E+03  0.00000000000E+00 0.  1.
         12    1    3    3    0    0 -0.60012081197E+02 -0.12967834622E+03 -0.86423079911E+02  0.16699362895E+03  0.00000000000E+00 0. -1.
        -11    1    4    4    0    0 -0.54584786435E+02 -0.11752391121E+02 -0.11182318127E+03  0.12498816535E+03  0.00000000000E+00 0. -1.
         11    1    4    4    0    0  0.32527415151E+02 -0.26842107876E+00 -0.24845342238E+02  0.40931599250E+02  0.00000000000E+00 0.  1.
         -4    1    1    2    0  502  0.14019124834E+03  0.17243953594E+03 -0.61179199885E+03  0.65090585304E+03  0.00000000000E+00 0.  1.
<scales pt_clust_5="13000.00000" pt_clust_6="13000.00000" pt_clust_7="13000.00000" pt_clust_8="13000.00000" pt_clust_9="13000.00000"></scales>
<clustering>
<clus scale="   79.069">  5  6 -1 -1</clus>
<clus scale="   90.665">  7  8 -1 -1</clus>
<clus scale="  214.340">  2  5  1 -1</clus>
<clus scale="   62.187">  7  9 -1 -1</clus>
<clus scale="  327.125">  1  5  2 -1</clus>
</clustering>
</event>
<event>
 9    2  0.2147756E-005  0.2745652E+03  0.7546771E-02  0.1110071E+00
          4   -1    0    0  502    0 -0.00000000000E+00  0.00000000000E+00  0.85815419702E+02  0.85815419702E+02  0.00000000000E+00 0. -1.
         21   -1    0    0  501  502  0.00000000000E+00 -0.00000000000E+00 -0.89387314734E+03  0.89387314734E+03  0.00000000000E+00 0. -1.
         24    2    1    2    0    0 -0.15315152145E+03  0.10982541914E+03 -0.60342530515E+03  0.63725537913E+03  0.80344932152E+02 0.  0.
         23    2    1    2    0    0  0.45644521316E+02 -0.22090113925E+02 -0.16742764426E+03  0.19876887647E+03  0.94369776564E+02 0.  0.
        -13    1    3    3    0    0  0.25089428698E+01  0.26985903018E+02 -0.10931115078E+03  0.11262087480E+03  0.00000000000E+00 0.  1.
         14    1    3    3    0    0 -0.15566046432E+03  0.82839516127E+02 -0.49411415437E+03  0.52463450433E+03  0.00000000000E+00 0. -1.
        -11    1    4    4    0    0  0.68782758965E+02 -0.30971338254E+02 -0.15168747472E+03  0.16940891862E+03  0.00000000000E+00 0. -1.
         11    1    4    4    0    0 -0.23138237649E+02  0.88812243292E+01 -0.15740169549E+02  0.29359957843E+02  0.00000000000E+00 0.  1.
          3    1    1    2  501    0  0.10750700014E+03 -0.87735305220E+02 -0.37204778223E+02  0.14366431144E+03  0.00000000000E+00 0. -1.
<scales pt_clust_5="13000.00000" pt_clust_6="13000.00000" pt_clust_7="13000.00000" pt_clust_8="13000.00000" pt_clust_9="13000.00000"></scales>
<clustering>
<clus scale="   80.345">  5  6 -1 -1</clus>
<clus scale="   94.370">  7  8 -1 -1</clus>
<clus scale="  138.763">  7  9 -1 -1</clus>
<clus scale="  204.872">  1  5  2 -1</clus>
<clus scale="  274.565">  2  5  1 -1</clus>
</clustering>
</event>
<event>
 9    2  0.2147756E-005  0.2984935E+03  0.7546771E-02  0.1110256E+00
         -1   -1    0    0    0  501 -0.00000000000E+00  0.00000000000E+00  0.94838165726E+03  0.94838165726E+03  0.00000000000E+00 0.  1.
         21   -1    0    0  501  502  0.00000000000E+00 -0.00000000000E+00 -0.58988645561E+02  0.58988645561E+02  0.00000000000E+00 0.  1.
         24    2    1    2    0    0 -0.76961467536E+01  0.13705678558E+03  0.19413761751E+03  0.25074725613E+03  0.79630262921E+02 0.  0.
         23    2    1    2    0    0 -0.43859797766E+02 -0.19274885595E+03  0.57000800053E+03  0.61017670248E+03  0.91272582114E+02 0.  0.
        -13    1    3    3    0    0 -0.33384111901E+02  0.21409429407E+02  0.58269291741E+02  0.70485267645E+02  0.00000000000E+00 0.  1.
         14    1    3    3    0    0  0.25687965148E+02  0.11564735617E+03  0.13586832577E+03  0.18026198848E+03  0.00000000000E+00 0. -1.
        -11    1    4    4    0    0 -0.65239099965E+02 -0.17559958632E+03  0.45722667770E+03  0.49411293211E+03  0.00000000000E+00 0.  1.
         11    1    4    4    0    0  0.21379302199E+02 -0.17149269625E+02  0.11278132284E+03  0.11606377037E+03  0.00000000000E+00 0. -1.
         -2    1    1    2    0  502  0.51555944520E+02  0.55692070368E+02  0.12524739366E+03  0.14644634422E+03  0.00000000000E+00 0.  1.
<scales pt_clust_5="13000.00000" pt_clust_6="13000.00000" pt_clust_7="13000.00000" pt_clust_8="13000.00000" pt_clust_9="13000.00000"></scales>
<clustering>
<clus scale="   79.630">  5  6 -1 -1</clus>
<clus scale="   91.273">  7  8 -1 -1</clus>
<clus scale="   75.892">  7  9 -1 -1</clus>
<clus scale="  158.697">  1  5  2 -1</clus>
<clus scale="  298.494">  2  5  1 -1</clus>
</clustering>
</event>
<event>
 9    2  0.2147756E-005  0.5676746E+03  0.7546771E-02  0.1036973E+00
          2   -1    0    0  502    0 -0.00000000000E+00  0.00000000000E+00  0.34182946879E+03  0.34182946879E+03  0.00000000000E+00 0. -1.
         21   -1    0    0  501  502  0.00000000000E+00 -0.00000000000E+00 -0.13707363055E+04  0.13707363055E+04  0.00000000000E+00 0. -1.
         24    2    1    2    0    0  0.14611059711E+03  0.29092064701E+02  0.25613143534E+03  0.30772491484E+03  0.83046109070E+02 0.  0.
         23    2    1    2    0    0  0.11703544861E+03 -0.50317709565E+02 -0.88725640572E+02  0.17974482990E+03  0.90591370752E+02 0.  0.
        -11    1    3    3    0    0  0.56496834032E+02 -0.18325006669E+02  0.48568747442E+02  0.76724320480E+02  0.00000000000E+00 0.  1.
         12    1    3    3    0    0  0.89613763075E+02  0.47417071370E+02  0.20756268789E+03  0.23100059436E+03  0.00000000000E+00 0. -1.
        -13    1    4    4    0    0  0.18892858124E+02  0.20364209121E+02  0.30149210639E+01  0.27941561342E+02  0.00000000000E+00 0.  1.
         13    1    4    4    0    0  0.98142590488E+02 -0.70681918686E+02 -0.91740561635E+02  0.15180326856E+03  0.00000000000E+00 0. -1.
          1    1    1    2  501    0 -0.26314604572E+03  0.21225644864E+02 -0.11963126315E+04  0.12250960295E+04  0.00000000000E+00 0. -1.
<scales pt_clust_5="13000.00000" pt_clust_6="13000.00000" pt_clust_7="13000.00000" pt_clust_8="13000.00000" pt_clust_9="13000.00000"></scales>
<clustering>
<clus scale="   83.046">  5  6 -1 -1</clus>
<clus scale="   90.591">  7  8 -1 -1</clus>
<clus scale="  170.562">  1  5  2 -1</clus>
<clus scale="  229.781">  7  9 -1 -1</clus>
<clus scale="  567.675">  2  5  1 -1</clus>
</clustering>
</event>
<event>
 9    2  0.2147756E-005  0.1602887E+03  0.7546771E-02  0.1204052E+00
         21   -1    0    0  501  502  0.00000000000E+00  0.00000000000E+00  0.27670012307E+03  0.27670012307E+03  0.00000000000E+00 0.  1.
         -3   -1    0    0    0  501 -0.00000000000E+00 -0.00000000000E+00 -0.12147469013E+03  0.12147469013E+03  0.00000000000E+00 0.  1.
         24    2    1    2    0    0  0.80354586018E+02  0.17816303525E+02 -0.60941042934E+02  0.12906443199E+03  0.78546398548E+02 0.  0.
         23    2    1    2    0    0 -0.17807713683E+02 -0.22357926831E+02  0.10826312838E+03  0.14430705600E+03  0.91030928190E+02 0.  0.
        -13    1    3    3    0    0  0.87448914486E+02  0.10000560715E+02 -0.72044707995E+02  0.11374429133E+03  0.00000000000E+00 0.  1.
         14    1    3    3    0    0 -0.70943284676E+01  0.78157428101E+01  0.11103665061E+02  0.15320140660E+02  0.00000000000E+00 0. -1.
        -11    1    4    4    0    0 -0.47755380836E+01  0.33014643280E+02  0.64210331915E+02  0.72358407664E+02  0.00000000000E+00 0. -1.
         11    1    4    4    0    0 -0.13032175600E+02 -0.55372570112E+02  0.44052796461E+02  0.71948648338E+02  0.00000000000E+00 0.  1.
         -4    1    1    2    0  502 -0.62546872335E+02  0.45416233063E+01  0.10790334750E+03  0.12480332520E+03  0.00000000000E+00 0.  1.
<scales pt_clust_5="13000.00000" pt_clust_6="13000.00000" pt_clust_7="13000.00000" pt_clust_8="13000.00000" pt_clust_9="13000.00000"></scales>
<clustering>
<clus scale="   78.546">  5  6 -1 -1</clus>
<clus scale="   91.031">  7  8 -1 -1</clus>
<clus scale="   62.712">  7  9 -1 -1</clus>
<clus scale="  113.771">  2  5  1 -1</clus>
<clus scale="  160.289">  1  5  2 -1</clus>
</clustering>
</event>
<event>
 9    2  0.2147756E-005  0.5946057E+03  0.7546771E-02  0.1034585E+00
         21   -1    0    0  501  502  0.00000000000E+00  0.00000000000E+00  0.94140183591E+02  0.94140183591E+02  0.00000000000E+00 0. -1.
          2   -1    0    0  502    0 -0.00000000000E+00 -0.00000000000E+00 -0.15797468032E+04  0.15797468032E+04  0.00000000000E+00 0. -1.
         24    2    1    2    0    0  0.28908366999E+02  0.13392629439E+03 -0.47921164295E+03  0.50496148309E+03  0.81057724230E+02 0.  0.
         23    2    1    2    0    0 -0.28730442130E+02  0.15943659351E+03 -0.86248307141E+02  0.20314514094E+03  0.87084511525E+02 0.  0.
        -13    1    3    3    0    0 -0.24119364003E+02  0.23766723225E+02 -0.68067228431E+02  0.76024656784E+02  0.00000000000E+00 0.  1.
         14    1    3    3    0    0  0.53027731002E+02  0.11015957117E+03 -0.41114441452E+03  0.42893682631E+03  0.00000000000E+00 0. -1.
        -11    1    4    4    0    0  0.20838554392E+02  0.10456030898E+03 -0.69665814631E+02  0.12735944917E+03  0.00000000000E+00 0.  1.
         11    1    4    4    0    0 -0.49568996522E+02  0.54876284530E+02 -0.16582492510E+02  0.75785691775E+02  0.00000000000E+00 0. -1.
          1    1    1    2  501    0 -0.17792486923E+00 -0.29336288791E+03 -0.92014666948E+03  0.96578036272E+03  0.00000000000E+00 0. -1.
<scales pt_clust_5="13000.00000" pt_clust_6="13000.00000" pt_clust_7="13000.00000" pt_clust_8="13000.00000" pt_clust_9="13000.00000"></scales>
<clustering>
<clus scale="   81.058">  5  6 -1 -1</clus>
<clus scale="   87.085">  7  8 -1 -1</clus>
<clus scale="  159.193">  2  5  1 -1</clus>
<clus scale="  178.992">  7  9 -1 -1</clus>
<clus scale="  594.606">  1  5  2 -1</clus>
</clustering>
</event>
<event>
 9    2  0.2147756E-005  0.2876989E+03  0.7546771E-02  0.1116602E+00
          2   -1    0    0  502    0 -0.00000000000E+00  0.00000000000E+00  0.16378417407E+04  0.16378417407E+04  0.00000000000E+00 0. -1.
         21   -1    0    0  501  502  0.00000000000E+00 -0.00000000000E+00 -0.29416323878E+02  0.29416323878E+02  0.00000000000E+00 0.  1.
         24    2    1    2    0    0 -0.11042082144E+03 -0.56878974929E+02  0.52190356891E+03  0.54329170917E+03  0.85758792042E+02 0.  0.
         23    2    1    2    0    0 -0.22719070162E+02 -0.56028757939E+02  0.37372801912E+03  0.39010708468E+03  0.94103811698E+02 0.  0.
        -13    1    3    3    0    0 -0.83245339891E+02 -0.69082994778E+02  0.47897741988E+03  0.49104135827E+03  0.00000000000E+00 0.  1.
         14    1    3    3    0    0 -0.27175481550E+02  0.12204019849E+02  0.42926149033E+02  0.52250350896E+02  0.00000000000E+00 0. -1.
        -13    1    4    4    0    0 -0.43659756852E+02 -0.85654458126E+01  0.77436041824E+02  0.89307792514E+02  0.00000000000E+00 0.  1.
         13    1    4    4    0    0  0.20940686690E+02 -0.47463312126E+02  0.29629197730E+03  0.30079929217E+03  0.00000000000E+00 0. -1.
          1    1    1    2  501    0  0.13313989160E+03  0.11290773287E+03  0.71279382883E+03  0.73385927077E+03  0.00000000000E+00 0. -1.
<scales pt_clust_5="13000.00000" pt_clust_6="13000.00000" pt_clust_7="13000.00000" pt_clust_8="13000.00000" pt_clust_9="13000.00000"></scales>
<clustering>
<clus scale="   85.759">  5  6 -1 -1</clus>
<clus scale="   94.104">  7  8 -1 -1</clus>
<clus scale="  150.939">  1  5  2 -1</clus>
<clus scale="   97.127">  7  9 -1 -1</clus>
<clus scale="  287.699">  2  5  1 -1</clus>
</clustering>
</event>
<event>
 9    2  0.2147756E-005  0.2186786E+03  0.7546771E-02  0.1175883E+00
         -1   -1    0    0    0  501 -0.00000000000E+00  0.00000000000E+00  0.55570826032E+03  0.55570826032E+03  0.00000000000E+00 0.  1.
         21   -1    0    0  501  502  0.00000000000E+00 -0.00000000000E+00 -0.44815896876E+02  0.44815896876E+02  0.00000000000E+00 0. -1.
         24    2    1    2    0    0  0.12131504217E+02 -0.18157330558E+02  0.22905834523E+03  0.24380193204E+03  0.80590287883E+02 0.  0.
         23    2    1    2    0    0 -0.26126917888E+02  0.81823381584E+02  0.11086137269E+03  0.17374440361E+03  0.10256311335E+03 0.  0.
        -11    1    3    3    0    0  0.33973448281E+02 -0.38611357332E+02  0.11675818941E+03  0.12758333315E+03  0.00000000000E+00 0.  1.
         12    1    3    3    0    0 -0.21841944065E+02  0.20454026774E+02  0.11230015582E+03  0.11621859889E+03  0.00000000000E+00 0. -1.
        -11    1    4    4    0    0 -0.22305366509E+02 -0.13046424789E+02  0.61553842413E+02  0.66757876620E+02  0.00000000000E+00 0.  1.
         11    1    4    4    0    0 -0.38215513791E+01  0.94869806374E+02  0.49307530272E+02  0.10698652699E+03  0.00000000000E+00 0. -1.
         -2    1    1    2    0  502  0.13995413672E+02 -0.63666051026E+02  0.17097264553E+03  0.18297782154E+03  0.00000000000E+00 0.  1.
<scales pt_clust_5="13000.00000" pt_clust_6="13000.00000" pt_clust_7="13000.00000" pt_clust_8="13000.00000" pt_clust_9="13000.00000"></scales>
<clustering>
<clus scale="   80.590">  5  6 -1 -1</clus>
<clus scale="   83.496">  1  5  2 -1</clus>
<clus scale="  102.563">  7  8 -1 -1</clus>
<clus scale="   76.587">  7  9 -1 -1</clus>
<clus scale="  218.679">  2  5  1 -1</clus>
</clustering>
</event>
<event>
 9    2  0.2147756E-005  0.2292732E+03  0.7546771E-02  0.1161198E+00
         21   -1    0    0  501  502  0.00000000000E+00  0.00000000000E+00  0.16324652720E+03  0.16324652720E+03  0.00000000000E+00 0.  1.
          2   -1    0    0  502    0 -0.00000000000E+00 -0.00000000000E+00 -0.25654661274E+03  0.25654661274E+03  0.00000000000E+00 0. -1.
         24    2    1    2    0    0  0.10546867922E+02 -0.61584395072E+02 -0.15234672349E+03  0.18303859200E+03  0.79935773373E+02 0.  0.
         23    2    1    2    0    0 -0.89579254463E+00 -0.52994810727E+02  0.59944791153E+02  0.12176609487E+03  0.91784265896E+02 0.  0.
        -11    1    3    3    0    0  0.29554877523E+02  0.41706576544E+01 -0.27129638978E+02  0.40334879221E+02  0.00000000000E+00 0.  1.
         12    1    3    3    0    0 -0.19008009601E+02 -0.65755052726E+02 -0.12521708451E+03  0.14270371278E+03  0.00000000000E+00 0. -1.
        -13    1    4    4    0    0 -0.21072719117E+02 -0.45142826013E+01  0.65506827746E+02  0.68960733173E+02  0.00000000000E+00 0.  1.
         13    1    4    4    0    0  0.20176926572E+02 -0.48480528126E+02 -0.55620365928E+01  0.52805361700E+02  0.00000000000E+00 0. -1.
          1    1    1    2  501    0 -0.96510753777E+01  0.11457920580E+03 -0.89815320666E+00  0.11498845306E+03  0.00000000000E+00 0. -1.
<scales pt_clust_5="13000.00000" pt_clust_6="13000.00000" pt_clust_7="13000.00000" pt_clust_8="13000.00000" pt_clust_9="13000.00000"></scales>
<clustering>
<clus scale="   79.936">  5  6 -1 -1</clus>
<clus scale="   91.784">  7  8 -1 -1</clus>
<clus scale="  101.457">  2  5  1 -1</clus>
<clus scale="   74.471">  7  9 -1 -1</clus>
<clus scale="  229.273">  1  5  2 -1</clus>
</clustering>
</event>
<event>
 9    2  0.2147756E-005  0.1798336E+03  0.7546771E-02  0.1187501E+00
         -3   -1    0    0    0  501 -0.00000000000E+00  0.00000000000E+00  0.30502404791E+03  0.30502404791E+03  0.00000000000E+00 0.  1.
         21   -1    0    0  501  502  0.00000000000E+00 -0.00000000000E+00 -0.72564361713E+02  0.72564361713E+02  0.00000000000E+00 0.  1.
         24    2    1    2    0    0  0.38460784689E+02  0.67302351744E+02  0.11270818860E+03  0.16153160998E+03  0.85909759253E+02 0.  0.
         23    2    1    2    0    0  0.24043143185E+02 -0.24770098892E+02  0.10011792696E+03  0.13794655302E+03  0.88396955025E+02 0.  0.
        -11    1    3    3    0    0  0.38104121269E+02  0.48240057939E+02  0.12468534275E+03  0.13901604923E+03  0.00000000000E+00 0.  1.
         12    1    3    3    0    0  0.35666341943E+00  0.19062293806E+02 -0.11977154152E+02  0.22515560742E+02  0.00000000000E+00 0. -1.
        -11    1    4    4    0    0 -0.32469860784E+02 -0.11915099094E+02  0.52835823388E+02  0.63149708462E+02  0.00000000000E+00 0. -1.
         11    1    4    4    0    0  0.56513003969E+02 -0.12854999798E+02  0.47282103570E+02  0.74796844555E+02  0.00000000000E+00 0.  1.
         -4    1    1    2    0  502 -0.62503927873E+02 -0.42532252852E+02  0.19633570637E+02  0.78110246627E+02  0.00000000000E+00 0.  1.
<scales pt_clust_5="13000.00000" pt_clust_6="13000.00000" pt_clust_7="13000.00000" pt_clust_8="13000.00000" pt_clust_9="13000.00000"></scales>
<clustering>
<clus scale="   85.910">  5  6 -1 -1</clus>
<clus scale="   88.397">  7  8 -1 -1</clus>
<clus scale="   75.603">  7  9 -1 -1</clus>
<clus scale="  115.712">  1  5  2 -1</clus>
<clus scale="  179.834">  2  5  1 -1</clus>
</clustering>
</event>
<event>
 9    2  0.2147756E-005  0.1613514E+03  0.7546771E-02  0.1213621E+00
         21   -1    0    0  501  502  0.00000000000E+00  0.00000000000E+00  0.58832959309E+02  0.58832959309E+02  0.00000000000E+00 0.  1.
          2   -1    0    0  502    0 -0.00000000000E+00 -0.00000000000E+00 -0.61048945456E+03  0.61048945456E+03  0.00000000000E+00 0. -1.
         24    2    1    2    0    0  0.27552227696E+01  0.42792276256E+02 -0.48714730543E+03  0.49555329913E+03  0.80136164977E+02 0.  0.
         23    2    1    2    0    0 -0.54392139274E+02 -0.33182789282E+02 -0.55975725274E+02  0.12055696008E+03  0.85680198908E+02 0.  0.
        -11    1    3    3    0    0 -0.29088121880E+02 -0.20518489014E+01 -0.89758657684E+02  0.94376615471E+02  0.00000000000E+00 0.  1.
         12    1    3    3    0    0  0.31843344649E+02  0.44844125158E+02 -0.39738864774E+03  0.40117668366E+03  0.00000000000E+00 0. -1.
        -13    1    4    4    0    0  0.19130032208E+02 -0.18494694986E+02 -0.32477833502E+02  0.41985968417E+02  0.00000000000E+00 0. -1.
         13    1    4    4    0    0 -0.73522171482E+02 -0.14688094295E+02 -0.23497891772E+02  0.78570991665E+02  0.00000000000E+00 0.  1.
          1    1    1    2  501    0  0.51636916504E+02 -0.96094869746E+01 -0.85334645529E+01  0.53212154657E+02  0.00000000000E+00 0. -1.
<scales pt_clust_5="13000.00000" pt_clust_6="13000.00000" pt_clust_7="13000.00000" pt_clust_8="13000.00000" pt_clust_9="13000.00000"></scales>
<clustering>
<clus scale="   80.136">  5  6 -1 -1</clus>
<clus scale="   85.680">  7  8 -1 -1</clus>
<clus scale="   52.523">  7  9 -1 -1</clus>
<clus scale="   90.888">  2  5  1 -1</clus>
<clus scale="  161.351">  1  5  2 -1</clus>
</clustering>
</event>
<event>
 9    2  0.2147756E-005  0.2209564E+03  0.7546771E-02  0.1148858E+00
          2   -1    0    0  502    0 -0.00000000000E+00  0.00000000000E+00  0.53442428822E+03  0.53442428822E+03  0.00000000000E+00 0. -1.
         21   -1    0    0  501  502  0.00000000000E+00 -0.00000000000E+00 -0.64878191477E+02  0.64878191477E+02  0.00000000000E+00 0. -1.
         24    2    1    2    0    0  0.11523029809E+03 -0.56203428632E+02  0.19170500705E+03  0.24431316434E+03  0.80630425731E+02 0.  0.
         23    2    1    2    0    0 -0.76211426300E+02 -0.15706973767E+02  0.85704731989E+02  0.14615934078E+03  0.89232064242E+02 0.  0.
        -11    1    3    3    0    0  0.62455171237E+02 -0.20387142026E+02  0.33523727499E+02  0.73757198155E+02  0.00000000000E+00 0.  1.
         12    1    3    3    0    0  0.52775126855E+02 -0.35816286606E+02  0.15818127955E+03  0.17055596619E+03  0.00000000000E+00 0. -1.
        -13    1    4    4    0    0 -0.78309925100E+02  0.21405951097E+02  0.60526536827E+02  0.10126263265E+03  0.00000000000E+00 0. -1.
         13    1    4    4    0    0  0.20984988001E+01 -0.37112924864E+02  0.25178195162E+02  0.44896708129E+02  0.00000000000E+00 0.  1.
          1    1    1    2  501    0 -0.39018871792E+02  0.71910402399E+02  0.19213635770E+03  0.20882997457E+03  0.00000000000E+00 0. -1.
<scales pt_clust_5="13000.00000" pt_clust_6="13000.00000" pt_clust_7="13000.00000" pt_clust_8="13000.00000" pt_clust_9="13000.00000"></scales>
<clustering>
<clus scale="   80.630">  5  6 -1 -1</clus>
<clus scale="   89.232">  7  8 -1 -1</clus>
<clus scale="   81.814">  7  9 -1 -1</clus>
<clus scale="  151.453">  1  5  2 -1</clus>
<clus scale="  220.956">  2  5  1 -1</clus>
</clustering>
</event>
<event>
 9    2  0.2147756E-005  0.4912613E+03  0.7546771E-02  0.1063084E+00
         21   -1    0    0  501  502  0.00000000000E+00  0.00000000000E+00  0.24957215431E+03  0.24957215431E+03  0.00000000000E+00 0. -1.
         -1   -1    0    0    0  501 -0.00000000000E+00 -0.00000000000E+00 -0.45762781303E+03  0.45762781303E+03  0.00000000000E+00 0.  1.
         24    2    1    2    0    0 -0.94704876064E+02 -0.29609705347E+02 -0.17474513069E+03  0.21481062718E+03  0.75907816764E+02 0.  0.
         23    2    1    2    0    0  0.12211647395E+03 -0.20256249759E+03  0.15027673483E+02  0.25365955727E+03  0.90406533963E+02 0.  0.
        -13    1    3    3    0    0 -0.10714788056E+03 -0.27637671066E+02 -0.14415875806E+03  0.18173127605E+03  0.00000000000E+00 0.  1.
         14    1    3    3    0    0  0.12443004492E+02 -0.19720342810E+01 -0.30586372637E+02  0.33079351128E+02  0.00000000000E+00 0. -1.
        -13    1    4    4    0    0  0.13309276077E+03 -0.15728877671E+03  0.55333364355E+01  0.20611661762E+03  0.00000000000E+00 0. -1.
         13    1    4    4    0    0 -0.10976286812E+02 -0.45273720882E+02  0.94943370475E+01  0.47542939651E+02  0.00000000000E+00 0.  1.
         -2    1    1    2    0  502 -0.27411597890E+02  0.23217220293E+03 -0.48338201517E+02  0.23872978289E+03  0.00000000000E+00 0.  1.
<scales pt_clust_5="13000.00000" pt_clust_6="13000.00000" pt_clust_7="13000.00000" pt_clust_8="13000.00000" pt_clust_9="13000.00000"></scales>
<clustering>
<clus scale="   75.908">  5  6 -1 -1</clus>
<clus scale="   90.407">  7  8 -1 -1</clus>
<clus scale="  124.931">  2  5  1 -1</clus>
<clus scale="  230.040">  7  9 -1 -1</clus>
<clus scale="  491.261">  1  5  2 -1</clus>
</clustering>
</event>
<event>
 9    2  0.2147756E-005  0.1858960E+03  0.7546771E-02  0.1196012E+00
         21   -1    0    0  501  502  0.00000000000E+00  0.00000000000E+00  0.25080337231E+03  0.25080337231E+03  0.00000000000E+00 0.  1.
         -1   -1    0    0    0  501 -0.00000000000E+00 -0.00000000000E+00 -0.22850347578E+03  0.22850347578E+03  0.00000000000E+00 0.  1.
         24    2    1    2    0    0 -0.33842960222E+02 -0.58309343374E+01 -0.18287023484E+03  0.20244570055E+03  0.79770878951E+02 0.  0.
         23    2    1    2    0    0 -0.33571440405E+02  0.44952893280E+02  0.13605360620E+03  0.17268666346E+03  0.90345424634E+02 0.  0.
        -11    1    3    3    0    0 -0.36853265947E+02 -0.17907576120E+02 -0.18529020457E+03  0.18976644699E+03  0.00000000000E+00 0.  1.
         12    1    3    3    0    0  0.30103057253E+01  0.12076641782E+02  0.24199697317E+01  0.12679253558E+02  0.00000000000E+00 0. -1.
        -11    1    4    4    0    0  0.24376253676E+02  0.18481549424E+02  0.11305650318E+02  0.32612683752E+02  0.00000000000E+00 0. -1.
         11    1    4    4    0    0 -0.57947694082E+02  0.26471343856E+02  0.12474795588E+03  0.14007397971E+03  0.00000000000E+00 0.  1.
         -2    1    1    2    0  502  0.67414400627E+02 -0.39121958942E+02  0.69116525163E+02  0.10417448408E+03  0.00000000000E+00 0.  1.
<scales pt_clust_5="13000.00000" pt_clust_6="13000.00000" pt_clust_7="13000.00000" pt_clust_8="13000.00000" pt_clust_9="13000.00000"></scales>
<clustering>
<clus scale="   79.771">  5  6 -1 -1</clus>
<clus scale="   86.849">  2  5  1 -1</clus>
<clus scale="   90.345">  7  8 -1 -1</clus>
<clus scale="   65.947">  7  9 -1 -1</clus>
<clus scale="  185.896">  1  5  2 -1</clus>
</clustering>
</event>
<event>
 9    2  0.2147756E-005  0.2248570E+03  0.7546771E-02  0.1142063E+00
         21   -1    0    0  501  502  0.00000000000E+00  0.00000000000E+00  0.36899364398E+03  0.36899364398E+03  0.00000000000E+00 0. -1.
          2   -1    0    0  502    0 -0.00000000000E+00 -0.00000000000E+00 -0.12602343537E+03  0.12602343537E+03  0.00000000000E+00 0. -1.
         24    2    1    2    0    0  0.60369603889E+02 -0.13617784934E+03  0.20709046595E+03  0.26731549866E+03  0.79888791520E+02 0.  0.
         23    2    1    2    0    0 -0.23023226779E+02  0.12770956018E+03  0.73359598541E+02  0.17411796937E+03  0.89975751337E+02 0.  0.
        -13    1    3    3    0    0  0.19835384378E+02  0.63326211031E+01  0.23525180571E+02  0.31416216901E+02  0.00000000000E+00 0.  1.
         14    1    3    3    0    0  0.40534219511E+02 -0.14251047044E+03  0.18356528538E+03  0.23589928176E+03  0.00000000000E+00 0. -1.
        -13    1    4    4    0    0 -0.60303688879E+01  0.10652512607E+03  0.92242068216E+02  0.14104101170E+03  0.00000000000E+00 0. -1.
         13    1    4    4    0    0 -0.16992857891E+02  0.21184434105E+02 -0.18882469675E+02  0.33076957669E+02  0.00000000000E+00 0.  1.
          1    1    1    2  501    0 -0.37346377110E+02  0.84682891577E+01 -0.37479855892E+02  0.53583611321E+02  0.00000000000E+00 0. -1.
<scales pt_clust_5="13000.00000" pt_clust_6="13000.00000" pt_clust_7="13000.00000" pt_clust_8="13000.00000" pt_clust_9="13000.00000"></scales>
<clustering>
<clus scale="   79.889">  5  6 -1 -1</clus>
<clus scale="   89.976">  7  8 -1 -1</clus>
<clus scale="   38.294">  7  9 -1 -1</clus>
<clus scale="  169.030">  2  5  1 -1</clus>
<clus scale="  224.857">  1  5  2 -1</clus>
</clustering>
</event>
<event>
 9    2  0.2147756E-005  0.2229327E+03  0.7546771E-02  0.1173585E+00
         21   -1    0    0  501  502  0.00000000000E+00  0.00000000000E+00  0.20858480329E+03  0.20858480329E+03  0.00000000000E+00 0. -1.
          2   -1    0    0  502    0 -0.00000000000E+00 -0.00000000000E+00 -0.11512548472E+03  0.11512548472E+03  0.00000000000E+00 0. -1.
         24    2    1    2    0    0  0.13414185314E+02  0.41394708083E+01  0.28666898588E+01  0.83073638988E+02  0.81828699109E+02 0.  0.
         23    2    1    2    0    0  0.30263615581E+02  0.75319591367E+02  0.18013049905E+02  0.12449325441E+03  0.92656209476E+02 0.  0.
        -11    1    3    3    0    0 -0.33439318169E+02 -0.60360326370E+01  0.78346155189E+01  0.34871232986E+02  0.00000000000E+00 0.  1.
         12    1    3    3    0    0  0.46853503484E+02  0.10175503445E+02 -0.49679256601E+01  0.48202406002E+02  0.00000000000E+00 0. -1.
        -13    1    4    4    0    0  0.19454681687E+02 -0.15466889863E+02  0.21696201200E+02  0.32991430222E+02  0.00000000000E+00 0.  1.
         13    1    4    4    0    0  0.10808933893E+02  0.90786481230E+02 -0.36831512948E+01  0.91501824186E+02  0.00000000000E+00 0. -1.
          1    1    1    2  501    0 -0.43677800895E+02 -0.79459062175E+02  0.72579578810E+02  0.11614339462E+03  0.00000000000E+00 0. -1.
<scales pt_clust_5="13000.00000" pt_clust_6="13000.00000" pt_clust_7="13000.00000" pt_clust_8="13000.00000" pt_clust_9="13000.00000"></scales>
<clustering>
<clus scale="   81.829">  5  6 -1 -1</clus>
<clus scale="   83.024">  2  5  1 -1</clus>
<clus scale="   92.656">  7  8 -1 -1</clus>
<clus scale="   87.789">  7  9 -1 -1</clus>
<clus scale="  222.933">  1  5  2 -1</clus>
</clustering>
</event>
<event>
 9    2  0.2147756E-005  0.2904404E+03  0.7546771E-02  0.1128047E+00
          2   -1    0    0  502    0 -0.00000000000E+00  0.00000000000E+00  0.35777328457E+03  0.35777328457E+03  0.00000000000E+00 0. -1.
         21   -1    0    0  501  502  0.00000000000E+00 -0.00000000000E+00 -0.13484000456E+03  0.13484000456E+03  0.00000000000E+00 0.  1.
         24    2    1    2    0    0  0.37216002997E+02  0.65807882125E+02 -0.22222859176E+02  0.11253812364E+03  0.80344667356E+02 0.  0.
         23    2    1    2    0    0 -0.74122372046E+02 -0.14974798163E+03  0.12339166967E+03  0.22764614458E+03  0.93159427635E+02 0.  0.
        -11    1    3    3    0    0 -0.41574043657E+01  0.31667936612E+02  0.25399798189E+02  0.40807989026E+02  0.00000000000E+00 0.  1.
         12    1    3    3    0    0  0.41373407363E+02  0.34139945513E+02 -0.47622657365E+02  0.71730134609E+02  0.00000000000E+00 0. -1.
        -11    1    4    4    0    0 -0.28344183390E+01 -0.98232289676E+02  0.90947156450E+02  0.13389922303E+03  0.00000000000E+00 0.  1.
         11    1    4    4    0    0 -0.71287953707E+02 -0.51515691956E+02  0.32444513221E+02  0.93746921548E+02  0.00000000000E+00 0. -1.
          1    1    1    2  501    0  0.36906369050E+02  0.83940099507E+02  0.12176446951E+03  0.15242902092E+03  0.00000000000E+00 0. -1.
<scales pt_clust_5="13000.00000" pt_clust_6="13000.00000" pt_clust_7="13000.00000" pt_clust_8="13000.00000" pt_clust_9="13000.00000"></scales>
<clustering>
<clus scale="   80.345">  5  6 -1 -1</clus>
<clus scale="   93.159">  7  8 -1 -1</clus>
<clus scale="   91.695">  7  9 -1 -1</clus>
<clus scale="  110.322">  1  5  2 -1</clus>
<clus scale="  290.440">  2  5  1 -1</clus>
</clustering>
</event>
<event>
 9    2  0.2147756E-005  0.5187690E+03  0.7546771E-02  0.1044006E+00
         -1   -1    0    0    0  501 -0.00000000000E+00  0.00000000000E+00  0.14415882045E+03  0.14415882045E+03  0.00000000000E+00 0.  1.
         21   -1    0    0  501  502  0.00000000000E+00 -0.00000000000E+00 -0.85283111363E+03  0.85283111363E+03  0.00000000000E+00 0.  1.
         24    2    1    2    0    0 -0.15075363206E+03  0.66232384787E+02 -0.17098270317E+03  0.24984107887E+03  0.77923639124E+02 0.  0.
         23    2    1    2    0    0 -0.10636110247E+03  0.17378838080E+02 -0.43670779097E+03  0.45853813635E+03  0.89043919812E+02 0.  0.
        -11    1    3    3    0    0 -0.10230434952E+03  0.14701807437E+02 -0.63918614413E+02  0.12152329958E+03  0.00000000000E+00 0.  1.
         12    1    3    3    0    0 -0.48449282541E+02  0.51530577349E+02 -0.10706408876E+03  0.12831777929E+03  0.00000000000E+00 0. -1.
        -11    1    4    4    0    0 -0.10138262673E+03  0.37819221131E+02 -0.41254631358E+03  0.42650110356E+03  0.00000000000E+00 0.  1.
         11    1    4    4    0    0 -0.49784757464E+01 -0.20440383051E+02 -0.24161477395E+02  0.32037032789E+02  0.00000000000E+00 0. -1.
         -2    1    1    2    0  502  0.25711473453E+03 -0.83611222866E+02 -0.10098179904E+03  0.28861071886E+03  0.00000000000E+00 0.  1.
<scales pt_clust_5="13000.00000" pt_clust_6="13000.00000" pt_clust_7="13000.00000" pt_clust_8="13000.00000" pt_clust_9="13000.00000"></scales>
<clustering>
<clus scale="   77.924">  5  6 -1 -1</clus>
<clus scale="   89.044">  7  8 -1 -1</clus>
<clus scale="  182.169">  1  5  2 -1</clus>
<clus scale="  124.465">  7  9 -1 -1</clus>
<clus scale="  518.769">  2  5  1 -1</clus>
</clustering>
</event>
<event>
 9    2  0.2147756E-005  0.5419276E+03  0.7546771E-02  0.1055263E+00
          2   -1    0    0  502    0 -0.00000000000E+00  0.00000000000E+00  0.10970508594E+04  0.10970508594E+04  0.00000000000E+00 0. -1.
         21   -1    0    0  501  502  0.00000000000E+00 -0.00000000000E+00 -0.99187461551E+02  0.99187461551E+02  0.00000000000E+00 0. -1.
         24    2    1    2    0    0 -0.65666533675E+02  0.52943840658E+02  0.14269831855E+03  0.18381903819E+03  0.79444853684E+02 0.  0.
         23    2    1    2    0    0 -0.50350135107E+02  0.21793248402E+03  0.30933261541E+03  0.39212344259E+03  0.89690710621E+02 0.  0.
        -13    1    3    3    0    0 -0.10841170569E+02  0.26600653447E+02  0.29571545557E-01  0.28725017277E+02  0.00000000000E+00 0.  1.
         14    1    3    3    0    0 -0.54825363106E+02  0.26343187212E+02  0.14266874700E+03  0.15509402092E+03  0.00000000000E+00 0. -1.
        -11    1    4    4    0    0  0.48679649681E+01  0.92623362724E+02  0.18596234905E+03  0.20780947926E+03  0.00000000000E+00 0.  1.
         11    1    4    4    0    0 -0.55218100075E+02  0.12530912129E+03  0.12337026636E+03  0.18431396333E+03  0.00000000000E+00 0. -1.
          1    1    1    2  501    0  0.11601666878E+03 -0.27087632468E+03  0.54583246391E+03  0.62029584019E+03  0.00000000000E+00 0. -1.
<scales pt_clust_5="13000.00000" pt_clust_6="13000.00000" pt_clust_7="13000.00000" pt_clust_8="13000.00000" pt_clust_9="13000.00000"></scales>
<clustering>
<clus scale="   79.445">  5  6 -1 -1</clus>
<clus scale="   89.691">  7  8 -1 -1</clus>
<clus scale="  115.873">  1  5  2 -1</clus>
<clus scale="  249.368">  7  9 -1 -1</clus>
<clus scale="  541.928">  2  5  1 -1</clus>
</clustering>
</event>
<event>
 9    2  0.2147756E-005  0.3730031E+03  0.7546771E-02  0.1114042E+00
         21   -1    0    0  501  502  0.00000000000E+00  0.00000000000E+00  0.24424457631E+03  0.24424457631E+03  0.00000000000E+00 0. -1.
          2   -1    0    0  502    0 -0.00000000000E+00 -0.00000000000E+00 -0.25053187568E+03  0.25053187568E+03  0.00000000000E+00 0. -1.
         24    2    1    2    0    0 -0.19734780675E+02 -0.32029124378E+01 -0.85973819697E+02  0.11335643974E+03  0.71122883388E+02 0.  0.
         23    2    1    2    0    0  0.21157149648E+02 -0.15658207694E+03  0.11806142721E+03  0.21708529454E+03  0.90674983930E+02 0.  0.
        -13    1    3    3    0    0  0.13969148078E+02 -0.18498748173E+02 -0.41477932346E+01  0.23548778539E+02  0.00000000000E+00 0.  1.
         14    1    3    3    0    0 -0.33703928752E+02  0.15295835735E+02 -0.81826026462E+02  0.89807661203E+02  0.00000000000E+00 0. -1.
        -13    1    4    4    0    0 -0.34666148345E+02 -0.63983811303E+02  0.35057493439E+02  0.80775601491E+02  0.00000000000E+00 0.  1.
         13    1    4    4    0    0  0.55823297993E+02 -0.92598265635E+02  0.83003933774E+02  0.13630969305E+03  0.00000000000E+00 0. -1.
          1    1    1    2  501    0 -0.14223689736E+01  0.15978498938E+03 -0.38374906891E+02  0.16433471770E+03  0.00000000000E+00 0. -1.
<scales pt_clust_5="13000.00000" pt_clust_6="13000.00000" pt_clust_7="13000.00000" pt_clust_8="13000.00000" pt_clust_9="13000.00000"></scales>
<clustering>
<clus scale="   71.123">  5  6 -1 -1</clus>
<clus scale="   73.880">  2  5  1 -1</clus>
<clus scale="   90.675">  7  8 -1 -1</clus>
<clus scale="  158.315">  7  9 -1 -1</clus>
<clus scale="  373.003">  1  5  2 -1</clus>
</clustering>
</event>
<event>
 9    2  0.2147756E-005  0.2655372E+03  0.7546771E-02  0.1138513E+00
          2   -1    0    0  502    0 -0.00000000000E+00  0.00000000000E+00  0.29728675388E+03  0.29728675388E+03  0.00000000000E+00 0. -1.
         21   -1    0    0  501  502  0.00000000000E+00 -0.00000000000E+00 -0.13657844973E+03  0.13657844973E+03  0.00000000000E+00 0.  1.
         24    2    1    2    0    0  0.66719263838E+02 -0.34427730097E+01  0.12206182849E+03  0.16553042680E+03  0.89654444219E+02 0.  0.
         23    2    1    2    0    0  0.57057140950E+02  0.36531186992E+02 -0.33055724114E+02  0.12151295631E+03  0.95303057133E+02 0.  0.
        -13    1    3    3    0    0  0.70942311240E+02  0.27812706346E+02  0.10480682049E+03  0.12957942653E+03  0.00000000000E+00 0.  1.
         14    1    3    3    0    0 -0.42230474027E+01 -0.31255479355E+02  0.17255007997E+02  0.35951000265E+02  0.00000000000E+00 0. -1.
        -13    1    4    4    0    0  0.47259646614E+02  0.49810793784E+01 -0.61636757856E+02  0.77829141514E+02  0.00000000000E+00 0.  1.
         13    1    4    4    0    0  0.97974943365E+01  0.31550107613E+02  0.28581033742E+02  0.43683814799E+02  0.00000000000E+00 0. -1.
          1    1    1    2  501    0 -0.12377640479E+03 -0.33088413982E+02  0.71702199774E+02  0.14682182050E+03  0.00000000000E+00 0. -1.
<scales pt_clust_5="13000.00000" pt_clust_6="13000.00000" pt_clust_7="13000.00000" pt_clust_8="13000.00000" pt_clust_9="13000.00000"></scales>
<clustering>
<clus scale="   89.654">  5  6 -1 -1</clus>
<clus scale="   95.303">  7  8 -1 -1</clus>
<clus scale="  111.809">  1  5  2 -1</clus>
<clus scale="   84.155">  7  9 -1 -1</clus>
<clus scale="  265.537">  2  5  1 -1</clus>
</clustering>
</event>
<event>
 9    2  0.2147756E-005  0.1900804E+03  0.7546771E-02  0.1184343E+00
         21   -1    0    0  501  502  0.00000000000E+00  0.00000000000E+00  0.10687611665E+03  0.10687611665E+03  0.00000000000E+00 0. -1.
          2   -1    0    0  502    0 -0.00000000000E+00 -0.00000000000E+00 -0.29843604740E+03  0.29843604740E+03  0.00000000000E+00 0. -1.
         24    2    1    2    0    0  0.68393001475E+02 -0.36993139713E+01 -0.18777101897E+03  0.21519401926E+03  0.79744735151E+02 0.  0.
         23    2    1    2    0    0 -0.86756784297E+01 -0.49424008361E+02 -0.25724068011E+02  0.10723631851E+03  0.91213487678E+02 0.  0.
        -13    1    3    3    0    0  0.13731089597E+02 -0.23180025343E+02 -0.13195693766E+03  0.13467921069E+03  0.00000000000E+00 0.  1.
         14    1    3    3    0    0  0.54661911878E+02  0.19480711371E+02 -0.55814081316E+02  0.80514808568E+02  0.00000000000E+00 0. -1.
        -11    1    4    4    0    0  0.40164688292E+02 -0.14695635090E+02 -0.19438609354E+02  0.46978967740E+02  0.00000000000E+00 0. -1.
         11    1    4    4    0    0 -0.48840366722E+02 -0.34728373271E+02 -0.62854586568E+01  0.60257350772E+02  0.00000000000E+00 0.  1.
          1    1    1    2  501    0 -0.59717323045E+02  0.53123322332E+02  0.21935156235E+02  0.82881826273E+02  0.00000000000E+00 0. -1.
<scales pt_clust_5="13000.00000" pt_clust_6="13000.00000" pt_clust_7="13000.00000" pt_clust_8="13000.00000" pt_clust_9="13000.00000"></scales>
<clustering>
<clus scale="   79.745">  5  6 -1 -1</clus>
<clus scale="   91.213">  7  8 -1 -1</clus>
<clus scale="   79.927">  7  9 -1 -1</clus>
<clus scale="  105.121">  2  5  1 -1</clus>
<clus scale="  190.080">  1  5  2 -1</clus>
</clustering>
</event>
<event>
 9    2  0.2147756E-005  0.1659708E+03  0.7546771E-02  0.1206219E+00
          2   -1    0    0  502    0 -0.00000000000E+00  0.00000000000E+00  0.42205001066E+02  0.42205001066E+02  0.00000000000E+00 0. -1.
         21   -1    0    0  501  502  0.00000000000E+00 -0.00000000000E+00 -0.62344793150E+03  0.62344793150E+03  0.00000000000E+00 0. -1.
         24    2    1    2    0    0  0.20978091691E+02  0.52402988409E+02 -0.51540457257E+02  0.11055743688E+03  0.79877247006E+02 0.  0.
         23    2    1    2    0    0  0.12280447044E+02 -0.68078255254E+00 -0.20569572924E+03  0.22530512728E+03  0.91106500907E+02 0.  0.
        -11    1    3    3    0    0  0.35842611721E+02  0.50884362069E+02 -0.65324523355E+02  0.90228623339E+02  0.00000000000E+00 0.  1.
         12    1    3    3    0    0 -0.14864520029E+02  0.15186263405E+01  0.13784066098E+02  0.20328813538E+02  0.00000000000E+00 0. -1.
        -11    1    4    4    0    0  0.55520267115E+01  0.45202413585E+02 -0.99755125464E+02  0.10965932815E+03  0.00000000000E+00 0. -1.
         11    1    4    4    0    0  0.67284203323E+01 -0.45883196137E+02 -0.10594060378E+03  0.11564579913E+03  0.00000000000E+00 0.  1.
          1    1    1    2  501    0 -0.33258538735E+02 -0.51722205857E+02 -0.32400674394E+03  0.32979036841E+03  0.00000000000E+00 0. -1.
<scales pt_clust_5="13000.00000" pt_clust_6="13000.00000" pt_clust_7="13000.00000" pt_clust_8="13000.00000" pt_clust_9="13000.00000"></scales>
<clustering>
<clus scale="   79.877">  5  6 -1 -1</clus>
<clus scale="   91.107">  7  8 -1 -1</clus>
<clus scale="   61.492">  7  9 -1 -1</clus>
<clus scale="   97.809">  1  5  2 -1</clus>
<clus scale="  165.971">  2  5  1 -1</clus>
</clustering>
</event>
<event>
 9    2  0.2147756E-005  0.1324045E+03  0.7546771E-02  0.1238686E+00
          2   -1    0    0  502    0 -0.00000000000E+00  0.00000000000E+00  0.18581744130E+03  0.18581744130E+03  0.00000000000E+00 0. -1.
         21   -1    0    0  501  502  0.00000000000E+00 -0.00000000000E+00 -0.71239362994E+02  0.71239362994E+02  0.00000000000E+00 0. -1.
         24    2    1    2    0    0  0.69823410864E+01 -0.20668953810E+02  0.47413593858E+02  0.10859126180E+03  0.95226333111E+02 0.  0.
         23    2    1    2    0    0  0.28732119039E+02 -0.16009580510E+02  0.45303656809E+02  0.92799275091E+02  0.74009748037E+02 0.  0.
        -11    1    3    3    0    0 -0.32532004358E+02  0.93473871762E+01 -0.74053254974E+01  0.34648864343E+02  0.00000000000E+00 0.  1.
         12    1    3    3    0    0  0.39514345444E+02 -0.30016340987E+02  0.54818919356E+02  0.73942397455E+02  0.00000000000E+00 0. -1.
        -11    1    4    4    0    0  0.50476245829E+02 -0.37654704569E+01  0.13522347649E+02  0.52391641001E+02  0.00000000000E+00 0. -1.
         11    1    4    4    0    0 -0.21744126790E+02 -0.12244110053E+02  0.31781309160E+02  0.40407634090E+02  0.00000000000E+00 0.  1.
          1    1    1    2  501    0 -0.35714460126E+02  0.36678534320E+02  0.21860827643E+02  0.55666267408E+02  0.00000000000E+00 0. -1.
<scales pt_clust_5="13000.00000" pt_clust_6="13000.00000" pt_clust_7="13000.00000" pt_clust_8="13000.00000" pt_clust_9="13000.00000"></scales>
<clustering>
<clus scale="   74.010">  7  8 -1 -1</clus>
<clus scale="   51.194">  7  9 -1 -1</clus>
<clus scale="   95.226">  5  6 -1 -1</clus>
<clus scale="   97.694">  1  5  2 -1</clus>
<clus scale="  132.404">  2  5  1 -1</clus>
</clustering>
</event>
<event>
 9    2  0.2147756E-005  0.2917308E+03  0.7546771E-02  0.1134218E+00
         21   -1    0    0  501  502  0.00000000000E+00  0.00000000000E+00  0.66557333248E+02  0.66557333248E+02  0.00000000000E+00 0.  1.
          2   -1    0    0  502    0 -0.00000000000E+00 -0.00000000000E+00 -0.75272150200E+03  0.75272150200E+03  0.00000000000E+00 0. -1.
         24    2    1    2    0    0  0.46582008838E+01 -0.43783235515E+02 -0.39935837326E+03  0.41017687647E+03  0.82578987303E+02 0.  0.
         23    2    1    2    0    0  0.10218599248E+03  0.49718271042E+02 -0.60286543066E+02  0.15857875024E+03  0.92730087984E+02 0.  0.
        -13    1    3    3    0    0 -0.36991296921E+02 -0.24652788791E+02 -0.25079624443E+03  0.25470546179E+03  0.00000000000E+00 0.  1.
         14    1    3    3    0    0  0.41649497805E+02 -0.19130446723E+02 -0.14856212883E+03  0.15547141468E+03  0.00000000000E+00 0. -1.
        -13    1    4    4    0    0  0.55990403972E+02  0.64297337038E+02 -0.68598159903E+02  0.10942933989E+03  0.00000000000E+00 0. -1.
         13    1    4    4    0    0  0.46195588507E+02 -0.14579065996E+02  0.83116168367E+01  0.49149410345E+02  0.00000000000E+00 0.  1.
          1    1    1    2  501    0 -0.10684419336E+03 -0.59350355270E+01 -0.22651925242E+03  0.25052320854E+03  0.00000000000E+00 0. -1.
<scales pt_clust_5="13000.00000" pt_clust_6="13000.00000" pt_clust_7="13000.00000" pt_clust_8="13000.00000" pt_clust_9="13000.00000"></scales>
<clustering>
<clus scale="   82.579">  5  6 -1 -1</clus>
<clus scale="   92.730">  7  8 -1 -1</clus>
<clus scale="   93.584">  2  5  1 -1</clus>
<clus scale="  109.708">  7  9 -1 -1</clus>
<clus scale="  291.731">  1  5  2 -1</clus>
</clustering>
</event>
<event>
 9    2  0.2147756E-005  0.2720161E+03  0.7546771E-02  0.1147702E+00
         21   -1    0    0  501  502  0.00000000000E+00  0.00000000000E+00  0.21459367117E+03  0.21459367117E+03  0.00000000000E+00 0. -1.
          2   -1    0    0  502    0 -0.00000000000E+00 -0.00000000000E+00 -0.22823026744E+03  0.22823026744E+03  0.00000000000E+00 0. -1.
         24    2    1    2    0    0  0.62795593487E+00  0.12579805378E+02 -0.12384672845E+03  0.14932937559E+03  0.82477902700E+02 0.  0.
         23    2    1    2    0    0  0.63767769282E+02 -0.99134067350E+02  0.10929063286E+03  0.18560899786E+03  0.92802833724E+02 0.  0.
        -11    1    3    3    0    0 -0.63399089862E+01  0.34981737202E+02 -0.16045425140E+02  0.39004769600E+02  0.00000000000E+00 0.  1.
         12    1    3    3    0    0  0.69678649210E+01 -0.22401931824E+02 -0.10780130331E+03  0.11032460599E+03  0.00000000000E+00 0. -1.
        -11    1    4    4    0    0  0.54101966272E+02 -0.46400847392E+02  0.89371004210E+01  0.71832674718E+02  0.00000000000E+00 0.  1.
         11    1    4    4    0    0  0.96658030106E+01 -0.52733219958E+02  0.10035353244E+03  0.11377632314E+03  0.00000000000E+00 0. -1.
          1    1    1    2  501    0 -0.64395725217E+02  0.86554261972E+02  0.91949932022E+00  0.10788556516E+03  0.00000000000E+00 0. -1.
<scales pt_clust_5="13000.00000" pt_clust_6="13000.00000" pt_clust_7="13000.00000" pt_clust_8="13000.00000" pt_clust_9="13000.00000"></scales>
<clustering>
<clus scale="   82.478">  5  6 -1 -1</clus>
<clus scale="   83.434">  2  5  1 -1</clus>
<clus scale="   92.803">  7  8 -1 -1</clus>
<clus scale="  113.649">  7  9 -1 -1</clus>
<clus scale="  272.016">  1  5  2 -1</clus>
</clustering>
</event>
<event>
 9    2  0.2147756E-005  0.2443427E+03  0.7546771E-02  0.1138007E+00
          2   -1    0    0  502    0 -0.00000000000E+00  0.00000000000E+00  0.12314959953E+04  0.12314959953E+04  0.00000000000E+00 0. -1.
         21   -1    0    0  501  502  0.00000000000E+00 -0.00000000000E+00 -0.34000764505E+02  0.34000764505E+02  0.00000000000E+00 0. -1.
         24    2    1    2    0    0 -0.12086736843E+03 -0.21001276582E+01  0.27285782461E+03  0.30911937693E+03  0.80560942469E+02 0.  0.
         23    2    1    2    0    0  0.21799160200E+01 -0.23035738588E+02  0.18973075206E+03  0.21152416687E+03  0.90605284649E+02 0.  0.
        -11    1    3    3    0    0 -0.12081462530E+02 -0.27286867136E+02  0.32691976777E+02  0.44263983108E+02  0.00000000000E+00 0.  1.
         12    1    3    3    0    0 -0.10878590590E+03  0.25186739478E+02  0.24016584784E+03  0.26485539382E+03  0.00000000000E+00 0. -1.
        -11    1    4    4    0    0 -0.30589755937E+02 -0.54639559834E+01  0.16247823773E+03  0.16542299030E+03  0.00000000000E+00 0.  1.
         11    1    4    4    0    0  0.32769671957E+02 -0.17571782604E+02  0.27252514334E+02  0.46101176575E+02  0.00000000000E+00 0. -1.
          1    1    1    2  501    0  0.11868745241E+03  0.25135866246E+02  0.73490665415E+03  0.74485321604E+03  0.00000000000E+00 0. -1.
<scales pt_clust_5="13000.00000" pt_clust_6="13000.00000" pt_clust_7="13000.00000" pt_clust_8="13000.00000" pt_clust_9="13000.00000"></scales>
<clustering>
<clus scale="   80.561">  5  6 -1 -1</clus>
<clus scale="   90.605">  7  8 -1 -1</clus>
<clus scale="  121.320">  7  9 -1 -1</clus>
<clus scale="  145.270">  1  5  2 -1</clus>
<clus scale="  244.343">  2  5  1 -1</clus>
</clustering>
</event>
<event>
 9    2  0.2147756E-005  0.1629245E+03  0.7546771E-02  0.1212284E+00
          2   -1    0    0  502    0 -0.00000000000E+00  0.00000000000E+00  0.45357387840E+03  0.45357387840E+03  0.00000000000E+00 0. -1.
         21   -1    0    0  501  502  0.00000000000E+00 -0.00000000000E+00 -0.41867965523E+02  0.41867965523E+02  0.00000000000E+00 0.  1.
         24    2    1    2    0    0  0.46226665584E+02  0.82645579259E+01  0.24959670401E+03  0.26560755251E+03  0.77740914397E+02 0.  0.
         23    2    1    2    0    0 -0.19625954000E+02  0.32324523327E+02  0.66075905199E+02  0.12223565393E+03  0.95631987145E+02 0.  0.
        -13    1    3    3    0    0 -0.62761905542E+01  0.26728212443E+02  0.38429775705E+02  0.47229604794E+02  0.00000000000E+00 0.  1.
         14    1    3    3    0    0  0.52502856138E+02 -0.18463654517E+02  0.21116692830E+03  0.21837794772E+03  0.00000000000E+00 0. -1.
        -13    1    4    4    0    0 -0.52768360894E+01  0.57016252408E+02  0.83949158412E+01  0.57872036855E+02  0.00000000000E+00 0.  1.
         13    1    4    4    0    0 -0.14349117911E+02 -0.24691729080E+02  0.57680989358E+02  0.64363617076E+02  0.00000000000E+00 0. -1.
          1    1    1    2  501    0 -0.26600711584E+02 -0.40589081253E+02  0.96033303669E+02  0.10759863748E+03  0.00000000000E+00 0. -1.
<scales pt_clust_5="13000.00000" pt_clust_6="13000.00000" pt_clust_7="13000.00000" pt_clust_8="13000.00000" pt_clust_9="13000.00000"></scales>
<clustering>
<clus scale="   77.741">  5  6 -1 -1</clus>
<clus scale="   90.823">  1  5  2 -1</clus>
<clus scale="   95.632">  7  8 -1 -1</clus>
<clus scale="   36.387">  7  9 -1 -1</clus>
<clus scale="  162.925">  2  5  1 -1</clus>
</clustering>
</event>
<event>
 9    2  0.2147756E-005  0.4083769E+03  0.7546771E-02  0.1096361E+00
         21   -1    0    0  501  502  0.00000000000E+00  0.00000000000E+00  0.12367919957E+03  0.12367919957E+03  0.00000000000E+00 0.  1.
          2   -1    0    0  502    0 -0.00000000000E+00 -0.00000000000E+00 -0.49948928028E+03  0.49948928028E+03  0.00000000000E+00 0. -1.
         24    2    1    2    0    0  0.21944830638E+02 -0.28130717874E+02 -0.70166546955E+02  0.11308061600E+03  0.81184780127E+02 0.  0.
         23    2    1    2    0    0  0.48576087946E+02  0.18421476053E+03 -0.25526851533E+03  0.33155755602E+03  0.92052613849E+02 0.  0.
        -11    1    3    3    0    0 -0.14204435104E+02  0.21638287857E+02 -0.29965901594E+02  0.39597180914E+02  0.00000000000E+00 0.  1.
         12    1    3    3    0    0  0.36149265742E+02 -0.49769005731E+02 -0.40200645361E+02  0.73483435090E+02  0.00000000000E+00 0. -1.
        -13    1    4    4    0    0  0.14434387346E+02  0.15035497453E+03 -0.13713269548E+03  0.20401065187E+03  0.00000000000E+00 0.  1.
         13    1    4    4    0    0  0.34141700600E+02  0.33859785999E+02 -0.11813581985E+03  0.12754690415E+03  0.00000000000E+00 0. -1.
          1    1    1    2  501    0 -0.70520918584E+02 -0.15608404266E+03 -0.50375018426E+02  0.17853030782E+03  0.00000000000E+00 0. -1.
<scales pt_clust_5="13000.00000" pt_clust_6="13000.00000" pt_clust_7="13000.00000" pt_clust_8="13000.00000" pt_clust_9="13000.00000"></scales>
<clustering>
<clus scale="   81.185">  5  6 -1 -1</clus>
<clus scale="   88.679">  2  5  1 -1</clus>
<clus scale="   92.053">  7  8 -1 -1</clus>
<clus scale="  176.157">  7  9 -1 -1</clus>
<clus scale="  408.377">  1  5  2 -1</clus>
</clustering>
</event>
<event>
 9    2  0.2147756E-005  0.4532290E+03  0.7546771E-02  0.1054219E+00
         21   -1    0    0  501  502  0.00000000000E+00  0.00000000000E+00  0.91801902482E+03  0.91801902482E+03  0.00000000000E+00 0. -1.
          2   -1    0    0  502    0 -0.00000000000E+00 -0.00000000000E+00 -0.11807984377E+03  0.11807984377E+03  0.00000000000E+00 0. -1.
         24    2    1    2    0    0 -0.18221759546E+03 -0.44256844287E+02  0.21958537832E+03  0.29973818181E+03  0.80394769103E+02 0.  0.
         23    2    1    2    0    0 -0.78271865461E+02 -0.10077845137E+03  0.19208082055E+03  0.24682426840E+03  0.88002253748E+02 0.  0.
        -13    1    3    3    0    0 -0.73789257291E+02  0.17754196829E+02  0.10957476978E+03  0.13329177082E+03  0.00000000000E+00 0.  1.
         14    1    3    3    0    0 -0.10842833817E+03 -0.62011041116E+02  0.11001060855E+03  0.16644641099E+03  0.00000000000E+00 0. -1.
        -11    1    4    4    0    0 -0.62425063923E+02 -0.39360179034E+02  0.44466504403E+02  0.86159052416E+02  0.00000000000E+00 0.  1.
         11    1    4    4    0    0 -0.15846801538E+02 -0.61418272334E+02  0.14761431615E+03  0.16066521598E+03  0.00000000000E+00 0. -1.
          1    1    1    2  501    0  0.26048946092E+03  0.14503529566E+03  0.38827298218E+03  0.48953641839E+03  0.00000000000E+00 0. -1.
<scales pt_clust_5="13000.00000" pt_clust_6="13000.00000" pt_clust_7="13000.00000" pt_clust_8="13000.00000" pt_clust_9="13000.00000"></scales>
<clustering>
<clus scale="   80.395">  5  6 -1 -1</clus>
<clus scale="   88.002">  7  8 -1 -1</clus>
<clus scale="  204.023">  2  5  1 -1</clus>
<clus scale="  183.718">  7  9 -1 -1</clus>
<clus scale="  453.229">  1  5  2 -1</clus>
</clustering>
</event>
<event>
 9    2  0.2147756E-005  0.2984180E+03  0.7546771E-02  0.1117948E+00
          2   -1    0    0  502    0 -0.00000000000E+00  0.00000000000E+00  0.40348675058E+03  0.40348675058E+03  0.00000000000E+00 0. -1.
         21   -1    0    0  501  502  0.00000000000E+00 -0.00000000000E+00 -0.12214308745E+03  0.12214308745E+03  0.00000000000E+00 0.  1.
         24    2    1    2    0    0 -0.10037094872E+03  0.34963350527E+02  0.15168665182E+03  0.20026196788E+03  0.76152821419E+02 0.  0.
         23    2    1    2    0    0 -0.31027699985E+01  0.76805944040E+02 -0.83735605509E+01  0.11981587079E+03  0.91525658458E+02 0.  0.
        -13    1    3    3    0    0 -0.59194144989E+02  0.18024500452E+02  0.14171399920E+03  0.15463404213E+03  0.00000000000E+00 0.  1.
         14    1    3    3    0    0 -0.41176803729E+02  0.16938850075E+02  0.99726526225E+01  0.45627925742E+02  0.00000000000E+00 0. -1.
        -13    1    4    4    0    0  0.30512417593E+02  0.11512665976E+02 -0.28887200090E+02  0.43566264865E+02  0.00000000000E+00 0.  1.
         13    1    4    4    0    0 -0.33615187591E+02  0.65293278065E+02  0.20513639539E+02  0.76249605929E+02  0.00000000000E+00 0. -1.
          1    1    1    2  501    0  0.10347371872E+03 -0.11176929457E+03  0.13803057186E+03  0.20555199936E+03  0.00000000000E+00 0. -1.
<scales pt_clust_5="13000.00000" pt_clust_6="13000.00000" pt_clust_7="13000.00000" pt_clust_8="13000.00000" pt_clust_9="13000.00000"></scales>
<clustering>
<clus scale="   76.153">  5  6 -1 -1</clus>
<clus scale="   91.526">  7  8 -1 -1</clus>
<clus scale="  130.752">  1  5  2 -1</clus>
<clus scale="   89.746">  7  9 -1 -1</clus>
<clus scale="  298.418">  2  5  1 -1</clus>
</clustering>
</event>
<event>
 9    2  0.2147756E-005  0.2721922E+03  0.7546771E-02  0.1136094E+00
         21   -1    0    0  501  502  0.00000000000E+00  0.00000000000E+00  0.11728683069E+03  0.11728683069E+03  0.00000000000E+00 0. -1.
          2   -1    0    0  502    0 -0.00000000000E+00 -0.00000000000E+00 -0.37860114901E+03  0.37860114901E+03  0.00000000000E+00 0. -1.
         24    2    1    2    0    0 -0.15492457186E+02  0.73616092935E+02 -0.18143627694E+03  0.21221723923E+03  0.80359745301E+02 0.  0.
         23    2    1    2    0    0  0.46249621135E+01 -0.15763046770E+03 -0.28417155246E+02  0.18455091190E+03  0.91557357698E+02 0.  0.
        -11    1    3    3    0    0 -0.68674808372E+01  0.29143217313E+02 -0.15875710300E+03  0.16155589485E+03  0.00000000000E+00 0.  1.
         12    1    3    3    0    0 -0.86249763488E+01  0.44472875623E+02 -0.22679173946E+02  0.50661344376E+02  0.00000000000E+00 0. -1.
        -11    1    4    4    0    0  0.47974731188E+02 -0.90673986591E+02 -0.16426185305E+02  0.10389016431E+03  0.00000000000E+00 0.  1.
         11    1    4    4    0    0 -0.43349769075E+02 -0.66956481109E+02 -0.11990969941E+02  0.80660747588E+02  0.00000000000E+00 0. -1.
          1    1    1    2  501    0  0.10867495073E+02  0.84014374765E+02 -0.51460886126E+02  0.99119828577E+02  0.00000000000E+00 0. -1.
<scales pt_clust_5="13000.00000" pt_clust_6="13000.00000" pt_clust_7="13000.00000" pt_clust_8="13000.00000" pt_clust_9="13000.00000"></scales>
<clustering>
<clus scale="   80.360">  5  6 -1 -1</clus>
<clus scale="   91.557">  7  8 -1 -1</clus>
<clus scale="   84.714">  7  9 -1 -1</clus>
<clus scale="  110.077">  2  5  1 -1</clus>
<clus scale="  272.192">  1  5  2 -1</clus>
</clustering>
</event>
<event>
 9    2  0.2147756E-005  0.2125151E+03  0.7546771E-02  0.1148116E+00
         21   -1    0    0  501  502  0.00000000000E+00  0.00000000000E+00  0.55229464236E+02  0.55229464236E+02  0.00000000000E+00 0. -1.
          2   -1    0    0  502    0 -0.00000000000E+00 -0.00000000000E+00 -0.73325759229E+03  0.73325759229E+03  0.00000000000E+00 0. -1.
         24    2    1    2    0    0 -0.13670124393E+03 -0.70336748892E+02 -0.19544128845E+03  0.26118001896E+03  0.79895035732E+02 0.  0.
         23    2    1    2    0    0  0.95425790298E+02  0.88737774303E+02 -0.30066777527E+03  0.33985889334E+03  0.90124814856E+02 0.  0.
        -13    1    3    3    0    0 -0.64004504176E+02 -0.50223239957E+02 -0.15628803200E+03  0.17619562802E+03  0.00000000000E+00 0.  1.
         14    1    3    3    0    0 -0.72696739750E+02 -0.20113508935E+02 -0.39153256449E+02  0.84984390935E+02  0.00000000000E+00 0. -1.
        -11    1    4    4    0    0 -0.81656080334E+01  0.20594356099E+02 -0.11146810696E+03  0.11364833270E+03  0.00000000000E+00 0.  1.
         11    1    4    4    0    0  0.10359139833E+03  0.68143418205E+02 -0.18919966831E+03  0.22621056063E+03  0.00000000000E+00 0. -1.
          1    1    1    2  501    0  0.41275453629E+02 -0.18401025412E+02 -0.18191906433E+03  0.18744814423E+03  0.00000000000E+00 0. -1.
<scales pt_clust_5="13000.00000" pt_clust_6="13000.00000" pt_clust_7="13000.00000" pt_clust_8="13000.00000" pt_clust_9="13000.00000"></scales>
<clustering>
<clus scale="   79.895">  5  6 -1 -1</clus>
<clus scale="   90.125">  7  8 -1 -1</clus>
<clus scale="   45.191">  7  9 -1 -1</clus>
<clus scale="  173.256">  2  5  1 -1</clus>
<clus scale="  212.515">  1  5  2 -1</clus>
</clustering>
</event>
<event>
 9    2  0.2147756E-005  0.2693910E+03  0.7546771E-02  0.1148614E+00
          4   -1    0    0  502    0 -0.00000000000E+00  0.00000000000E+00  0.17928568705E+03  0.17928568705E+03  0.00000000000E+00 0. -1.
         21   -1    0    0  501  502  0.00000000000E+00 -0.00000000000E+00 -0.17426542145E+03  0.17426542145E+03  0.00000000000E+00 0. -1.
         24    2    1    2    0    0  0.10964609291E+02 -0.73150767917E+01  0.41641490938E+01  0.84158720393E+02  0.83015764016E+02 0.  0.
         23    2    1    2    0    0 -0.10019364577E+03  0.77477115456E+02 -0.77930852717E+01  0.15555328537E+03  0.89970119149E+02 0.  0.
        -11    1    3    3    0    0 -0.30933555738E+02 -0.11086624988E+02  0.20834468011E+02  0.38908523250E+02  0.00000000000E+00 0.  1.
         12    1    3    3    0    0  0.41898165029E+02  0.37715481959E+01 -0.16670318917E+02  0.45250197142E+02  0.00000000000E+00 0. -1.
        -13    1    4    4    0    0 -0.10883519620E+03  0.38595124355E+02 -0.75394647271E+01  0.11572176582E+03  0.00000000000E+00 0. -1.
         13    1    4    4    0    0  0.86415504379E+01  0.38881991101E+02 -0.25362054452E+00  0.39831519546E+02  0.00000000000E+00 0.  1.
          3    1    1    2  501    0  0.89229036475E+02 -0.70162038664E+02  0.86492017792E+01  0.11383910273E+03  0.00000000000E+00 0. -1.
<scales pt_clust_5="13000.00000" pt_clust_6="13000.00000" pt_clust_7="13000.00000" pt_clust_8="13000.00000" pt_clust_9="13000.00000"></scales>
<clustering>
<clus scale="   83.016">  5  6 -1 -1</clus>
<clus scale="   84.056">  1  5  2 -1</clus>
<clus scale="   89.970">  7  8 -1 -1</clus>
<clus scale="  119.467">  7  9 -1 -1</clus>
<clus scale="  269.391">  2  5  1 -1</clus>
</clustering>
</event>
<event>
 9    2  0.2147756E-005  0.1464285E+03  0.7546771E-02  0.1224309E+00
         21   -1    0    0  501  502  0.00000000000E+00  0.00000000000E+00  0.10752302745E+03  0.10752302745E+03  0.00000000000E+00 0. -1.
          2   -1    0    0  502    0 -0.00000000000E+00 -0.00000000000E+00 -0.19167536278E+03  0.19167536278E+03  0.00000000000E+00 0. -1.
         24    2    1    2    0    0  0.11919754329E+02 -0.25551017145E+02 -0.11399755408E+03  0.14975933382E+03  0.92938047690E+02 0.  0.
         23    2    1    2    0    0 -0.37682741066E+02  0.98416940472E+01  0.49920604896E+02  0.11319632683E+03  0.93832263639E+02 0.  0.
        -13    1    3    3    0    0  0.41543685032E+02 -0.28209396994E+01 -0.10258668454E+03  0.11071523523E+03  0.00000000000E+00 0.  1.
         14    1    3    3    0    0 -0.29623930703E+02 -0.22730077446E+02 -0.11410869543E+02  0.39044098591E+02  0.00000000000E+00 0. -1.
        -13    1    4    4    0    0 -0.24400024042E+01  0.47915630635E+02  0.34424985651E+02  0.59050325214E+02  0.00000000000E+00 0.  1.
         13    1    4    4    0    0 -0.35242738662E+02 -0.38073936588E+02  0.15495619246E+02  0.54146001620E+02  0.00000000000E+00 0. -1.
          1    1    1    2  501    0  0.25762986737E+02  0.15709323098E+02 -0.20075386147E+02  0.36242729571E+02  0.00000000000E+00 0. -1.
<scales pt_clust_5="13000.00000" pt_clust_6="13000.00000" pt_clust_7="13000.00000" pt_clust_8="13000.00000" pt_clust_9="13000.00000"></scales>
<clustering>
<clus scale="   92.938">  5  6 -1 -1</clus>
<clus scale="   93.832">  7  8 -1 -1</clus>
<clus scale="   30.175">  7  9 -1 -1</clus>
<clus scale="   97.121">  2  5  1 -1</clus>
<clus scale="  146.428">  1  5  2 -1</clus>
</clustering>
</event>
<event>
 9    2  0.2147756E-005  0.4148959E+03  0.7546771E-02  0.1084412E+00
          2   -1    0    0  502    0 -0.00000000000E+00  0.00000000000E+00  0.87019020428E+02  0.87019020428E+02  0.00000000000E+00 0. -1.
         21   -1    0    0  501  502  0.00000000000E+00 -0.00000000000E+00 -0.15533365943E+04  0.15533365943E+04  0.00000000000E+00 0. -1.
         24    2    1    2    0    0  0.27638611881E+02  0.77316559696E+02  0.53832262471E+00  0.11595251111E+03  0.81871556543E+02 0.  0.
         23    2    1    2    0    0  0.10442002982E+03 -0.19333101291E+03 -0.79221854272E+03  0.82724143133E+03  0.91857188611E+02 0.  0.
        -11    1    3    3    0    0 -0.17642012292E+02  0.60755288972E+02  0.16114059678E+02  0.65284827143E+02  0.00000000000E+00 0.  1.
         12    1    3    3    0    0  0.45280624173E+02  0.16561270725E+02 -0.15575737053E+02  0.50667683964E+02  0.00000000000E+00 0. -1.
        -13    1    4    4    0    0 -0.23841700088E+01 -0.64851514333E+02 -0.31516999625E+03  0.32178180451E+03  0.00000000000E+00 0.  1.
         13    1    4    4    0    0  0.10680419982E+03 -0.12847949858E+03 -0.47704854646E+03  0.50545962681E+03  0.00000000000E+00 0. -1.
          1    1    1    2  501    0 -0.13205864170E+03  0.11601445322E+03 -0.67463735380E+03  0.69716167232E+03  0.00000000000E+00 0. -1.
<scales pt_clust_5="13000.00000" pt_clust_6="13000.00000" pt_clust_7="13000.00000" pt_clust_8="13000.00000" pt_clust_9="13000.00000"></scales>
<clustering>
<clus scale="   81.872">  5  6 -1 -1</clus>
<clus scale="   91.857">  7  8 -1 -1</clus>
<clus scale="  115.951">  1  5  2 -1</clus>
<clus scale="  189.990">  7  9 -1 -1</clus>
<clus scale="  414.896">  2  5  1 -1</clus>
</clustering>
</event>
<event>
 9    2  0.2147756E-005  0.2377593E+03  0.7546771E-02  0.1142667E+00
         -1   -1    0    0    0  501 -0.00000000000E+00  0.00000000000E+00  0.33898799479E+03  0.33898799479E+03  0.00000000000E+00 0.  1.
         21   -1    0    0  501  502  0.00000000000E+00 -0.00000000000E+00 -0.10898498714E+03  0.10898498714E+03  0.00000000000E+00 0.  1.
         24    2    1    2    0    0  0.89590793742E+02 -0.75727904797E+02  0.12377682264E+03  0.18756279283E+03  0.78088882314E+02 0.  0.
         23    2    1    2    0    0  0.28462032781E+02 -0.29955540297E+01  0.45755197664E+02  0.10616819376E+03  0.91428040547E+02 0.  0.
        -11    1    3    3    0    0  0.75485381707E+02 -0.39781657750E+02  0.37823587797E+02  0.93334060978E+02  0.00000000000E+00 0.  1.
         12    1    3    3    0    0  0.14105412035E+02 -0.35946247047E+02  0.85953234845E+02  0.94228731848E+02  0.00000000000E+00 0. -1.
        -11    1    4    4    0    0 -0.30529097788E+02 -0.13911727351E+01  0.34504191117E+02  0.46092302806E+02  0.00000000000E+00 0.  1.
         11    1    4    4    0    0  0.58991130569E+02 -0.16043812946E+01  0.11251006547E+02  0.60075890951E+02  0.00000000000E+00 0. -1.
         -2    1    1    2    0  502 -0.11805282652E+03  0.78723458827E+02  0.60470987340E+02  0.15424199535E+03  0.00000000000E+00 0.  1.
<scales pt_clust_5="13000.00000" pt_clust_6="13000.00000" pt_clust_7="13000.00000" pt_clust_8="13000.00000" pt_clust_9="13000.00000"></scales>
<clustering>
<clus scale="   78.089">  5  6 -1 -1</clus>
<clus scale="   91.428">  7  8 -1 -1</clus>
<clus scale="  140.922">  1  5  2 -1</clus>
<clus scale="   74.048">  7  9 -1 -1</clus>
<clus scale="  237.759">  2  5  1 -1</clus>
</clustering>
</event>
<event>
 9    2  0.2147756E-005  0.3687179E+03  0.7546771E-02  0.1080975E+00
         -1   -1    0    0    0  501 -0.00000000000E+00  0.00000000000E+00  0.14445494346E+03  0.14445494346E+03  0.00000000000E+00 0.  1.
         21   -1    0    0  501  502  0.00000000000E+00 -0.00000000000E+00 -0.52325017630E+03  0.52325017630E+03  0.00000000000E+00 0.  1.
         24    2    1    2    0    0 -0.16027821021E+03  0.23923981196E+02 -0.12517796851E+03  0.22018459883E+03  0.80933752027E+02 0.  0.
         23    2    1    2    0    0 -0.41658271227E+02 -0.14580899605E+02 -0.21783178456E+03  0.24222503567E+03  0.96302997588E+02 0.  0.
        -13    1    3    3    0    0 -0.11433444528E+02 -0.20632565487E+02 -0.59175971797E+01  0.24319629289E+02  0.00000000000E+00 0.  1.
         14    1    3    3    0    0 -0.14884476568E+03  0.44556546684E+02 -0.11926037134E+03  0.19586496954E+03  0.00000000000E+00 0. -1.
        -13    1    4    4    0    0 -0.41654305803E+02  0.17375191065E+02 -0.36348893576E+02  0.57950155484E+02  0.00000000000E+00 0.  1.
         13    1    4    4    0    0 -0.39654241368E-02 -0.31956090670E+02 -0.18148289098E+03  0.18427488018E+03  0.00000000000E+00 0. -1.
         -2    1    1    2    0  502  0.20193648144E+03 -0.93430815909E+01 -0.35785479757E+02  0.20529548526E+03  0.00000000000E+00 0.  1.
<scales pt_clust_5="13000.00000" pt_clust_6="13000.00000" pt_clust_7="13000.00000" pt_clust_8="13000.00000" pt_clust_9="13000.00000"></scales>
<clustering>
<clus scale="   80.934">  5  6 -1 -1</clus>
<clus scale="   96.303">  7  8 -1 -1</clus>
<clus scale="  181.140">  1  5  2 -1</clus>
<clus scale="   62.895">  7  9 -1 -1</clus>
<clus scale="  368.718">  2  5  1 -1</clus>
</clustering>
</event>
<event>
 9    2  0.2147756E-005  0.1533328E+03  0.7546771E-02  0.1224960E+00
         21   -1    0    0  501  502  0.00000000000E+00  0.00000000000E+00  0.21730367337E+02  0.21730367337E+02  0.00000000000E+00 0.  1.
          2   -1    0    0  502    0 -0.00000000000E+00 -0.00000000000E+00 -0.75559234944E+03  0.75559234944E+03  0.00000000000E+00 0. -1.
         24    2    1    2    0    0  0.15556932744E+02 -0.23936059564E+02 -0.13141027916E+03  0.15566444166E+03  0.78407932158E+02 0.  0.
         23    2    1    2    0    0  0.16716849687E+02 -0.22885369192E+02 -0.32917292440E+03  0.34252545005E+03  0.90364133326E+02 0.  0.
        -13    1    3    3    0    0  0.38808654182E+02 -0.26604093274E+02 -0.41437132578E+02  0.62697092234E+02  0.00000000000E+00 0.  1.
         14    1    3    3    0    0 -0.23251721438E+02  0.26680337103E+01 -0.89973146584E+02  0.92967349429E+02  0.00000000000E+00 0. -1.
        -13    1    4    4    0    0 -0.30382435004E+02 -0.34465902792E+02 -0.14756323483E+03  0.15455063599E+03  0.00000000000E+00 0.  1.
         13    1    4    4    0    0  0.47099284691E+02  0.11580533600E+02 -0.18160968956E+03  0.18797481406E+03  0.00000000000E+00 0. -1.
          1    1    1    2  501    0 -0.32273782431E+02  0.46821428756E+02 -0.27327877854E+03  0.27913282506E+03  0.00000000000E+00 0. -1.
<scales pt_clust_5="13000.00000" pt_clust_6="13000.00000" pt_clust_7="13000.00000" pt_clust_8="13000.00000" pt_clust_9="13000.00000"></scales>
<clustering>
<clus scale="   78.408">  5  6 -1 -1</clus>
<clus scale="   83.443">  2  5  1 -1</clus>
<clus scale="   90.364">  7  8 -1 -1</clus>
<clus scale="   43.990">  7  9 -1 -1</clus>
<clus scale="  153.333">  1  5  2 -1</clus>
</clustering>
</event>
<event>
 9    2  0.2147756E-005  0.2653049E+03  0.7546771E-02  0.1134503E+00
         21   -1    0    0  501  502  0.00000000000E+00  0.00000000000E+00  0.75603571922E+02  0.75603571922E+02  0.00000000000E+00 0.  1.
          2   -1    0    0  502    0 -0.00000000000E+00 -0.00000000000E+00 -0.50603637222E+03  0.50603637222E+03  0.00000000000E+00 0. -1.
         24    2    1    2    0    0  0.92690352171E+02 -0.11194120229E+02 -0.10820239685E+03  0.16424431272E+03  0.80942114273E+02 0.  0.
         23    2    1    2    0    0 -0.51521491281E+02 -0.10050877163E+03 -0.20206067047E+03  0.24824133535E+03  0.89659181281E+02 0.  0.
        -13    1    3    3    0    0  0.10481347976E+03 -0.51429161141E+01 -0.10815082197E+03  0.15069477569E+03  0.00000000000E+00 0.  1.
         14    1    3    3    0    0 -0.12123127591E+02 -0.60512041147E+01 -0.51574878417E-01  0.13549537032E+02  0.00000000000E+00 0. -1.
        -11    1    4    4    0    0 -0.65287526384E+01 -0.47959747718E+02 -0.16026983963E+03  0.16741918500E+03  0.00000000000E+00 0. -1.
         11    1    4    4    0    0 -0.44992738642E+02 -0.52549023910E+02 -0.41790830839E+02  0.80822150347E+02  0.00000000000E+00 0.  1.
          1    1    1    2  501    0 -0.41168860890E+02  0.11170289186E+03 -0.12016973298E+03  0.16915429608E+03  0.00000000000E+00 0. -1.
<scales pt_clust_5="13000.00000" pt_clust_6="13000.00000" pt_clust_7="13000.00000" pt_clust_8="13000.00000" pt_clust_9="13000.00000"></scales>
<clustering>
<clus scale="   80.942">  5  6 -1 -1</clus>
<clus scale="   89.659">  7  8 -1 -1</clus>
<clus scale="  119.048">  7  9 -1 -1</clus>
<clus scale="  123.566">  2  5  1 -1</clus>
<clus scale="  265.305">  1  5  2 -1</clus>
</clustering>
</event>
<event>
 9    2  0.2147756E-005  0.6221190E+03  0.7546771E-02  0.1017088E+00
         21   -1    0    0  501  502  0.00000000000E+00  0.00000000000E+00  0.14789230830E+03  0.14789230830E+03  0.00000000000E+00 0. -1.
          4   -1    0    0  502    0 -0.00000000000E+00 -0.00000000000E+00 -0.19960665529E+04  0.19960665529E+04  0.00000000000E+00 0. -1.
         24    2    1    2    0    0  0.11553656357E+03  0.18577082824E+03 -0.12803443930E+04  0.13016627192E+04  0.84761853157E+02 0.  0.
         23    2    1    2    0    0 -0.98282406159E+02  0.12664044632E+03 -0.48465650134E+03  0.51854266076E+03  0.91089696072E+02 0.  0.
        -13    1    3    3    0    0 -0.78907498740E+01  0.50851049046E+02 -0.25503332347E+03  0.26017319078E+03  0.00000000000E+00 0.  1.
         14    1    3    3    0    0  0.12342731344E+03  0.13491977920E+03 -0.10253110695E+04  0.10414895284E+04  0.00000000000E+00 0. -1.
        -13    1    4    4    0    0 -0.11152134867E+03  0.86056999906E+02 -0.39150366307E+03  0.41607443642E+03  0.00000000000E+00 0. -1.
         13    1    4    4    0    0  0.13238942514E+02  0.40583446418E+02 -0.93152838271E+02  0.10246822434E+03  0.00000000000E+00 0.  1.
          3    1    1    2  501    0 -0.17254157412E+02 -0.31241127457E+03 -0.83173350269E+02  0.32375348125E+03  0.00000000000E+00 0. -1.
<scales pt_clust_5="13000.00000" pt_clust_6="13000.00000" pt_clust_7="13000.00000" pt_clust_8="13000.00000" pt_clust_9="13000.00000"></scales>
<clustering>
<clus scale="   84.762">  5  6 -1 -1</clus>
<clus scale="   91.090">  7  8 -1 -1</clus>
<clus scale="  234.615">  2  5  1 -1</clus>
<clus scale="  259.302">  7  9 -1 -1</clus>
<clus scale="  622.119">  1  5  2 -1</clus>
</clustering>
</event>
<event>
 9    2  0.2147756E-005  0.3195376E+03  0.7546771E-02  0.1118544E+00
         21   -1    0    0  501  502  0.00000000000E+00  0.00000000000E+00  0.59714567393E+03  0.59714567393E+03  0.00000000000E+00 0. -1.
          4   -1    0    0  502    0 -0.00000000000E+00 -0.00000000000E+00 -0.75819199983E+02  0.75819199983E+02  0.00000000000E+00 0. -1.
         24    2    1    2    0    0 -0.58608439029E+02 -0.31516632192E+02  0.15042296057E+03  0.18340009031E+03  0.81118917818E+02 0.  0.
         23    2    1    2    0    0  0.46801229531E+02 -0.12206373624E+03  0.23533355168E+03  0.28436840382E+03  0.91616580095E+02 0.  0.
        -13    1    3    3    0    0 -0.51356869885E+02  0.98109768223E+01  0.12196787938E+03  0.13270247530E+03  0.00000000000E+00 0.  1.
         14    1    3    3    0    0 -0.72515691438E+01 -0.41327609014E+02  0.28455081193E+02  0.50697615009E+02  0.00000000000E+00 0. -1.
        -11    1    4    4    0    0 -0.34793206456E+01 -0.10472943053E+03  0.17468097237E+03  0.20370027344E+03  0.00000000000E+00 0. -1.
         11    1    4    4    0    0  0.50280550176E+02 -0.17334305714E+02  0.60652579311E+02  0.80668130372E+02  0.00000000000E+00 0.  1.
          3    1    1    2  501    0  0.11807209498E+02  0.15358036844E+03  0.13556996169E+03  0.20519637978E+03  0.00000000000E+00 0. -1.
<scales pt_clust_5="13000.00000" pt_clust_6="13000.00000" pt_clust_7="13000.00000" pt_clust_8="13000.00000" pt_clust_9="13000.00000"></scales>
<clustering>
<clus scale="   81.119">  5  6 -1 -1</clus>
<clus scale="   91.617">  7  8 -1 -1</clus>
<clus scale="  104.922">  2  5  1 -1</clus>
<clus scale="  136.962">  7  9 -1 -1</clus>
<clus scale="  319.538">  1  5  2 -1</clus>
</clustering>
</event>
<event>
 9    2  0.2147756E-005  0.1703673E+03  0.7546771E-02  0.1187167E+00
          2   -1    0    0  502    0 -0.00000000000E+00  0.00000000000E+00  0.45813046407E+03  0.45813046407E+03  0.00000000000E+00 0. -1.
         21   -1    0    0  501  502  0.00000000000E+00 -0.00000000000E+00 -0.52642482766E+02  0.52642482766E+02  0.00000000000E+00 0.  1.
         24    2    1    2    0    0 -0.96508504702E+02 -0.55077157480E+02  0.14534135406E+03  0.19980463650E+03  0.80314374883E+02 0.  0.
         23    2    1    2    0    0  0.88839499304E+02  0.35508402778E+02  0.15071457032E+03  0.19953615659E+03  0.89143102797E+02 0.  0.
        -13    1    3    3    0    0 -0.51972554914E+02 -0.36894414935E+02  0.22019994134E+02  0.67433111001E+02  0.00000000000E+00 0.  1.
         14    1    3    3    0    0 -0.44535949788E+02 -0.18182742545E+02  0.12332135993E+03  0.13237152550E+03  0.00000000000E+00 0. -1.
        -13    1    4    4    0    0 -0.12492689639E+02  0.26125139445E+02  0.31311893830E+02  0.42650028143E+02  0.00000000000E+00 0.  1.
         13    1    4    4    0    0  0.10133218894E+03  0.93832633338E+01  0.11940267649E+03  0.15688612845E+03  0.00000000000E+00 0. -1.
          1    1    1    2  501    0  0.76690053977E+01  0.19568754702E+02  0.10943205693E+03  0.11143215375E+03  0.00000000000E+00 0. -1.
<scales pt_clust_5="13000.00000" pt_clust_6="13000.00000" pt_clust_7="13000.00000" pt_clust_8="13000.00000" pt_clust_9="13000.00000"></scales>
<clustering>
<clus scale="   80.314">  5  6 -1 -1</clus>
<clus scale="   89.143">  7  8 -1 -1</clus>
<clus scale="   21.018">  7  9 -1 -1</clus>
<clus scale="  137.105">  1  5  2 -1</clus>
<clus scale="  170.367">  2  5  1 -1</clus>
</clustering>
</event>
<event>
 9    2  0.3457525E-005  0.6943068E+03  0.7546771E-02  0.1017974E+00
         21   -1    0    0  501  502  0.00000000000E+00  0.00000000000E+00  0.12043477450E+03  0.12043477450E+03  0.00000000000E+00 0.  1.
          2   -1    0    0  502    0 -0.00000000000E+00 -0.00000000000E+00 -0.19034396848E+04  0.19034396848E+04  0.00000000000E+00 0. -1.
         24    2    1    2    0    0 -0.98074256072E+02  0.10316992530E+03 -0.75904650017E+02  0.18098181760E+03  0.82038461808E+02 0.  0.
         23    2    1    2    0    0 -0.16783245807E+03  0.11788164152E+03 -0.21611738729E+03  0.31233715321E+03  0.93722765642E+02 0.  0.
        -13    1    3    3    0    0 -0.53989778313E+02  0.44373159540E+02  0.69536910133E+01  0.70229817517E+02  0.00000000000E+00 0.  1.
         14    1    3    3    0    0 -0.44084477759E+02  0.58796765758E+02 -0.82858341031E+02  0.11075200008E+03  0.00000000000E+00 0. -1.
        -13    1    4    4    0    0 -0.13086256619E+03  0.12244683944E+03 -0.20735464629E+03  0.27406967920E+03  0.00000000000E+00 0.  1.
         13    1    4    4    0    0 -0.36969891881E+02 -0.45651979150E+01 -0.87627409972E+01  0.38267474014E+02  0.00000000000E+00 0. -1.
          1    1    1    2  501    0  0.26590671414E+03 -0.22105156682E+03 -0.14909828730E+04  0.15305554885E+04  0.00000000000E+00 0. -1.
<scales pt_clust_5="13000.00000" pt_clust_6="13000.00000" pt_clust_7="13000.00000" pt_clust_8="13000.00000" pt_clust_9="13000.00000"></scales>
<clustering>
<clus scale="   82.038">  5  6 -1 -1</clus>
<clus scale="   93.723">  7  8 -1 -1</clus>
<clus scale="  164.295">  2  5  1 -1</clus>
<clus scale="  225.908">  7  9 -1 -1</clus>
<clus scale="  694.307">  1  5  2 -1</clus>
</clustering>
</event>
<event>
 9    2  0.2147756E-005  0.2010381E+03  0.7546771E-02  0.1179629E+00
         21   -1    0    0  501  502  0.00000000000E+00  0.00000000000E+00  0.46749959252E+02  0.46749959252E+02  0.00000000000E+00 0.  1.
          2   -1    0    0  502    0 -0.00000000000E+00 -0.00000000000E+00 -0.48060439288E+03  0.48060439288E+03  0.00000000000E+00 0. -1.
         24    2    1    2    0    0  0.14621205464E+02 -0.55184898710E+02 -0.14310420881E+03  0.17386882984E+03  0.80575447356E+02 0.  0.
         23    2    1    2    0    0  0.60762597937E+02  0.13875169691E+02 -0.13569708470E+03  0.17619850136E+03  0.93528602288E+02 0.  0.
        -13    1    3    3    0    0 -0.71839308021E+01  0.19401777122E+02 -0.24394773764E+02  0.31986603512E+02  0.00000000000E+00 0.  1.
         14    1    3    3    0    0  0.21805136267E+02 -0.74586675832E+02 -0.11870943505E+03  0.14188222633E+03  0.00000000000E+00 0. -1.
        -11    1    4    4    0    0  0.38697056264E+02  0.53639265036E+02 -0.90396127365E+02  0.11200934229E+03  0.00000000000E+00 0.  1.
         11    1    4    4    0    0  0.22065541673E+02 -0.39764095344E+02 -0.45300957332E+02  0.64189159077E+02  0.00000000000E+00 0. -1.
          1    1    1    2  501    0 -0.75383803401E+02  0.41309729019E+02 -0.15505314012E+03  0.17728702092E+03  0.00000000000E+00 0. -1.
<scales pt_clust_5="13000.00000" pt_clust_6="13000.00000" pt_clust_7="13000.00000" pt_clust_8="13000.00000" pt_clust_9="13000.00000"></scales>
<clustering>
<clus scale="   80.575">  5  6 -1 -1</clus>
<clus scale="   93.529">  7  8 -1 -1</clus>
<clus scale="   85.961">  7  9 -1 -1</clus>
<clus scale="   98.750">  2  5  1 -1</clus>
<clus scale="  201.038">  1  5  2 -1</clus>
</clustering>
</event>
<event>
 9    2  0.2147756E-005  0.2349660E+03  0.7546771E-02  0.1165266E+00
          2   -1    0    0  502    0 -0.00000000000E+00  0.00000000000E+00  0.99688971919E+03  0.99688971919E+03  0.00000000000E+00 0. -1.
         21   -1    0    0  501  502  0.00000000000E+00 -0.00000000000E+00 -0.29652577673E+02  0.29652577673E+02  0.00000000000E+00 0.  1.
         24    2    1    2    0    0 -0.77316716734E+01  0.19727767541E+02  0.12124720875E+03  0.14852863565E+03  0.83131861630E+02 0.  0.
         23    2    1    2    0    0  0.63233800859E+02  0.48603331071E+02  0.28090287335E+03  0.30611068859E+03  0.91850596350E+02 0.  0.
        -11    1    3    3    0    0 -0.39608858599E+02 -0.57175560106E+01  0.35172304826E+02  0.53278918467E+02  0.00000000000E+00 0.  1.
         12    1    3    3    0    0  0.31877186926E+02  0.25445323552E+02  0.86074903928E+02  0.95249717182E+02  0.00000000000E+00 0. -1.
        -13    1    4    4    0    0  0.35679988674E+02  0.42776144871E+02  0.27036002212E+03  0.27603876852E+03  0.00000000000E+00 0.  1.
         13    1    4    4    0    0  0.27553812185E+02  0.58271861997E+01  0.10542851230E+02  0.30071920075E+02  0.00000000000E+00 0. -1.
          1    1    1    2  501    0 -0.55502129186E+02 -0.68331098612E+02  0.56508705941E+03  0.57190297262E+03  0.00000000000E+00 0. -1.
<scales pt_clust_5="13000.00000" pt_clust_6="13000.00000" pt_clust_7="13000.00000" pt_clust_8="13000.00000" pt_clust_9="13000.00000"></scales>
<clustering>
<clus scale="   83.132">  5  6 -1 -1</clus>
<clus scale="   85.790">  1  5  2 -1</clus>
<clus scale="   91.851">  7  8 -1 -1</clus>
<clus scale="   82.054">  7  9 -1 -1</clus>
<clus scale="  234.966">  2  5  1 -1</clus>
</clustering>
</event>
<event>
 9    2  0.2147756E-005  0.2093031E+03  0.7546771E-02  0.1171242E+00
         -3   -1    0    0    0  501 -0.00000000000E+00  0.00000000000E+00  0.42615248925E+03  0.42615248925E+03  0.00000000000E+00 0.  1.
         21   -1    0    0  501  502  0.00000000000E+00 -0.00000000000E+00 -0.60334754563E+02  0.60334754563E+02  0.00000000000E+00 0. -1.
         24    2    1    2    0    0  0.26249054030E+02 -0.63343007807E+02  0.82177511576E+02  0.13398253830E+03  0.80602901212E+02 0.  0.
         23    2    1    2    0    0  0.56306243659E+02  0.55462816566E+02  0.12686663223E+03  0.17514790866E+03  0.91296935551E+02 0.  0.
        -11    1    3    3    0    0  0.20536472316E+02  0.14206429372E+02  0.72611587584E+01  0.26005648564E+02  0.00000000000E+00 0.  1.
         12    1    3    3    0    0  0.57125817141E+01 -0.77549437179E+02  0.74916352817E+02  0.10797688973E+03  0.00000000000E+00 0. -1.
        -13    1    4    4    0    0 -0.12908869487E+02 -0.16033309820E+02  0.29115963473E+02  0.35657331142E+02  0.00000000000E+00 0.  1.
         13    1    4    4    0    0  0.69215113146E+02  0.71496126386E+02  0.97750668752E+02  0.13949057752E+03  0.00000000000E+00 0. -1.
         -4    1    1    2    0  502 -0.82555297689E+02  0.78801912416E+01  0.15677359088E+03  0.17735679685E+03  0.00000000000E+00 0.  1.
<scales pt_clust_5="13000.00000" pt_clust_6="13000.00000" pt_clust_7="13000.00000" pt_clust_8="13000.00000" pt_clust_9="13000.00000"></scales>
<clustering>
<clus scale="   80.603">  5  6 -1 -1</clus>
<clus scale="   91.297">  7  8 -1 -1</clus>
<clus scale="   82.931">  7  9 -1 -1</clus>
<clus scale="  105.821">  1  5  2 -1</clus>
<clus scale="  209.303">  2  5  1 -1</clus>
</clustering>
</event>
<event>
 9    2  0.2147756E-005  0.4343343E+03  0.7546771E-02  0.1044995E+00
         21   -1    0    0  501  502  0.00000000000E+00  0.00000000000E+00  0.16360447852E+03  0.16360447852E+03  0.00000000000E+00 0.  1.
          2   -1    0    0  502    0 -0.00000000000E+00 -0.00000000000E+00 -0.83243853666E+03  0.83243853666E+03  0.00000000000E+00 0. -1.
         24    2    1    2    0    0  0.12913570644E+02 -0.29041345253E+03 -0.23782827071E+03  0.38415064170E+03  0.80639292259E+02 0.  0.
         23    2    1    2    0    0  0.31453024100E+02 -0.23897643850E+02 -0.38235997970E+02  0.10688943532E+03  0.91667713702E+02 0.  0.
        -13    1    3    3    0    0  0.25992871379E+02 -0.24145421067E+03 -0.22680491940E+03  0.33228938694E+03  0.00000000000E+00 0.  1.
         14    1    3    3    0    0 -0.13079300734E+02 -0.48959241861E+02 -0.11023351314E+02  0.51861254762E+02  0.00000000000E+00 0. -1.
        -11    1    4    4    0    0 -0.24993171761E+02 -0.31940650081E+02 -0.27149293035E+02  0.48805203356E+02  0.00000000000E+00 0.  1.
         11    1    4    4    0    0  0.56446195861E+02  0.80430062306E+01 -0.11086704934E+02  0.58084231963E+02  0.00000000000E+00 0. -1.
          1    1    1    2  501    0 -0.44366594744E+02  0.31431109638E+03 -0.39276978946E+03  0.50500293816E+03  0.00000000000E+00 0. -1.
<scales pt_clust_5="13000.00000" pt_clust_6="13000.00000" pt_clust_7="13000.00000" pt_clust_8="13000.00000" pt_clust_9="13000.00000"></scales>
<clustering>
<clus scale="   80.639">  5  6 -1 -1</clus>
<clus scale="   91.668">  7  8 -1 -1</clus>
<clus scale="  301.678">  2  5  1 -1</clus>
<clus scale="   72.397">  7  9 -1 -1</clus>
<clus scale="  434.334">  1  5  2 -1</clus>
</clustering>
</event>
<event>
 9    2  0.2147756E-005  0.3114351E+03  0.7546771E-02  0.1112863E+00
         21   -1    0    0  501  502  0.00000000000E+00  0.00000000000E+00  0.19122182697E+03  0.19122182697E+03  0.00000000000E+00 0.  1.
          2   -1    0    0  502    0 -0.00000000000E+00 -0.00000000000E+00 -0.29356763370E+03  0.29356763370E+03  0.00000000000E+00 0. -1.
         24    2    1    2    0    0 -0.57937798672E+02 -0.88656565159E+02  0.47563178616E+02  0.13915304668E+03  0.76710751396E+02 0.  0.
         23    2    1    2    0    0 -0.31530724259E+02 -0.11712829167E+02  0.45625536412E+02  0.10833411499E+03  0.92321254095E+02 0.  0.
        -11    1    3    3    0    0  0.14649773577E+02 -0.34910001271E+02  0.27059268436E+02  0.46535234639E+02  0.00000000000E+00 0.  1.
         12    1    3    3    0    0 -0.72587572249E+02 -0.53746563888E+02  0.20503910180E+02  0.92617812042E+02  0.00000000000E+00 0. -1.
        -11    1    4    4    0    0 -0.16368083026E+02 -0.46790108148E+02  0.99741316997E+00  0.49580471917E+02  0.00000000000E+00 0.  1.
         11    1    4    4    0    0 -0.15162641233E+02  0.35077278981E+02  0.44628123242E+02  0.58753643070E+02  0.00000000000E+00 0. -1.
          1    1    1    2  501    0  0.89468522931E+02  0.10036939433E+03 -0.19553452176E+03  0.23730229900E+03  0.00000000000E+00 0. -1.
<scales pt_clust_5="13000.00000" pt_clust_6="13000.00000" pt_clust_7="13000.00000" pt_clust_8="13000.00000" pt_clust_9="13000.00000"></scales>
<clustering>
<clus scale="   76.711">  5  6 -1 -1</clus>
<clus scale="   92.321">  7  8 -1 -1</clus>
<clus scale="  130.772">  2  5  1 -1</clus>
<clus scale="   45.124">  7  9 -1 -1</clus>
<clus scale="  311.435">  1  5  2 -1</clus>
</clustering>
</event>
<event>
 9    2  0.2147756E-005  0.2864103E+03  0.7546771E-02  0.1105689E+00
          2   -1    0    0  502    0 -0.00000000000E+00  0.00000000000E+00  0.46813614223E+03  0.46813614223E+03  0.00000000000E+00 0. -1.
         21   -1    0    0  501  502  0.00000000000E+00 -0.00000000000E+00 -0.12828727669E+03  0.12828727669E+03  0.00000000000E+00 0. -1.
         24    2    1    2    0    0  0.18538795860E+03 -0.38509228782E+01  0.11542178800E+03  0.23255756976E+03  0.79858057221E+02 0.  0.
         23    2    1    2    0    0 -0.97756193273E+02  0.42940159668E+02  0.23753675935E+02  0.14143134455E+03  0.89657445122E+02 0.  0.
        -11    1    3    3    0    0  0.26803621432E+02 -0.30795456992E+02  0.19176085651E+02  0.45105615550E+02  0.00000000000E+00 0.  1.
         12    1    3    3    0    0  0.15858433717E+03  0.26944534114E+02  0.96245702351E+02  0.18745195421E+03  0.00000000000E+00 0. -1.
        -13    1    4    4    0    0 -0.81909015113E+02  0.90821239567E+01 -0.19067547773E+02  0.84588079008E+02  0.00000000000E+00 0. -1.
         13    1    4    4    0    0 -0.15847178161E+02  0.33858035712E+02  0.42821223708E+02  0.56843265544E+02  0.00000000000E+00 0.  1.
          1    1    1    2  501    0 -0.87631765330E+02 -0.39089236790E+02  0.20067340161E+03  0.22243450461E+03  0.00000000000E+00 0. -1.
<scales pt_clust_5="13000.00000" pt_clust_6="13000.00000" pt_clust_7="13000.00000" pt_clust_8="13000.00000" pt_clust_9="13000.00000"></scales>
<clustering>
<clus scale="   79.858">  5  6 -1 -1</clus>
<clus scale="   89.657">  7  8 -1 -1</clus>
<clus scale="   95.955">  7  9 -1 -1</clus>
<clus scale="  201.893">  1  5  2 -1</clus>
<clus scale="  286.410">  2  5  1 -1</clus>
</clustering>
</event>
<event>
 9    2  0.2147756E-005  0.3098165E+03  0.7546771E-02  0.1127885E+00
          2   -1    0    0  502    0 -0.00000000000E+00  0.00000000000E+00  0.12573656629E+03  0.12573656629E+03  0.00000000000E+00 0. -1.
         21   -1    0    0  501  502  0.00000000000E+00 -0.00000000000E+00 -0.67215722172E+03  0.67215722172E+03  0.00000000000E+00 0. -1.
         24    2    1    2    0    0  0.23845262652E+02  0.27415753087E+02  0.65286322957E+02  0.11220313089E+03  0.83707935991E+02 0.  0.
         23    2    1    2    0    0 -0.82924555093E+02  0.10284505732E+03 -0.23190234656E+03  0.27984610575E+03  0.84151986960E+02 0.  0.
        -13    1    3    3    0    0  0.52220998704E+02  0.63121789253E+00  0.38122234712E+02  0.64658610572E+02  0.00000000000E+00 0.  1.
         14    1    3    3    0    0 -0.28375736052E+02  0.26784535195E+02  0.27164088245E+02  0.47544520318E+02  0.00000000000E+00 0. -1.
        -11    1    4    4    0    0 -0.60794419542E+02  0.11069212197E+02 -0.81664009837E+02  0.10240849286E+03  0.00000000000E+00 0.  1.
         11    1    4    4    0    0 -0.22130135551E+02  0.91775845124E+02 -0.15023833673E+03  0.17743761290E+03  0.00000000000E+00 0. -1.
          1    1    1    2  501    0  0.59079292441E+02 -0.13026081041E+03 -0.37980463182E+03  0.40584455137E+03  0.00000000000E+00 0. -1.
<scales pt_clust_5="13000.00000" pt_clust_6="13000.00000" pt_clust_7="13000.00000" pt_clust_8="13000.00000" pt_clust_9="13000.00000"></scales>
<clustering>
<clus scale="   83.708">  5  6 -1 -1</clus>
<clus scale="   84.152">  7  8 -1 -1</clus>
<clus scale="   91.254">  1  5  2 -1</clus>
<clus scale="  138.201">  7  9 -1 -1</clus>
<clus scale="  309.816">  2  5  1 -1</clus>
</clustering>
</event>
<event>
 9    2  0.2147756E-005  0.1936278E+03  0.7546771E-02  0.1189292E+00
         21   -1    0    0  501  502  0.00000000000E+00  0.00000000000E+00  0.12928629499E+03  0.12928629499E+03  0.00000000000E+00 0. -1.
          2   -1    0    0  502    0 -0.00000000000E+00 -0.00000000000E+00 -0.20379922239E+03  0.20379922239E+03  0.00000000000E+00 0. -1.
         24    2    1    2    0    0  0.85383014771E+01 -0.38970672675E+02 -0.10430791116E+03  0.13717877879E+03  0.79663423849E+02 0.  0.
         23    2    1    2    0    0 -0.39916945238E+02 -0.14479691503E+02  0.69392284050E+02  0.12235738846E+03  0.91394843627E+02 0.  0.
        -13    1    3    3    0    0  0.52687480236E+01 -0.44824690442E+02 -0.11557081509E+03  0.12407105173E+03  0.00000000000E+00 0.  1.
         14    1    3    3    0    0  0.32695534535E+01  0.58540177676E+01  0.11262903924E+02  0.13107727058E+02  0.00000000000E+00 0. -1.
        -13    1    4    4    0    0 -0.21995263519E+02  0.21861700404E+02 -0.10529580872E+02  0.32750536410E+02  0.00000000000E+00 0.  1.
         13    1    4    4    0    0 -0.17921681719E+02 -0.36341391907E+02  0.79921864922E+02  0.89606852048E+02  0.00000000000E+00 0. -1.
          1    1    1    2  501    0  0.31378643761E+02  0.53450364178E+02 -0.39597300286E+02  0.73549350132E+02  0.00000000000E+00 0. -1.
<scales pt_clust_5="13000.00000" pt_clust_6="13000.00000" pt_clust_7="13000.00000" pt_clust_8="13000.00000" pt_clust_9="13000.00000"></scales>
<clustering>
<clus scale="   79.663">  5  6 -1 -1</clus>
<clus scale="   89.095">  2  5  1 -1</clus>
<clus scale="   91.395">  7  8 -1 -1</clus>
<clus scale="   45.906">  7  9 -1 -1</clus>
<clus scale="  193.628">  1  5  2 -1</clus>
</clustering>
</event>
<event>
 9    2  0.2147756E-005  0.1920697E+03  0.7546771E-02  0.1178941E+00
         21   -1    0    0  501  502  0.00000000000E+00  0.00000000000E+00  0.76843144482E+02  0.76843144482E+02  0.00000000000E+00 0.  1.
          2   -1    0    0  502    0 -0.00000000000E+00 -0.00000000000E+00 -0.38379919035E+03  0.38379919035E+03  0.00000000000E+00 0. -1.
         24    2    1    2    0    0 -0.41368503637E+02 -0.71762508817E+02 -0.22323807309E+03  0.25112036677E+03  0.79780890976E+02 0.  0.
         23    2    1    2    0    0 -0.14751593052E+02  0.92451568972E+02 -0.67465245984E+02  0.14754089360E+03  0.91933964164E+02 0.  0.
        -13    1    3    3    0    0  0.13534346143E+02 -0.43215799616E+02 -0.51525001286E+02  0.68597446159E+02  0.00000000000E+00 0.  1.
         14    1    3    3    0    0 -0.54902849780E+02 -0.28546709201E+02 -0.17171307181E+03  0.18252292062E+03  0.00000000000E+00 0. -1.
        -11    1    4    4    0    0  0.13771580372E+02  0.97799414884E+02 -0.37004044637E+02  0.10546886411E+03  0.00000000000E+00 0.  1.
         11    1    4    4    0    0 -0.28523173424E+02 -0.53478459125E+01 -0.30461201347E+02  0.42072029492E+02  0.00000000000E+00 0. -1.
          1    1    1    2  501    0  0.56120096689E+02 -0.20689060155E+02 -0.16252726789E+02  0.61981074454E+02  0.00000000000E+00 0. -1.
<scales pt_clust_5="13000.00000" pt_clust_6="13000.00000" pt_clust_7="13000.00000" pt_clust_8="13000.00000" pt_clust_9="13000.00000"></scales>
<clustering>
<clus scale="   79.781">  5  6 -1 -1</clus>
<clus scale="   91.934">  7  8 -1 -1</clus>
<clus scale="   59.812">  7  9 -1 -1</clus>
<clus scale="  115.005">  2  5  1 -1</clus>
<clus scale="  192.070">  1  5  2 -1</clus>
</clustering>
</event>
<event>
 9    2  0.2147756E-005  0.6601285E+03  0.7546771E-02  0.1043751E+00
          2   -1    0    0  502    0 -0.00000000000E+00  0.00000000000E+00  0.64644374282E+03  0.64644374282E+03  0.00000000000E+00 0. -1.
         21   -1    0    0  501  502  0.00000000000E+00 -0.00000000000E+00 -0.92362428295E+03  0.92362428295E+03  0.00000000000E+00 0.  1.
         24    2    1    2    0    0  0.31069073690E+02 -0.24458689021E+02  0.52425517806E+03  0.53176706894E+03  0.79807324679E+02 0.  0.
         23    2    1    2    0    0  0.41700607251E+02 -0.19158720553E+03 -0.77974427646E+03  0.80929926762E+03  0.92301516414E+02 0.  0.
        -11    1    3    3    0    0 -0.80112062492E+00  0.20879684484E+02  0.48695946785E+02  0.52989605129E+02  0.00000000000E+00 0.  1.
         12    1    3    3    0    0  0.31870194315E+02 -0.45338373505E+02  0.47555923128E+03  0.47877746381E+03  0.00000000000E+00 0. -1.
        -11    1    4    4    0    0  0.41632385629E+02 -0.35720636113E+02 -0.12958879693E+03  0.14072126942E+03  0.00000000000E+00 0. -1.
         11    1    4    4    0    0  0.68221621787E-01 -0.15586656942E+03 -0.65015547952E+03  0.66857799819E+03  0.00000000000E+00 0.  1.
          1    1    1    2  501    0 -0.72769680941E+02  0.21604589455E+03 -0.21691441742E+02  0.22900168921E+03  0.00000000000E+00 0. -1.
<scales pt_clust_5="13000.00000" pt_clust_6="13000.00000" pt_clust_7="13000.00000" pt_clust_8="13000.00000" pt_clust_9="13000.00000"></scales>
<clustering>
<clus scale="   79.807">  5  6 -1 -1</clus>
<clus scale="   89.066">  1  5  2 -1</clus>
<clus scale="   92.302">  7  8 -1 -1</clus>
<clus scale="  199.904">  7  9 -1 -1</clus>
<clus scale="  660.129">  2  5  1 -1</clus>
</clustering>
</event>
<event>
 9    2  0.2147756E-005  0.6834396E+03  0.7546771E-02  0.1039938E+00
          4   -1    0    0  502    0 -0.00000000000E+00  0.00000000000E+00  0.49751287965E+03  0.49751287965E+03  0.00000000000E+00 0. -1.
         21   -1    0    0  501  502  0.00000000000E+00 -0.00000000000E+00 -0.30526088355E+03  0.30526088355E+03  0.00000000000E+00 0. -1.
         24    2    1    2    0    0  0.33217044466E+02  0.21929747678E+02  0.56566758135E+02  0.10599529864E+03  0.80317615322E+02 0.  0.
         23    2    1    2    0    0 -0.43404560124E+02 -0.30243740308E+03 -0.98650579520E+02  0.33112616309E+03  0.80995434581E+02 0.  0.
        -13    1    3    3    0    0 -0.21088711449E+02  0.17502958716E+02 -0.68541510184E-01  0.27406057949E+02  0.00000000000E+00 0.  1.
         14    1    3    3    0    0  0.54305755915E+02  0.44267889620E+01  0.56635299645E+02  0.78589240687E+02  0.00000000000E+00 0. -1.
        -13    1    4    4    0    0  0.10974615018E+02 -0.26344543642E+02  0.88720058131E+01  0.29886278485E+02  0.00000000000E+00 0.  1.
         13    1    4    4    0    0 -0.54379175142E+02 -0.27609285944E+03 -0.10752258533E+03  0.30123988461E+03  0.00000000000E+00 0. -1.
          3    1    1    2  501    0  0.10187515659E+02  0.28050765540E+03  0.23433581748E+03  0.36565230147E+03  0.00000000000E+00 0. -1.
<scales pt_clust_5="13000.00000" pt_clust_6="13000.00000" pt_clust_7="13000.00000" pt_clust_8="13000.00000" pt_clust_9="13000.00000"></scales>
<clustering>
<clus scale="   80.318">  5  6 -1 -1</clus>
<clus scale="   80.995">  7  8 -1 -1</clus>
<clus scale="   89.639">  1  5  2 -1</clus>
<clus scale="  298.272">  7  9 -1 -1</clus>
<clus scale="  683.440">  2  5  1 -1</clus>
</clustering>
</event>
<event>
 9    2  0.2147756E-005  0.3882513E+03  0.7546771E-02  0.1059288E+00
         21   -1    0    0  501  502  0.00000000000E+00  0.00000000000E+00  0.93519804024E+02  0.93519804024E+02  0.00000000000E+00 0. -1.
          2   -1    0    0  502    0 -0.00000000000E+00 -0.00000000000E+00 -0.12963803957E+04  0.12963803957E+04  0.00000000000E+00 0. -1.
         24    2    1    2    0    0  0.26150057351E+03 -0.68609392165E+02 -0.32418815936E+03  0.42927315981E+03  0.78023614513E+02 0.  0.
         23    2    1    2    0    0 -0.66793042151E+02  0.21889955259E+02 -0.86744484135E+02  0.14377723508E+03  0.90591429940E+02 0.  0.
        -11    1    3    3    0    0  0.23475459696E+02 -0.32146984830E+02 -0.35472724301E+02  0.53318289648E+02  0.00000000000E+00 0.  1.
         12    1    3    3    0    0  0.23802511381E+03 -0.36462407335E+02 -0.28871543506E+03  0.37595487016E+03  0.00000000000E+00 0. -1.
        -13    1    4    4    0    0 -0.86855451041E+02  0.24032779363E+02 -0.53251614896E+02  0.10467654154E+03  0.00000000000E+00 0. -1.
         13    1    4    4    0    0  0.20062408890E+02 -0.21428241041E+01 -0.33492869239E+02  0.39100693542E+02  0.00000000000E+00 0.  1.
          1    1    1    2  501    0 -0.19470753136E+03  0.46719436907E+02 -0.79192794816E+03  0.81684980482E+03  0.00000000000E+00 0. -1.
<scales pt_clust_5="13000.00000" pt_clust_6="13000.00000" pt_clust_7="13000.00000" pt_clust_8="13000.00000" pt_clust_9="13000.00000"></scales>
<clustering>
<clus scale="   78.024">  5  6 -1 -1</clus>
<clus scale="   90.591">  7  8 -1 -1</clus>
<clus scale="  200.234">  7  9 -1 -1</clus>
<clus scale="  281.385">  2  5  1 -1</clus>
<clus scale="  388.251">  1  5  2 -1</clus>
</clustering>
</event>
<event>
 9    2  0.2147756E-005  0.3024390E+03  0.7546771E-02  0.1111880E+00
          2   -1    0    0  502    0 -0.00000000000E+00  0.00000000000E+00  0.94494165487E+03  0.94494165487E+03  0.00000000000E+00 0. -1.
         21   -1    0    0  501  502  0.00000000000E+00 -0.00000000000E+00 -0.20851050604E+03  0.20851050604E+03  0.00000000000E+00 0. -1.
         24    2    1    2    0    0  0.10444415737E+03  0.61123564730E+02  0.82533384779E+03  0.83821722400E+03  0.82386176821E+02 0.  0.
         23    2    1    2    0    0 -0.70431209580E+01 -0.14122166732E+02  0.75347239833E+02  0.11857752999E+03  0.90190813957E+02 0.  0.
        -11    1    3    3    0    0  0.27418795098E+02  0.32423754147E+02  0.10579572657E+03  0.11399923648E+03  0.00000000000E+00 0.  1.
         12    1    3    3    0    0  0.77025362270E+02  0.28699810583E+02  0.71953812122E+03  0.72421798752E+03  0.00000000000E+00 0. -1.
        -13    1    4    4    0    0 -0.27054168481E+02 -0.42856255798E+02  0.64275836507E+02  0.81853343559E+02  0.00000000000E+00 0.  1.
         13    1    4    4    0    0  0.20011047523E+02  0.28734089066E+02  0.11071403326E+02  0.36724186431E+02  0.00000000000E+00 0. -1.
          1    1    1    2  501    0 -0.97401036410E+02 -0.47001397998E+02 -0.16424993879E+03  0.19665740693E+03  0.00000000000E+00 0. -1.
<scales pt_clust_5="13000.00000" pt_clust_6="13000.00000" pt_clust_7="13000.00000" pt_clust_8="13000.00000" pt_clust_9="13000.00000"></scales>
<clustering>
<clus scale="   82.386">  5  6 -1 -1</clus>
<clus scale="   90.191">  7  8 -1 -1</clus>
<clus scale="  108.149">  7  9 -1 -1</clus>
<clus scale="  146.397">  1  5  2 -1</clus>
<clus scale="  302.439">  2  5  1 -1</clus>
</clustering>
</event>
<event>
 9    2  0.2147756E-005  0.4479140E+03  0.7546771E-02  0.1088706E+00
         21   -1    0    0  501  502  0.00000000000E+00  0.00000000000E+00  0.88496120819E+02  0.88496120819E+02  0.00000000000E+00 0.  1.
          2   -1    0    0  502    0 -0.00000000000E+00 -0.00000000000E+00 -0.85848915259E+03  0.85848915259E+03  0.00000000000E+00 0. -1.
         24    2    1    2    0    0 -0.11061855929E+02  0.13117654754E+02 -0.42197304015E+02  0.92401416239E+02  0.80392609946E+02 0.  0.
         23    2    1    2    0    0  0.80089894256E+02  0.17725495089E+03 -0.21699743460E+03  0.30511002217E+03  0.90390985338E+02 0.  0.
        -13    1    3    3    0    0  0.20015857430E+02 -0.25610460823E+02 -0.15230365637E+02  0.35895602651E+02  0.00000000000E+00 0.  1.
         14    1    3    3    0    0 -0.31077713358E+02  0.38728115578E+02 -0.26966938378E+02  0.56505813588E+02  0.00000000000E+00 0. -1.
        -11    1    4    4    0    0  0.90401797630E+02  0.93768453727E+02 -0.13670445950E+03  0.18882033041E+03  0.00000000000E+00 0.  1.
         11    1    4    4    0    0 -0.10311903374E+02  0.83486497165E+02 -0.80292975100E+02  0.11628969176E+03  0.00000000000E+00 0. -1.
          1    1    1    2  501    0 -0.69028038328E+02 -0.19037260565E+03 -0.51079829316E+03  0.54947383500E+03  0.00000000000E+00 0. -1.
<scales pt_clust_5="13000.00000" pt_clust_6="13000.00000" pt_clust_7="13000.00000" pt_clust_8="13000.00000" pt_clust_9="13000.00000"></scales>
<clustering>
<clus scale="   80.393">  5  6 -1 -1</clus>
<clus scale="   82.204">  2  5  1 -1</clus>
<clus scale="   90.391">  7  8 -1 -1</clus>
<clus scale="  197.017">  7  9 -1 -1</clus>
<clus scale="  447.914">  1  5  2 -1</clus>
</clustering>
</event>
<event>
 9    2  0.2907105E-005  0.1107582E+04  0.7546771E-02  0.9673696E-01
          2   -1    0    0  502    0 -0.00000000000E+00  0.00000000000E+00  0.66458280476E+03  0.66458280476E+03  0.00000000000E+00 0. -1.
         21   -1    0    0  501  502  0.00000000000E+00 -0.00000000000E+00 -0.77935828111E+03  0.77935828111E+03  0.00000000000E+00 0. -1.
         24    2    1    2    0    0 -0.61998916313E+02 -0.17738247394E+03  0.20656720836E+03  0.29068523382E+03  0.80743333523E+02 0.  0.
         23    2    1    2    0    0  0.15492369050E+03 -0.31921472148E+03  0.20862278582E+03  0.42106244309E+03  0.88717111804E+02 0.  0.
        -13    1    3    3    0    0 -0.37527998408E+01 -0.40990692751E+02  0.65456750043E+01  0.41679326532E+02  0.00000000000E+00 0.  1.
         14    1    3    3    0    0 -0.58246116472E+02 -0.13639178119E+03  0.20002153336E+03  0.24900590729E+03  0.00000000000E+00 0. -1.
        -11    1    4    4    0    0  0.16341586212E+03 -0.29921960288E+03  0.18125998023E+03  0.38612471453E+03  0.00000000000E+00 0. -1.
         11    1    4    4    0    0 -0.84921716205E+01 -0.19995118600E+02  0.27362805593E+02  0.34937728555E+02  0.00000000000E+00 0.  1.
          1    1    1    2  501    0 -0.92924774183E+02  0.49659719542E+03 -0.52996547054E+03  0.73219340896E+03  0.00000000000E+00 0. -1.
<scales pt_clust_5="13000.00000" pt_clust_6="13000.00000" pt_clust_7="13000.00000" pt_clust_8="13000.00000" pt_clust_9="13000.00000"></scales>
<clustering>
<clus scale="   80.743">  5  6 -1 -1</clus>
<clus scale="   88.717">  7  8 -1 -1</clus>
<clus scale="  204.519">  1  5  2 -1</clus>
<clus scale="  466.160">  7  9 -1 -1</clus>
<clus scale=" 1107.582">  2  5  1 -1</clus>
</clustering>
</event>
<event>
 9    2  0.2147756E-005  0.2500313E+03  0.7546771E-02  0.1142284E+00
         21   -1    0    0  501  502  0.00000000000E+00  0.00000000000E+00  0.98439411481E+02  0.98439411481E+02  0.00000000000E+00 0.  1.
         -3   -1    0    0    0  501 -0.00000000000E+00 -0.00000000000E+00 -0.35670931357E+03  0.35670931357E+03  0.00000000000E+00 0.  1.
         24    2    1    2    0    0  0.54756216677E+02  0.74599995514E+02 -0.60968270047E+02  0.13664664638E+03  0.79948567329E+02 0.  0.
         23    2    1    2    0    0  0.58361412965E+02 -0.29616599490E+02 -0.38731289796E+02  0.11859295559E+03  0.90999883609E+02 0.  0.
        -11    1    3    3    0    0  0.49447008147E+02  0.71274603326E+02 -0.79141316844E+02  0.11742411901E+03  0.00000000000E+00 0.  1.
         12    1    3    3    0    0  0.53092085304E+01  0.33253921881E+01  0.18173046797E+02  0.19222527365E+02  0.00000000000E+00 0. -1.
        -13    1    4    4    0    0  0.13318600224E+02 -0.42367739197E+02  0.15419582036E+02  0.47012487136E+02  0.00000000000E+00 0.  1.
         13    1    4    4    0    0  0.45042812742E+02  0.12751139707E+02 -0.54150871831E+02  0.71580468451E+02  0.00000000000E+00 0. -1.
         -4    1    1    2    0  502 -0.11311762964E+03 -0.44983396024E+02 -0.15857034224E+03  0.19990912309E+03  0.00000000000E+00 0.  1.
<scales pt_clust_5="13000.00000" pt_clust_6="13000.00000" pt_clust_7="13000.00000" pt_clust_8="13000.00000" pt_clust_9="13000.00000"></scales>
<clustering>
<clus scale="   79.949">  5  6 -1 -1</clus>
<clus scale="   91.000">  7  8 -1 -1</clus>
<clus scale="  121.734">  7  9 -1 -1</clus>
<clus scale="  122.291">  2  5  1 -1</clus>
<clus scale="  250.031">  1  5  2 -1</clus>
</clustering>
</event>
<event>
 9    2  0.2147756E-005  0.2566220E+03  0.7546771E-02  0.1133253E+00
          2   -1    0    0  502    0 -0.00000000000E+00  0.00000000000E+00  0.82045095536E+03  0.82045095536E+03  0.00000000000E+00 0. -1.
         21   -1    0    0  501  502  0.00000000000E+00 -0.00000000000E+00 -0.62257447505E+02  0.62257447505E+02  0.00000000000E+00 0. -1.
         24    2    1    2    0    0  0.10596932287E+03 -0.50829908335E+02  0.49697530140E+03  0.51652565748E+03  0.77466945608E+02 0.  0.
         23    2    1    2    0    0 -0.56572627318E+02 -0.27911614702E+01  0.13317153111E+02  0.10778347118E+03  0.90728591686E+02 0.  0.
        -13    1    3    3    0    0  0.67261357222E+02 -0.67651523484E+00  0.15866213112E+03  0.17233171414E+03  0.00000000000E+00 0.  1.
         14    1    3    3    0    0  0.38707965651E+02 -0.50153393100E+02  0.33831317028E+03  0.34419394334E+03  0.00000000000E+00 0. -1.
        -13    1    4    4    0    0 -0.21898688812E+02 -0.12204022218E+02  0.50312690186E+02  0.56212610007E+02  0.00000000000E+00 0.  1.
         13    1    4    4    0    0 -0.34673938506E+02  0.94128607482E+01 -0.36995537076E+02  0.51570861177E+02  0.00000000000E+00 0. -1.
          1    1    1    2  501    0 -0.49396695555E+02  0.53621069805E+02  0.24790105334E+03  0.25839927420E+03  0.00000000000E+00 0. -1.
<scales pt_clust_5="13000.00000" pt_clust_6="13000.00000" pt_clust_7="13000.00000" pt_clust_8="13000.00000" pt_clust_9="13000.00000"></scales>
<clustering>
<clus scale="   77.467">  5  6 -1 -1</clus>
<clus scale="   90.729">  7  8 -1 -1</clus>
<clus scale="   72.906">  7  9 -1 -1</clus>
<clus scale="  140.763">  1  5  2 -1</clus>
<clus scale="  256.622">  2  5  1 -1</clus>
</clustering>
</event>
<event>
 9    2  0.2147756E-005  0.1639470E+03  0.7546771E-02  0.1215536E+00
         21   -1    0    0  501  502  0.00000000000E+00  0.00000000000E+00  0.38977470205E+02  0.38977470205E+02  0.00000000000E+00 0.  1.
          2   -1    0    0  502    0 -0.00000000000E+00 -0.00000000000E+00 -0.61631120972E+03  0.61631120972E+03  0.00000000000E+00 0. -1.
         24    2    1    2    0    0  0.18015663771E+02  0.12038203044E+02 -0.37765785407E+02  0.91362984918E+02  0.80320968570E+02 0.  0.
         23    2    1    2    0    0  0.24073077895E+02 -0.23336039209E+02 -0.23247258909E+03  0.25375369999E+03  0.96038282866E+02 0.  0.
        -13    1    3    3    0    0  0.34527565866E+02  0.55401976340E+01  0.13214570251E+02  0.37382769578E+02  0.00000000000E+00 0.  1.
         14    1    3    3    0    0 -0.16511902095E+02  0.64980054098E+01 -0.50980355658E+02  0.53980215339E+02  0.00000000000E+00 0. -1.
        -11    1    4    4    0    0 -0.20437019242E+01 -0.56038691681E+02 -0.16587862618E+03  0.17510062909E+03  0.00000000000E+00 0.  1.
         11    1    4    4    0    0  0.26116779819E+02  0.32702652472E+02 -0.66593962911E+02  0.78653070906E+02  0.00000000000E+00 0. -1.
          1    1    1    2  501    0 -0.42088741666E+02  0.11297836165E+02 -0.30709536502E+03  0.31017199502E+03  0.00000000000E+00 0. -1.
<scales pt_clust_5="13000.00000" pt_clust_6="13000.00000" pt_clust_7="13000.00000" pt_clust_8="13000.00000" pt_clust_9="13000.00000"></scales>
<clustering>
<clus scale="   80.321">  5  6 -1 -1</clus>
<clus scale="   83.192">  2  5  1 -1</clus>
<clus scale="   96.038">  7  8 -1 -1</clus>
<clus scale="   36.740">  7  9 -1 -1</clus>
<clus scale="  163.947">  1  5  2 -1</clus>
</clustering>
</event>
<event>
 9    2  0.2147756E-005  0.3290430E+03  0.7546771E-02  0.1094674E+00
          2   -1    0    0  502    0 -0.00000000000E+00  0.00000000000E+00  0.32455756930E+03  0.32455756930E+03  0.00000000000E+00 0. -1.
         21   -1    0    0  501  502  0.00000000000E+00 -0.00000000000E+00 -0.20830160843E+03  0.20830160843E+03  0.00000000000E+00 0. -1.
         24    2    1    2    0    0 -0.15298962502E+03  0.37986100230E+02 -0.16713178899E+02  0.17796465770E+03  0.80890789752E+02 0.  0.
         23    2    1    2    0    0 -0.20008276303E+02  0.69337949888E+02  0.90087214668E+02  0.14684263925E+03  0.90768783400E+02 0.  0.
        -11    1    3    3    0    0 -0.28309031993E+02  0.43059553504E+02 -0.12903455194E+02  0.53122740858E+02  0.00000000000E+00 0.  1.
         12    1    3    3    0    0 -0.12468059303E+03 -0.50734532739E+01 -0.38097237050E+01  0.12484191684E+03  0.00000000000E+00 0. -1.
        -11    1    4    4    0    0  0.24647185631E+02  0.50034776343E+02  0.15671477757E+02  0.57935807738E+02  0.00000000000E+00 0.  1.
         11    1    4    4    0    0 -0.44655461934E+02  0.19303173545E+02  0.74415736911E+02  0.88906831512E+02  0.00000000000E+00 0. -1.
          1    1    1    2  501    0  0.17299790133E+03 -0.10732405012E+03  0.42881925104E+02  0.20805188078E+03  0.00000000000E+00 0. -1.
<scales pt_clust_5="13000.00000" pt_clust_6="13000.00000" pt_clust_7="13000.00000" pt_clust_8="13000.00000" pt_clust_9="13000.00000"></scales>
<clustering>
<clus scale="   80.891">  5  6 -1 -1</clus>
<clus scale="   90.769">  7  8 -1 -1</clus>
<clus scale="  177.178">  1  5  2 -1</clus>
<clus scale="  128.842">  7  9 -1 -1</clus>
<clus scale="  329.043">  2  5  1 -1</clus>
</clustering>
</event>
<event>
 9    2  0.2147756E-005  0.2858647E+03  0.7546771E-02  0.1141418E+00
          2   -1    0    0  502    0 -0.00000000000E+00  0.00000000000E+00  0.29389187323E+02  0.29389187323E+02  0.00000000000E+00 0. -1.
         21   -1    0    0  501  502  0.00000000000E+00 -0.00000000000E+00 -0.11674795960E+04  0.11674795960E+04  0.00000000000E+00 0. -1.
         24    2    1    2    0    0 -0.33644614544E+01 -0.25612269241E+02 -0.22142146984E+03  0.23666017951E+03  0.79456059057E+02 0.  0.
         23    2    1    2    0    0 -0.86125974063E+02 -0.66806875095E+02 -0.32516910910E+03  0.35488068867E+03  0.91238762069E+02 0.  0.
        -13    1    3    3    0    0 -0.17890734799E+02  0.19837124310E+02 -0.13795959718E+03  0.14052202798E+03  0.00000000000E+00 0.  1.
         14    1    3    3    0    0  0.14526273345E+02 -0.45449393551E+02 -0.83461872661E+02  0.96138151529E+02  0.00000000000E+00 0. -1.
        -11    1    4    4    0    0 -0.49071032027E+02  0.15463248444E+02 -0.13218263363E+03  0.14184261302E+03  0.00000000000E+00 0. -1.
         11    1    4    4    0    0 -0.37054942035E+02 -0.82270123538E+02 -0.19298647548E+03  0.21303807564E+03  0.00000000000E+00 0.  1.
          1    1    1    2  501    0  0.89490435517E+02  0.92419144335E+02 -0.59149982976E+03  0.60532791518E+03  0.00000000000E+00 0. -1.
<scales pt_clust_5="13000.00000" pt_clust_6="13000.00000" pt_clust_7="13000.00000" pt_clust_8="13000.00000" pt_clust_9="13000.00000"></scales>
<clustering>
<clus scale="   79.456">  5  6 -1 -1</clus>
<clus scale="   83.550">  1  5  2 -1</clus>
<clus scale="   91.239">  7  8 -1 -1</clus>
<clus scale="  122.157">  7  9 -1 -1</clus>
<clus scale="  285.865">  2  5  1 -1</clus>
</clustering>
</event>
<event>
 9    2  0.2637380E-005  0.4281440E+03  0.7546771E-02  0.1070328E+00
          2   -1    0    0  502    0 -0.00000000000E+00  0.00000000000E+00  0.15007917038E+04  0.15007917038E+04  0.00000000000E+00 0. -1.
         21   -1    0    0  501  502  0.00000000000E+00 -0.00000000000E+00 -0.56825557774E+02  0.56825557774E+02  0.00000000000E+00 0. -1.
         24    2    1    2    0    0  0.12493656498E+03  0.43672438053E+02  0.33649737008E+03  0.37026964554E+03  0.79703846959E+02 0.  0.
         23    2    1    2    0    0  0.11164475099E+03  0.52944205068E+02  0.25408774217E+03  0.29652514012E+03  0.89994103849E+02 0.  0.
        -11    1    3    3    0    0  0.31525839747E+02 -0.21646902766E+02  0.59413409034E+02  0.70657060116E+02  0.00000000000E+00 0.  1.
         12    1    3    3    0    0  0.93410725234E+02  0.65319340818E+02  0.27708396105E+03  0.29961258542E+03  0.00000000000E+00 0. -1.
        -11    1    4    4    0    0  0.42470963788E+02  0.25070722457E+02  0.19567346768E+03  0.20179303715E+03  0.00000000000E+00 0.  1.
         11    1    4    4    0    0  0.69173787198E+02  0.27873482611E+02  0.58414274496E+02  0.94732102970E+02  0.00000000000E+00 0. -1.
          1    1    1    2  501    0 -0.23658131597E+03 -0.96616643121E+02  0.85338103374E+03  0.89082247588E+03  0.00000000000E+00 0. -1.
<scales pt_clust_5="13000.00000" pt_clust_6="13000.00000" pt_clust_7="13000.00000" pt_clust_8="13000.00000" pt_clust_9="13000.00000"></scales>
<clustering>
<clus scale="   79.704">  5  6 -1 -1</clus>
<clus scale="   89.994">  7  8 -1 -1</clus>
<clus scale="  154.496">  1  5  2 -1</clus>
<clus scale="  155.175">  7  9 -1 -1</clus>
<clus scale="  428.144">  2  5  1 -1</clus>
</clustering>
</event>
<event>
 9    2  0.2147756E-005  0.1355600E+03  0.7546771E-02  0.1242527E+00
          4   -1    0    0  502    0 -0.00000000000E+00  0.00000000000E+00  0.19096653569E+03  0.19096653569E+03  0.00000000000E+00 0. -1.
         21   -1    0    0  501  502  0.00000000000E+00 -0.00000000000E+00 -0.10978537643E+03  0.10978537643E+03  0.00000000000E+00 0. -1.
         24    2    1    2    0    0 -0.55290616264E+01  0.19148855125E+02 -0.61248372549E+02  0.10412362325E+03  0.81811469879E+02 0.  0.
         23    2    1    2    0    0  0.51769341292E+01 -0.44908320116E+02  0.78646082708E+02  0.12783873726E+03  0.90077625176E+02 0.  0.
        -13    1    3    3    0    0 -0.40760052316E+02  0.10148008271E+02 -0.13530044460E+02  0.44129650347E+02  0.00000000000E+00 0.  1.
         14    1    3    3    0    0  0.35230990689E+02  0.90008468541E+01 -0.47718328089E+02  0.59993972903E+02  0.00000000000E+00 0. -1.
        -11    1    4    4    0    0  0.44632754323E+02 -0.17391366876E+02  0.19796984507E+02  0.51831100662E+02  0.00000000000E+00 0.  1.
         11    1    4    4    0    0 -0.39455820194E+02 -0.27516953239E+02  0.58849098201E+02  0.76007636602E+02  0.00000000000E+00 0. -1.
          3    1    1    2  501    0  0.35212749718E+00  0.25759464991E+02  0.63783449106E+02  0.68789551607E+02  0.00000000000E+00 0. -1.
<scales pt_clust_5="13000.00000" pt_clust_6="13000.00000" pt_clust_7="13000.00000" pt_clust_8="13000.00000" pt_clust_9="13000.00000"></scales>
<clustering>
<clus scale="   81.811">  5  6 -1 -1</clus>
<clus scale="   84.204">  1  5  2 -1</clus>
<clus scale="   90.078">  7  8 -1 -1</clus>
<clus scale="   33.296">  7  9 -1 -1</clus>
<clus scale="  135.560">  2  5  1 -1</clus>
</clustering>
</event>
<event>
 9    2  0.2147756E-005  0.2877939E+03  0.7546771E-02  0.1104684E+00
         21   -1    0    0  501  502  0.00000000000E+00  0.00000000000E+00  0.66795606615E+02  0.66795606615E+02  0.00000000000E+00 0.  1.
         -1   -1    0    0    0  501 -0.00000000000E+00 -0.00000000000E+00 -0.12924916673E+04  0.12924916673E+04  0.00000000000E+00 0.  1.
         24    2    1    2    0    0  0.15046545713E+03 -0.11219063324E+03 -0.90774850680E+03  0.93043302037E+03  0.80446639638E+02 0.  0.
         23    2    1    2    0    0  0.89105627424E+01  0.21666984950E+02 -0.61726159187E+02  0.11382306507E+03  0.92718471996E+02 0.  0.
        -11    1    3    3    0    0  0.15316625331E+03 -0.96108647827E+02 -0.73497668954E+03  0.75689332638E+03  0.00000000000E+00 0.  1.
         12    1    3    3    0    0 -0.27007961812E+01 -0.16081985416E+02 -0.17277181725E+03  0.17353969400E+03  0.00000000000E+00 0. -1.
        -13    1    4    4    0    0  0.10816600911E+02  0.58093206791E+02 -0.36121365787E+02  0.69257292734E+02  0.00000000000E+00 0.  1.
         13    1    4    4    0    0 -0.19060381683E+01 -0.36426221841E+02 -0.25604793401E+02  0.44565772339E+02  0.00000000000E+00 0. -1.
         -2    1    1    2    0  502 -0.15937601987E+03  0.90523648293E+02 -0.25622139474E+03  0.31503118851E+03  0.00000000000E+00 0.  1.
<scales pt_clust_5="13000.00000" pt_clust_6="13000.00000" pt_clust_7="13000.00000" pt_clust_8="13000.00000" pt_clust_9="13000.00000"></scales>
<clustering>
<clus scale="   80.447">  5  6 -1 -1</clus>
<clus scale="   92.718">  7  8 -1 -1</clus>
<clus scale="  183.290">  7  9 -1 -1</clus>
<clus scale="  204.202">  2  5  1 -1</clus>
<clus scale="  287.794">  1  5  2 -1</clus>
</clustering>
</event>
<event>
 9    2  0.2147756E-005  0.1601403E+03  0.7546771E-02  0.1216795E+00
         21   -1    0    0  501  502  0.00000000000E+00  0.00000000000E+00  0.58317087218E+03  0.58317087218E+03  0.00000000000E+00 0. -1.
          2   -1    0    0  502    0 -0.00000000000E+00 -0.00000000000E+00 -0.81650719797E+02  0.81650719797E+02  0.00000000000E+00 0. -1.
         24    2    1    2    0    0  0.84939827113E+01 -0.28603118186E+02 -0.43188031703E+02  0.97061153167E+02  0.81641749488E+02 0.  0.
         23    2    1    2    0    0  0.34843418595E+02  0.50209629748E+02  0.38675390200E+03  0.40254988550E+03  0.93449231508E+02 0.  0.
        -11    1    3    3    0    0 -0.13030576423E+02  0.25210919221E+02 -0.19579985677E+02  0.34478431069E+02  0.00000000000E+00 0.  1.
         12    1    3    3    0    0  0.21524559135E+02 -0.53814037407E+02 -0.23608046026E+02  0.62582722098E+02  0.00000000000E+00 0. -1.
        -11    1    4    4    0    0 -0.25123834966E+01  0.67872867948E+02  0.19797505511E+03  0.20930160229E+03  0.00000000000E+00 0.  1.
         11    1    4    4    0    0  0.37355802091E+02 -0.17663238200E+02  0.18877884689E+03  0.19324828321E+03  0.00000000000E+00 0. -1.
          1    1    1    2  501    0 -0.43337401306E+02 -0.21606511562E+02  0.15795428209E+03  0.16521055331E+03  0.00000000000E+00 0. -1.
<scales pt_clust_5="13000.00000" pt_clust_6="13000.00000" pt_clust_7="13000.00000" pt_clust_8="13000.00000" pt_clust_9="13000.00000"></scales>
<clustering>
<clus scale="   81.642">  5  6 -1 -1</clus>
<clus scale="   86.923">  2  5  1 -1</clus>
<clus scale="   93.449">  7  8 -1 -1</clus>
<clus scale="   50.897">  7  9 -1 -1</clus>
<clus scale="  160.140">  1  5  2 -1</clus>
</clustering>
</event>
<event>
 9    2  0.2147756E-005  0.1355734E+03  0.7546771E-02  0.1225872E+00
          2   -1    0    0  502    0 -0.00000000000E+00  0.00000000000E+00  0.14013453807E+04  0.14013453807E+04  0.00000000000E+00 0. -1.
         21   -1    0    0  501  502  0.00000000000E+00 -0.00000000000E+00 -0.82036680713E+02  0.82036680713E+02  0.00000000000E+00 0.  1.
         24    2    1    2    0    0  0.32716063001E+02  0.53381802512E+02  0.13408814696E+04  0.13461030332E+04  0.10055000275E+03 0.  0.
         23    2    1    2    0    0 -0.48725603932E+02 -0.31866167253E+02 -0.13714661164E+02  0.10933304761E+03  0.91520414523E+02 0.  0.
        -13    1    3    3    0    0  0.42072121193E+02  0.15135886189E+02  0.21833084612E+03  0.22286210266E+03  0.00000000000E+00 0.  1.
         14    1    3    3    0    0 -0.93560581914E+01  0.38245916323E+02  0.11225506234E+04  0.11232409306E+04  0.00000000000E+00 0. -1.
        -11    1    4    4    0    0  0.26498852506E+02 -0.18309606899E+00 -0.71388816032E+01  0.27444240541E+02  0.00000000000E+00 0. -1.
         11    1    4    4    0    0 -0.75224456438E+02 -0.31683071184E+02 -0.65757795604E+01  0.81888807067E+02  0.00000000000E+00 0.  1.
          1    1    1    2  501    0  0.16009540931E+02 -0.21515635259E+02 -0.78581084223E+01  0.27945980559E+02  0.00000000000E+00 0. -1.
<scales pt_clust_5="13000.00000" pt_clust_6="13000.00000" pt_clust_7="13000.00000" pt_clust_8="13000.00000" pt_clust_9="13000.00000"></scales>
<clustering>
<clus scale="   91.520">  7  8 -1 -1</clus>
<clus scale="   26.818">  7  9 -1 -1</clus>
<clus scale="  100.550">  5  6 -1 -1</clus>
<clus scale="  118.449">  1  5  2 -1</clus>
<clus scale="  135.573">  2  5  1 -1</clus>
</clustering>
</event>
<event>
 9    2  0.2147756E-005  0.2035396E+03  0.7546771E-02  0.1159945E+00
         21   -1    0    0  501  502  0.00000000000E+00  0.00000000000E+00  0.56018007780E+02  0.56018007780E+02  0.00000000000E+00 0. -1.
          2   -1    0    0  502    0 -0.00000000000E+00 -0.00000000000E+00 -0.55562996130E+03  0.55562996130E+03  0.00000000000E+00 0. -1.
         24    2    1    2    0    0  0.12447694789E+03 -0.18858754576E+02 -0.21389092472E+03  0.26084193809E+03  0.80243540592E+02 0.  0.
         23    2    1    2    0    0 -0.45540301815E+02 -0.25734486987E+02 -0.21010061980E+03  0.23274673426E+03  0.85396656602E+02 0.  0.
        -11    1    3    3    0    0  0.21149472468E+02  0.28398396049E+02 -0.57643832069E+02  0.67650428376E+02  0.00000000000E+00 0.  1.
         12    1    3    3    0    0  0.10332747543E+03 -0.47257150624E+02 -0.15624709265E+03  0.19319150971E+03  0.00000000000E+00 0. -1.
        -13    1    4    4    0    0 -0.64599916993E+02 -0.37693812767E+02 -0.18185189445E+03  0.19663184968E+03  0.00000000000E+00 0. -1.
         13    1    4    4    0    0  0.19059615178E+02  0.11959325780E+02 -0.28248725350E+02  0.36114884573E+02  0.00000000000E+00 0.  1.
          1    1    1    2  501    0 -0.78936646080E+02  0.44593241563E+02 -0.75620409002E+02  0.11805929673E+03  0.00000000000E+00 0. -1.
<scales pt_clust_5="13000.00000" pt_clust_6="13000.00000" pt_clust_7="13000.00000" pt_clust_8="13000.00000" pt_clust_9="13000.00000"></scales>
<clustering>
<clus scale="   80.244">  5  6 -1 -1</clus>
<clus scale="   85.397">  7  8 -1 -1</clus>
<clus scale="   90.662">  7  9 -1 -1</clus>
<clus scale="  149.296">  2  5  1 -1</clus>
<clus scale="  203.540">  1  5  2 -1</clus>
</clustering>
</event>
<event>
 9    2  0.2147756E-005  0.4129881E+03  0.7546771E-02  0.1085358E+00
         21   -1    0    0  501  502  0.00000000000E+00  0.00000000000E+00  0.19487550680E+03  0.19487550680E+03  0.00000000000E+00 0. -1.
          2   -1    0    0  502    0 -0.00000000000E+00 -0.00000000000E+00 -0.39450277021E+03  0.39450277021E+03  0.00000000000E+00 0. -1.
         24    2    1    2    0    0 -0.44511785688E+02  0.67306045709E+02 -0.12517306951E+03  0.16973243515E+03  0.81421123527E+02 0.  0.
         23    2    1    2    0    0 -0.53519395138E+02 -0.98979072635E+02 -0.20735884266E+03  0.25148835998E+03  0.87106389557E+02 0.  0.
        -13    1    3    3    0    0 -0.26143476427E+02  0.60339665624E+02 -0.13317059198E+03  0.14852192827E+03  0.00000000000E+00 0.  1.
         14    1    3    3    0    0 -0.18368309261E+02  0.69663800850E+01  0.79975224688E+01  0.21210506883E+02  0.00000000000E+00 0. -1.
        -11    1    4    4    0    0 -0.16775570360E+02 -0.10299386738E+03 -0.13943579017E+03  0.17415939843E+03  0.00000000000E+00 0. -1.
         11    1    4    4    0    0 -0.36743824778E+02  0.40147947468E+01 -0.67923052485E+02  0.77328961554E+02  0.00000000000E+00 0.  1.
          1    1    1    2  501    0  0.98031180826E+02  0.31673026925E+02  0.13290464877E+03  0.16815748188E+03  0.00000000000E+00 0. -1.
<scales pt_clust_5="13000.00000" pt_clust_6="13000.00000" pt_clust_7="13000.00000" pt_clust_8="13000.00000" pt_clust_9="13000.00000"></scales>
<clustering>
<clus scale="   81.421">  5  6 -1 -1</clus>
<clus scale="   87.106">  7  8 -1 -1</clus>
<clus scale="  103.021">  7  9 -1 -1</clus>
<clus scale="  114.633">  2  5  1 -1</clus>
<clus scale="  412.988">  1  5  2 -1</clus>
</clustering>
</event>
<event>
 9    2  0.2147756E-005  0.3990284E+03  0.7546771E-02  0.1095092E+00
         21   -1    0    0  501  502  0.00000000000E+00  0.00000000000E+00  0.42582643515E+03  0.42582643515E+03  0.00000000000E+00 0.  1.
          2   -1    0    0  502    0 -0.00000000000E+00 -0.00000000000E+00 -0.14947509664E+03  0.14947509664E+03  0.00000000000E+00 0. -1.
         24    2    1    2    0    0 -0.57007256905E+02  0.21259407640E+02  0.96109723060E+02  0.13745372864E+03  0.77166436346E+02 0.  0.
         23    2    1    2    0    0  0.76115766728E+02  0.15763075875E+03  0.16511659560E+03  0.25730530675E+03  0.91112373957E+02 0.  0.
        -11    1    3    3    0    0 -0.50321260614E+02 -0.10840316218E+02  0.90604513650E+02  0.10420614003E+03  0.00000000000E+00 0.  1.
         12    1    3    3    0    0 -0.66859962912E+01  0.32099723858E+02  0.55052094099E+01  0.33247588617E+02  0.00000000000E+00 0. -1.
        -11    1    4    4    0    0  0.62103123515E+02  0.33135733496E+02  0.43758320485E+02  0.82882841387E+02  0.00000000000E+00 0. -1.
         11    1    4    4    0    0  0.14012643213E+02  0.12449502526E+03  0.12135827512E+03  0.17442246536E+03  0.00000000000E+00 0.  1.
          1    1    1    2  501    0 -0.19108509822E+02 -0.17889016639E+03  0.15125019847E+02  0.18054249640E+03  0.00000000000E+00 0. -1.
<scales pt_clust_5="13000.00000" pt_clust_6="13000.00000" pt_clust_7="13000.00000" pt_clust_8="13000.00000" pt_clust_9="13000.00000"></scales>
<clustering>
<clus scale="   77.166">  5  6 -1 -1</clus>
<clus scale="   91.112">  7  8 -1 -1</clus>
<clus scale="   98.267">  2  5  1 -1</clus>
<clus scale="  174.379">  7  9 -1 -1</clus>
<clus scale="  399.028">  1  5  2 -1</clus>
</clustering>
</event>
<event>
 9    2  0.2147756E-005  0.5309789E+03  0.7546771E-02  0.1057085E+00
          2   -1    0    0  502    0 -0.00000000000E+00  0.00000000000E+00  0.10650186775E+04  0.10650186775E+04  0.00000000000E+00 0. -1.
         21   -1    0    0  501  502  0.00000000000E+00 -0.00000000000E+00 -0.10250788762E+03  0.10250788762E+03  0.00000000000E+00 0. -1.
         24    2    1    2    0    0  0.96548052998E+02 -0.88924767433E+01  0.27484253078E+03  0.29871921759E+03  0.65529776048E+02 0.  0.
         23    2    1    2    0    0 -0.79462461953E+02 -0.16378072478E+03  0.52171091939E+02  0.21004745090E+03  0.90882892360E+02 0.  0.
        -13    1    3    3    0    0  0.85147253251E+02  0.54600652018E+01  0.15025147419E+03  0.17278707285E+03  0.00000000000E+00 0.  1.
         14    1    3    3    0    0  0.11400799747E+02 -0.14352541945E+02  0.12459105659E+03  0.12593214473E+03  0.00000000000E+00 0. -1.
        -11    1    4    4    0    0  0.10832163074E+02 -0.42531523977E+02 -0.12476056534E+02  0.45628042642E+02  0.00000000000E+00 0.  1.
         11    1    4    4    0    0 -0.90294625027E+02 -0.12124920081E+03  0.64647148474E+02  0.16441940825E+03  0.00000000000E+00 0. -1.
          1    1    1    2  501    0 -0.17085591045E+02  0.17267320153E+03  0.63549716719E+03  0.65875989667E+03  0.00000000000E+00 0. -1.
<scales pt_clust_5="13000.00000" pt_clust_6="13000.00000" pt_clust_7="13000.00000" pt_clust_8="13000.00000" pt_clust_9="13000.00000"></scales>
<clustering>
<clus scale="   65.530">  5  6 -1 -1</clus>
<clus scale="   90.883">  7  8 -1 -1</clus>
<clus scale="  117.025">  1  5  2 -1</clus>
<clus scale="  176.949">  7  9 -1 -1</clus>
<clus scale="  530.979">  2  5  1 -1</clus>
</clustering>
</event>
<event>
 9    2  0.2147756E-005  0.3547613E+03  0.7546771E-02  0.1098243E+00
         21   -1    0    0  501  502  0.00000000000E+00  0.00000000000E+00  0.95346008881E+02  0.95346008881E+02  0.00000000000E+00 0. -1.
          2   -1    0    0  502    0 -0.00000000000E+00 -0.00000000000E+00 -0.63294002452E+03  0.63294002452E+03  0.00000000000E+00 0. -1.
         24    2    1    2    0    0 -0.94498705678E+02 -0.35995289781E+02 -0.89851795281E+02  0.15703416661E+03  0.79754110286E+02 0.  0.
         23    2    1    2    0    0 -0.58458730105E+02 -0.78212635439E+02 -0.30489415507E+03  0.33282997790E+03  0.90998400683E+02 0.  0.
        -11    1    3    3    0    0 -0.33725288581E+01  0.19746869612E+02 -0.50935156768E+01  0.20670188976E+02  0.00000000000E+00 0.  1.
         12    1    3    3    0    0 -0.91126176820E+02 -0.55742159393E+02 -0.84758279604E+02  0.13636397764E+03  0.00000000000E+00 0. -1.
        -11    1    4    4    0    0 -0.65648794105E+02 -0.19661002620E+02 -0.21187468532E+03  0.22268183911E+03  0.00000000000E+00 0. -1.
         11    1    4    4    0    0  0.71900639995E+01 -0.58551632820E+02 -0.93019469750E+02  0.11014813879E+03  0.00000000000E+00 0.  1.
          1    1    1    2  501    0  0.15295743578E+03  0.11420792522E+03 -0.14284806530E+03  0.23842188889E+03  0.00000000000E+00 0. -1.
<scales pt_clust_5="13000.00000" pt_clust_6="13000.00000" pt_clust_7="13000.00000" pt_clust_8="13000.00000" pt_clust_9="13000.00000"></scales>
<clustering>
<clus scale="   79.754">  5  6 -1 -1</clus>
<clus scale="   90.998">  7  8 -1 -1</clus>
<clus scale="  128.788">  2  5  1 -1</clus>
<clus scale="  154.849">  7  9 -1 -1</clus>
<clus scale="  354.761">  1  5  2 -1</clus>
</clustering>
</event>
<event>
 9    2  0.2147756E-005  0.2598123E+03  0.7546771E-02  0.1145826E+00
         21   -1    0    0  501  502  0.00000000000E+00  0.00000000000E+00  0.43986820228E+03  0.43986820228E+03  0.00000000000E+00 0. -1.
         -1   -1    0    0    0  501 -0.00000000000E+00 -0.00000000000E+00 -0.12918428436E+03  0.12918428436E+03  0.00000000000E+00 0.  1.
         24    2    1    2    0    0  0.85125380131E+01 -0.60590410509E+02  0.29186096494E+03  0.30855922185E+03  0.79261020582E+02 0.  0.
         23    2    1    2    0    0 -0.25649905194E+01 -0.19403403918E+02  0.10819851680E+03  0.14040007151E+03  0.87305153237E+02 0.  0.
        -11    1    3    3    0    0  0.40000829985E+02 -0.27797997181E+02  0.97996287867E+02  0.10943522048E+03  0.00000000000E+00 0.  1.
         12    1    3    3    0    0 -0.31488291972E+02 -0.32792413328E+02  0.19386467707E+03  0.19912400136E+03  0.00000000000E+00 0. -1.
        -11    1    4    4    0    0 -0.38659889277E+02 -0.83094834995E+01  0.90367793395E+02  0.98640623670E+02  0.00000000000E+00 0.  1.
         11    1    4    4    0    0  0.36094898758E+02 -0.11093920418E+02  0.17830723405E+02  0.41759447838E+02  0.00000000000E+00 0. -1.
         -2    1    1    2    0  502 -0.59475474937E+01  0.79993814426E+02 -0.89375563812E+02  0.12009319329E+03  0.00000000000E+00 0.  1.
<scales pt_clust_5="13000.00000" pt_clust_6="13000.00000" pt_clust_7="13000.00000" pt_clust_8="13000.00000" pt_clust_9="13000.00000"></scales>
<clustering>
<clus scale="   79.261">  5  6 -1 -1</clus>
<clus scale="   87.305">  7  8 -1 -1</clus>
<clus scale="   80.215">  7  9 -1 -1</clus>
<clus scale="  100.130">  2  5  1 -1</clus>
<clus scale="  259.812">  1  5  2 -1</clus>
</clustering>
</event>
<event>
 9    2  0.2147756E-005  0.2813703E+03  0.7546771E-02  0.1139527E+00
         21   -1    0    0  501  502  0.00000000000E+00  0.00000000000E+00  0.37275073016E+03  0.37275073016E+03  0.00000000000E+00 0.  1.
         -1   -1    0    0    0  501 -0.00000000000E+00 -0.00000000000E+00 -0.93357948239E+02  0.93357948239E+02  0.00000000000E+00 0.  1.
         24    2    1    2    0    0  0.18155680748E+02  0.49726348431E+02  0.66732702286E+02  0.11341393771E+03  0.74880766831E+02 0.  0.
         23    2    1    2    0    0  0.50925724725E+01  0.94680334211E+02  0.82228901875E+02  0.15672009079E+03  0.93857842371E+02 0.  0.
        -11    1    3    3    0    0 -0.23232083270E+02  0.73000028546E+00  0.37893598716E+01  0.23550410648E+02  0.00000000000E+00 0.  1.
         12    1    3    3    0    0  0.41387764018E+02  0.48996348146E+02  0.62943342414E+02  0.89863527063E+02  0.00000000000E+00 0. -1.
        -11    1    4    4    0    0  0.20656706768E+02  0.62451177799E+02 -0.13582350432E+01  0.65792810743E+02  0.00000000000E+00 0.  1.
         11    1    4    4    0    0 -0.15564134296E+02  0.32229156411E+02  0.83587136919E+02  0.90927280052E+02  0.00000000000E+00 0. -1.
         -2    1    1    2    0  502 -0.23248253221E+02 -0.14440668264E+03  0.13043117776E+03  0.19597464990E+03  0.00000000000E+00 0.  1.
<scales pt_clust_5="13000.00000" pt_clust_6="13000.00000" pt_clust_7="13000.00000" pt_clust_8="13000.00000" pt_clust_9="13000.00000"></scales>
<clustering>
<clus scale="   74.881">  5  6 -1 -1</clus>
<clus scale="   91.703">  2  5  1 -1</clus>
<clus scale="   93.858">  7  8 -1 -1</clus>
<clus scale="  122.027">  7  9 -1 -1</clus>
<clus scale="  281.370">  1  5  2 -1</clus>
</clustering>
</event>
<event>
 9    2  0.2147756E-005  0.3140077E+03  0.7546771E-02  0.1097600E+00
         21   -1    0    0  501  502  0.00000000000E+00  0.00000000000E+00  0.99043029712E+02  0.99043029712E+02  0.00000000000E+00 0. -1.
          2   -1    0    0  502    0 -0.00000000000E+00 -0.00000000000E+00 -0.67329478695E+03  0.67329478695E+03  0.00000000000E+00 0. -1.
         24    2    1    2    0    0  0.14615883373E+03  0.90051439019E+02 -0.13397496411E+03  0.23155645363E+03  0.78723782075E+02 0.  0.
         23    2    1    2    0    0 -0.32481370798E+02  0.81714761439E+00 -0.36364671785E+03  0.37630694540E+03  0.91171676410E+02 0.  0.
        -13    1    3    3    0    0  0.40428705531E+02  0.35411302195E+02 -0.19117159040E+01  0.53778203872E+02  0.00000000000E+00 0.  1.
         14    1    3    3    0    0  0.10573012820E+03  0.54640136824E+02 -0.13206324821E+03  0.17777824976E+03  0.00000000000E+00 0. -1.
        -13    1    4    4    0    0  0.30640150674E+02  0.11282905170E+02 -0.13308112197E+03  0.13702812779E+03  0.00000000000E+00 0. -1.
         13    1    4    4    0    0 -0.63121521472E+02 -0.10465757556E+02 -0.23056559588E+03  0.23927881761E+03  0.00000000000E+00 0.  1.
          1    1    1    2  501    0 -0.11367746293E+03 -0.90868586634E+02 -0.76630075277E+02  0.16447441762E+03  0.00000000000E+00 0. -1.
<scales pt_clust_5="13000.00000" pt_clust_6="13000.00000" pt_clust_7="13000.00000" pt_clust_8="13000.00000" pt_clust_9="13000.00000"></scales>
<clustering>
<clus scale="   78.724">  5  6 -1 -1</clus>
<clus scale="   91.172">  7  8 -1 -1</clus>
<clus scale="  145.532">  7  9 -1 -1</clus>
<clus scale="  188.863">  2  5  1 -1</clus>
<clus scale="  314.008">  1  5  2 -1</clus>
</clustering>
</event>
<event>
 9    2  0.2147756E-005  0.2853825E+03  0.7546771E-02  0.1138135E+00
          2   -1    0    0  502    0 -0.00000000000E+00  0.00000000000E+00  0.58760152900E+03  0.58760152900E+03  0.00000000000E+00 0. -1.
         21   -1    0    0  501  502  0.00000000000E+00 -0.00000000000E+00 -0.66229796119E+02  0.66229796119E+02  0.00000000000E+00 0. -1.
         24    2    1    2    0    0  0.15792376255E+02 -0.37868786827E+02  0.52586553579E+02  0.10501193634E+03  0.81109290420E+02 0.  0.
         23    2    1    2    0    0  0.64754487326E+02 -0.54288182488E+02  0.37374773802E+03  0.39385868579E+03  0.91087553000E+02 0.  0.
        -11    1    3    3    0    0 -0.30964008308E+02 -0.19545603396E+02  0.71904452135E+01  0.37316255506E+02  0.00000000000E+00 0.  1.
         12    1    3    3    0    0  0.46756384563E+02 -0.18323183431E+02  0.45396108366E+02  0.67695680831E+02  0.00000000000E+00 0. -1.
        -13    1    4    4    0    0  0.49947081754E+02  0.93527090948E+01  0.97026081761E+02  0.10952736957E+03  0.00000000000E+00 0.  1.
         13    1    4    4    0    0  0.14807405573E+02 -0.63640891583E+02  0.27672165626E+03  0.28433131622E+03  0.00000000000E+00 0. -1.
          1    1    1    2  501    0 -0.80546863581E+02  0.92156969315E+02  0.95037441283E+02  0.15496070299E+03  0.00000000000E+00 0. -1.
<scales pt_clust_5="13000.00000" pt_clust_6="13000.00000" pt_clust_7="13000.00000" pt_clust_8="13000.00000" pt_clust_9="13000.00000"></scales>
<clustering>
<clus scale="   81.109">  5  6 -1 -1</clus>
<clus scale="   90.896">  1  5  2 -1</clus>
<clus scale="   91.088">  7  8 -1 -1</clus>
<clus scale="  112.883">  7  9 -1 -1</clus>
<clus scale="  285.383">  2  5  1 -1</clus>
</clustering>
</event>
<event>
 9    2  0.2147756E-005  0.1733777E+03  0.7546771E-02  0.1209965E+00
         21   -1    0    0  501  502  0.00000000000E+00  0.00000000000E+00  0.19263437493E+03  0.19263437493E+03  0.00000000000E+00 0. -1.
          2   -1    0    0  502    0 -0.00000000000E+00 -0.00000000000E+00 -0.10247542917E+03  0.10247542917E+03  0.00000000000E+00 0. -1.
         24    2    1    2    0    0 -0.67895917597E+01 -0.30527618385E+01 -0.29442228880E+02  0.84481517114E+02  0.78834408613E+02 0.  0.
         23    2    1    2    0    0  0.14580013940E+02 -0.50334664565E+02  0.11456257743E+03  0.15644069212E+03  0.92752092917E+02 0.  0.
        -13    1    3    3    0    0 -0.31086778103E+02  0.23922301958E+02 -0.25626888148E+01  0.39309434971E+02  0.00000000000E+00 0.  1.
         14    1    3    3    0    0  0.24297186343E+02 -0.26975063796E+02 -0.26879540065E+02  0.45172082143E+02  0.00000000000E+00 0. -1.
        -11    1    4    4    0    0  0.10074976321E+02  0.27127650883E+02  0.31399747180E+02  0.42700804598E+02  0.00000000000E+00 0.  1.
         11    1    4    4    0    0  0.45050376190E+01 -0.77462315448E+02  0.83162830252E+02  0.11373988752E+03  0.00000000000E+00 0. -1.
          1    1    1    2  501    0 -0.77904221804E+01  0.53387426404E+02  0.50385972092E+01  0.54187594868E+02  0.00000000000E+00 0. -1.
<scales pt_clust_5="13000.00000" pt_clust_6="13000.00000" pt_clust_7="13000.00000" pt_clust_8="13000.00000" pt_clust_9="13000.00000"></scales>
<clustering>
<clus scale="   78.834">  5  6 -1 -1</clus>
<clus scale="   79.185">  2  5  1 -1</clus>
<clus scale="   92.752">  7  8 -1 -1</clus>
<clus scale="   52.992">  7  9 -1 -1</clus>
<clus scale="  173.378">  1  5  2 -1</clus>
</clustering>
</event>
<event>
 9    2  0.2147756E-005  0.4471027E+03  0.7546771E-02  0.1080085E+00
         21   -1    0    0  501  502  0.00000000000E+00  0.00000000000E+00  0.60462837062E+02  0.60462837062E+02  0.00000000000E+00 0. -1.
          2   -1    0    0  502    0 -0.00000000000E+00 -0.00000000000E+00 -0.14187960664E+04  0.14187960664E+04  0.00000000000E+00 0. -1.
         24    2    1    2    0    0  0.31342267031E+02  0.55747795465E+02 -0.50799011694E+03  0.51853823393E+03  0.82084022398E+02 0.  0.
         23    2    1    2    0    0 -0.49980698579E+02  0.15078657187E+03 -0.63644313898E+03  0.66279948088E+03  0.94913761984E+02 0.  0.
        -13    1    3    3    0    0  0.26658769952E+02 -0.15787968137E+02 -0.11715198849E+03  0.12117977703E+03  0.00000000000E+00 0.  1.
         14    1    3    3    0    0  0.46834970790E+01  0.71535763602E+02 -0.39083812845E+03  0.39735845690E+03  0.00000000000E+00 0. -1.
        -13    1    4    4    0    0 -0.72009676405E+02  0.13624483640E+03 -0.47958312174E+03  0.50373407628E+03  0.00000000000E+00 0. -1.
         13    1    4    4    0    0  0.22028977825E+02  0.14541735476E+02 -0.15686001723E+03  0.15906540460E+03  0.00000000000E+00 0.  1.
          1    1    1    2  501    0  0.18638431548E+02 -0.20653436734E+03 -0.21389997343E+03  0.29792118867E+03  0.00000000000E+00 0. -1.
<scales pt_clust_5="13000.00000" pt_clust_6="13000.00000" pt_clust_7="13000.00000" pt_clust_8="13000.00000" pt_clust_9="13000.00000"></scales>
<clustering>
<clus scale="   82.084">  5  6 -1 -1</clus>
<clus scale="   94.914">  7  8 -1 -1</clus>
<clus scale="  104.057">  2  5  1 -1</clus>
<clus scale="  192.751">  7  9 -1 -1</clus>
<clus scale="  447.103">  1  5  2 -1</clus>
</clustering>
</event>
<event>
 9    2  0.2147756E-005  0.1936034E+03  0.7546771E-02  0.1177437E+00
          4   -1    0    0  502    0 -0.00000000000E+00  0.00000000000E+00  0.19917782693E+03  0.19917782693E+03  0.00000000000E+00 0. -1.
         21   -1    0    0  501  502  0.00000000000E+00 -0.00000000000E+00 -0.47232833145E+03  0.47232833145E+03  0.00000000000E+00 0.  1.
         24    2    1    2    0    0  0.18810113961E+02 -0.81449622761E+02  0.15961304797E+03  0.19741061143E+03  0.80664508858E+02 0.  0.
         23    2    1    2    0    0  0.37987498637E+02  0.86439276160E+02 -0.25289479525E+03  0.28540629111E+03  0.92661615694E+02 0.  0.
        -11    1    3    3    0    0  0.17118109951E+02 -0.25716678431E+02  0.28472879711E+01  0.31023930870E+02  0.00000000000E+00 0.  1.
         12    1    3    3    0    0  0.16920040097E+01 -0.55732944330E+02  0.15676575999E+03  0.16638668056E+03  0.00000000000E+00 0. -1.
        -11    1    4    4    0    0 -0.16395544761E+02  0.61518452099E+02 -0.78709573926E+02  0.10123502785E+03  0.00000000000E+00 0. -1.
         11    1    4    4    0    0  0.54383043398E+02  0.24920824061E+02 -0.17418522132E+03  0.18417126325E+03  0.00000000000E+00 0.  1.
          3    1    1    2  501    0 -0.56797612598E+02 -0.49896533992E+01 -0.17986875725E+03  0.18868925584E+03  0.00000000000E+00 0. -1.
<scales pt_clust_5="13000.00000" pt_clust_6="13000.00000" pt_clust_7="13000.00000" pt_clust_8="13000.00000" pt_clust_9="13000.00000"></scales>
<clustering>
<clus scale="   80.665">  5  6 -1 -1</clus>
<clus scale="   92.662">  7  8 -1 -1</clus>
<clus scale="   57.016">  7  9 -1 -1</clus>
<clus scale="  116.166">  1  5  2 -1</clus>
<clus scale="  193.603">  2  5  1 -1</clus>
</clustering>
</event>
<event>
 9    2  0.2147756E-005  0.3422637E+03  0.7546771E-02  0.1115620E+00
          2   -1    0    0  502    0 -0.00000000000E+00  0.00000000000E+00  0.71981180184E+03  0.71981180184E+03  0.00000000000E+00 0. -1.
         21   -1    0    0  501  502  0.00000000000E+00 -0.00000000000E+00 -0.74870140128E+02  0.74870140128E+02  0.00000000000E+00 0.  1.
         24    2    1    2    0    0 -0.44031688268E+02 -0.87186829863E+01  0.27846326172E+03  0.29323316396E+03  0.80181639505E+02 0.  0.
         23    2    1    2    0    0 -0.56783837234E+02 -0.11104189032E+03  0.80772646597E+02  0.17566642332E+03  0.93700406977E+02 0.  0.
        -13    1    3    3    0    0 -0.21552166233E+02  0.34161507645E+02  0.89963718209E+02  0.98615288205E+02  0.00000000000E+00 0.  1.
         14    1    3    3    0    0 -0.22479522035E+02 -0.42880190631E+02  0.18849954351E+03  0.19461787575E+03  0.00000000000E+00 0. -1.
        -13    1    4    4    0    0 -0.45296400147E+02 -0.51891938642E+02  0.91433558263E+02  0.11447546785E+03  0.00000000000E+00 0. -1.
         13    1    4    4    0    0 -0.11487437087E+02 -0.59149951679E+02 -0.10660911666E+02  0.61190955475E+02  0.00000000000E+00 0.  1.
          1    1    1    2  501    0  0.10081552550E+03  0.11976057331E+03  0.28570575339E+03  0.32578235468E+03  0.00000000000E+00 0. -1.
<scales pt_clust_5="13000.00000" pt_clust_6="13000.00000" pt_clust_7="13000.00000" pt_clust_8="13000.00000" pt_clust_9="13000.00000"></scales>
<clustering>
<clus scale="   80.182">  5  6 -1 -1</clus>
<clus scale="   91.891">  1  5  2 -1</clus>
<clus scale="   93.700">  7  8 -1 -1</clus>
<clus scale="  133.342">  7  9 -1 -1</clus>
<clus scale="  342.264">  2  5  1 -1</clus>
</clustering>
</event>
<event>
 9    2  0.2147756E-005  0.1561088E+03  0.7546771E-02  0.1222022E+00
         21   -1    0    0  501  502  0.00000000000E+00  0.00000000000E+00  0.93879323451E+02  0.93879323451E+02  0.00000000000E+00 0.  1.
         -1   -1    0    0    0  501 -0.00000000000E+00 -0.00000000000E+00 -0.15411132533E+03  0.15411132533E+03  0.00000000000E+00 0.  1.
         24    2    1    2    0    0  0.30481573443E+02 -0.39597802139E+01 -0.27793452116E+02  0.88547153447E+02  0.78251621223E+02 0.  0.
         23    2    1    2    0    0  0.17821465088E+02  0.20523394899E+02 -0.51083892341E+02  0.10508187595E+03  0.87714435758E+02 0.  0.
        -13    1    3    3    0    0  0.32551797548E+02  0.24889067643E+02 -0.39899145174E+02  0.57192892892E+02  0.00000000000E+00 0.  1.
         14    1    3    3    0    0 -0.20702241048E+01 -0.28848847857E+02  0.12105693058E+02  0.31354260555E+02  0.00000000000E+00 0. -1.
        -13    1    4    4    0    0 -0.47129681304E+01 -0.22665636067E+02  0.11438319080E+02  0.25822050079E+02  0.00000000000E+00 0.  1.
         13    1    4    4    0    0  0.22534433218E+02  0.43189030965E+02 -0.62522211421E+02  0.79259825871E+02  0.00000000000E+00 0. -1.
         -2    1    1    2    0  502 -0.48303038531E+02 -0.16563614685E+02  0.18645342575E+02  0.54361619388E+02  0.00000000000E+00 0.  1.
<scales pt_clust_5="13000.00000" pt_clust_6="13000.00000" pt_clust_7="13000.00000" pt_clust_8="13000.00000" pt_clust_9="13000.00000"></scales>
<clustering>
<clus scale="   78.252">  5  6 -1 -1</clus>
<clus scale="   84.072">  2  5  1 -1</clus>
<clus scale="   87.714">  7  8 -1 -1</clus>
<clus scale="   46.006">  7  9 -1 -1</clus>
<clus scale="  156.109">  1  5  2 -1</clus>
</clustering>
</event>
<event>
 9    2  0.2147756E-005  0.4606501E+03  0.7546771E-02  0.1072582E+00
         21   -1    0    0  501  502  0.00000000000E+00  0.00000000000E+00  0.24019143147E+03  0.24019143147E+03  0.00000000000E+00 0. -1.
          2   -1    0    0  502    0 -0.00000000000E+00 -0.00000000000E+00 -0.59359834213E+03  0.59359834213E+03  0.00000000000E+00 0. -1.
         24    2    1    2    0    0 -0.81093577225E+02 -0.21215219932E+01 -0.35444664500E+03  0.37313846523E+03  0.83780791117E+02 0.  0.
         23    2    1    2    0    0  0.79045543900E+02  0.19548418085E+03  0.90673347363E+02  0.24751403601E+03  0.92624398117E+02 0.  0.
        -13    1    3    3    0    0 -0.23842185644E+02 -0.17468077785E+02 -0.25933181838E+02  0.39320649511E+02  0.00000000000E+00 0.  1.
         14    1    3    3    0    0 -0.57251391582E+02  0.15346555791E+02 -0.32851346316E+03  0.33381781572E+03  0.00000000000E+00 0. -1.
        -13    1    4    4    0    0  0.39897203170E+02  0.43060873041E+02  0.65817434396E+02  0.88192745043E+02  0.00000000000E+00 0.  1.
         13    1    4    4    0    0  0.39148340730E+02  0.15242330781E+03  0.24855912968E+02  0.15932129097E+03  0.00000000000E+00 0. -1.
          1    1    1    2  501    0  0.20480333258E+01 -0.19336265886E+03 -0.89633613023E+02  0.21313727235E+03  0.00000000000E+00 0. -1.
<scales pt_clust_5="13000.00000" pt_clust_6="13000.00000" pt_clust_7="13000.00000" pt_clust_8="13000.00000" pt_clust_9="13000.00000"></scales>
<clustering>
<clus scale="   83.781">  5  6 -1 -1</clus>
<clus scale="   92.624">  7  8 -1 -1</clus>
<clus scale="  116.619">  2  5  1 -1</clus>
<clus scale="  201.422">  7  9 -1 -1</clus>
<clus scale="  460.650">  1  5  2 -1</clus>
</clustering>
</event>
<event>
 9    2  0.2147756E-005  0.1790158E+03  0.7546771E-02  0.1205574E+00
         21   -1    0    0  501  502  0.00000000000E+00  0.00000000000E+00  0.67109987486E+02  0.67109987486E+02  0.00000000000E+00 0.  1.
          2   -1    0    0  502    0 -0.00000000000E+00 -0.00000000000E+00 -0.25509158958E+03  0.25509158958E+03  0.00000000000E+00 0. -1.
         24    2    1    2    0    0  0.99762573343E+01 -0.56877508163E+01 -0.33871149080E+02  0.85988315741E+02  0.78197566997E+02 0.  0.
         23    2    1    2    0    0 -0.49096081946E+02  0.46276626749E+02 -0.61153704596E+02  0.12749907364E+03  0.89242852642E+02 0.  0.
        -11    1    3    3    0    0 -0.16602830883E+02 -0.33743803513E+02 -0.54146456468E+01  0.37994955669E+02  0.00000000000E+00 0.  1.
         12    1    3    3    0    0  0.26579088217E+02  0.28056052696E+02 -0.28456503434E+02  0.47993360072E+02  0.00000000000E+00 0. -1.
        -13    1    4    4    0    0 -0.16841746786E+02  0.35924017137E+02 -0.79590660078E+02  0.88931730073E+02  0.00000000000E+00 0. -1.
         13    1    4    4    0    0 -0.32254335160E+02  0.10352609612E+02  0.18436955483E+02  0.38567343568E+02  0.00000000000E+00 0.  1.
          1    1    1    2  501    0  0.39119824612E+02 -0.40588875933E+02 -0.92956748418E+02  0.10871418768E+03  0.00000000000E+00 0. -1.
<scales pt_clust_5="13000.00000" pt_clust_6="13000.00000" pt_clust_7="13000.00000" pt_clust_8="13000.00000" pt_clust_9="13000.00000"></scales>
<clustering>
<clus scale="   78.198">  5  6 -1 -1</clus>
<clus scale="   79.036">  2  5  1 -1</clus>
<clus scale="   89.243">  7  8 -1 -1</clus>
<clus scale="   62.088">  7  9 -1 -1</clus>
<clus scale="  179.016">  1  5  2 -1</clus>
</clustering>
</event>
<event>
 9    2  0.2147756E-005  0.2344130E+03  0.7546771E-02  0.1155778E+00
          4   -1    0    0  502    0 -0.00000000000E+00  0.00000000000E+00  0.27523622035E+03  0.27523622035E+03  0.00000000000E+00 0. -1.
         21   -1    0    0  501  502  0.00000000000E+00 -0.00000000000E+00 -0.18201969750E+03  0.18201969750E+03  0.00000000000E+00 0. -1.
         24    2    1    2    0    0 -0.68287231107E+02 -0.13378612995E+01  0.17793346735E+03  0.20800416041E+03  0.83309520104E+02 0.  0.
         23    2    1    2    0    0 -0.17850027407E+02  0.58275150133E+02  0.15797417954E+02  0.10515241940E+03  0.84219096939E+02 0.  0.
        -11    1    3    3    0    0 -0.17792680586E+02  0.31322844754E+02  0.25495448131E+02  0.44132957768E+02  0.00000000000E+00 0.  1.
         12    1    3    3    0    0 -0.50494550521E+02 -0.32660706053E+02  0.15243801922E+03  0.16387120265E+03  0.00000000000E+00 0. -1.
        -13    1    4    4    0    0  0.11269650600E+02  0.69553900868E+02  0.20934349760E+02  0.73505082481E+02  0.00000000000E+00 0. -1.
         13    1    4    4    0    0 -0.29119678007E+02 -0.11278750736E+02 -0.51369318057E+01  0.31647336914E+02  0.00000000000E+00 0.  1.
          3    1    1    2  501    0  0.86137258513E+02 -0.56937288833E+02 -0.10051436246E+03  0.14409933804E+03  0.00000000000E+00 0. -1.
<scales pt_clust_5="13000.00000" pt_clust_6="13000.00000" pt_clust_7="13000.00000" pt_clust_8="13000.00000" pt_clust_9="13000.00000"></scales>
<clustering>
<clus scale="   83.310">  5  6 -1 -1</clus>
<clus scale="   84.219">  7  8 -1 -1</clus>
<clus scale="  103.255">  7  9 -1 -1</clus>
<clus scale="  107.728">  1  5  2 -1</clus>
<clus scale="  234.413">  2  5  1 -1</clus>
</clustering>
</event>
<event>
 9    2  0.2147756E-005  0.2216164E+03  0.7546771E-02  0.1167464E+00
         21   -1    0    0  501  502  0.00000000000E+00  0.00000000000E+00  0.51622016811E+02  0.51622016811E+02  0.00000000000E+00 0.  1.
          2   -1    0    0  502    0 -0.00000000000E+00 -0.00000000000E+00 -0.87154249098E+03  0.87154249098E+03  0.00000000000E+00 0. -1.
         24    2    1    2    0    0  0.18547053129E+02  0.52260990693E+02 -0.61071316192E+03  0.61839980873E+03  0.79828271749E+02 0.  0.
         23    2    1    2    0    0 -0.79949985217E+02  0.17764772508E+01 -0.18199356347E+03  0.21856170530E+03  0.90842753549E+02 0.  0.
        -11    1    3    3    0    0  0.29162373657E+02 -0.56456544114E+01 -0.10039422443E+03  0.10469631201E+03  0.00000000000E+00 0.  1.
         12    1    3    3    0    0 -0.10615320528E+02  0.57906645104E+02 -0.51031893749E+03  0.51370349671E+03  0.00000000000E+00 0. -1.
        -11    1    4    4    0    0 -0.90370362934E+02 -0.22645042189E+02 -0.12714540513E+03  0.15762472673E+03  0.00000000000E+00 0.  1.
         11    1    4    4    0    0  0.10420377718E+02  0.24421519440E+02 -0.54848158343E+02  0.60936978569E+02  0.00000000000E+00 0. -1.
          1    1    1    2  501    0  0.61402932088E+02 -0.54037467944E+02 -0.27213748785E+02  0.86202993763E+02  0.00000000000E+00 0. -1.
<scales pt_clust_5="13000.00000" pt_clust_6="13000.00000" pt_clust_7="13000.00000" pt_clust_8="13000.00000" pt_clust_9="13000.00000"></scales>
<clustering>
<clus scale="   79.828">  5  6 -1 -1</clus>
<clus scale="   90.843">  7  8 -1 -1</clus>
<clus scale="   81.795">  7  9 -1 -1</clus>
<clus scale="   97.200">  2  5  1 -1</clus>
<clus scale="  221.616">  1  5  2 -1</clus>
</clustering>
</event>
<event>
 9    2  0.2147756E-005  0.2966456E+03  0.7546771E-02  0.1094007E+00
         21   -1    0    0  501  502  0.00000000000E+00  0.00000000000E+00  0.10955510079E+03  0.10955510079E+03  0.00000000000E+00 0. -1.
         -1   -1    0    0    0  501 -0.00000000000E+00 -0.00000000000E+00 -0.67493368525E+03  0.67493368525E+03  0.00000000000E+00 0.  1.
         24    2    1    2    0    0  0.84346470462E+02 -0.21690692834E+03 -0.28166180024E+03  0.37400879537E+03  0.79914120498E+02 0.  0.
         23    2    1    2    0    0 -0.97223079527E+01  0.14749945015E+03 -0.98895070169E+02  0.19942258228E+03  0.90213748124E+02 0.  0.
        -11    1    3    3    0    0  0.26390487410E+02 -0.71905610457E+02 -0.15518821368E+03  0.17306142351E+03  0.00000000000E+00 0.  1.
         12    1    3    3    0    0  0.57955983052E+02 -0.14500131788E+03 -0.12647358656E+03  0.20094737186E+03  0.00000000000E+00 0. -1.
        -13    1    4    4    0    0 -0.33695222474E+02  0.13502919457E+03 -0.58823163316E+02  0.15109075401E+03  0.00000000000E+00 0.  1.
         13    1    4    4    0    0  0.23972914522E+02  0.12470255582E+02 -0.40071906853E+02  0.48331828268E+02  0.00000000000E+00 0. -1.
         -2    1    1    2    0  502 -0.74624162510E+02  0.69407478189E+02 -0.18482171404E+03  0.21105740840E+03  0.00000000000E+00 0.  1.
<scales pt_clust_5="13000.00000" pt_clust_6="13000.00000" pt_clust_7="13000.00000" pt_clust_8="13000.00000" pt_clust_9="13000.00000"></scales>
<clustering>
<clus scale="   79.914">  5  6 -1 -1</clus>
<clus scale="   90.214">  7  8 -1 -1</clus>
<clus scale="  101.913">  7  9 -1 -1</clus>
<clus scale="  246.067">  2  5  1 -1</clus>
<clus scale="  296.646">  1  5  2 -1</clus>
</clustering>
</event>
<event>
 9    2  0.2147756E-005  0.5000236E+03  0.7546771E-02  0.1070141E+00
         21   -1    0    0  501  502  0.00000000000E+00  0.00000000000E+00  0.58762021737E+02  0.58762021737E+02  0.00000000000E+00 0. -1.
          2   -1    0    0  502    0 -0.00000000000E+00 -0.00000000000E+00 -0.15321763437E+04  0.15321763437E+04  0.00000000000E+00 0. -1.
         24    2    1    2    0    0 -0.76123856648E+01  0.52113869467E+02 -0.29957826473E+03  0.31504076609E+03  0.82035015663E+02 0.  0.
         23    2    1    2    0    0  0.78802232819E+02  0.19891926630E+03 -0.65891837424E+03  0.69864042108E+03  0.90257119674E+02 0.  0.
        -11    1    3    3    0    0  0.31544102148E+00  0.57439782948E+02 -0.30003036647E+03  0.30547937569E+03  0.00000000000E+00 0.  1.
         12    1    3    3    0    0 -0.79278266863E+01 -0.53259134817E+01  0.45210174229E+00  0.95613903993E+01  0.00000000000E+00 0. -1.
        -11    1    4    4    0    0  0.49314242454E+02  0.18731304990E+03 -0.61280285802E+03  0.64268609443E+03  0.00000000000E+00 0. -1.
         11    1    4    4    0    0  0.29487990365E+02  0.11606216406E+02 -0.46115516214E+02  0.55954326649E+02  0.00000000000E+00 0.  1.
          1    1    1    2  501    0 -0.71189847154E+02 -0.25103313577E+03 -0.51491768295E+03  0.57725717823E+03  0.00000000000E+00 0. -1.
<scales pt_clust_5="13000.00000" pt_clust_6="13000.00000" pt_clust_7="13000.00000" pt_clust_8="13000.00000" pt_clust_9="13000.00000"></scales>
<clustering>
<clus scale="   82.035">  5  6 -1 -1</clus>
<clus scale="   90.257">  7  8 -1 -1</clus>
<clus scale="   97.486">  2  5  1 -1</clus>
<clus scale="  239.698">  7  9 -1 -1</clus>
<clus scale="  500.024">  1  5  2 -1</clus>
</clustering>
</event>
<event>
 9    2  0.2147756E-005  0.2989302E+03  0.7546771E-02  0.1132335E+00
          2   -1    0    0  502    0 -0.00000000000E+00  0.00000000000E+00  0.97452319170E+03  0.97452319170E+03  0.00000000000E+00 0. -1.
         21   -1    0    0  501  502  0.00000000000E+00 -0.00000000000E+00 -0.45729082814E+02  0.45729082814E+02  0.00000000000E+00 0. -1.
         24    2    1    2    0    0  0.46674006484E+02  0.10280833456E+02  0.83129746736E+02  0.12330885298E+03  0.77526511682E+02 0.  0.
         23    2    1    2    0    0  0.29953179691E+02 -0.57762352308E+02  0.11582890046E+03  0.16156187333E+03  0.91935969100E+02 0.  0.
        -11    1    3    3    0    0 -0.72563920118E+01  0.29687329276E+02  0.14304975997E+02  0.33743519123E+02  0.00000000000E+00 0.  1.
         12    1    3    3    0    0  0.53930398496E+02 -0.19406495820E+02  0.68824770739E+02  0.89565333859E+02  0.00000000000E+00 0. -1.
        -13    1    4    4    0    0  0.24973336836E+02  0.79962317178E+00 -0.65249060796E+01  0.25824045951E+02  0.00000000000E+00 0. -1.
         13    1    4    4    0    0  0.49798428557E+01 -0.58561975480E+02  0.12235380654E+03  0.13573782738E+03  0.00000000000E+00 0.  1.
          1    1    1    2  501    0 -0.76627186175E+02  0.47481518852E+02  0.72983546169E+03  0.73538154820E+03  0.00000000000E+00 0. -1.
<scales pt_clust_5="13000.00000" pt_clust_6="13000.00000" pt_clust_7="13000.00000" pt_clust_8="13000.00000" pt_clust_9="13000.00000"></scales>
<clustering>
<clus scale="   77.527">  5  6 -1 -1</clus>
<clus scale="   91.074">  1  5  2 -1</clus>
<clus scale="   91.936">  7  8 -1 -1</clus>
<clus scale="   67.436">  7  9 -1 -1</clus>
<clus scale="  298.930">  2  5  1 -1</clus>
</clustering>
</event>
<event>
 9    2  0.2147756E-005  0.2626839E+03  0.7546771E-02  0.1133494E+00
         -1   -1    0    0    0  501 -0.00000000000E+00  0.00000000000E+00  0.11118801584E+03  0.11118801584E+03  0.00000000000E+00 0.  1.
         21   -1    0    0  501  502  0.00000000000E+00 -0.00000000000E+00 -0.35604065584E+03  0.35604065584E+03  0.00000000000E+00 0.  1.
         24    2    1    2    0    0 -0.55079200581E+02  0.77038067175E+02 -0.48192329410E+02  0.13908522376E+03  0.89741945178E+02 0.  0.
         23    2    1    2    0    0 -0.18871308069E+02  0.18739862585E+02  0.19503999694E+01  0.95574524996E+02  0.91778957557E+02 0.  0.
        -13    1    3    3    0    0 -0.68723234904E+02  0.60696168470E+02 -0.60713959367E+01  0.91889987111E+02  0.00000000000E+00 0.  1.
         14    1    3    3    0    0  0.13644034323E+02  0.16341898705E+02 -0.42120933473E+02  0.47195236651E+02  0.00000000000E+00 0. -1.
        -13    1    4    4    0    0  0.14237919380E+02  0.31282003579E+02 -0.31679936305E+02  0.46742918827E+02  0.00000000000E+00 0. -1.
         13    1    4    4    0    0 -0.33109227450E+02 -0.12542140994E+02  0.33630336275E+02  0.48831606169E+02  0.00000000000E+00 0.  1.
         -2    1    1    2    0  502  0.73950508651E+02 -0.95777929759E+02 -0.19861071056E+03  0.23256892292E+03  0.00000000000E+00 0.  1.
<scales pt_clust_5="13000.00000" pt_clust_6="13000.00000" pt_clust_7="13000.00000" pt_clust_8="13000.00000" pt_clust_9="13000.00000"></scales>
<clustering>
<clus scale="   89.742">  5  6 -1 -1</clus>
<clus scale="   91.779">  7  8 -1 -1</clus>
<clus scale="  121.005">  7  9 -1 -1</clus>
<clus scale="  130.469">  1  5  2 -1</clus>
<clus scale="  262.684">  2  5  1 -1</clus>
</clustering>
</event>
<event>
 9    2  0.2147756E-005  0.2273342E+03  0.7546771E-02  0.1158504E+00
          2   -1    0    0  502    0 -0.00000000000E+00  0.00000000000E+00  0.79208446184E+03  0.79208446184E+03  0.00000000000E+00 0. -1.
         21   -1    0    0  501  502  0.00000000000E+00 -0.00000000000E+00 -0.36513844012E+02  0.36513844012E+02  0.00000000000E+00 0. -1.
         24    2    1    2    0    0 -0.55969886742E+02  0.39942656351E+02  0.29108059795E+03  0.31146020246E+03  0.86899362437E+02 0.  0.
         23    2    1    2    0    0 -0.28975007503E+02  0.40070050059E+02  0.15841970610E+03  0.18957634553E+03  0.91636387585E+02 0.  0.
        -11    1    3    3    0    0 -0.61958275776E+02 -0.69822481997E+01  0.18733276285E+03  0.19743642967E+03  0.00000000000E+00 0.  1.
         12    1    3    3    0    0  0.59883890338E+01  0.46924904551E+02  0.10374783511E+03  0.11402377279E+03  0.00000000000E+00 0. -1.
        -13    1    4    4    0    0  0.17649825342E+02  0.20381904590E+02  0.12738614294E+03  0.13020817095E+03  0.00000000000E+00 0.  1.
         13    1    4    4    0    0 -0.46624832845E+02  0.19688145469E+02  0.31033563164E+02  0.59368174576E+02  0.00000000000E+00 0. -1.
          1    1    1    2  501    0  0.84944894245E+02 -0.80012706411E+02  0.30607031377E+03  0.32756175787E+03  0.00000000000E+00 0. -1.
<scales pt_clust_5="13000.00000" pt_clust_6="13000.00000" pt_clust_7="13000.00000" pt_clust_8="13000.00000" pt_clust_9="13000.00000"></scales>
<clustering>
<clus scale="   86.899">  5  6 -1 -1</clus>
<clus scale="   91.636">  7  8 -1 -1</clus>
<clus scale="  110.813">  1  5  2 -1</clus>
<clus scale="   72.966">  7  9 -1 -1</clus>
<clus scale="  227.334">  2  5  1 -1</clus>
</clustering>
</event>
<event>
 9    2  0.2147756E-005  0.2222128E+03  0.7546771E-02  0.1142714E+00
          2   -1    0    0  502    0 -0.00000000000E+00  0.00000000000E+00  0.44666946161E+03  0.44666946161E+03  0.00000000000E+00 0. -1.
         21   -1    0    0  501  502  0.00000000000E+00 -0.00000000000E+00 -0.10611127813E+03  0.10611127813E+03  0.00000000000E+00 0.  1.
         24    2    1    2    0    0  0.89172688494E+02 -0.10880630657E+03  0.36609058445E+02  0.17626569194E+03  0.99693481589E+02 0.  0.
         23    2    1    2    0    0 -0.24857115570E+01  0.30901042785E+02  0.72453751842E+02  0.11733563136E+03  0.86931300604E+02 0.  0.
        -13    1    3    3    0    0  0.39584290795E+02 -0.11529676729E+03  0.19769125273E+02  0.12349525878E+03  0.00000000000E+00 0.  1.
         14    1    3    3    0    0  0.49588397699E+02  0.64904607244E+01  0.16839933172E+02  0.52770433161E+02  0.00000000000E+00 0. -1.
        -13    1    4    4    0    0 -0.34194517889E+01  0.53696628743E+02  0.15517291169E+02  0.55998275993E+02  0.00000000000E+00 0.  1.
         13    1    4    4    0    0  0.93374023192E+00 -0.22795585958E+02  0.56936460674E+02  0.61337355372E+02  0.00000000000E+00 0. -1.
          1    1    1    2  501    0 -0.86686976937E+02  0.77905263785E+02  0.23149537319E+03  0.25917941644E+03  0.00000000000E+00 0. -1.
<scales pt_clust_5="13000.00000" pt_clust_6="13000.00000" pt_clust_7="13000.00000" pt_clust_8="13000.00000" pt_clust_9="13000.00000"></scales>
<clustering>
<clus scale="   86.931">  7  8 -1 -1</clus>
<clus scale="   99.693">  5  6 -1 -1</clus>
<clus scale="  116.550">  7  9 -1 -1</clus>
<clus scale="  172.422">  1  5  2 -1</clus>
<clus scale="  222.213">  2  5  1 -1</clus>
</clustering>
</event>
<event>
 9    2  0.2147756E-005  0.3174732E+03  0.7546771E-02  0.1119831E+00
          2   -1    0    0  502    0 -0.00000000000E+00  0.00000000000E+00  0.12436618007E+04  0.12436618007E+04  0.00000000000E+00 0. -1.
         21   -1    0    0  501  502  0.00000000000E+00 -0.00000000000E+00 -0.35641551981E+02  0.35641551981E+02  0.00000000000E+00 0.  1.
         24    2    1    2    0    0 -0.22823391920E+02  0.61258275507E+02  0.29285270964E+03  0.31063371624E+03  0.80356160830E+02 0.  0.
         23    2    1    2    0    0 -0.50714209322E+01  0.91096562378E+02  0.23044062367E+03  0.26664323673E+03  0.98343437340E+02 0.  0.
        -13    1    3    3    0    0  0.26803953681E+02  0.29565414722E+01  0.71773002945E+02  0.76671748527E+02  0.00000000000E+00 0.  1.
         14    1    3    3    0    0 -0.49627345601E+02  0.58301734035E+02  0.22107970669E+03  0.23396196771E+03  0.00000000000E+00 0. -1.
        -11    1    4    4    0    0  0.20537601117E+02 -0.98253937492E+01  0.83530428972E+02  0.86577502771E+02  0.00000000000E+00 0. -1.
         11    1    4    4    0    0 -0.25609022049E+02  0.10092195613E+03  0.14691019470E+03  0.18006573396E+03  0.00000000000E+00 0.  1.
          1    1    1    2  501    0  0.27894812852E+02 -0.15235483789E+03  0.68472691539E+03  0.70202639969E+03  0.00000000000E+00 0. -1.
<scales pt_clust_5="13000.00000" pt_clust_6="13000.00000" pt_clust_7="13000.00000" pt_clust_8="13000.00000" pt_clust_9="13000.00000"></scales>
<clustering>
<clus scale="   80.356">  5  6 -1 -1</clus>
<clus scale="   98.343">  7  8 -1 -1</clus>
<clus scale="  103.589">  1  5  2 -1</clus>
<clus scale="  107.833">  7  9 -1 -1</clus>
<clus scale="  317.473">  2  5  1 -1</clus>
</clustering>
</event>
<event>
 9    2  0.2147756E-005  0.7895981E+03  0.7546771E-02  0.1013145E+00
          2   -1    0    0  502    0 -0.00000000000E+00  0.00000000000E+00  0.16754668295E+04  0.16754668295E+04  0.00000000000E+00 0. -1.
         21   -1    0    0  501  502  0.00000000000E+00 -0.00000000000E+00 -0.13458299610E+03  0.13458299610E+03  0.00000000000E+00 0. -1.
         24    2    1    2    0    0 -0.10515326932E+02  0.10125310945E+03  0.41619721967E+03  0.43586458520E+03  0.79969035865E+02 0.  0.
         23    2    1    2    0    0  0.32090244777E+03  0.52146678037E+02  0.90157094367E+03  0.96229658821E+03  0.86526875658E+02 0.  0.
        -13    1    3    3    0    0  0.22760788677E+02  0.54453457095E+02  0.30561408412E+03  0.31126066392E+03  0.00000000000E+00 0.  1.
         14    1    3    3    0    0 -0.33276115609E+02  0.46799652359E+02  0.11058313555E+03  0.12460392128E+03  0.00000000000E+00 0. -1.
        -11    1    4    4    0    0  0.27737100013E+03  0.17337473649E+02  0.69967495413E+03  0.75284812622E+03  0.00000000000E+00 0. -1.
         11    1    4    4    0    0  0.43531447636E+02  0.34809204388E+02  0.20189598953E+03  0.20944846200E+03  0.00000000000E+00 0.  1.
          1    1    1    2  501    0 -0.31038712084E+03 -0.15339978749E+03  0.22311567008E+03  0.41188865221E+03  0.00000000000E+00 0. -1.
<scales pt_clust_5="13000.00000" pt_clust_6="13000.00000" pt_clust_7="13000.00000" pt_clust_8="13000.00000" pt_clust_9="13000.00000"></scales>
<clustering>
<clus scale="   79.969">  5  6 -1 -1</clus>
<clus scale="   86.527">  7  8 -1 -1</clus>
<clus scale="  129.452">  1  5  2 -1</clus>
<clus scale="  338.091">  7  9 -1 -1</clus>
<clus scale="  789.598">  2  5  1 -1</clus>
</clustering>
</event>
<event>
 9    2  0.2147756E-005  0.2046646E+03  0.7546771E-02  0.1173472E+00
          2   -1    0    0  502    0 -0.00000000000E+00  0.00000000000E+00  0.32974355219E+03  0.32974355219E+03  0.00000000000E+00 0. -1.
         21   -1    0    0  501  502  0.00000000000E+00 -0.00000000000E+00 -0.11437655872E+03  0.11437655872E+03  0.00000000000E+00 0.  1.
         24    2    1    2    0    0 -0.13999759357E+02  0.65552422567E+02 -0.41836833930E+02  0.11542359387E+03  0.84137815407E+02 0.  0.
         23    2    1    2    0    0 -0.31073412528E+02  0.21708990812E+02  0.87533050089E+02  0.13264979363E+03  0.92179692149E+02 0.  0.
        -11    1    3    3    0    0 -0.36431181310E+01  0.83381734233E+02 -0.20900080795E+02  0.86038359414E+02  0.00000000000E+00 0.  1.
         12    1    3    3    0    0 -0.10356641226E+02 -0.17829311666E+02 -0.20936753136E+02  0.29385234453E+02  0.00000000000E+00 0. -1.
        -11    1    4    4    0    0 -0.32744218730E+02 -0.31863527467E+02  0.34525528383E+02  0.57266747359E+02  0.00000000000E+00 0.  1.
         11    1    4    4    0    0  0.16708062027E+01  0.53572518279E+02  0.53007521706E+02  0.75383046274E+02  0.00000000000E+00 0. -1.
          1    1    1    2  501    0  0.45073171885E+02 -0.87261413379E+02  0.16967077731E+03  0.19604672341E+03  0.00000000000E+00 0. -1.
<scales pt_clust_5="13000.00000" pt_clust_6="13000.00000" pt_clust_7="13000.00000" pt_clust_8="13000.00000" pt_clust_9="13000.00000"></scales>
<clustering>
<clus scale="   84.138">  5  6 -1 -1</clus>
<clus scale="   92.180">  7  8 -1 -1</clus>
<clus scale="   98.215">  7  9 -1 -1</clus>
<clus scale="  107.575">  1  5  2 -1</clus>
<clus scale="  204.665">  2  5  1 -1</clus>
</clustering>
</event>
<event>
 9    2  0.2147756E-005  0.1740763E+03  0.7546771E-02  0.1199016E+00
          2   -1    0    0  502    0 -0.00000000000E+00  0.00000000000E+00  0.23514848960E+03  0.23514848960E+03  0.00000000000E+00 0. -1.
         21   -1    0    0  501  502  0.00000000000E+00 -0.00000000000E+00 -0.79542137001E+02  0.79542137001E+02  0.00000000000E+00 0. -1.
         24    2    1    2    0    0  0.38918762481E+02  0.43493456076E+02  0.64575571835E+02  0.11824940838E+03  0.80041035162E+02 0.  0.
         23    2    1    2    0    0 -0.18473350615E+02 -0.77400748087E+02  0.98245214126E+02  0.15619488464E+03  0.91720114488E+02 0.  0.
        -11    1    3    3    0    0 -0.22760035498E+02 -0.43725495136E+00  0.20485194922E+02  0.30624395810E+02  0.00000000000E+00 0.  1.
         12    1    3    3    0    0  0.61678797979E+02  0.43930711027E+02  0.44090376912E+02  0.87625012569E+02  0.00000000000E+00 0. -1.
        -13    1    4    4    0    0 -0.43566800051E+02 -0.77934128001E+02  0.51331191201E+02  0.10298876426E+03  0.00000000000E+00 0. -1.
         13    1    4    4    0    0  0.25093449436E+02  0.53337991423E+00  0.46914022925E+02  0.53206120379E+02  0.00000000000E+00 0.  1.
          1    1    1    2  501    0 -0.20445411866E+02  0.33907292011E+02 -0.72144333637E+01  0.40246333580E+02  0.00000000000E+00 0. -1.
<scales pt_clust_5="13000.00000" pt_clust_6="13000.00000" pt_clust_7="13000.00000" pt_clust_8="13000.00000" pt_clust_9="13000.00000"></scales>
<clustering>
<clus scale="   80.041">  5  6 -1 -1</clus>
<clus scale="   91.720">  7  8 -1 -1</clus>
<clus scale="   39.594">  7  9 -1 -1</clus>
<clus scale="   99.060">  1  5  2 -1</clus>
<clus scale="  174.076">  2  5  1 -1</clus>
</clustering>
</event>
<event>
 9    2  0.2147756E-005  0.1437010E+03  0.7546771E-02  0.1229937E+00
         21   -1    0    0  501  502  0.00000000000E+00  0.00000000000E+00  0.23347956071E+02  0.23347956071E+02  0.00000000000E+00 0.  1.
          2   -1    0    0  502    0 -0.00000000000E+00 -0.00000000000E+00 -0.61040330268E+03  0.61040330268E+03  0.00000000000E+00 0. -1.
         24    2    1    2    0    0 -0.40895353585E+02  0.18498435641E+02 -0.17654158513E+03  0.19881271322E+03  0.79655141651E+02 0.  0.
         23    2    1    2    0    0  0.77422306451E+01  0.64398854538E+01 -0.18717614711E+03  0.20778058417E+03  0.89646231651E+02 0.  0.
        -13    1    3    3    0    0 -0.33646983991E+02 -0.19048655740E+02 -0.34854077977E+02  0.52055523903E+02  0.00000000000E+00 0.  1.
         14    1    3    3    0    0 -0.72483695941E+01  0.37547091381E+02 -0.14168750715E+03  0.14675718931E+03  0.00000000000E+00 0. -1.
        -13    1    4    4    0    0  0.14326938318E+02  0.33257284401E+02 -0.26815434363E+02  0.45059689828E+02  0.00000000000E+00 0.  1.
         13    1    4    4    0    0 -0.65847076731E+01 -0.26817398947E+02 -0.16036071275E+03  0.16272089434E+03  0.00000000000E+00 0. -1.
          1    1    1    2  501    0  0.33153122940E+02 -0.24938321094E+02 -0.22333761437E+03  0.22715796137E+03  0.00000000000E+00 0. -1.
<scales pt_clust_5="13000.00000" pt_clust_6="13000.00000" pt_clust_7="13000.00000" pt_clust_8="13000.00000" pt_clust_9="13000.00000"></scales>
<clustering>
<clus scale="   79.655">  5  6 -1 -1</clus>
<clus scale="   89.646">  7  8 -1 -1</clus>
<clus scale="   41.486">  7  9 -1 -1</clus>
<clus scale="   91.431">  2  5  1 -1</clus>
<clus scale="  143.701">  1  5  2 -1</clus>
</clustering>
</event>
<event>
 9    2  0.2147756E-005  0.3548911E+03  0.7546771E-02  0.1113685E+00
          2   -1    0    0  502    0 -0.00000000000E+00  0.00000000000E+00  0.14620792414E+03  0.14620792414E+03  0.00000000000E+00 0. -1.
         21   -1    0    0  501  502  0.00000000000E+00 -0.00000000000E+00 -0.37921261364E+03  0.37921261364E+03  0.00000000000E+00 0. -1.
         24    2    1    2    0    0 -0.26608545314E+02 -0.79207932923E+01  0.20914969315E+02  0.89045859673E+02  0.81981556056E+02 0.  0.
         23    2    1    2    0    0  0.79126956164E+02  0.10675056227E+03 -0.27183197076E+03  0.32303290455E+03  0.11314097118E+03 0.  0.
        -11    1    3    3    0    0 -0.20663747321E+01  0.33622207565E+02 -0.53528311653E+01  0.34108291478E+02  0.00000000000E+00 0.  1.
         12    1    3    3    0    0 -0.24542170582E+02 -0.41543000857E+02  0.26267800480E+02  0.54937568195E+02  0.00000000000E+00 0. -1.
        -13    1    4    4    0    0  0.38836984964E+02  0.95373687609E+02 -0.25981245556E+03  0.27947623110E+03  0.00000000000E+00 0. -1.
         13    1    4    4    0    0  0.40289971200E+02  0.11376874659E+02 -0.12019515203E+02  0.43556673450E+02  0.00000000000E+00 0.  1.
          1    1    1    2  501    0 -0.52518410850E+02 -0.98829768977E+02  0.17912311943E+02  0.11334177356E+03  0.00000000000E+00 0. -1.
<scales pt_clust_5="13000.00000" pt_clust_6="13000.00000" pt_clust_7="13000.00000" pt_clust_8="13000.00000" pt_clust_9="13000.00000"></scales>
<clustering>
<clus scale="   81.982">  5  6 -1 -1</clus>
<clus scale="   86.555">  1  5  2 -1</clus>
<clus scale="  113.141">  7  8 -1 -1</clus>
<clus scale="  126.733">  7  9 -1 -1</clus>
<clus scale="  354.891">  2  5  1 -1</clus>
</clustering>
</event>
<event>
 9    2  0.2505506E-005  0.1083756E+04  0.7546771E-02  0.9424607E-01
         21   -1    0    0  501  502  0.00000000000E+00  0.00000000000E+00  0.35118430776E+03  0.35118430776E+03  0.00000000000E+00 0. -1.
          2   -1    0    0  502    0 -0.00000000000E+00 -0.00000000000E+00 -0.20937554055E+04  0.20937554055E+04  0.00000000000E+00 0. -1.
         24    2    1    2    0    0  0.37193008048E+03 -0.34995309265E+03 -0.10162648041E+04  0.11403141419E+04  0.81994135921E+02 0.  0.
         23    2    1    2    0    0  0.28431199815E+03 -0.40776208888E+02 -0.32134831973E+03  0.44015231357E+03  0.89293365062E+02 0.  0.
        -13    1    3    3    0    0  0.39167470525E+02 -0.77085366099E+02 -0.18786345391E+03  0.20680648377E+03  0.00000000000E+00 0.  1.
         14    1    3    3    0    0  0.33276260996E+03 -0.27286772655E+03 -0.82840135017E+03  0.93350765810E+03  0.00000000000E+00 0. -1.
        -13    1    4    4    0    0  0.20507120222E+03 -0.42690872473E+02 -0.17185135853E+03  0.27094205654E+03  0.00000000000E+00 0. -1.
         13    1    4    4    0    0  0.79240795926E+02  0.19146635848E+01 -0.14949696120E+03  0.16921025703E+03  0.00000000000E+00 0.  1.
          1    1    1    2  501    0 -0.65624207863E+03  0.39072930153E+03 -0.40495797392E+03  0.86447325782E+03  0.00000000000E+00 0. -1.
<scales pt_clust_5="13000.00000" pt_clust_6="13000.00000" pt_clust_7="13000.00000" pt_clust_8="13000.00000" pt_clust_9="13000.00000"></scales>
<clustering>
<clus scale="   81.994">  5  6 -1 -1</clus>
<clus scale="   89.293">  7  8 -1 -1</clus>
<clus scale="  517.225">  2  5  1 -1</clus>
<clus scale="  457.341">  7  9 -1 -1</clus>
<clus scale=" 1083.756">  1  5  2 -1</clus>
</clustering>
</event>
<event>
 9    2  0.2147756E-005  0.1810141E+03  0.7546771E-02  0.1191074E+00
         -3   -1    0    0    0  501 -0.00000000000E+00  0.00000000000E+00  0.95433117124E+02  0.95433117124E+02  0.00000000000E+00 0.  1.
         21   -1    0    0  501  502  0.00000000000E+00 -0.00000000000E+00 -0.23391332422E+03  0.23391332422E+03  0.00000000000E+00 0.  1.
         24    2    1    2    0    0  0.22389827195E+02  0.63809404952E+02 -0.59645682429E+01  0.10501074391E+03  0.80117012797E+02 0.  0.
         23    2    1    2    0    0  0.38135059602E+02 -0.22152844326E+02 -0.98371626925E+02  0.14331505491E+03  0.94430909649E+02 0.  0.
        -11    1    3    3    0    0  0.16317876175E+02  0.80123319224E+02  0.87268533661E+01  0.82232459139E+02  0.00000000000E+00 0.  1.
         12    1    3    3    0    0  0.60719510196E+01 -0.16313914273E+02 -0.14691421609E+02  0.22778284768E+02  0.00000000000E+00 0. -1.
        -11    1    4    4    0    0  0.22125902096E+01  0.33595422908E+02 -0.15202926366E+02  0.36941534428E+02  0.00000000000E+00 0. -1.
         11    1    4    4    0    0  0.35922469392E+02 -0.55748267234E+02 -0.83168700558E+02  0.10637352048E+03  0.00000000000E+00 0.  1.
         -4    1    1    2    0  502 -0.60524886796E+02 -0.41656560626E+02 -0.34144011927E+02  0.81020642526E+02  0.00000000000E+00 0.  1.
<scales pt_clust_5="13000.00000" pt_clust_6="13000.00000" pt_clust_7="13000.00000" pt_clust_8="13000.00000" pt_clust_9="13000.00000"></scales>
<clustering>
<clus scale="   80.117">  5  6 -1 -1</clus>
<clus scale="   94.431">  7  8 -1 -1</clus>
<clus scale="   73.475">  7  9 -1 -1</clus>
<clus scale="  104.841">  1  5  2 -1</clus>
<clus scale="  181.014">  2  5  1 -1</clus>
</clustering>
</event>
<event>
 9    2  0.2147756E-005  0.5268321E+03  0.7546771E-02  0.1031594E+00
         -3   -1    0    0    0  501 -0.00000000000E+00  0.00000000000E+00  0.69871700200E+03  0.69871700200E+03  0.00000000000E+00 0.  1.
         21   -1    0    0  501  502  0.00000000000E+00 -0.00000000000E+00 -0.24162460855E+03  0.24162460855E+03  0.00000000000E+00 0.  1.
         24    2    1    2    0    0 -0.23631617323E+03 -0.62799507372E+01  0.30018142604E+03  0.39063888933E+03  0.81271654363E+02 0.  0.
         23    2    1    2    0    0 -0.19920292319E+02 -0.18266739019E+03  0.24376319010E+02  0.20484962649E+03  0.87206485192E+02 0.  0.
        -11    1    3    3    0    0 -0.21053010646E+03  0.92195052634E+01  0.29079385743E+03  0.35912253135E+03  0.00000000000E+00 0.  1.
         12    1    3    3    0    0 -0.25786066775E+02 -0.15499456001E+02  0.93875686137E+01  0.31516357983E+02  0.00000000000E+00 0. -1.
        -13    1    4    4    0    0 -0.34199537403E+02 -0.16287121139E+03 -0.51970810671E+01  0.16650420267E+03  0.00000000000E+00 0.  1.
         13    1    4    4    0    0  0.14279245084E+02 -0.19796178804E+02  0.29573400077E+02  0.38345423815E+02  0.00000000000E+00 0. -1.
         -4    1    1    2    0  502  0.25623646555E+03  0.18894734093E+03  0.13253464839E+03  0.34485309473E+03  0.00000000000E+00 0.  1.
<scales pt_clust_5="13000.00000" pt_clust_6="13000.00000" pt_clust_7="13000.00000" pt_clust_8="13000.00000" pt_clust_9="13000.00000"></scales>
<clustering>
<clus scale="   81.272">  5  6 -1 -1</clus>
<clus scale="   87.206">  7  8 -1 -1</clus>
<clus scale="  249.980">  1  5  2 -1</clus>
<clus scale="  208.432">  7  9 -1 -1</clus>
<clus scale="  526.832">  2  5  1 -1</clus>
</clustering>
</event>
<event>
 9    2  0.2147756E-005  0.3267794E+03  0.7546771E-02  0.1125832E+00
         21   -1    0    0  501  502  0.00000000000E+00  0.00000000000E+00  0.46203537466E+02  0.46203537466E+02  0.00000000000E+00 0. -1.
          2   -1    0    0  502    0 -0.00000000000E+00 -0.00000000000E+00 -0.90635401301E+03  0.90635401301E+03  0.00000000000E+00 0. -1.
         24    2    1    2    0    0 -0.17296870464E+02 -0.10035589229E+02 -0.19514272433E+03  0.21159865063E+03  0.79331023636E+02 0.  0.
         23    2    1    2    0    0 -0.29697799048E+02 -0.13616385687E+03 -0.42347744824E+03  0.45474278524E+03  0.89639814705E+02 0.  0.
        -13    1    3    3    0    0  0.26880332639E+02 -0.14061539681E+01 -0.12775887918E+03  0.13056362725E+03  0.00000000000E+00 0.  1.
         14    1    3    3    0    0 -0.44177203103E+02 -0.86294352610E+01 -0.67383845148E+02  0.81035023378E+02  0.00000000000E+00 0. -1.
        -13    1    4    4    0    0  0.32235621064E+02 -0.51745301632E+02 -0.15113521180E+03  0.16296798382E+03  0.00000000000E+00 0. -1.
         13    1    4    4    0    0 -0.61933420112E+02 -0.84418555235E+02 -0.27234223644E+03  0.29177480142E+03  0.00000000000E+00 0.  1.
          1    1    1    2  501    0  0.46994669511E+02  0.14619944610E+03 -0.24153030298E+03  0.28621611460E+03  0.00000000000E+00 0. -1.
<scales pt_clust_5="13000.00000" pt_clust_6="13000.00000" pt_clust_7="13000.00000" pt_clust_8="13000.00000" pt_clust_9="13000.00000"></scales>
<clustering>
<clus scale="   79.331">  5  6 -1 -1</clus>
<clus scale="   81.813">  2  5  1 -1</clus>
<clus scale="   89.640">  7  8 -1 -1</clus>
<clus scale="  148.079">  7  9 -1 -1</clus>
<clus scale="  326.779">  1  5  2 -1</clus>
</clustering>
</event>
<event>
 9    2  0.2147756E-005  0.5219627E+03  0.7546771E-02  0.1052251E+00
         21   -1    0    0  501  502  0.00000000000E+00  0.00000000000E+00  0.17457889455E+03  0.17457889455E+03  0.00000000000E+00 0. -1.
          2   -1    0    0  502    0 -0.00000000000E+00 -0.00000000000E+00 -0.75438205144E+03  0.75438205144E+03  0.00000000000E+00 0. -1.
         24    2    1    2    0    0  0.95936932055E+02 -0.65655600029E+02 -0.31162093686E+03  0.34213326262E+03  0.80206036870E+02 0.  0.
         23    2    1    2    0    0  0.16099878087E+03 -0.10485505072E+03 -0.92349217578E+02  0.23185291336E+03  0.91171302192E+02 0.  0.
        -13    1    3    3    0    0  0.11151145606E+02 -0.52516966238E+02 -0.94680968350E+02  0.10884330737E+03  0.00000000000E+00 0.  1.
         14    1    3    3    0    0  0.84785786449E+02 -0.13138633791E+02 -0.21693996851E+03  0.23328995525E+03  0.00000000000E+00 0. -1.
        -13    1    4    4    0    0  0.90302510015E+02 -0.61987159114E+02 -0.22294020056E+01  0.10955328130E+03  0.00000000000E+00 0. -1.
         13    1    4    4    0    0  0.70696270856E+02 -0.42867891603E+02 -0.90119815573E+02  0.12229963206E+03  0.00000000000E+00 0.  1.
          1    1    1    2  501    0 -0.25693571293E+03  0.17051065075E+03 -0.17583300246E+03  0.35497477002E+03  0.00000000000E+00 0. -1.
<scales pt_clust_5="13000.00000" pt_clust_6="13000.00000" pt_clust_7="13000.00000" pt_clust_8="13000.00000" pt_clust_9="13000.00000"></scales>
<clustering>
<clus scale="   80.206">  5  6 -1 -1</clus>
<clus scale="   91.171">  7  8 -1 -1</clus>
<clus scale="  141.236">  2  5  1 -1</clus>
<clus scale="  236.204">  7  9 -1 -1</clus>
<clus scale="  521.963">  1  5  2 -1</clus>
</clustering>
</event>
<event>
 9    2  0.2147756E-005  0.6321470E+03  0.7546771E-02  0.1027141E+00
          2   -1    0    0  502    0 -0.00000000000E+00  0.00000000000E+00  0.11952026624E+04  0.11952026624E+04  0.00000000000E+00 0. -1.
         21   -1    0    0  501  502  0.00000000000E+00 -0.00000000000E+00 -0.14828965678E+03  0.14828965678E+03  0.00000000000E+00 0. -1.
         24    2    1    2    0    0 -0.13365890790E+03  0.53459262389E+02  0.68888433730E+02  0.17895725652E+03  0.80978311678E+02 0.  0.
         23    2    1    2    0    0  0.24006706010E+03 -0.22577533746E+03  0.29478894380E+03  0.45191563542E+03  0.93383744865E+02 0.  0.
        -11    1    3    3    0    0 -0.10996608422E+03  0.73783477770E+02  0.45767542510E+02  0.14011141716E+03  0.00000000000E+00 0.  1.
         12    1    3    3    0    0 -0.23692823684E+02 -0.20324215381E+02  0.23120891220E+02  0.38845839363E+02  0.00000000000E+00 0. -1.
        -13    1    4    4    0    0  0.44388446218E+02 -0.19205815709E+01  0.49081168729E+02  0.66204107992E+02  0.00000000000E+00 0.  1.
         13    1    4    4    0    0  0.19567861388E+03 -0.22385475588E+03  0.24570777507E+03  0.38571152743E+03  0.00000000000E+00 0. -1.
          1    1    1    2  501    0 -0.10640815220E+03  0.17231607507E+03  0.68323562814E+03  0.71261942728E+03  0.00000000000E+00 0. -1.
<scales pt_clust_5="13000.00000" pt_clust_6="13000.00000" pt_clust_7="13000.00000" pt_clust_8="13000.00000" pt_clust_9="13000.00000"></scales>
<clustering>
<clus scale="   80.978">  5  6 -1 -1</clus>
<clus scale="   93.384">  7  8 -1 -1</clus>
<clus scale="  165.167">  1  5  2 -1</clus>
<clus scale="  283.453">  7  9 -1 -1</clus>
<clus scale="  632.147">  2  5  1 -1</clus>
</clustering>
</event>
<event>
 9    2  0.2147756E-005  0.6778447E+03  0.7546771E-02  0.9841108E-01
          2   -1    0    0  502    0 -0.00000000000E+00  0.00000000000E+00  0.61806799392E+03  0.61806799392E+03  0.00000000000E+00 0. -1.
         21   -1    0    0  501  502  0.00000000000E+00 -0.00000000000E+00 -0.57319715196E+03  0.57319715196E+03  0.00000000000E+00 0. -1.
         24    2    1    2    0    0 -0.38580810771E+03 -0.33033623976E+03  0.71444118125E+01  0.51237138655E+03  0.67107882281E+02 0.  0.
         23    2    1    2    0    0 -0.79480226639E+01  0.15152568246E+03 -0.12519743441E+03  0.21676683818E+03  0.91050870636E+02 0.  0.
        -13    1    3    3    0    0 -0.10950280078E+03 -0.56175219178E+02  0.42214288070E+00  0.12307191733E+03  0.00000000000E+00 0.  1.
         14    1    3    3    0    0 -0.27630530693E+03 -0.27416102058E+03  0.67222689318E+01  0.38929946923E+03  0.00000000000E+00 0. -1.
        -13    1    4    4    0    0 -0.23590033691E+02  0.11982324155E+03 -0.46828886191E+02  0.13079389698E+03  0.00000000000E+00 0. -1.
         13    1    4    4    0    0  0.15642011027E+02  0.31702440903E+02 -0.78368548220E+02  0.85972941198E+02  0.00000000000E+00 0.  1.
          1    1    1    2  501    0  0.39375613037E+03  0.17881055730E+03  0.16292386456E+03  0.46212692115E+03  0.00000000000E+00 0. -1.
<scales pt_clust_5="13000.00000" pt_clust_6="13000.00000" pt_clust_7="13000.00000" pt_clust_8="13000.00000" pt_clust_9="13000.00000"></scales>
<clustering>
<clus scale="   67.108">  5  6 -1 -1</clus>
<clus scale="   91.051">  7  8 -1 -1</clus>
<clus scale="  432.455">  7  9 -1 -1</clus>
<clus scale="  512.322">  1  5  2 -1</clus>
<clus scale="  677.845">  2  5  1 -1</clus>
</clustering>
</event>
<event>
 9    2  0.2147756E-005  0.2053300E+03  0.7546771E-02  0.1169646E+00
         21   -1    0    0  501  502  0.00000000000E+00  0.00000000000E+00  0.32621091192E+02  0.32621091192E+02  0.00000000000E+00 0. -1.
          2   -1    0    0  502    0 -0.00000000000E+00 -0.00000000000E+00 -0.81712587367E+03  0.81712587367E+03  0.00000000000E+00 0. -1.
         24    2    1    2    0    0 -0.87106706677E+02 -0.77208473508E+01 -0.35779449619E+03  0.37620489017E+03  0.76589999688E+02 0.  0.
         23    2    1    2    0    0  0.31519769448E+02  0.33815638935E+02 -0.38596465469E+03  0.39984640160E+03  0.93655949615E+02 0.  0.
        -11    1    3    3    0    0  0.98463025058E+00 -0.23718732111E+02 -0.45377365053E+02  0.51211844419E+02  0.00000000000E+00 0.  1.
         12    1    3    3    0    0 -0.88091336928E+02  0.15997884760E+02 -0.31241713114E+03  0.32499304575E+03  0.00000000000E+00 0. -1.
        -13    1    4    4    0    0  0.33209088269E+02 -0.27464035513E+02 -0.15349805524E+03  0.15943264959E+03  0.00000000000E+00 0.  1.
         13    1    4    4    0    0 -0.16893188212E+01  0.61279674448E+02 -0.23246659944E+03  0.24041375201E+03  0.00000000000E+00 0. -1.
          1    1    1    2  501    0  0.55586937229E+02 -0.26094791584E+02 -0.40745631597E+02  0.73695673093E+02  0.00000000000E+00 0. -1.
<scales pt_clust_5="13000.00000" pt_clust_6="13000.00000" pt_clust_7="13000.00000" pt_clust_8="13000.00000" pt_clust_9="13000.00000"></scales>
<clustering>
<clus scale="   76.590">  5  6 -1 -1</clus>
<clus scale="   93.656">  7  8 -1 -1</clus>
<clus scale="   61.407">  7  9 -1 -1</clus>
<clus scale="  116.246">  2  5  1 -1</clus>
<clus scale="  205.330">  1  5  2 -1</clus>
</clustering>
</event>
<event>
 9    2  0.2147756E-005  0.3788055E+03  0.7546771E-02  0.1099951E+00
         21   -1    0    0  501  502  0.00000000000E+00  0.00000000000E+00  0.35327368864E+03  0.35327368864E+03  0.00000000000E+00 0. -1.
          2   -1    0    0  502    0 -0.00000000000E+00 -0.00000000000E+00 -0.47623278782E+03  0.47623278782E+03  0.00000000000E+00 0. -1.
         24    2    1    2    0    0 -0.41342000380E+02  0.44013537558E+02 -0.36580383837E+03  0.37954295697E+03  0.81203790166E+02 0.  0.
         23    2    1    2    0    0 -0.13502024462E+03 -0.51334952546E+02  0.25168351110E+02  0.16971317692E+03  0.85459772472E+02 0.  0.
        -13    1    3    3    0    0  0.23264635752E+02  0.82373471216E+01 -0.58560881586E+02  0.63548989106E+02  0.00000000000E+00 0.  1.
         14    1    3    3    0    0 -0.64606636132E+02  0.35776190436E+02 -0.30724295679E+03  0.31599396787E+03  0.00000000000E+00 0. -1.
        -11    1    4    4    0    0 -0.28743371013E+01 -0.33328063589E+02  0.12635030324E+02  0.35758434357E+02  0.00000000000E+00 0.  1.
         11    1    4    4    0    0 -0.13214590752E+03 -0.18006888957E+02  0.12533320786E+02  0.13395474256E+03  0.00000000000E+00 0. -1.
          1    1    1    2  501    0  0.17636224500E+03  0.73214149884E+01  0.21767638809E+03  0.28025034257E+03  0.00000000000E+00 0. -1.
<scales pt_clust_5="13000.00000" pt_clust_6="13000.00000" pt_clust_7="13000.00000" pt_clust_8="13000.00000" pt_clust_9="13000.00000"></scales>
<clustering>
<clus scale="   81.204">  5  6 -1 -1</clus>
<clus scale="   85.460">  7  8 -1 -1</clus>
<clus scale="  101.195">  2  5  1 -1</clus>
<clus scale="  165.164">  7  9 -1 -1</clus>
<clus scale="  378.805">  1  5  2 -1</clus>
</clustering>
</event>
<event>
 9    2  0.2147756E-005  0.2947971E+03  0.7546771E-02  0.1093153E+00
         21   -1    0    0  501  502  0.00000000000E+00  0.00000000000E+00  0.86963844731E+02  0.86963844731E+02  0.00000000000E+00 0. -1.
          2   -1    0    0  502    0 -0.00000000000E+00 -0.00000000000E+00 -0.93958384728E+03  0.93958384728E+03  0.00000000000E+00 0. -1.
         24    2    1    2    0    0  0.10483780568E+03  0.21980647348E+03 -0.26283537146E+03  0.36719101485E+03  0.80255576826E+02 0.  0.
         23    2    1    2    0    0 -0.11857311242E+03 -0.12272731640E+03 -0.43288951654E+03  0.47434560084E+03  0.92134892020E+02 0.  0.
        -11    1    3    3    0    0  0.27930935525E+02  0.11994306088E+02 -0.12483471536E+02  0.32860882512E+02  0.00000000000E+00 0.  1.
         12    1    3    3    0    0  0.76906870156E+02  0.20781216740E+03 -0.25035189993E+03  0.33433013234E+03  0.00000000000E+00 0. -1.
        -13    1    4    4    0    0  0.10158261589E+02 -0.28691287965E+02 -0.11164803448E+03  0.11572235690E+03  0.00000000000E+00 0.  1.
         13    1    4    4    0    0 -0.12873137401E+03 -0.94036028434E+02 -0.32124148206E+03  0.35862324394E+03  0.00000000000E+00 0. -1.
          1    1    1    2  501    0  0.13735306736E+02 -0.97079157085E+02 -0.15689511454E+03  0.18501107631E+03  0.00000000000E+00 0. -1.
<scales pt_clust_5="13000.00000" pt_clust_6="13000.00000" pt_clust_7="13000.00000" pt_clust_8="13000.00000" pt_clust_9="13000.00000"></scales>
<clustering>
<clus scale="   80.256">  5  6 -1 -1</clus>
<clus scale="   92.135">  7  8 -1 -1</clus>
<clus scale="   98.046">  7  9 -1 -1</clus>
<clus scale="  256.412">  2  5  1 -1</clus>
<clus scale="  294.797">  1  5  2 -1</clus>
</clustering>
</event>
<event>
 9    2  0.2147756E-005  0.2417506E+03  0.7546771E-02  0.1138269E+00
          2   -1    0    0  502    0 -0.00000000000E+00  0.00000000000E+00  0.16542642750E+04  0.16542642750E+04  0.00000000000E+00 0. -1.
         21   -1    0    0  501  502  0.00000000000E+00 -0.00000000000E+00 -0.23203341789E+02  0.23203341789E+02  0.00000000000E+00 0.  1.
         24    2    1    2    0    0  0.10367593382E+03  0.75885346001E+02  0.56370762258E+03  0.58307901033E+03  0.75548418546E+02 0.  0.
         23    2    1    2    0    0 -0.21021936642E+02 -0.10946363011E+03  0.40363911376E+03  0.42470530852E+03  0.70893277439E+02 0.  0.
        -13    1    3    3    0    0  0.14904408050E+02  0.42265343049E+02  0.97515412836E+02  0.10732081039E+03  0.00000000000E+00 0.  1.
         14    1    3    3    0    0  0.88771525774E+02  0.33620002952E+02  0.46619220974E+03  0.47575819994E+03  0.00000000000E+00 0. -1.
        -13    1    4    4    0    0 -0.44347451298E+02 -0.78133388573E+02  0.23465671855E+03  0.25126738429E+03  0.00000000000E+00 0.  1.
         13    1    4    4    0    0  0.23325514656E+02 -0.31330241535E+02  0.16898239521E+03  0.17343792423E+03  0.00000000000E+00 0. -1.
          1    1    1    2  501    0 -0.82653997182E+02  0.33578284107E+02  0.66371419683E+03  0.66968329790E+03  0.00000000000E+00 0. -1.
<scales pt_clust_5="13000.00000" pt_clust_6="13000.00000" pt_clust_7="13000.00000" pt_clust_8="13000.00000" pt_clust_9="13000.00000"></scales>
<clustering>
<clus scale="   70.893">  7  8 -1 -1</clus>
<clus scale="   75.548">  5  6 -1 -1</clus>
<clus scale="   89.214">  7  9 -1 -1</clus>
<clus scale="  149.047">  1  5  2 -1</clus>
<clus scale="  241.751">  2  5  1 -1</clus>
</clustering>
</event>
<event>
 9    2  0.2147756E-005  0.3411355E+03  0.7546771E-02  0.1106457E+00
         21   -1    0    0  501  502  0.00000000000E+00  0.00000000000E+00  0.51501650976E+02  0.51501650976E+02  0.00000000000E+00 0.  1.
          2   -1    0    0  502    0 -0.00000000000E+00 -0.00000000000E+00 -0.11130960867E+04  0.11130960867E+04  0.00000000000E+00 0. -1.
         24    2    1    2    0    0 -0.14176379530E+01  0.85034278680E+02 -0.44241452208E+03  0.45766266995E+03  0.80570912079E+02 0.  0.
         23    2    1    2    0    0  0.49962586646E+02  0.98772924001E+02 -0.30992404997E+03  0.34391869204E+03  0.99873917535E+02 0.  0.
        -11    1    3    3    0    0  0.28770284638E+02  0.52784577251E+02 -0.35127648064E+03  0.35638337044E+03  0.00000000000E+00 0.  1.
         12    1    3    3    0    0 -0.30187922591E+02  0.32249701428E+02 -0.91138041431E+02  0.10127929951E+03  0.00000000000E+00 0. -1.
        -11    1    4    4    0    0 -0.20954305446E+02 -0.22035734377E+01 -0.82823353810E+02  0.85461374836E+02  0.00000000000E+00 0. -1.
         11    1    4    4    0    0  0.70916892092E+02  0.10097649744E+03 -0.22710069616E+03  0.25845731721E+03  0.00000000000E+00 0.  1.
          1    1    1    2  501    0 -0.48544948693E+02 -0.18380720268E+03 -0.30925586370E+03  0.36301637571E+03  0.00000000000E+00 0. -1.
<scales pt_clust_5="13000.00000" pt_clust_6="13000.00000" pt_clust_7="13000.00000" pt_clust_8="13000.00000" pt_clust_9="13000.00000"></scales>
<clustering>
<clus scale="   80.571">  5  6 -1 -1</clus>
<clus scale="   99.874">  7  8 -1 -1</clus>
<clus scale="  117.152">  2  5  1 -1</clus>
<clus scale="  149.074">  7  9 -1 -1</clus>
<clus scale="  341.135">  1  5  2 -1</clus>
</clustering>
</event>
<event>
 9    2  0.2147756E-005  0.8399281E+03  0.7546771E-02  0.1004246E+00
          2   -1    0    0  502    0 -0.00000000000E+00  0.00000000000E+00  0.59214544181E+03  0.59214544181E+03  0.00000000000E+00 0. -1.
         21   -1    0    0  501  502  0.00000000000E+00 -0.00000000000E+00 -0.41181594279E+03  0.41181594279E+03  0.00000000000E+00 0. -1.
         24    2    1    2    0    0  0.11288046108E+03 -0.22938980356E+02  0.66001973365E+02  0.15628809504E+03  0.82471285015E+02 0.  0.
         23    2    1    2    0    0  0.29691829108E+03  0.30392776041E+02 -0.16387047632E+03  0.35231008478E+03  0.90469168322E+02 0.  0.
        -13    1    3    3    0    0  0.18556859744E+02 -0.41336008280E+02  0.25577456299E+02  0.52031037803E+02  0.00000000000E+00 0.  1.
         14    1    3    3    0    0  0.94323601332E+02  0.18397027924E+02  0.40424517066E+02  0.10425705724E+03  0.00000000000E+00 0. -1.
        -13    1    4    4    0    0  0.40094813382E+02  0.37401953435E+02 -0.25008807070E+02  0.60265583976E+02  0.00000000000E+00 0.  1.
         13    1    4    4    0    0  0.25682347770E+03 -0.70091773938E+01 -0.13886166925E+03  0.29204450081E+03  0.00000000000E+00 0. -1.
          1    1    1    2  501    0 -0.40979875216E+03 -0.74537956846E+01  0.27819800198E+03  0.49536320477E+03  0.00000000000E+00 0. -1.
<scales pt_clust_5="13000.00000" pt_clust_6="13000.00000" pt_clust_7="13000.00000" pt_clust_8="13000.00000" pt_clust_9="13000.00000"></scales>
<clustering>
<clus scale="   82.471">  5  6 -1 -1</clus>
<clus scale="   90.469">  7  8 -1 -1</clus>
<clus scale="  141.668">  1  5  2 -1</clus>
<clus scale="  320.079">  7  9 -1 -1</clus>
<clus scale="  839.928">  2  5  1 -1</clus>
</clustering>
</event>
<event>
 9    2  0.2147756E-005  0.2688647E+03  0.7546771E-02  0.1143136E+00
          2   -1    0    0  502    0 -0.00000000000E+00  0.00000000000E+00  0.12902997396E+04  0.12902997396E+04  0.00000000000E+00 0. -1.
         21   -1    0    0  501  502  0.00000000000E+00 -0.00000000000E+00 -0.27672711751E+02  0.27672711751E+02  0.00000000000E+00 0. -1.
         24    2    1    2    0    0  0.13889411624E+01 -0.55191729021E+02  0.50353183281E+03  0.51266894963E+03  0.78975243870E+02 0.  0.
         23    2    1    2    0    0 -0.16408575531E+02 -0.85450900384E+02  0.33225287026E+03  0.35563661520E+03  0.92273151815E+02 0.  0.
        -13    1    3    3    0    0  0.15635687732E+02  0.16754460689E+02  0.13006376979E+03  0.13206729685E+03  0.00000000000E+00 0.  1.
         14    1    3    3    0    0 -0.14246746570E+02 -0.71946189710E+02  0.37346806302E+03  0.38060165278E+03  0.00000000000E+00 0. -1.
        -11    1    4    4    0    0 -0.28311392076E+02 -0.19631156270E+02  0.28813056327E+02  0.44912241457E+02  0.00000000000E+00 0. -1.
         11    1    4    4    0    0  0.11902816545E+02 -0.65819744114E+02  0.30343981394E+03  0.31072437374E+03  0.00000000000E+00 0.  1.
          1    1    1    2  501    0  0.15019634369E+02  0.14064262940E+03  0.42684232482E+03  0.44966688657E+03  0.00000000000E+00 0. -1.
<scales pt_clust_5="13000.00000" pt_clust_6="13000.00000" pt_clust_7="13000.00000" pt_clust_8="13000.00000" pt_clust_9="13000.00000"></scales>
<clustering>
<clus scale="   78.975">  5  6 -1 -1</clus>
<clus scale="   92.273">  7  8 -1 -1</clus>
<clus scale="   96.359">  1  5  2 -1</clus>
<clus scale="  110.851">  7  9 -1 -1</clus>
<clus scale="  268.865">  2  5  1 -1</clus>
</clustering>
</event>
<event>
 9    2  0.2147756E-005  0.3408846E+03  0.7546771E-02  0.1110993E+00
          2   -1    0    0  502    0 -0.00000000000E+00  0.00000000000E+00  0.13881594851E+03  0.13881594851E+03  0.00000000000E+00 0. -1.
         21   -1    0    0  501  502  0.00000000000E+00 -0.00000000000E+00 -0.43570244113E+03  0.43570244113E+03  0.00000000000E+00 0. -1.
         24    2    1    2    0    0  0.61989539322E+02 -0.28619269648E+02  0.22972578805E+02  0.10706555643E+03  0.79205608491E+02 0.  0.
         23    2    1    2    0    0  0.96881470349E+02 -0.59549459940E+02 -0.21065024185E+03  0.25546158092E+03  0.89190456097E+02 0.  0.
        -11    1    3    3    0    0 -0.10018567907E+02 -0.29717213855E+02  0.14506399572E+02  0.34553149361E+02  0.00000000000E+00 0.  1.
         12    1    3    3    0    0  0.72008107230E+02  0.10979442074E+01  0.84661792335E+01  0.72512407070E+02  0.00000000000E+00 0. -1.
        -13    1    4    4    0    0 -0.14923421892E+02 -0.21589869402E+02 -0.43749617462E+02  0.51018232131E+02  0.00000000000E+00 0.  1.
         13    1    4    4    0    0  0.11180489224E+03 -0.37959590538E+02 -0.16690062438E+03  0.20444334879E+03  0.00000000000E+00 0. -1.
          1    1    1    2  501    0 -0.15887100967E+03  0.88168729588E+02 -0.10920882957E+03  0.21199125229E+03  0.00000000000E+00 0. -1.
<scales pt_clust_5="13000.00000" pt_clust_6="13000.00000" pt_clust_7="13000.00000" pt_clust_8="13000.00000" pt_clust_9="13000.00000"></scales>
<clustering>
<clus scale="   79.206">  5  6 -1 -1</clus>
<clus scale="   89.190">  7  8 -1 -1</clus>
<clus scale="  104.572">  1  5  2 -1</clus>
<clus scale="  134.326">  7  9 -1 -1</clus>
<clus scale="  340.885">  2  5  1 -1</clus>
</clustering>
</event>
<event>
 9    2  0.2823861E-005  0.5938624E+03  0.7546771E-02  0.1027613E+00
         21   -1    0    0  501  502  0.00000000000E+00  0.00000000000E+00  0.17828587537E+03  0.17828587537E+03  0.00000000000E+00 0. -1.
          2   -1    0    0  502    0 -0.00000000000E+00 -0.00000000000E+00 -0.87637433135E+03  0.87637433135E+03  0.00000000000E+00 0. -1.
         24    2    1    2    0    0  0.16797660774E+03  0.62220059035E+02 -0.16181429812E+03  0.25449611907E+03  0.80603542415E+02 0.  0.
         23    2    1    2    0    0  0.17046724427E+03 -0.26491452737E+02 -0.41844160223E+02  0.19992930289E+03  0.91977790648E+02 0.  0.
        -11    1    3    3    0    0  0.32085920425E+02 -0.19728859367E+02 -0.28309368538E+02  0.47118515771E+02  0.00000000000E+00 0.  1.
         12    1    3    3    0    0  0.13589068732E+03  0.81948918401E+02 -0.13350492959E+03  0.20737760330E+03  0.00000000000E+00 0. -1.
        -13    1    4    4    0    0  0.43926500300E+02  0.22170577467E+02 -0.41477144409E+02  0.64353907746E+02  0.00000000000E+00 0.  1.
         13    1    4    4    0    0  0.12654074397E+03 -0.48662030204E+02 -0.36701581425E+00  0.13557539515E+03  0.00000000000E+00 0. -1.
          1    1    1    2  501    0 -0.33844385202E+03 -0.35728606297E+02 -0.49442999763E+03  0.60023478476E+03  0.00000000000E+00 0. -1.
<scales pt_clust_5="13000.00000" pt_clust_6="13000.00000" pt_clust_7="13000.00000" pt_clust_8="13000.00000" pt_clust_9="13000.00000"></scales>
<clustering>
<clus scale="   80.604">  5  6 -1 -1</clus>
<clus scale="   91.978">  7  8 -1 -1</clus>
<clus scale="  196.429">  2  5  1 -1</clus>
<clus scale="  201.433">  7  9 -1 -1</clus>
<clus scale="  593.862">  1  5  2 -1</clus>
</clustering>
</event>
<event>
 9    2  0.2147756E-005  0.3366117E+03  0.7546771E-02  0.1112037E+00
          4   -1    0    0  502    0 -0.00000000000E+00  0.00000000000E+00  0.12332702766E+03  0.12332702766E+03  0.00000000000E+00 0. -1.
         21   -1    0    0  501  502  0.00000000000E+00 -0.00000000000E+00 -0.83130660450E+03  0.83130660450E+03  0.00000000000E+00 0. -1.
         24    2    1    2    0    0 -0.10633431469E+02 -0.68404858798E+02  0.56081283705E+02  0.11971061506E+03  0.79957653813E+02 0.  0.
         23    2    1    2    0    0  0.15211761871E+03 -0.81043784991E+01 -0.40038223267E+03  0.43726288206E+03  0.87678075485E+02 0.  0.
        -11    1    3    3    0    0  0.28744012189E+02 -0.30871918280E+02  0.85363682991E+00  0.42190310154E+02  0.00000000000E+00 0.  1.
         12    1    3    3    0    0 -0.39377443658E+02 -0.37532940518E+02  0.55227646875E+02  0.77520304903E+02  0.00000000000E+00 0. -1.
        -13    1    4    4    0    0  0.15689652300E+02  0.28403395243E+02 -0.51380321337E+02  0.60768869262E+02  0.00000000000E+00 0.  1.
         13    1    4    4    0    0  0.13642796641E+03 -0.36507773743E+02 -0.34900191133E+03  0.37649401280E+03  0.00000000000E+00 0. -1.
          3    1    1    2  501    0 -0.14148418724E+03  0.76509237297E+02 -0.36367862788E+03  0.39766013505E+03  0.00000000000E+00 0. -1.
<scales pt_clust_5="13000.00000" pt_clust_6="13000.00000" pt_clust_7="13000.00000" pt_clust_8="13000.00000" pt_clust_9="13000.00000"></scales>
<clustering>
<clus scale="   79.958">  5  6 -1 -1</clus>
<clus scale="   87.678">  7  8 -1 -1</clus>
<clus scale="  105.762">  1  5  2 -1</clus>
<clus scale="  152.961">  7  9 -1 -1</clus>
<clus scale="  336.612">  2  5  1 -1</clus>
</clustering>
</event>
<event>
 9    2  0.2147756E-005  0.1340477E+03  0.7546771E-02  0.1241510E+00
         21   -1    0    0  501  502  0.00000000000E+00  0.00000000000E+00  0.18875124508E+02  0.18875124508E+02  0.00000000000E+00 0.  1.
          2   -1    0    0  502    0 -0.00000000000E+00 -0.00000000000E+00 -0.72821562525E+03  0.72821562525E+03  0.00000000000E+00 0. -1.
         24    2    1    2    0    0 -0.85595621257E+01 -0.34160628418E+02 -0.17618842606E+03  0.19734542642E+03  0.81625003601E+02 0.  0.
         23    2    1    2    0    0  0.64955653845E+01 -0.33019798950E+01 -0.32362000011E+03  0.33688058371E+03  0.93303417774E+02 0.  0.
        -13    1    3    3    0    0 -0.17270471410E+02 -0.18262157497E+02 -0.55421244179E+01  0.25738895125E+02  0.00000000000E+00 0.  1.
         14    1    3    3    0    0  0.87109092847E+01 -0.15898470921E+02 -0.17064630165E+03  0.17160653130E+03  0.00000000000E+00 0. -1.
        -11    1    4    4    0    0 -0.40043464594E+02 -0.59439200191E+01 -0.21345020480E+03  0.21725514763E+03  0.00000000000E+00 0. -1.
         11    1    4    4    0    0  0.46539029979E+02  0.26419401241E+01 -0.11016979532E+03  0.11962543609E+03  0.00000000000E+00 0.  1.
          1    1    1    2  501    0  0.20639967412E+01  0.37462608313E+02 -0.20953207456E+03  0.21286473962E+03  0.00000000000E+00 0. -1.
<scales pt_clust_5="13000.00000" pt_clust_6="13000.00000" pt_clust_7="13000.00000" pt_clust_8="13000.00000" pt_clust_9="13000.00000"></scales>
<clustering>
<clus scale="   81.625">  5  6 -1 -1</clus>
<clus scale="   88.898">  2  5  1 -1</clus>
<clus scale="   93.303">  7  8 -1 -1</clus>
<clus scale="   24.172">  7  9 -1 -1</clus>
<clus scale="  134.048">  1  5  2 -1</clus>
</clustering>
</event>
<event>
 9    2  0.2147756E-005  0.1557726E+03  0.7546771E-02  0.1210622E+00
         21   -1    0    0  501  502  0.00000000000E+00  0.00000000000E+00  0.97339592674E+02  0.97339592674E+02  0.00000000000E+00 0.  1.
          2   -1    0    0  502    0 -0.00000000000E+00 -0.00000000000E+00 -0.61888131484E+03  0.61888131484E+03  0.00000000000E+00 0. -1.
         24    2    1    2    0    0 -0.72141076675E+02  0.11975101364E+01 -0.54777494282E+03  0.55825483094E+03  0.79908067918E+02 0.  0.
         23    2    1    2    0    0  0.51951733523E+02  0.32536743270E+02  0.39860101979E+02  0.11635716737E+03  0.90512653209E+02 0.  0.
        -11    1    3    3    0    0 -0.30250362615E+02 -0.47552959695E+01 -0.49633361976E+02  0.58319532741E+02  0.00000000000E+00 0.  1.
         12    1    3    3    0    0 -0.41890714059E+02  0.59528061060E+01 -0.49814158084E+03  0.49993529820E+03  0.00000000000E+00 0. -1.
        -13    1    4    4    0    0  0.52790596120E+01  0.26105880919E+02  0.59595980803E+02  0.65276844416E+02  0.00000000000E+00 0.  1.
         13    1    4    4    0    0  0.46672673911E+02  0.64308623512E+01 -0.19735878825E+02  0.51080322959E+02  0.00000000000E+00 0. -1.
          1    1    1    2  501    0  0.20189343152E+02 -0.33734253407E+02 -0.13626881327E+02  0.41608909196E+02  0.00000000000E+00 0. -1.
<scales pt_clust_5="13000.00000" pt_clust_6="13000.00000" pt_clust_7="13000.00000" pt_clust_8="13000.00000" pt_clust_9="13000.00000"></scales>
<clustering>
<clus scale="   79.908">  5  6 -1 -1</clus>
<clus scale="   90.513">  7  8 -1 -1</clus>
<clus scale="   39.314">  7  9 -1 -1</clus>
<clus scale="  107.662">  2  5  1 -1</clus>
<clus scale="  155.773">  1  5  2 -1</clus>
</clustering>
</event>
<event>
 9    2  0.2147756E-005  0.3243572E+03  0.7546771E-02  0.1106741E+00
          2   -1    0    0  502    0 -0.00000000000E+00  0.00000000000E+00  0.99610984168E+03  0.99610984168E+03  0.00000000000E+00 0. -1.
         21   -1    0    0  501  502  0.00000000000E+00 -0.00000000000E+00 -0.53236237130E+02  0.53236237130E+02  0.00000000000E+00 0. -1.
         24    2    1    2    0    0 -0.28444553428E+02 -0.10416221451E+03  0.30823727625E+03  0.33662532747E+03  0.81532405061E+02 0.  0.
         23    2    1    2    0    0 -0.70610491492E+02 -0.25399686254E+02  0.45665236911E+03  0.47131553644E+03  0.89308247667E+02 0.  0.
        -11    1    3    3    0    0 -0.21766725601E+02 -0.66721949925E+02  0.28154834205E+03  0.29016388103E+03  0.00000000000E+00 0.  1.
         12    1    3    3    0    0 -0.66778278267E+01 -0.37440264582E+02  0.26688934199E+02  0.46461446438E+02  0.00000000000E+00 0. -1.
        -13    1    4    4    0    0 -0.59577446071E+02 -0.55855898659E+02  0.27787234458E+03  0.28962457316E+03  0.00000000000E+00 0. -1.
         13    1    4    4    0    0 -0.11033045421E+02  0.30456212405E+02  0.17878002453E+03  0.18169096328E+03  0.00000000000E+00 0.  1.
          1    1    1    2  501    0  0.99055044920E+02  0.12956190076E+03  0.17798395919E+03  0.24140521490E+03  0.00000000000E+00 0. -1.
<scales pt_clust_5="13000.00000" pt_clust_6="13000.00000" pt_clust_7="13000.00000" pt_clust_8="13000.00000" pt_clust_9="13000.00000"></scales>
<clustering>
<clus scale="   81.532">  5  6 -1 -1</clus>
<clus scale="   89.308">  7  8 -1 -1</clus>
<clus scale="  135.301">  1  5  2 -1</clus>
<clus scale="  132.561">  7  9 -1 -1</clus>
<clus scale="  324.357">  2  5  1 -1</clus>
</clustering>
</event>
<event>
 9    2  0.2147756E-005  0.1545862E+03  0.7546771E-02  0.1217313E+00
         21   -1    0    0  501  502  0.00000000000E+00  0.00000000000E+00  0.41629460580E+02  0.41629460580E+02  0.00000000000E+00 0. -1.
          2   -1    0    0  502    0 -0.00000000000E+00 -0.00000000000E+00 -0.45386075530E+03  0.45386075530E+03  0.00000000000E+00 0. -1.
         24    2    1    2    0    0  0.15835894934E+02 -0.41747885518E+02 -0.65538814840E+02  0.11589494288E+03  0.84514140957E+02 0.  0.
         23    2    1    2    0    0 -0.55476490218E+01 -0.97615249690E+01 -0.14328484325E+03  0.16951496928E+03  0.89881670678E+02 0.  0.
        -11    1    3    3    0    0  0.19244786112E+01  0.25570939587E+02 -0.10010835496E+02  0.27528047454E+02  0.00000000000E+00 0.  1.
         12    1    3    3    0    0  0.13911416323E+02 -0.67318825106E+02 -0.55527979344E+02  0.88366895429E+02  0.00000000000E+00 0. -1.
        -11    1    4    4    0    0 -0.21766457471E+02  0.26689062579E+02 -0.19756900272E+02  0.39704153946E+02  0.00000000000E+00 0.  1.
         11    1    4    4    0    0  0.16218808450E+02 -0.36450587548E+02 -0.12352794298E+03  0.12981081533E+03  0.00000000000E+00 0. -1.
          1    1    1    2  501    0 -0.10288245912E+02  0.51509410487E+02 -0.20340763662E+03  0.21008030371E+03  0.00000000000E+00 0. -1.
<scales pt_clust_5="13000.00000" pt_clust_6="13000.00000" pt_clust_7="13000.00000" pt_clust_8="13000.00000" pt_clust_9="13000.00000"></scales>
<clustering>
<clus scale="   84.514">  5  6 -1 -1</clus>
<clus scale="   89.882">  7  8 -1 -1</clus>
<clus scale="   52.527">  7  9 -1 -1</clus>
<clus scale="   95.584">  2  5  1 -1</clus>
<clus scale="  154.586">  1  5  2 -1</clus>
</clustering>
</event>
<event>
 9    2  0.2147756E-005  0.4436469E+03  0.7546771E-02  0.1038661E+00
          2   -1    0    0  502    0 -0.00000000000E+00  0.00000000000E+00  0.58550045790E+03  0.58550045790E+03  0.00000000000E+00 0. -1.
         21   -1    0    0  501  502  0.00000000000E+00 -0.00000000000E+00 -0.39480899247E+03  0.39480899247E+03  0.00000000000E+00 0. -1.
         24    2    1    2    0    0  0.30956881770E+03 -0.11574090345E+03 -0.19533040646E+03  0.39223170263E+03  0.80392358044E+02 0.  0.
         23    2    1    2    0    0 -0.16147071318E+03 -0.62605058359E+02  0.25910284173E+03  0.32378856735E+03  0.87821234365E+02 0.  0.
        -13    1    3    3    0    0  0.27999818923E+02 -0.27816480378E+02 -0.19492316034E+01  0.39516400952E+02  0.00000000000E+00 0.  1.
         14    1    3    3    0    0  0.28156899878E+03 -0.87924423075E+02 -0.19338117486E+03  0.35271530167E+03  0.00000000000E+00 0. -1.
        -11    1    4    4    0    0 -0.10996266620E+03 -0.70687112584E+02  0.22872642084E+03  0.26344682848E+03  0.00000000000E+00 0. -1.
         11    1    4    4    0    0 -0.51508046974E+02  0.80820542254E+01  0.30376420887E+02  0.60341738867E+02  0.00000000000E+00 0.  1.
          1    1    1    2  501    0 -0.14809810452E+03  0.17834596181E+03  0.12691903015E+03  0.26428918039E+03  0.00000000000E+00 0. -1.
<scales pt_clust_5="13000.00000" pt_clust_6="13000.00000" pt_clust_7="13000.00000" pt_clust_8="13000.00000" pt_clust_9="13000.00000"></scales>
<clustering>
<clus scale="   80.392">  5  6 -1 -1</clus>
<clus scale="   87.821">  7  8 -1 -1</clus>
<clus scale="  231.820">  7  9 -1 -1</clus>
<clus scale="  340.135">  1  5  2 -1</clus>
<clus scale="  443.647">  2  5  1 -1</clus>
</clustering>
</event>
<event>
 9    2  0.2147756E-005  0.2092388E+03  0.7546771E-02  0.1175895E+00
         21   -1    0    0  501  502  0.00000000000E+00  0.00000000000E+00  0.10700331162E+03  0.10700331162E+03  0.00000000000E+00 0. -1.
          2   -1    0    0  502    0 -0.00000000000E+00 -0.00000000000E+00 -0.22396892051E+03  0.22396892051E+03  0.00000000000E+00 0. -1.
         24    2    1    2    0    0  0.47704253003E+02  0.17904288444E+02 -0.95326936164E+01  0.95764439930E+02  0.80521403418E+02 0.  0.
         23    2    1    2    0    0  0.32341595791E+02 -0.23884443106E+02 -0.11888346582E+03  0.15412625751E+03  0.89471667968E+02 0.  0.
        -13    1    3    3    0    0  0.12899102584E+02  0.47229694090E+02  0.13150505982E+01  0.48977139661E+02  0.00000000000E+00 0.  1.
         14    1    3    3    0    0  0.34805150418E+02 -0.29325405646E+02 -0.10847744215E+02  0.46787300269E+02  0.00000000000E+00 0. -1.
        -11    1    4    4    0    0  0.82954473731E+01  0.33700822509E+02 -0.32406464023E+02  0.47484089919E+02  0.00000000000E+00 0.  1.
         11    1    4    4    0    0  0.24046148418E+02 -0.57585265615E+02 -0.86477001792E+02  0.10664216759E+03  0.00000000000E+00 0. -1.
          1    1    1    2  501    0 -0.80045848794E+02  0.59801546616E+01  0.11450550542E+02  0.81081534683E+02  0.00000000000E+00 0. -1.
<scales pt_clust_5="13000.00000" pt_clust_6="13000.00000" pt_clust_7="13000.00000" pt_clust_8="13000.00000" pt_clust_9="13000.00000"></scales>
<clustering>
<clus scale="   80.521">  5  6 -1 -1</clus>
<clus scale="   89.472">  7  8 -1 -1</clus>
<clus scale="   80.269">  7  9 -1 -1</clus>
<clus scale="   95.289">  2  5  1 -1</clus>
<clus scale="  209.239">  1  5  2 -1</clus>
</clustering>
</event>
<event>
 9    2  0.2147756E-005  0.3858374E+03  0.7546771E-02  0.1064799E+00
          2   -1    0    0  502    0 -0.00000000000E+00  0.00000000000E+00  0.93593924763E+02  0.93593924763E+02  0.00000000000E+00 0. -1.
         21   -1    0    0  501  502  0.00000000000E+00 -0.00000000000E+00 -0.13104462769E+04  0.13104462769E+04  0.00000000000E+00 0.  1.
         24    2    1    2    0    0  0.21536057076E+03 -0.87772009583E+02 -0.79590587483E+03  0.83301794244E+03  0.79803695067E+02 0.  0.
         23    2    1    2    0    0  0.32007510124E+02 -0.10482920452E+02 -0.39465503923E+02  0.10586343498E+03  0.92277670861E+02 0.  0.
        -11    1    3    3    0    0  0.21427125380E+03 -0.76786693058E+02 -0.78562309596E+03  0.81793154686E+03  0.00000000000E+00 0.  1.
         12    1    3    3    0    0  0.10893169579E+01 -0.10985316525E+02 -0.10282778863E+02  0.15086395585E+02  0.00000000000E+00 0. -1.
        -11    1    4    4    0    0  0.31141424107E+02  0.24709673331E+02  0.13744266106E+02  0.42062585540E+02  0.00000000000E+00 0. -1.
         11    1    4    4    0    0  0.86608601732E+00 -0.35192593783E+02 -0.53209770030E+02  0.63800849436E+02  0.00000000000E+00 0.  1.
          1    1    1    2  501    0 -0.24736808089E+03  0.98254930035E+02 -0.38148097341E+03  0.46515882426E+03  0.00000000000E+00 0. -1.
<scales pt_clust_5="13000.00000" pt_clust_6="13000.00000" pt_clust_7="13000.00000" pt_clust_8="13000.00000" pt_clust_9="13000.00000"></scales>
<clustering>
<clus scale="   79.804">  5  6 -1 -1</clus>
<clus scale="   92.278">  7  8 -1 -1</clus>
<clus scale="  245.871">  1  5  2 -1</clus>
<clus scale="  136.509">  7  9 -1 -1</clus>
<clus scale="  385.837">  2  5  1 -1</clus>
</clustering>
</event>
<event>
 9    2  0.2205834E-005  0.3375676E+03  0.7546771E-02  0.1104079E+00
         21   -1    0    0  501  502  0.00000000000E+00  0.00000000000E+00  0.64399821026E+02  0.64399821026E+02  0.00000000000E+00 0. -1.
          2   -1    0    0  502    0 -0.00000000000E+00 -0.00000000000E+00 -0.20519923418E+04  0.20519923418E+04  0.00000000000E+00 0. -1.
         24    2    1    2    0    0 -0.54642536046E+01 -0.10013033866E+03 -0.15884583892E+04  0.15936494632E+04  0.80390387644E+02 0.  0.
         23    2    1    2    0    0 -0.81320062105E+02 -0.11314922434E+02 -0.35312189852E+03  0.37418735889E+03  0.92628960771E+02 0.  0.
        -13    1    3    3    0    0  0.35702984234E+01 -0.21659831059E+02 -0.75398000642E+02  0.78528681468E+02  0.00000000000E+00 0.  1.
         14    1    3    3    0    0 -0.90345520280E+01 -0.78470507604E+02 -0.15130603886E+04  0.15151207817E+04  0.00000000000E+00 0. -1.
        -13    1    4    4    0    0  0.19661963767E+02 -0.11108319349E+02 -0.56426685060E+02  0.60777943078E+02  0.00000000000E+00 0.  1.
         13    1    4    4    0    0 -0.10098202587E+03 -0.20660308552E+00 -0.29669521346E+03  0.31340941582E+03  0.00000000000E+00 0. -1.
          1    1    1    2  501    0  0.86784315710E+02  0.11144526110E+03 -0.46012233024E+02  0.14855534074E+03  0.00000000000E+00 0. -1.
<scales pt_clust_5="13000.00000" pt_clust_6="13000.00000" pt_clust_7="13000.00000" pt_clust_8="13000.00000" pt_clust_9="13000.00000"></scales>
<clustering>
<clus scale="   80.390">  5  6 -1 -1</clus>
<clus scale="   92.629">  7  8 -1 -1</clus>
<clus scale="  128.525">  2  5  1 -1</clus>
<clus scale="  124.455">  7  9 -1 -1</clus>
<clus scale="  337.568">  1  5  2 -1</clus>
</clustering>
</event>
<event>
 9    2  0.2147756E-005  0.2451913E+03  0.7546771E-02  0.1142506E+00
          2   -1    0    0  502    0 -0.00000000000E+00  0.00000000000E+00  0.89718080686E+03  0.89718080686E+03  0.00000000000E+00 0. -1.
         21   -1    0    0  501  502  0.00000000000E+00 -0.00000000000E+00 -0.61046301459E+02  0.61046301459E+02  0.00000000000E+00 0. -1.
         24    2    1    2    0    0 -0.49185041722E+02  0.63550333079E+02  0.61391373221E+03  0.62731799624E+03  0.10089590994E+03 0.  0.
         23    2    1    2    0    0 -0.55324396824E+01  0.10384136461E+00  0.22815742865E+03  0.24675983654E+03  0.93829558289E+02 0.  0.
        -11    1    3    3    0    0  0.53148687834E+01 -0.24699789280E+02  0.11993490654E+03  0.12256716211E+03  0.00000000000E+00 0.  1.
         12    1    3    3    0    0 -0.54499910505E+02  0.88250122360E+02  0.49397882567E+03  0.50475083413E+03  0.00000000000E+00 0. -1.
        -13    1    4    4    0    0 -0.43726958370E+02 -0.13785503855E+02  0.16812256314E+03  0.17426211075E+03  0.00000000000E+00 0. -1.
         13    1    4    4    0    0  0.38194518688E+02  0.13889345220E+02  0.60034865515E+02  0.72497725797E+02  0.00000000000E+00 0.  1.
          1    1    1    2  501    0  0.54717481404E+02 -0.63654174444E+02 -0.59366554667E+01  0.84149275538E+02  0.00000000000E+00 0. -1.
<scales pt_clust_5="13000.00000" pt_clust_6="13000.00000" pt_clust_7="13000.00000" pt_clust_8="13000.00000" pt_clust_9="13000.00000"></scales>
<clustering>
<clus scale="   93.830">  7  8 -1 -1</clus>
<clus scale="   83.940">  7  9 -1 -1</clus>
<clus scale="  100.896">  5  6 -1 -1</clus>
<clus scale="  128.988">  1  5  2 -1</clus>
<clus scale="  245.191">  2  5  1 -1</clus>
</clustering>
</event>
<event>
 9    2  0.2147756E-005  0.2318160E+03  0.7546771E-02  0.1157572E+00
         21   -1    0    0  501  502  0.00000000000E+00  0.00000000000E+00  0.27064729441E+02  0.27064729441E+02  0.00000000000E+00 0. -1.
          2   -1    0    0  502    0 -0.00000000000E+00 -0.00000000000E+00 -0.10786970959E+04  0.10786970959E+04  0.00000000000E+00 0. -1.
         24    2    1    2    0    0 -0.67351155082E+02  0.22130057599E+02 -0.40441072962E+03  0.41827764038E+03  0.79888851999E+02 0.  0.
         23    2    1    2    0    0 -0.32500780275E+02 -0.62630713790E+02 -0.42904713881E+03  0.44415144212E+03  0.90609873547E+02 0.  0.
        -13    1    3    3    0    0 -0.23511120746E+02 -0.30268905959E+02 -0.15655585131E+03  0.16117913651E+03  0.00000000000E+00 0.  1.
         14    1    3    3    0    0 -0.43840034336E+02  0.52398963558E+02 -0.24785487831E+03  0.25709850387E+03  0.00000000000E+00 0. -1.
        -11    1    4    4    0    0 -0.73116614060E+01 -0.81062679270E+02 -0.26717492671E+03  0.27929743971E+03  0.00000000000E+00 0. -1.
         11    1    4    4    0    0 -0.25189118869E+02  0.18431965481E+02 -0.16187221210E+03  0.16485400241E+03  0.00000000000E+00 0.  1.
          1    1    1    2  501    0  0.99851935356E+02  0.40500656190E+02 -0.21817449800E+03  0.24333274281E+03  0.00000000000E+00 0. -1.
<scales pt_clust_5="13000.00000" pt_clust_6="13000.00000" pt_clust_7="13000.00000" pt_clust_8="13000.00000" pt_clust_9="13000.00000"></scales>
<clustering>
<clus scale="   79.889">  5  6 -1 -1</clus>
<clus scale="   90.610">  7  8 -1 -1</clus>
<clus scale="  106.809">  2  5  1 -1</clus>
<clus scale="   90.447">  7  9 -1 -1</clus>
<clus scale="  231.816">  1  5  2 -1</clus>
</clustering>
</event>
<event>
 9    2  0.2147756E-005  0.3544123E+03  0.7546771E-02  0.1085919E+00
         21   -1    0    0  501  502  0.00000000000E+00  0.00000000000E+00  0.27075033009E+02  0.27075033009E+02  0.00000000000E+00 0. -1.
          2   -1    0    0  502    0 -0.00000000000E+00 -0.00000000000E+00 -0.27588946508E+04  0.27588946508E+04  0.00000000000E+00 0. -1.
         24    2    1    2    0    0 -0.15955599031E+03  0.76156733113E+01 -0.12291084615E+04  0.12420302823E+04  0.80096813687E+02 0.  0.
         23    2    1    2    0    0 -0.69456726067E+02 -0.22586002075E+02 -0.36281728851E+03  0.38117159800E+03  0.91219723714E+02 0.  0.
        -13    1    3    3    0    0 -0.28532626611E+02 -0.25659254880E+02 -0.16691265471E+03  0.17126687492E+03  0.00000000000E+00 0.  1.
         14    1    3    3    0    0 -0.13102336370E+03  0.33274928192E+02 -0.10621958068E+04  0.10707634074E+04  0.00000000000E+00 0. -1.
        -11    1    4    4    0    0  0.15519466061E+02 -0.14773057516E+02 -0.25893009151E+02  0.33608703904E+02  0.00000000000E+00 0.  1.
         11    1    4    4    0    0 -0.84976192128E+02 -0.78129445594E+01 -0.33692427936E+03  0.34756289409E+03  0.00000000000E+00 0. -1.
          1    1    1    2  501    0  0.22901271638E+03  0.14970328764E+02 -0.11398938678E+04  0.11627678035E+04  0.00000000000E+00 0. -1.
<scales pt_clust_5="13000.00000" pt_clust_6="13000.00000" pt_clust_7="13000.00000" pt_clust_8="13000.00000" pt_clust_9="13000.00000"></scales>
<clustering>
<clus scale="   80.097">  5  6 -1 -1</clus>
<clus scale="   91.220">  7  8 -1 -1</clus>
<clus scale="  178.694">  2  5  1 -1</clus>
<clus scale="  110.383">  7  9 -1 -1</clus>
<clus scale="  354.412">  1  5  2 -1</clus>
</clustering>
</event>
<event>
 9    2  0.2147756E-005  0.4173369E+03  0.7546771E-02  0.1055488E+00
          2   -1    0    0  502    0 -0.00000000000E+00  0.00000000000E+00  0.73234005733E+03  0.73234005733E+03  0.00000000000E+00 0. -1.
         21   -1    0    0  501  502  0.00000000000E+00 -0.00000000000E+00 -0.17541627127E+03  0.17541627127E+03  0.00000000000E+00 0.  1.
         24    2    1    2    0    0  0.14648155803E+03 -0.18985599499E+03  0.37644273443E+03  0.45306577912E+03  0.77828800760E+02 0.  0.
         23    2    1    2    0    0  0.23360505593E+02 -0.63673238049E+02  0.57763435006E+02  0.12577868893E+03  0.88790031533E+02 0.  0.
        -11    1    3    3    0    0  0.14218973679E+03 -0.13940239357E+03  0.32297983634E+03  0.37942973429E+03  0.00000000000E+00 0.  1.
         12    1    3    3    0    0  0.42918212376E+01 -0.50453601421E+02  0.53462898092E+02  0.73636044830E+02  0.00000000000E+00 0. -1.
        -11    1    4    4    0    0 -0.23629587260E+02 -0.59119916651E+02  0.40774316587E+02  0.75604674671E+02  0.00000000000E+00 0.  1.
         11    1    4    4    0    0  0.46990092853E+02 -0.45533213982E+01  0.16989118420E+02  0.50174014258E+02  0.00000000000E+00 0. -1.
          1    1    1    2  501    0 -0.16984206362E+03  0.25352923304E+03  0.12271761663E+03  0.32891186055E+03  0.00000000000E+00 0. -1.
<scales pt_clust_5="13000.00000" pt_clust_6="13000.00000" pt_clust_7="13000.00000" pt_clust_8="13000.00000" pt_clust_9="13000.00000"></scales>
<clustering>
<clus scale="   77.829">  5  6 -1 -1</clus>
<clus scale="   88.790">  7  8 -1 -1</clus>
<clus scale="  252.110">  1  5  2 -1</clus>
<clus scale="  135.519">  7  9 -1 -1</clus>
<clus scale="  417.337">  2  5  1 -1</clus>
</clustering>
</event>
<event>
 9    2  0.2147756E-005  0.2626016E+03  0.7546771E-02  0.1140651E+00
          2   -1    0    0  502    0 -0.00000000000E+00  0.00000000000E+00  0.44031717932E+03  0.44031717932E+03  0.00000000000E+00 0. -1.
         21   -1    0    0  501  502  0.00000000000E+00 -0.00000000000E+00 -0.21745424697E+03  0.21745424697E+03  0.00000000000E+00 0.  1.
         24    2    1    2    0    0 -0.73996335907E+02  0.27194068098E+01  0.34942187767E+03  0.36626367268E+03  0.81059092212E+02 0.  0.
         23    2    1    2    0    0 -0.70402138040E+01  0.85643840655E+02 -0.11629622563E+03  0.17117359675E+03  0.91603253640E+02 0.  0.
        -13    1    3    3    0    0 -0.48152653922E+02 -0.35524273259E+02  0.14838501449E+03  0.15999613931E+03  0.00000000000E+00 0.  1.
         14    1    3    3    0    0 -0.25843681985E+02  0.38243680069E+02  0.20103686318E+03  0.20626753337E+03  0.00000000000E+00 0. -1.
        -11    1    4    4    0    0 -0.19955697610E+02  0.56829198270E+02 -0.12471161389E+03  0.13849467239E+03  0.00000000000E+00 0.  1.
         11    1    4    4    0    0  0.12915483806E+02  0.28814642385E+02  0.84153882593E+01  0.32678924359E+02  0.00000000000E+00 0. -1.
          1    1    1    2  501    0  0.81036549711E+02 -0.88363247465E+02 -0.10262719700E+02  0.12033415686E+03  0.00000000000E+00 0. -1.
<scales pt_clust_5="13000.00000" pt_clust_6="13000.00000" pt_clust_7="13000.00000" pt_clust_8="13000.00000" pt_clust_9="13000.00000"></scales>
<clustering>
<clus scale="   81.059">  5  6 -1 -1</clus>
<clus scale="   91.603">  7  8 -1 -1</clus>
<clus scale="  109.788">  1  5  2 -1</clus>
<clus scale="   92.157">  7  9 -1 -1</clus>
<clus scale="  262.602">  2  5  1 -1</clus>
</clustering>
</event>
<event>
 9    2  0.2147756E-005  0.2359913E+03  0.7546771E-02  0.1139165E+00
          2   -1    0    0  502    0 -0.00000000000E+00  0.00000000000E+00  0.37272347702E+03  0.37272347702E+03  0.00000000000E+00 0. -1.
         21   -1    0    0  501  502  0.00000000000E+00 -0.00000000000E+00 -0.11720918359E+03  0.11720918359E+03  0.00000000000E+00 0. -1.
         24    2    1    2    0    0  0.36432744998E+02 -0.13121526554E+03  0.18733366498E+03  0.24428962573E+03  0.77709255453E+02 0.  0.
         23    2    1    2    0    0 -0.43180428286E+02 -0.12695052325E+00  0.43716387937E+02  0.11187155804E+03  0.93485600076E+02 0.  0.
        -11    1    3    3    0    0  0.24432937200E+02 -0.25567717267E+01  0.50079331643E+02  0.55780327712E+02  0.00000000000E+00 0.  1.
         12    1    3    3    0    0  0.11999807799E+02 -0.12865849381E+03  0.13725433334E+03  0.18850929802E+03  0.00000000000E+00 0. -1.
        -13    1    4    4    0    0 -0.61857541681E+02  0.14724111343E+02  0.56270330887E+02  0.84908804348E+02  0.00000000000E+00 0.  1.
         13    1    4    4    0    0  0.18677113395E+02 -0.14851061866E+02 -0.12553942950E+02  0.26962753697E+02  0.00000000000E+00 0. -1.
          1    1    1    2  501    0  0.67476832881E+01  0.13134221606E+03  0.24464240508E+02  0.13377147683E+03  0.00000000000E+00 0. -1.
<scales pt_clust_5="13000.00000" pt_clust_6="13000.00000" pt_clust_7="13000.00000" pt_clust_8="13000.00000" pt_clust_9="13000.00000"></scales>
<clustering>
<clus scale="   77.709">  5  6 -1 -1</clus>
<clus scale="   93.486">  7  8 -1 -1</clus>
<clus scale="  131.515">  7  9 -1 -1</clus>
<clus scale="  156.791">  1  5  2 -1</clus>
<clus scale="  235.991">  2  5  1 -1</clus>
</clustering>
</event>
<event>
 9    2  0.2147756E-005  0.2942287E+03  0.7546771E-02  0.1129695E+00
         21   -1    0    0  501  502  0.00000000000E+00  0.00000000000E+00  0.50203784148E+02  0.50203784148E+02  0.00000000000E+00 0. -1.
          2   -1    0    0  502    0 -0.00000000000E+00 -0.00000000000E+00 -0.81990887213E+03  0.81990887213E+03  0.00000000000E+00 0. -1.
         24    2    1    2    0    0 -0.62277182305E+02 -0.44074676753E+00 -0.12374377774E+03  0.16029823475E+03  0.80649611550E+02 0.  0.
         23    2    1    2    0    0 -0.55272014250E+01  0.11389441933E+03 -0.26169640179E+03  0.30345412555E+03  0.10294129830E+03 0.  0.
        -13    1    3    3    0    0 -0.24666217953E+02 -0.39764676494E+02 -0.47999450723E+02  0.67034312665E+02  0.00000000000E+00 0.  1.
         14    1    3    3    0    0 -0.37610964353E+02  0.39323929727E+02 -0.75744327013E+02  0.93263922089E+02  0.00000000000E+00 0. -1.
        -13    1    4    4    0    0  0.40436363231E+02  0.67992551509E+02 -0.19459991096E+03  0.21006478019E+03  0.00000000000E+00 0.  1.
         13    1    4    4    0    0 -0.45963564656E+02  0.45901867818E+02 -0.67096490826E+02  0.93389345357E+02  0.00000000000E+00 0. -1.
          1    1    1    2  501    0  0.67804383730E+02 -0.11345367256E+03 -0.38426490845E+03  0.40636029597E+03  0.00000000000E+00 0. -1.
<scales pt_clust_5="13000.00000" pt_clust_6="13000.00000" pt_clust_7="13000.00000" pt_clust_8="13000.00000" pt_clust_9="13000.00000"></scales>
<clustering>
<clus scale="   80.650">  5  6 -1 -1</clus>
<clus scale="  101.897">  2  5  1 -1</clus>
<clus scale="  102.941">  7  8 -1 -1</clus>
<clus scale="  117.990">  7  9 -1 -1</clus>
<clus scale="  294.229">  1  5  2 -1</clus>
</clustering>
</event>
<event>
 9    2  0.2147756E-005  0.2579804E+03  0.7546771E-02  0.1147095E+00
         21   -1    0    0  501  502  0.00000000000E+00  0.00000000000E+00  0.63366839772E+02  0.63366839772E+02  0.00000000000E+00 0.  1.
         -3   -1    0    0    0  501 -0.00000000000E+00 -0.00000000000E+00 -0.51403499534E+03  0.51403499534E+03  0.00000000000E+00 0.  1.
         24    2    1    2    0    0  0.33390805793E+02  0.46160863039E+02 -0.16452879111E+03  0.19213621539E+03  0.81245498167E+02 0.  0.
         23    2    1    2    0    0  0.40828785591E+02  0.67390227532E+02 -0.13122846929E+03  0.17935354296E+03  0.93479140564E+02 0.  0.
        -11    1    3    3    0    0  0.59613210661E+02  0.24656747825E+02 -0.11905408491E+03  0.13540888166E+03  0.00000000000E+00 0.  1.
         12    1    3    3    0    0 -0.26222404868E+02  0.21504115213E+02 -0.45474706196E+02  0.56727333727E+02  0.00000000000E+00 0. -1.
        -13    1    4    4    0    0  0.56812628668E+02  0.22687764712E+02 -0.31291581805E+02  0.68713699767E+02  0.00000000000E+00 0. -1.
         13    1    4    4    0    0 -0.15983843077E+02  0.44702462820E+02 -0.99936887483E+02  0.11063984319E+03  0.00000000000E+00 0.  1.
         -4    1    1    2    0  502 -0.74219591384E+02 -0.11355109057E+03 -0.15491089518E+03  0.20591207677E+03  0.00000000000E+00 0.  1.
<scales pt_clust_5="13000.00000" pt_clust_6="13000.00000" pt_clust_7="13000.00000" pt_clust_8="13000.00000" pt_clust_9="13000.00000"></scales>
<clustering>
<clus scale="   81.245">  5  6 -1 -1</clus>
<clus scale="   93.479">  7  8 -1 -1</clus>
<clus scale="   99.230">  2  5  1 -1</clus>
<clus scale="  105.082">  7  9 -1 -1</clus>
<clus scale="  257.980">  1  5  2 -1</clus>
</clustering>
</event>
<event>
 9    2  0.2147756E-005  0.4113587E+03  0.7546771E-02  0.1046628E+00
         21   -1    0    0  501  502  0.00000000000E+00  0.00000000000E+00  0.20711330696E+03  0.20711330696E+03  0.00000000000E+00 0. -1.
          2   -1    0    0  502    0 -0.00000000000E+00 -0.00000000000E+00 -0.69012292198E+03  0.69012292198E+03  0.00000000000E+00 0. -1.
         24    2    1    2    0    0 -0.31452703313E+02  0.32715295618E+03 -0.27450413748E+03  0.43605245376E+03  0.82285427954E+02 0.  0.
         23    2    1    2    0    0  0.26175928820E+02 -0.13629243815E+03  0.17917627104E+02  0.16500308032E+03  0.87430928209E+02 0.  0.
        -11    1    3    3    0    0 -0.13634245809E+02  0.52273520122E+02 -0.11564803456E+02  0.55246341451E+02  0.00000000000E+00 0.  1.
         12    1    3    3    0    0 -0.17818457504E+02  0.27487943606E+03 -0.26293933402E+03  0.38080611231E+03  0.00000000000E+00 0. -1.
        -13    1    4    4    0    0 -0.27291543566E+02 -0.23879943713E+02  0.18083377329E+02  0.40522692378E+02  0.00000000000E+00 0.  1.
         13    1    4    4    0    0  0.53467472386E+02 -0.11241249444E+03 -0.16575022464E+00  0.12448038794E+03  0.00000000000E+00 0. -1.
          1    1    1    2  501    0  0.52767744934E+01 -0.19086051803E+03 -0.22642310464E+03  0.29618069486E+03  0.00000000000E+00 0. -1.
<scales pt_clust_5="13000.00000" pt_clust_6="13000.00000" pt_clust_7="13000.00000" pt_clust_8="13000.00000" pt_clust_9="13000.00000"></scales>
<clustering>
<clus scale="   82.285">  5  6 -1 -1</clus>
<clus scale="   87.431">  7  8 -1 -1</clus>
<clus scale="  190.934">  7  9 -1 -1</clus>
<clus scale="  338.806">  2  5  1 -1</clus>
<clus scale="  411.359">  1  5  2 -1</clus>
</clustering>
</event>
<event>
 9    2  0.2147756E-005  0.1215151E+03  0.7546771E-02  0.1259405E+00
          2   -1    0    0  502    0 -0.00000000000E+00  0.00000000000E+00  0.18663338222E+03  0.18663338222E+03  0.00000000000E+00 0. -1.
         21   -1    0    0  501  502  0.00000000000E+00 -0.00000000000E+00 -0.57630092480E+02  0.57630092480E+02  0.00000000000E+00 0. -1.
         24    2    1    2    0    0  0.21632313215E+02  0.82370210516E+01  0.71086488057E+02  0.10965187672E+03  0.80214959906E+02 0.  0.
         23    2    1    2    0    0 -0.13068968719E+02  0.16440379108E+02  0.34749890890E+02  0.99697264201E+02  0.91054409907E+02 0.  0.
        -13    1    3    3    0    0 -0.15220664325E+02 -0.26488725785E+02  0.14818833831E+02  0.33954661717E+02  0.00000000000E+00 0.  1.
         14    1    3    3    0    0  0.36852977540E+02  0.34725746837E+02  0.56267654226E+02  0.75697215001E+02  0.00000000000E+00 0. -1.
        -13    1    4    4    0    0 -0.36328630633E+02 -0.26222168243E+02  0.18303720749E+02  0.48398323363E+02  0.00000000000E+00 0. -1.
         13    1    4    4    0    0  0.23259661914E+02  0.42662547351E+02  0.16446170141E+02  0.51298940838E+02  0.00000000000E+00 0.  1.
          1    1    1    2  501    0 -0.85633444956E+01 -0.24677400159E+02  0.23166910790E+02  0.34914333777E+02  0.00000000000E+00 0. -1.
<scales pt_clust_5="13000.00000" pt_clust_6="13000.00000" pt_clust_7="13000.00000" pt_clust_8="13000.00000" pt_clust_9="13000.00000"></scales>
<clustering>
<clus scale="   80.215">  5  6 -1 -1</clus>
<clus scale="   83.488">  1  5  2 -1</clus>
<clus scale="   91.054">  7  8 -1 -1</clus>
<clus scale="   22.286">  7  9 -1 -1</clus>
<clus scale="  121.515">  2  5  1 -1</clus>
</clustering>
</event>
<event>
 9    2  0.2147756E-005  0.3717601E+03  0.7546771E-02  0.1100639E+00
          2   -1    0    0  502    0 -0.00000000000E+00  0.00000000000E+00  0.37128577646E+03  0.37128577646E+03  0.00000000000E+00 0. -1.
         21   -1    0    0  501  502  0.00000000000E+00 -0.00000000000E+00 -0.20402119590E+03  0.20402119590E+03  0.00000000000E+00 0. -1.
         24    2    1    2    0    0  0.65817292074E+02  0.14508248629E+01  0.17419879696E+03  0.20348218548E+03  0.82010719510E+02 0.  0.
         23    2    1    2    0    0 -0.20449708133E+02 -0.14104959710E+03  0.94793364360E+02  0.19323437401E+03  0.89669180692E+02 0.  0.
        -13    1    3    3    0    0 -0.45529478676E+01 -0.27501710287E+02  0.34022061917E+02  0.43983793607E+02  0.00000000000E+00 0.  1.
         14    1    3    3    0    0  0.70370239942E+02  0.28952535150E+02  0.14017673504E+03  0.15949839187E+03  0.00000000000E+00 0. -1.
        -13    1    4    4    0    0  0.26349083942E+02 -0.28778825894E+02  0.50429631774E+02  0.63762393347E+02  0.00000000000E+00 0. -1.
         13    1    4    4    0    0 -0.46798792076E+02 -0.11227077120E+03  0.44363732586E+02  0.12947198066E+03  0.00000000000E+00 0.  1.
          1    1    1    2  501    0 -0.45367583941E+02  0.13959877224E+03 -0.10172758077E+03  0.17859041288E+03  0.00000000000E+00 0. -1.
<scales pt_clust_5="13000.00000" pt_clust_6="13000.00000" pt_clust_7="13000.00000" pt_clust_8="13000.00000" pt_clust_9="13000.00000"></scales>
<clustering>
<clus scale="   82.011">  5  6 -1 -1</clus>
<clus scale="   89.669">  7  8 -1 -1</clus>
<clus scale="  105.165">  1  5  2 -1</clus>
<clus scale="  143.408">  7  9 -1 -1</clus>
<clus scale="  371.760">  2  5  1 -1</clus>
</clustering>
</event>
<event>
 9    2  0.2147756E-005  0.2353365E+03  0.7546771E-02  0.1135955E+00
          2   -1    0    0  502    0 -0.00000000000E+00  0.00000000000E+00  0.54570201145E+03  0.54570201145E+03  0.00000000000E+00 0. -1.
         21   -1    0    0  501  502  0.00000000000E+00 -0.00000000000E+00 -0.76489096360E+02  0.76489096360E+02  0.00000000000E+00 0. -1.
         24    2    1    2    0    0 -0.13967275657E+03  0.57688803854E+02  0.16469722398E+03  0.23733648952E+03  0.79793211840E+02 0.  0.
         23    2    1    2    0    0  0.41236079573E+01 -0.11645355901E+02  0.13478840519E+03  0.16281650811E+03  0.90491340360E+02 0.  0.
        -11    1    3    3    0    0 -0.16331645398E+02  0.23931433867E+02  0.19043727726E+00  0.28973650697E+02  0.00000000000E+00 0.  1.
         12    1    3    3    0    0 -0.12334111117E+03  0.33757369987E+02  0.16450678670E+03  0.20836283883E+03  0.00000000000E+00 0. -1.
        -11    1    4    4    0    0 -0.21455437482E+02 -0.10381729421E+02  0.13511795768E+03  0.13720414932E+03  0.00000000000E+00 0. -1.
         11    1    4    4    0    0  0.25579045440E+02 -0.12636264801E+01 -0.32955248897E+00  0.25612358781E+02  0.00000000000E+00 0.  1.
          1    1    1    2  501    0  0.13554914861E+03 -0.46043447954E+02  0.16972728592E+03  0.22203811018E+03  0.00000000000E+00 0. -1.
<scales pt_clust_5="13000.00000" pt_clust_6="13000.00000" pt_clust_7="13000.00000" pt_clust_8="13000.00000" pt_clust_9="13000.00000"></scales>
<clustering>
<clus scale="   79.793">  5  6 -1 -1</clus>
<clus scale="   90.491">  7  8 -1 -1</clus>
<clus scale="  143.156">  7  9 -1 -1</clus>
<clus scale="  170.890">  1  5  2 -1</clus>
<clus scale="  235.337">  2  5  1 -1</clus>
</clustering>
</event>
<event>
 9    2  0.2147756E-005  0.7530640E+03  0.7546771E-02  0.1011065E+00
          2   -1    0    0  502    0 -0.00000000000E+00  0.00000000000E+00  0.52489353998E+03  0.52489353998E+03  0.00000000000E+00 0. -1.
         21   -1    0    0  501  502  0.00000000000E+00 -0.00000000000E+00 -0.39705709807E+03  0.39705709807E+03  0.00000000000E+00 0. -1.
         24    2    1    2    0    0 -0.90690158015E+02  0.10217738517E+03  0.67971421015E+01  0.15922143599E+03  0.81488292036E+02 0.  0.
         23    2    1    2    0    0 -0.95978186236E+02  0.28903973988E+03  0.76539274448E+02  0.32698138287E+03  0.91119595825E+02 0.  0.
        -13    1    3    3    0    0 -0.28633144180E+02  0.73824776181E+02 -0.26238496013E+02  0.83417103743E+02  0.00000000000E+00 0.  1.
         14    1    3    3    0    0 -0.62057013835E+02  0.28352608986E+02  0.33035638115E+02  0.75804332251E+02  0.00000000000E+00 0. -1.
        -11    1    4    4    0    0 -0.40465511837E+02  0.22523760195E+03  0.79769276513E+02  0.24234803993E+03  0.00000000000E+00 0. -1.
         11    1    4    4    0    0 -0.55512674399E+02  0.63802137929E+02 -0.32300020658E+01  0.84633342937E+02  0.00000000000E+00 0.  1.
          1    1    1    2  501    0  0.18666834425E+03 -0.39121712505E+03  0.44500025359E+02  0.43574781920E+03  0.00000000000E+00 0. -1.
<scales pt_clust_5="13000.00000" pt_clust_6="13000.00000" pt_clust_7="13000.00000" pt_clust_8="13000.00000" pt_clust_9="13000.00000"></scales>
<clustering>
<clus scale="   81.488">  5  6 -1 -1</clus>
<clus scale="   91.120">  7  8 -1 -1</clus>
<clus scale="  159.076">  1  5  2 -1</clus>
<clus scale="  362.719">  7  9 -1 -1</clus>
<clus scale="  753.064">  2  5  1 -1</clus>
</clustering>
</event>
<event>
 9    2  0.2147756E-005  0.2536097E+03  0.7546771E-02  0.1139326E+00
          2   -1    0    0  502    0 -0.00000000000E+00  0.00000000000E+00  0.71627890401E+03  0.71627890401E+03  0.00000000000E+00 0. -1.
         21   -1    0    0  501  502  0.00000000000E+00 -0.00000000000E+00 -0.60169740735E+02  0.60169740735E+02  0.00000000000E+00 0. -1.
         24    2    1    2    0    0  0.23272710618E+02  0.94727191944E+02  0.85843272456E+02  0.15233243004E+03  0.79506237894E+02 0.  0.
         23    2    1    2    0    0  0.51847790218E+02 -0.95887300430E+01  0.12779008746E+03  0.16730500216E+03  0.94236512041E+02 0.  0.
        -13    1    3    3    0    0  0.55267236272E+01  0.82726922147E+02  0.97465550383E+02  0.12796023536E+03  0.00000000000E+00 0.  1.
         14    1    3    3    0    0  0.17745986991E+02  0.12000269797E+02 -0.11622277927E+02  0.24372194684E+02  0.00000000000E+00 0. -1.
        -11    1    4    4    0    0  0.36405529246E+02  0.83837917653E+01  0.13690971638E+03  0.14191518933E+03  0.00000000000E+00 0. -1.
         11    1    4    4    0    0  0.15442260973E+02 -0.17972521808E+02 -0.91196289182E+01  0.25389812833E+02  0.00000000000E+00 0.  1.
          1    1    1    2  501    0 -0.75120500836E+02 -0.85138461901E+02  0.44247580336E+03  0.45681121254E+03  0.00000000000E+00 0. -1.
<scales pt_clust_5="13000.00000" pt_clust_6="13000.00000" pt_clust_7="13000.00000" pt_clust_8="13000.00000" pt_clust_9="13000.00000"></scales>
<clustering>
<clus scale="   79.506">  5  6 -1 -1</clus>
<clus scale="   94.237">  7  8 -1 -1</clus>
<clus scale="  113.541">  7  9 -1 -1</clus>
<clus scale="  125.842">  1  5  2 -1</clus>
<clus scale="  253.610">  2  5  1 -1</clus>
</clustering>
</event>
<event>
 9    2  0.2147756E-005  0.2340618E+03  0.7546771E-02  0.1154230E+00
          2   -1    0    0  502    0 -0.00000000000E+00  0.00000000000E+00  0.77916576387E+03  0.77916576387E+03  0.00000000000E+00 0. -1.
         21   -1    0    0  501  502  0.00000000000E+00 -0.00000000000E+00 -0.79042002660E+02  0.79042002660E+02  0.00000000000E+00 0. -1.
         24    2    1    2    0    0 -0.10641518934E+02  0.76650660854E+02  0.58811454934E+03  0.59872557826E+03  0.81271330580E+02 0.  0.
         23    2    1    2    0    0 -0.26090094547E+01 -0.11420700288E+03  0.14625528011E+03  0.20695744630E+03  0.91600934403E+02 0.  0.
        -11    1    3    3    0    0 -0.33727338724E+02  0.18225774792E+02  0.10973551106E+03  0.11623938503E+03  0.00000000000E+00 0.  1.
         12    1    3    3    0    0  0.23085819790E+02  0.58424886061E+02  0.47837903828E+03  0.48248619322E+03  0.00000000000E+00 0. -1.
        -11    1    4    4    0    0  0.27995268202E+02 -0.38899373660E+02  0.10582041301E+03  0.11616736256E+03  0.00000000000E+00 0. -1.
         11    1    4    4    0    0 -0.30604277657E+02 -0.75307629224E+02  0.40434867095E+02  0.90790083749E+02  0.00000000000E+00 0.  1.
          1    1    1    2  501    0  0.13250528389E+02  0.37556342030E+02 -0.34246068239E+02  0.52524741971E+02  0.00000000000E+00 0. -1.
<scales pt_clust_5="13000.00000" pt_clust_6="13000.00000" pt_clust_7="13000.00000" pt_clust_8="13000.00000" pt_clust_9="13000.00000"></scales>
<clustering>
<clus scale="   81.271">  5  6 -1 -1</clus>
<clus scale="   91.601">  7  8 -1 -1</clus>
<clus scale="   39.825">  7  9 -1 -1</clus>
<clus scale="  112.221">  1  5  2 -1</clus>
<clus scale="  234.062">  2  5  1 -1</clus>
</clustering>
</event>
<event>
 9    2  0.2147756E-005  0.2296421E+03  0.7546771E-02  0.1169241E+00
         21   -1    0    0  501  502  0.00000000000E+00  0.00000000000E+00  0.17013830058E+03  0.17013830058E+03  0.00000000000E+00 0. -1.
          2   -1    0    0  502    0 -0.00000000000E+00 -0.00000000000E+00 -0.31817699953E+03  0.31817699953E+03  0.00000000000E+00 0. -1.
         24    2    1    2    0    0  0.14080367355E+01  0.26738799956E+02 -0.22974119581E+03  0.24457201265E+03  0.79482742355E+02 0.  0.
         23    2    1    2    0    0  0.68991151460E+01 -0.75120535746E+02 -0.31088641459E+02  0.12073254804E+03  0.88989616520E+02 0.  0.
        -13    1    3    3    0    0  0.21862596298E+02 -0.21314474978E+02 -0.66376206151E+02  0.73062170126E+02  0.00000000000E+00 0.  1.
         14    1    3    3    0    0 -0.20454559563E+02  0.48053274934E+02 -0.16336498965E+03  0.17150984253E+03  0.00000000000E+00 0. -1.
        -13    1    4    4    0    0 -0.15265831687E+02 -0.73444169567E+02  0.83335834605E+01  0.75475428278E+02  0.00000000000E+00 0.  1.
         13    1    4    4    0    0  0.22164946833E+02 -0.16763661790E+01 -0.39422224920E+02  0.45257119764E+02  0.00000000000E+00 0. -1.
          1    1    1    2  501    0 -0.83071518816E+01  0.48381735790E+02  0.11279113831E+03  0.12301073942E+03  0.00000000000E+00 0. -1.
<scales pt_clust_5="13000.00000" pt_clust_6="13000.00000" pt_clust_7="13000.00000" pt_clust_8="13000.00000" pt_clust_9="13000.00000"></scales>
<clustering>
<clus scale="   79.483">  5  6 -1 -1</clus>
<clus scale="   83.872">  2  5  1 -1</clus>
<clus scale="   88.990">  7  8 -1 -1</clus>
<clus scale="   50.738">  7  9 -1 -1</clus>
<clus scale="  229.642">  1  5  2 -1</clus>
</clustering>
</event>
<event>
 9    2  0.2147756E-005  0.2382025E+03  0.7546771E-02  0.1126548E+00
          2   -1    0    0  502    0 -0.00000000000E+00  0.00000000000E+00  0.31084726508E+03  0.31084726508E+03  0.00000000000E+00 0. -1.
         21   -1    0    0  501  502  0.00000000000E+00 -0.00000000000E+00 -0.18665229487E+03  0.18665229487E+03  0.00000000000E+00 0. -1.
         24    2    1    2    0    0 -0.13427625890E+03 -0.13674116181E+03  0.15263271298E+03  0.25760555100E+03  0.79596581574E+02 0.  0.
         23    2    1    2    0    0  0.56930562474E+02  0.45379005859E+02 -0.11175301649E+02  0.11895025273E+03  0.93401992164E+02 0.  0.
        -13    1    3    3    0    0 -0.87596949509E+00 -0.39706905797E+02  0.13946131246E+02  0.42093945731E+02  0.00000000000E+00 0.  1.
         14    1    3    3    0    0 -0.13340028940E+03 -0.97034256012E+02  0.13868658173E+03  0.21551160527E+03  0.00000000000E+00 0. -1.
        -11    1    4    4    0    0  0.73276371976E+02  0.91228246640E+01 -0.23201282204E+02  0.77401241048E+02  0.00000000000E+00 0. -1.
         11    1    4    4    0    0 -0.16345809501E+02  0.36256181195E+02  0.12025980555E+02  0.41549011678E+02  0.00000000000E+00 0.  1.
          1    1    1    2  501    0  0.77345696425E+02  0.91362155950E+02 -0.17262441125E+02  0.12094375622E+03  0.00000000000E+00 0. -1.
<scales pt_clust_5="13000.00000" pt_clust_6="13000.00000" pt_clust_7="13000.00000" pt_clust_8="13000.00000" pt_clust_9="13000.00000"></scales>
<clustering>
<clus scale="   79.597">  5  6 -1 -1</clus>
<clus scale="   93.402">  7  8 -1 -1</clus>
<clus scale="  119.706">  7  9 -1 -1</clus>
<clus scale="  207.518">  1  5  2 -1</clus>
<clus scale="  238.202">  2  5  1 -1</clus>
</clustering>
</event>
<event>
 9    2  0.2147756E-005  0.1255731E+03  0.7546771E-02  0.1250194E+00
         21   -1    0    0  501  502  0.00000000000E+00  0.00000000000E+00  0.10541697312E+02  0.10541697312E+02  0.00000000000E+00 0.  1.
          2   -1    0    0  502    0 -0.00000000000E+00 -0.00000000000E+00 -0.14332113709E+04  0.14332113709E+04  0.00000000000E+00 0. -1.
         24    2    1    2    0    0  0.19733553098E+02 -0.36410308401E+02 -0.96196404840E+03  0.96624046593E+03  0.80812646982E+02 0.  0.
         23    2    1    2    0    0 -0.29847015373E+02  0.16277821484E+02 -0.32747529497E+03  0.34239073122E+03  0.93997511736E+02 0.  0.
        -11    1    3    3    0    0 -0.17969020340E+02 -0.21680273275E+02 -0.11826930239E+03  0.12157527639E+03  0.00000000000E+00 0.  1.
         12    1    3    3    0    0  0.37702573438E+02 -0.14730035127E+02 -0.84369474601E+03  0.84466518954E+03  0.00000000000E+00 0. -1.
        -11    1    4    4    0    0 -0.19413258984E+02  0.53915154774E+02 -0.14780977229E+03  0.15852901098E+03  0.00000000000E+00 0. -1.
         11    1    4    4    0    0 -0.10433756388E+02 -0.37637333291E+02 -0.17966552269E+03  0.18386172024E+03  0.00000000000E+00 0.  1.
          1    1    1    2  501    0  0.10113462275E+02  0.20132486918E+02 -0.13323033026E+03  0.13512187110E+03  0.00000000000E+00 0. -1.
<scales pt_clust_5="13000.00000" pt_clust_6="13000.00000" pt_clust_7="13000.00000" pt_clust_8="13000.00000" pt_clust_9="13000.00000"></scales>
<clustering>
<clus scale="   80.813">  5  6 -1 -1</clus>
<clus scale="   90.806">  2  5  1 -1</clus>
<clus scale="   93.998">  7  8 -1 -1</clus>
<clus scale="   18.514">  7  9 -1 -1</clus>
<clus scale="  125.573">  1  5  2 -1</clus>
</clustering>
</event>
<event>
 9    2  0.2147756E-005  0.1433546E+03  0.7546771E-02  0.1237053E+00
         21   -1    0    0  501  502  0.00000000000E+00  0.00000000000E+00  0.49070354066E+02  0.49070354066E+02  0.00000000000E+00 0. -1.
         -1   -1    0    0    0  501 -0.00000000000E+00 -0.00000000000E+00 -0.32638541193E+03  0.32638541193E+03  0.00000000000E+00 0.  1.
         24    2    1    2    0    0  0.75519261374E+01  0.41745824841E+01 -0.19390922585E+03  0.20960322056E+03  0.79109187023E+02 0.  0.
         23    2    1    2    0    0 -0.27747408024E+02 -0.32201594253E+02 -0.46056019914E+02  0.11497642785E+03  0.96392741768E+02 0.  0.
        -13    1    3    3    0    0  0.27994309704E+02  0.33235685572E+02 -0.11924447700E+03  0.12691547371E+03  0.00000000000E+00 0.  1.
         14    1    3    3    0    0 -0.20442383567E+02 -0.29061103088E+02 -0.74664748847E+02  0.82687746849E+02  0.00000000000E+00 0. -1.
        -13    1    4    4    0    0 -0.40392625396E+02 -0.82180485455E+01 -0.68388363706E+02  0.79850289909E+02  0.00000000000E+00 0.  1.
         13    1    4    4    0    0  0.12645217373E+02 -0.23983545707E+02  0.22332343792E+02  0.35126137936E+02  0.00000000000E+00 0. -1.
         -2    1    1    2    0  502  0.20195481886E+02  0.28027011769E+02 -0.37349812100E+02  0.50876117592E+02  0.00000000000E+00 0.  1.
<scales pt_clust_5="13000.00000" pt_clust_6="13000.00000" pt_clust_7="13000.00000" pt_clust_8="13000.00000" pt_clust_9="13000.00000"></scales>
<clustering>
<clus scale="   79.109">  5  6 -1 -1</clus>
<clus scale="   79.578">  2  5  1 -1</clus>
<clus scale="   96.393">  7  8 -1 -1</clus>
<clus scale="   37.330">  7  9 -1 -1</clus>
<clus scale="  143.355">  1  5  2 -1</clus>
</clustering>
</event>
<event>
 9    2  0.2147756E-005  0.9589050E+03  0.7546771E-02  0.9702376E-01
         21   -1    0    0  501  502  0.00000000000E+00  0.00000000000E+00  0.30981037087E+03  0.30981037087E+03  0.00000000000E+00 0. -1.
          2   -1    0    0  502    0 -0.00000000000E+00 -0.00000000000E+00 -0.14742488686E+04  0.14742488686E+04  0.00000000000E+00 0. -1.
         24    2    1    2    0    0 -0.25155694715E+03  0.11074570098E+03 -0.14198757798E+02  0.28654455008E+03  0.79753786833E+02 0.  0.
         23    2    1    2    0    0  0.40770727501E+01  0.38877512016E+03 -0.53089522216E+03  0.66423504204E+03  0.90530313060E+02 0.  0.
        -13    1    3    3    0    0 -0.44760114957E+02 -0.90968648916E+01 -0.13145938262E+02  0.47529322892E+02  0.00000000000E+00 0.  1.
         14    1    3    3    0    0 -0.20679683219E+03  0.11984256587E+03 -0.10528195358E+01  0.23901522719E+03  0.00000000000E+00 0. -1.
        -11    1    4    4    0    0 -0.36083791660E+02  0.12504534522E+03 -0.14181655873E+03  0.19248458305E+03  0.00000000000E+00 0.  1.
         11    1    4    4    0    0  0.40160864411E+02  0.26372977494E+03 -0.38907866343E+03  0.47175045899E+03  0.00000000000E+00 0. -1.
          1    1    1    2  501    0  0.24747987440E+03 -0.49952082115E+03 -0.61934451780E+03  0.83327964737E+03  0.00000000000E+00 0. -1.
<scales pt_clust_5="13000.00000" pt_clust_6="13000.00000" pt_clust_7="13000.00000" pt_clust_8="13000.00000" pt_clust_9="13000.00000"></scales>
<clustering>
<clus scale="   79.754">  5  6 -1 -1</clus>
<clus scale="   90.530">  7  8 -1 -1</clus>
<clus scale="  286.193">  2  5  1 -1</clus>
<clus scale="  452.213">  7  9 -1 -1</clus>
<clus scale="  958.905">  1  5  2 -1</clus>
</clustering>
</event>
<event>
 9    2  0.2147756E-005  0.6236793E+03  0.7546771E-02  0.1035961E+00
         21   -1    0    0  501  502  0.00000000000E+00  0.00000000000E+00  0.14620864233E+03  0.14620864233E+03  0.00000000000E+00 0.  1.
          2   -1    0    0  502    0 -0.00000000000E+00 -0.00000000000E+00 -0.10309752554E+04  0.10309752554E+04  0.00000000000E+00 0. -1.
         24    2    1    2    0    0 -0.10472978099E+03  0.54110160679E+01 -0.27350406625E+03  0.30390403590E+03  0.80966552704E+02 0.  0.
         23    2    1    2    0    0  0.55854551261E+02 -0.30095759079E+03 -0.36708198126E+03  0.48680772247E+03  0.92397918470E+02 0.  0.
        -11    1    3    3    0    0 -0.55140141269E+02 -0.31631484708E+02 -0.18719563198E+03  0.19769469046E+03  0.00000000000E+00 0.  1.
         12    1    3    3    0    0 -0.49589639725E+02  0.37042500776E+02 -0.86308434274E+02  0.10620934544E+03  0.00000000000E+00 0. -1.
        -11    1    4    4    0    0  0.16075309845E+02 -0.23155124997E+03 -0.31527210174E+03  0.39149826958E+03  0.00000000000E+00 0. -1.
         11    1    4    4    0    0  0.39779241416E+02 -0.69406340820E+02 -0.51809879519E+02  0.95309452886E+02  0.00000000000E+00 0.  1.
          1    1    1    2  501    0  0.48875229734E+02  0.29554657473E+03 -0.24418056558E+03  0.38647213938E+03  0.00000000000E+00 0. -1.
<scales pt_clust_5="13000.00000" pt_clust_6="13000.00000" pt_clust_7="13000.00000" pt_clust_8="13000.00000" pt_clust_9="13000.00000"></scales>
<clustering>
<clus scale="   80.967">  5  6 -1 -1</clus>
<clus scale="   92.398">  7  8 -1 -1</clus>
<clus scale="  132.488">  2  5  1 -1</clus>
<clus scale="  297.878">  7  9 -1 -1</clus>
<clus scale="  623.679">  1  5  2 -1</clus>
</clustering>
</event>
<event>
 9    2  0.2147756E-005  0.2614417E+03  0.7546771E-02  0.1126304E+00
         21   -1    0    0  501  502  0.00000000000E+00  0.00000000000E+00  0.24391020220E+03  0.24391020220E+03  0.00000000000E+00 0. -1.
          2   -1    0    0  502    0 -0.00000000000E+00 -0.00000000000E+00 -0.19247482337E+03  0.19247482337E+03  0.00000000000E+00 0. -1.
         24    2    1    2    0    0  0.56278821509E+02 -0.12352263742E+03 -0.33647039964E+02  0.16144721255E+03  0.80671751156E+02 0.  0.
         23    2    1    2    0    0  0.40263155464E+02  0.12045650726E+03  0.17789099344E+02  0.15721718903E+03  0.90938994074E+02 0.  0.
        -11    1    3    3    0    0 -0.20609878689E+02 -0.21326885366E+02 -0.10610899407E+02  0.31499116261E+02  0.00000000000E+00 0.  1.
         12    1    3    3    0    0  0.76888700199E+02 -0.10219575206E+03 -0.23036140557E+02  0.12994809629E+03  0.00000000000E+00 0. -1.
        -11    1    4    4    0    0  0.33117353561E+02  0.78195780484E+01 -0.18412343304E+02  0.38690041272E+02  0.00000000000E+00 0.  1.
         11    1    4    4    0    0  0.71458019033E+01  0.11263692921E+03  0.36201442647E+02  0.11852714776E+03  0.00000000000E+00 0. -1.
          1    1    1    2  501    0 -0.96541976973E+02  0.30661301656E+01  0.67293319449E+02  0.11772062400E+03  0.00000000000E+00 0. -1.
<scales pt_clust_5="13000.00000" pt_clust_6="13000.00000" pt_clust_7="13000.00000" pt_clust_8="13000.00000" pt_clust_9="13000.00000"></scales>
<clustering>
<clus scale="   80.672">  5  6 -1 -1</clus>
<clus scale="   90.939">  7  8 -1 -1</clus>
<clus scale="   96.591">  7  9 -1 -1</clus>
<clus scale="  157.902">  2  5  1 -1</clus>
<clus scale="  261.442">  1  5  2 -1</clus>
</clustering>
</event>
<event>
 9    2  0.2147756E-005  0.1574985E+03  0.7546771E-02  0.1204534E+00
         21   -1    0    0  501  502  0.00000000000E+00  0.00000000000E+00  0.10450696190E+03  0.10450696190E+03  0.00000000000E+00 0. -1.
          2   -1    0    0  502    0 -0.00000000000E+00 -0.00000000000E+00 -0.18840098489E+03  0.18840098489E+03  0.00000000000E+00 0. -1.
         24    2    1    2    0    0  0.86280698853E+02 -0.14071521204E+02 -0.61977886610E+02  0.13389195101E+03  0.80270974917E+02 0.  0.
         23    2    1    2    0    0 -0.74034883787E+02 -0.13526416738E+02  0.84285329910E+01  0.11620939436E+03  0.88144513167E+02 0.  0.
        -11    1    3    3    0    0  0.73518523357E+02 -0.14831225875E-01 -0.79339111662E+02  0.10816500421E+03  0.00000000000E+00 0.  1.
         12    1    3    3    0    0  0.12762175496E+02 -0.14056689978E+02  0.17361225052E+02  0.25726946804E+02  0.00000000000E+00 0. -1.
        -11    1    4    4    0    0 -0.91673421566E+00  0.27113627516E+02 -0.12661781624E+02  0.29938435373E+02  0.00000000000E+00 0.  1.
         11    1    4    4    0    0 -0.73118149571E+02 -0.40640044254E+02  0.21090314615E+02  0.86270958985E+02  0.00000000000E+00 0. -1.
          1    1    1    2  501    0 -0.12245815066E+02  0.27597937942E+02 -0.30344669369E+02  0.42806601412E+02  0.00000000000E+00 0. -1.
<scales pt_clust_5="13000.00000" pt_clust_6="13000.00000" pt_clust_7="13000.00000" pt_clust_8="13000.00000" pt_clust_9="13000.00000"></scales>
<clustering>
<clus scale="   80.271">  5  6 -1 -1</clus>
<clus scale="   88.145">  7  8 -1 -1</clus>
<clus scale="   30.193">  7  9 -1 -1</clus>
<clus scale="  118.684">  2  5  1 -1</clus>
<clus scale="  157.498">  1  5  2 -1</clus>
</clustering>
</event>
<event>
 9    2  0.2147756E-005  0.3127320E+03  0.7546771E-02  0.1099838E+00
         21   -1    0    0  501  502  0.00000000000E+00  0.00000000000E+00  0.81758283258E+03  0.81758283258E+03  0.00000000000E+00 0.  1.
          2   -1    0    0  502    0 -0.00000000000E+00 -0.00000000000E+00 -0.11993813285E+03  0.11993813285E+03  0.00000000000E+00 0. -1.
         24    2    1    2    0    0 -0.11603448347E+03  0.11394705165E+03  0.57325059174E+03  0.60095716601E+03  0.78008605420E+02 0.  0.
         23    2    1    2    0    0 -0.59719179692E+02 -0.14814409044E+02  0.37717459573E+02  0.11695170429E+03  0.92028513196E+02 0.  0.
        -13    1    3    3    0    0 -0.10495148258E+03  0.94605996279E+02  0.55324952869E+03  0.57100801152E+03  0.00000000000E+00 0.  1.
         14    1    3    3    0    0 -0.11083000898E+02  0.19341055369E+02  0.20001063051E+02  0.29949154494E+02  0.00000000000E+00 0. -1.
        -11    1    4    4    0    0 -0.13016663541E+02  0.33430917263E+02  0.34430102160E+02  0.49724156036E+02  0.00000000000E+00 0.  1.
         11    1    4    4    0    0 -0.46702516151E+02 -0.48245326307E+02  0.32873574126E+01  0.67227548253E+02  0.00000000000E+00 0. -1.
          1    1    1    2  501    0  0.17575366317E+03 -0.99132642603E+02  0.86676648425E+02  0.21961209513E+03  0.00000000000E+00 0. -1.
<scales pt_clust_5="13000.00000" pt_clust_6="13000.00000" pt_clust_7="13000.00000" pt_clust_8="13000.00000" pt_clust_9="13000.00000"></scales>
<clustering>
<clus scale="   78.009">  5  6 -1 -1</clus>
<clus scale="   92.029">  7  8 -1 -1</clus>
<clus scale="  180.370">  2  5  1 -1</clus>
<clus scale="  106.720">  7  9 -1 -1</clus>
<clus scale="  312.732">  1  5  2 -1</clus>
</clustering>
</event>
<event>
 9    2  0.2147756E-005  0.3606404E+03  0.7546771E-02  0.1081356E+00
         21   -1    0    0  501  502  0.00000000000E+00  0.00000000000E+00  0.62394087171E+02  0.62394087171E+02  0.00000000000E+00 0.  1.
          2   -1    0    0  502    0 -0.00000000000E+00 -0.00000000000E+00 -0.12375066484E+04  0.12375066484E+04  0.00000000000E+00 0. -1.
         24    2    1    2    0    0 -0.95244282798E+02  0.14543195095E+03 -0.34069936319E+03  0.39088649254E+03  0.80587022615E+02 0.  0.
         23    2    1    2    0    0  0.10096025511E+02  0.68225716706E+02 -0.41791744147E+03  0.43323221319E+03  0.90986177568E+02 0.  0.
        -13    1    3    3    0    0 -0.78202478479E+02  0.15220310566E+03 -0.32230143496E+03  0.36491043831E+03  0.00000000000E+00 0.  1.
         14    1    3    3    0    0 -0.17041804319E+02 -0.67711547041E+01 -0.18397928232E+02  0.25976054237E+02  0.00000000000E+00 0. -1.
        -11    1    4    4    0    0  0.47600018426E+02  0.46044331606E+02 -0.19063152214E+03  0.20180738208E+03  0.00000000000E+00 0.  1.
         11    1    4    4    0    0 -0.37503992915E+02  0.22181385100E+02 -0.22728591933E+03  0.23142483111E+03  0.00000000000E+00 0. -1.
          1    1    1    2  501    0  0.85148257287E+02 -0.21365766766E+03 -0.41649575653E+03  0.47578202980E+03  0.00000000000E+00 0. -1.
<scales pt_clust_5="13000.00000" pt_clust_6="13000.00000" pt_clust_7="13000.00000" pt_clust_8="13000.00000" pt_clust_9="13000.00000"></scales>
<clustering>
<clus scale="   80.587">  5  6 -1 -1</clus>
<clus scale="   90.986">  7  8 -1 -1</clus>
<clus scale="  191.615">  2  5  1 -1</clus>
<clus scale="  143.907">  7  9 -1 -1</clus>
<clus scale="  360.640">  1  5  2 -1</clus>
</clustering>
</event>
<event>
 9    2  0.2147756E-005  0.6849480E+03  0.7546771E-02  0.1035508E+00
         21   -1    0    0  501  502  0.00000000000E+00  0.00000000000E+00  0.70757103857E+02  0.70757103857E+02  0.00000000000E+00 0. -1.
          2   -1    0    0  502    0 -0.00000000000E+00 -0.00000000000E+00 -0.21855992939E+04  0.21855992939E+04  0.00000000000E+00 0. -1.
         24    2    1    2    0    0 -0.58370607673E+02  0.25837258995E+02 -0.28988337098E+03  0.30709283274E+03  0.78733394161E+02 0.  0.
         23    2    1    2    0    0 -0.14513858030E+03 -0.29824306000E+03 -0.97461729601E+03  0.10334570266E+04  0.90224286019E+02 0.  0.
        -11    1    3    3    0    0 -0.28883933348E+02  0.52025909764E+02 -0.20561712659E+03  0.21405461836E+03  0.00000000000E+00 0.  1.
         12    1    3    3    0    0 -0.29486674325E+02 -0.26188650769E+02 -0.84266244387E+02  0.93038214380E+02  0.00000000000E+00 0. -1.
        -11    1    4    4    0    0 -0.33679928184E+02 -0.15652340164E+02 -0.70718156945E+02  0.79877349961E+02  0.00000000000E+00 0.  1.
         11    1    4    4    0    0 -0.11145865211E+03 -0.28259071983E+03 -0.90389913907E+03  0.95357967663E+03  0.00000000000E+00 0. -1.
          1    1    1    2  501    0  0.20350918797E+03  0.27240580100E+03 -0.85034152302E+03  0.91580653841E+03  0.00000000000E+00 0. -1.
<scales pt_clust_5="13000.00000" pt_clust_6="13000.00000" pt_clust_7="13000.00000" pt_clust_8="13000.00000" pt_clust_9="13000.00000"></scales>
<clustering>
<clus scale="   78.733">  5  6 -1 -1</clus>
<clus scale="   90.224">  7  8 -1 -1</clus>
<clus scale="  101.359">  2  5  1 -1</clus>
<clus scale="  334.638">  7  9 -1 -1</clus>
<clus scale="  684.948">  1  5  2 -1</clus>
</clustering>
</event>
<event>
 9    2  0.2147756E-005  0.3080015E+03  0.7546771E-02  0.1087220E+00
          2   -1    0    0  502    0 -0.00000000000E+00  0.00000000000E+00  0.11283860773E+04  0.11283860773E+04  0.00000000000E+00 0. -1.
         21   -1    0    0  501  502  0.00000000000E+00 -0.00000000000E+00 -0.81699016329E+02  0.81699016329E+02  0.00000000000E+00 0. -1.
         24    2    1    2    0    0 -0.23579796193E+03 -0.85788447291E+02  0.69223963949E+03  0.74051303992E+03  0.78762346822E+02 0.  0.
         23    2    1    2    0    0  0.66148203619E+02  0.39188428788E+02  0.22059352120E+03  0.24850765395E+03  0.84753965596E+02 0.  0.
        -13    1    3    3    0    0 -0.12642077626E+03 -0.56197768986E+02  0.27062642513E+03  0.30393924374E+03  0.00000000000E+00 0.  1.
         14    1    3    3    0    0 -0.10937718567E+03 -0.29590678305E+02  0.42161321436E+03  0.43657379618E+03  0.00000000000E+00 0. -1.
        -11    1    4    4    0    0  0.17901047814E+02  0.59438925486E+02  0.11682401768E+03  0.13229242036E+03  0.00000000000E+00 0.  1.
         11    1    4    4    0    0  0.48247155805E+02 -0.20250496698E+02  0.10376950352E+03  0.11621523360E+03  0.00000000000E+00 0. -1.
          1    1    1    2  501    0  0.16964975831E+03  0.46600018503E+02  0.13385390028E+03  0.22106439976E+03  0.00000000000E+00 0. -1.
<scales pt_clust_5="13000.00000" pt_clust_6="13000.00000" pt_clust_7="13000.00000" pt_clust_8="13000.00000" pt_clust_9="13000.00000"></scales>
<clustering>
<clus scale="   78.762">  5  6 -1 -1</clus>
<clus scale="   84.754">  7  8 -1 -1</clus>
<clus scale="  175.934">  7  9 -1 -1</clus>
<clus scale="  262.990">  1  5  2 -1</clus>
<clus scale="  308.002">  2  5  1 -1</clus>
</clustering>
</event>
<event>
 9    2  0.2147756E-005  0.1630466E+03  0.7546771E-02  0.1204589E+00
         21   -1    0    0  501  502  0.00000000000E+00  0.00000000000E+00  0.99263722073E+02  0.99263722073E+02  0.00000000000E+00 0.  1.
          2   -1    0    0  502    0 -0.00000000000E+00 -0.00000000000E+00 -0.28183438759E+03  0.28183438759E+03  0.00000000000E+00 0. -1.
         24    2    1    2    0    0  0.14392533069E+02  0.68940928886E+02 -0.18988924670E+03  0.21788734533E+03  0.80355289553E+02 0.  0.
         23    2    1    2    0    0 -0.43558832074E+02 -0.81588241578E+02  0.17390852136E+02  0.12986292845E+03  0.89487012643E+02 0.  0.
        -11    1    3    3    0    0 -0.28899664598E+02  0.11227214516E+02 -0.33422698604E+02  0.45588570297E+02  0.00000000000E+00 0.  1.
         12    1    3    3    0    0  0.43292197668E+02  0.57713714370E+02 -0.15646654810E+03  0.17229877504E+03  0.00000000000E+00 0. -1.
        -11    1    4    4    0    0 -0.63490040023E+02 -0.48556864891E+02 -0.12705530518E+02  0.80933212069E+02  0.00000000000E+00 0. -1.
         11    1    4    4    0    0  0.19931207948E+02 -0.33031376688E+02  0.30096382654E+02  0.48929716380E+02  0.00000000000E+00 0.  1.
          1    1    1    2  501    0  0.29166299005E+02  0.12647312692E+02 -0.10072270954E+02  0.33347835884E+02  0.00000000000E+00 0. -1.
<scales pt_clust_5="13000.00000" pt_clust_6="13000.00000" pt_clust_7="13000.00000" pt_clust_8="13000.00000" pt_clust_9="13000.00000"></scales>
<clustering>
<clus scale="   80.355">  5  6 -1 -1</clus>
<clus scale="   89.487">  7  8 -1 -1</clus>
<clus scale="   31.790">  7  9 -1 -1</clus>
<clus scale="  106.850">  2  5  1 -1</clus>
<clus scale="  163.047">  1  5  2 -1</clus>
</clustering>
</event>
<event>
 9    2  0.2147756E-005  0.4933020E+03  0.7546771E-02  0.1054206E+00
         21   -1    0    0  501  502  0.00000000000E+00  0.00000000000E+00  0.77928696777E+03  0.77928696777E+03  0.00000000000E+00 0. -1.
          2   -1    0    0  502    0 -0.00000000000E+00 -0.00000000000E+00 -0.16712929085E+03  0.16712929085E+03  0.00000000000E+00 0. -1.
         24    2    1    2    0    0 -0.87685044400E+02  0.10457330967E+03 -0.24723845079E+01  0.15830648006E+03  0.80190927397E+02 0.  0.
         23    2    1    2    0    0 -0.88723841572E+02  0.10828129272E+03  0.41290382399E+03  0.44588083226E+03  0.93399091512E+02 0.  0.
        -13    1    3    3    0    0 -0.12015965589E+02  0.76690335213E+02 -0.75972777239E-02  0.77625968605E+02  0.00000000000E+00 0.  1.
         14    1    3    3    0    0 -0.75669078811E+02  0.27882974462E+02 -0.24647872302E+01  0.80680511457E+02  0.00000000000E+00 0. -1.
        -13    1    4    4    0    0 -0.33071526368E+02  0.10721852459E+03  0.29047432995E+03  0.31139183392E+03  0.00000000000E+00 0. -1.
         13    1    4    4    0    0 -0.55652315204E+02  0.10627681263E+01  0.12242949404E+03  0.13448899834E+03  0.00000000000E+00 0.  1.
          1    1    1    2  501    0  0.17640888597E+03 -0.21285460239E+03  0.20172623744E+03  0.34222894629E+03  0.00000000000E+00 0. -1.
<scales pt_clust_5="13000.00000" pt_clust_6="13000.00000" pt_clust_7="13000.00000" pt_clust_8="13000.00000" pt_clust_9="13000.00000"></scales>
<clustering>
<clus scale="   80.191">  5  6 -1 -1</clus>
<clus scale="   93.399">  7  8 -1 -1</clus>
<clus scale="  158.287">  2  5  1 -1</clus>
<clus scale="  165.929">  7  9 -1 -1</clus>
<clus scale="  493.302">  1  5  2 -1</clus>
</clustering>
</event>
<event>
 9    2  0.2147756E-005  0.2560810E+03  0.7546771E-02  0.1135090E+00
          2   -1    0    0  502    0 -0.00000000000E+00  0.00000000000E+00  0.67339286805E+03  0.67339286805E+03  0.00000000000E+00 0. -1.
         21   -1    0    0  501  502  0.00000000000E+00 -0.00000000000E+00 -0.77630484851E+02  0.77630484851E+02  0.00000000000E+00 0. -1.
         24    2    1    2    0    0  0.82347167449E+02 -0.70780894940E+02  0.41771665007E+03  0.43912955335E+03  0.80972673216E+02 0.  0.
         23    2    1    2    0    0  0.29586402062E+01 -0.49368097311E+01  0.17553587925E+03  0.19780369925E+03  0.90996334494E+02 0.  0.
        -11    1    3    3    0    0  0.27333446096E+02  0.10513571702E+02  0.44895694451E+02  0.53602946241E+02  0.00000000000E+00 0.  1.
         12    1    3    3    0    0  0.55013721353E+02 -0.81294466642E+02  0.37282095561E+03  0.38552660711E+03  0.00000000000E+00 0. -1.
        -11    1    4    4    0    0 -0.17506871739E+02 -0.40415356007E+02  0.54777769895E+02  0.70288659355E+02  0.00000000000E+00 0. -1.
         11    1    4    4    0    0  0.20465511945E+02  0.35478546275E+02  0.12075810935E+03  0.12751503989E+03  0.00000000000E+00 0.  1.
          1    1    1    2  501    0 -0.85305807655E+02  0.75717704671E+02  0.25098538866E+01  0.11409010030E+03  0.00000000000E+00 0. -1.
<scales pt_clust_5="13000.00000" pt_clust_6="13000.00000" pt_clust_7="13000.00000" pt_clust_8="13000.00000" pt_clust_9="13000.00000"></scales>
<clustering>
<clus scale="   80.973">  5  6 -1 -1</clus>
<clus scale="   90.996">  7  8 -1 -1</clus>
<clus scale="  114.063">  7  9 -1 -1</clus>
<clus scale="  135.453">  1  5  2 -1</clus>
<clus scale="  256.081">  2  5  1 -1</clus>
</clustering>
</event>
<event>
 9    2  0.2147756E-005  0.2405286E+03  0.7546771E-02  0.1152403E+00
          2   -1    0    0  502    0 -0.00000000000E+00  0.00000000000E+00  0.13945365887E+04  0.13945365887E+04  0.00000000000E+00 0. -1.
         21   -1    0    0  501  502  0.00000000000E+00 -0.00000000000E+00 -0.23317303008E+02  0.23317303008E+02  0.00000000000E+00 0. -1.
         24    2    1    2    0    0 -0.48291716247E+00  0.67005040305E+02  0.61185171332E+03  0.62130313232E+03  0.84647235615E+02 0.  0.
         23    2    1    2    0    0 -0.27390403677E+02  0.45944886068E+02  0.22018434133E+03  0.24495927603E+03  0.93073820038E+02 0.  0.
        -13    1    3    3    0    0  0.18178138882E+02  0.80289861375E+02  0.41207661252E+03  0.42021903950E+03  0.00000000000E+00 0.  1.
         14    1    3    3    0    0 -0.18661056045E+02 -0.13284821070E+02  0.19977510080E+03  0.20108409282E+03  0.00000000000E+00 0. -1.
        -13    1    4    4    0    0 -0.12380017790E+02 -0.28337634572E+02  0.52213213413E+02  0.60683655366E+02  0.00000000000E+00 0.  1.
         13    1    4    4    0    0 -0.15010385887E+02  0.74282520640E+02  0.16797112791E+03  0.18427562066E+03  0.00000000000E+00 0. -1.
          1    1    1    2  501    0  0.27873320839E+02 -0.11294992637E+03  0.53918323106E+03  0.55159148338E+03  0.00000000000E+00 0. -1.
<scales pt_clust_5="13000.00000" pt_clust_6="13000.00000" pt_clust_7="13000.00000" pt_clust_8="13000.00000" pt_clust_9="13000.00000"></scales>
<clustering>
<clus scale="   84.647">  5  6 -1 -1</clus>
<clus scale="   93.074">  7  8 -1 -1</clus>
<clus scale="  107.959">  1  5  2 -1</clus>
<clus scale="   71.491">  7  9 -1 -1</clus>
<clus scale="  240.529">  2  5  1 -1</clus>
</clustering>
</event>
<event>
 9    2  0.2147756E-005  0.3504756E+03  0.7546771E-02  0.1099280E+00
         21   -1    0    0  501  502  0.00000000000E+00  0.00000000000E+00  0.11194926628E+03  0.11194926628E+03  0.00000000000E+00 0. -1.
          2   -1    0    0  502    0 -0.00000000000E+00 -0.00000000000E+00 -0.55199639931E+03  0.55199639931E+03  0.00000000000E+00 0. -1.
         24    2    1    2    0    0 -0.82104008452E+02 -0.57866307771E+02 -0.20216259956E+03  0.24036308202E+03  0.82553720441E+02 0.  0.
         23    2    1    2    0    0 -0.79100906071E+02 -0.75223330368E+02 -0.83074253274E+02  0.16345550098E+03  0.88886818321E+02 0.  0.
        -11    1    3    3    0    0 -0.53885276258E+02 -0.15428146036E+02 -0.17253973622E+03  0.18141557613E+03  0.00000000000E+00 0.  1.
         12    1    3    3    0    0 -0.28218732194E+02 -0.42438161735E+02 -0.29622863336E+02  0.58947505887E+02  0.00000000000E+00 0. -1.
        -13    1    4    4    0    0 -0.70577781693E+02 -0.15558742360E+02 -0.72303095768E+02  0.10223030563E+03  0.00000000000E+00 0. -1.
         13    1    4    4    0    0 -0.85231243781E+01 -0.59664588008E+02 -0.10771157507E+02  0.61225195347E+02  0.00000000000E+00 0.  1.
          1    1    1    2  501    0  0.16120491452E+03  0.13308963814E+03 -0.15481028020E+03  0.26012708260E+03  0.00000000000E+00 0. -1.
<scales pt_clust_5="13000.00000" pt_clust_6="13000.00000" pt_clust_7="13000.00000" pt_clust_8="13000.00000" pt_clust_9="13000.00000"></scales>
<clustering>
<clus scale="   82.554">  5  6 -1 -1</clus>
<clus scale="   88.887">  7  8 -1 -1</clus>
<clus scale="  130.018">  2  5  1 -1</clus>
<clus scale="  146.297">  7  9 -1 -1</clus>
<clus scale="  350.476">  1  5  2 -1</clus>
</clustering>
</event>
<event>
 9    2  0.2147756E-005  0.5239422E+03  0.7546771E-02  0.1052180E+00
         21   -1    0    0  501  502  0.00000000000E+00  0.00000000000E+00  0.22177370100E+03  0.22177370100E+03  0.00000000000E+00 0.  1.
         -3   -1    0    0    0  501 -0.00000000000E+00 -0.00000000000E+00 -0.49692788146E+03  0.49692788146E+03  0.00000000000E+00 0.  1.
         24    2    1    2    0    0 -0.25670260432E+02  0.11148024666E+03 -0.62601284811E+02  0.15328658406E+03  0.80567042437E+02 0.  0.
         23    2    1    2    0    0  0.13941832511E+03 -0.26719377426E+03 -0.61760889168E+02  0.32062211837E+03  0.90300348715E+02 0.  0.
        -13    1    3    3    0    0 -0.50382589816E+02  0.65802237460E+02 -0.17951705132E+02  0.84797426426E+02  0.00000000000E+00 0.  1.
         14    1    3    3    0    0  0.24712329384E+02  0.45678009198E+02 -0.44649579679E+02  0.68489157634E+02  0.00000000000E+00 0. -1.
        -13    1    4    4    0    0  0.43603600939E+02 -0.36175043283E+02 -0.40453217558E+02  0.69615878808E+02  0.00000000000E+00 0. -1.
         13    1    4    4    0    0  0.95814724170E+02 -0.23101873098E+03 -0.21307671611E+02  0.25100623956E+03  0.00000000000E+00 0.  1.
         -4    1    1    2    0  502 -0.11374806468E+03  0.15571352760E+03 -0.15079200648E+03  0.24479288003E+03  0.00000000000E+00 0.  1.
<scales pt_clust_5="13000.00000" pt_clust_6="13000.00000" pt_clust_7="13000.00000" pt_clust_8="13000.00000" pt_clust_9="13000.00000"></scales>
<clustering>
<clus scale="   80.567">  5  6 -1 -1</clus>
<clus scale="   90.300">  7  8 -1 -1</clus>
<clus scale="  139.921">  2  5  1 -1</clus>
<clus scale="  247.370">  7  9 -1 -1</clus>
<clus scale="  523.942">  1  5  2 -1</clus>
</clustering>
</event>
<event>
 9    2  0.2147756E-005  0.1704972E+03  0.7546771E-02  0.1200681E+00
         21   -1    0    0  501  502  0.00000000000E+00  0.00000000000E+00  0.37854414665E+03  0.37854414665E+03  0.00000000000E+00 0.  1.
          4   -1    0    0  502    0 -0.00000000000E+00 -0.00000000000E+00 -0.53888823911E+02  0.53888823911E+02  0.00000000000E+00 0. -1.
         24    2    1    2    0    0  0.38621909683E+02  0.47918804442E+02  0.61382232324E+02  0.11877387067E+03  0.80941893867E+02 0.  0.
         23    2    1    2    0    0 -0.32029283047E+02 -0.11986260542E+02  0.25604312788E+03  0.27641822456E+03  0.98383972869E+02 0.  0.
        -13    1    3    3    0    0  0.59421370052E+02  0.52729727517E+02  0.41635518075E+02  0.89693030656E+02  0.00000000000E+00 0.  1.
         14    1    3    3    0    0 -0.20799460369E+02 -0.48109230742E+01  0.19746714249E+02  0.29080840017E+02  0.00000000000E+00 0. -1.
        -11    1    4    4    0    0  0.13209654468E+02  0.33950614464E+02  0.61613074598E+02  0.71577301954E+02  0.00000000000E+00 0. -1.
         11    1    4    4    0    0 -0.45238937516E+02 -0.45936875006E+02  0.19443005329E+03  0.20484092261E+03  0.00000000000E+00 0.  1.
          3    1    1    2  501    0 -0.65926266358E+01 -0.35932543901E+02  0.72299625337E+01  0.37240875330E+02  0.00000000000E+00 0. -1.
<scales pt_clust_5="13000.00000" pt_clust_6="13000.00000" pt_clust_7="13000.00000" pt_clust_8="13000.00000" pt_clust_9="13000.00000"></scales>
<clustering>
<clus scale="   80.942">  5  6 -1 -1</clus>
<clus scale="   98.384">  7  8 -1 -1</clus>
<clus scale="   36.532">  7  9 -1 -1</clus>
<clus scale="  101.683">  2  5  1 -1</clus>
<clus scale="  170.497">  1  5  2 -1</clus>
</clustering>
</event>
<event>
 9    2  0.2147756E-005  0.2397842E+03  0.7546771E-02  0.1158624E+00
          2   -1    0    0  502    0 -0.00000000000E+00  0.00000000000E+00  0.11130161374E+04  0.11130161374E+04  0.00000000000E+00 0. -1.
         21   -1    0    0  501  502  0.00000000000E+00 -0.00000000000E+00 -0.34640688794E+02  0.34640688794E+02  0.00000000000E+00 0. -1.
         24    2    1    2    0    0  0.37412823136E+02  0.30986384659E+02  0.64958464006E+03  0.65637479362E+03  0.80670872864E+02 0.  0.
         23    2    1    2    0    0  0.22692862487E+02 -0.58695320982E+02  0.92371943109E+02  0.14841451936E+03  0.97643161410E+02 0.  0.
        -11    1    3    3    0    0  0.34554023369E+01  0.31262791722E+02  0.82784912760E+02  0.88558702182E+02  0.00000000000E+00 0.  1.
         12    1    3    3    0    0  0.33957420799E+02 -0.27640706306E+00  0.56679972730E+03  0.56781609144E+03  0.00000000000E+00 0. -1.
        -11    1    4    4    0    0 -0.31186082314E+02 -0.11011419833E+02  0.62096779972E+02  0.70355050847E+02  0.00000000000E+00 0.  1.
         11    1    4    4    0    0  0.53878944800E+02 -0.47683901149E+02  0.30275163137E+02  0.78059468513E+02  0.00000000000E+00 0. -1.
          1    1    1    2  501    0 -0.60105685622E+02  0.27708936323E+02  0.33641886545E+03  0.34286751323E+03  0.00000000000E+00 0. -1.
<scales pt_clust_5="13000.00000" pt_clust_6="13000.00000" pt_clust_7="13000.00000" pt_clust_8="13000.00000" pt_clust_9="13000.00000"></scales>
<clustering>
<clus scale="   80.671">  5  6 -1 -1</clus>
<clus scale="   94.168">  1  5  2 -1</clus>
<clus scale="   97.643">  7  8 -1 -1</clus>
<clus scale="   60.118">  7  9 -1 -1</clus>
<clus scale="  239.784">  2  5  1 -1</clus>
</clustering>
</event>
<event>
 9    2  0.2147756E-005  0.2446457E+03  0.7546771E-02  0.1128118E+00
         21   -1    0    0  501  502  0.00000000000E+00  0.00000000000E+00  0.27765345043E+02  0.27765345043E+02  0.00000000000E+00 0.  1.
         -3   -1    0    0    0  501 -0.00000000000E+00 -0.00000000000E+00 -0.16571368093E+04  0.16571368093E+04  0.00000000000E+00 0.  1.
         24    2    1    2    0    0  0.41428519990E+00 -0.16571709430E+03 -0.68347515645E+03  0.70788049674E+03  0.80586482775E+02 0.  0.
         23    2    1    2    0    0  0.45675587407E+02  0.48138774902E+02 -0.55559068862E+03  0.56679316771E+03  0.90387392635E+02 0.  0.
        -13    1    3    3    0    0 -0.48104724580E+01 -0.13107339332E+03 -0.37209004258E+03  0.39453057533E+03  0.00000000000E+00 0.  1.
         14    1    3    3    0    0  0.52247576579E+01 -0.34643700986E+02 -0.31138511387E+03  0.31334992141E+03  0.00000000000E+00 0. -1.
        -11    1    4    4    0    0  0.66629389901E+02  0.89464933961E+01 -0.30884440034E+03  0.31607653972E+03  0.00000000000E+00 0. -1.
         11    1    4    4    0    0 -0.20953802494E+02  0.39192281505E+02 -0.24674628828E+03  0.25071662799E+03  0.00000000000E+00 0.  1.
         -4    1    1    2    0  502 -0.46089872607E+02  0.11757831940E+03 -0.39030561918E+03  0.41022848989E+03  0.00000000000E+00 0.  1.
<scales pt_clust_5="13000.00000" pt_clust_6="13000.00000" pt_clust_7="13000.00000" pt_clust_8="13000.00000" pt_clust_9="13000.00000"></scales>
<clustering>
<clus scale="   80.586">  5  6 -1 -1</clus>
<clus scale="   90.387">  7  8 -1 -1</clus>
<clus scale="  126.289">  7  9 -1 -1</clus>
<clus scale="  184.273">  2  5  1 -1</clus>
<clus scale="  244.646">  1  5  2 -1</clus>
</clustering>
</event>
<event>
 9    2  0.2147756E-005  0.2050829E+03  0.7546771E-02  0.1178455E+00
          4   -1    0    0  502    0 -0.00000000000E+00  0.00000000000E+00  0.25544539747E+02  0.25544539747E+02  0.00000000000E+00 0. -1.
         21   -1    0    0  501  502  0.00000000000E+00 -0.00000000000E+00 -0.90630751754E+03  0.90630751754E+03  0.00000000000E+00 0.  1.
         24    2    1    2    0    0  0.45101116457E+02  0.24649711200E+02 -0.35146618457E+03  0.36421300394E+03  0.80504126403E+02 0.  0.
         23    2    1    2    0    0 -0.24785164343E+01 -0.58518582142E+02 -0.15234564374E+03  0.18677693191E+03  0.90806715774E+02 0.  0.
        -11    1    3    3    0    0  0.49237781420E+02  0.47264240612E+02 -0.30270454704E+03  0.31030357774E+03  0.00000000000E+00 0.  1.
         12    1    3    3    0    0 -0.41366649637E+01 -0.22614529412E+02 -0.48761637533E+02  0.53909426193E+02  0.00000000000E+00 0. -1.
        -11    1    4    4    0    0 -0.34274519592E+02 -0.44442124959E+02 -0.39328960714E+02  0.68531834318E+02  0.00000000000E+00 0. -1.
         11    1    4    4    0    0  0.31796003158E+02 -0.14076457183E+02 -0.11301668303E+03  0.11824509760E+03  0.00000000000E+00 0.  1.
          3    1    1    2  501    0 -0.42622600023E+02  0.33868870942E+02 -0.37695114948E+03  0.38086212144E+03  0.00000000000E+00 0. -1.
<scales pt_clust_5="13000.00000" pt_clust_6="13000.00000" pt_clust_7="13000.00000" pt_clust_8="13000.00000" pt_clust_9="13000.00000"></scales>
<clustering>
<clus scale="   80.504">  5  6 -1 -1</clus>
<clus scale="   90.807">  7  8 -1 -1</clus>
<clus scale="   54.441">  7  9 -1 -1</clus>
<clus scale="   95.513">  1  5  2 -1</clus>
<clus scale="  205.083">  2  5  1 -1</clus>
</clustering>
</event>
<event>
 9    2  0.2147756E-005  0.3500477E+03  0.7546771E-02  0.1116754E+00
          2   -1    0    0  502    0 -0.00000000000E+00  0.00000000000E+00  0.29736257518E+03  0.29736257518E+03  0.00000000000E+00 0. -1.
         21   -1    0    0  501  502  0.00000000000E+00 -0.00000000000E+00 -0.17137067479E+03  0.17137067479E+03  0.00000000000E+00 0. -1.
         24    2    1    2    0    0  0.18434197904E+02  0.15595808806E+02  0.80095604054E+02  0.11568951841E+03  0.79910637435E+02 0.  0.
         23    2    1    2    0    0  0.57413771357E+02  0.13314551388E+03 -0.26811799500E+02  0.17093562434E+03  0.86464131700E+02 0.  0.
        -13    1    3    3    0    0  0.39106117168E+02 -0.18299052215E+02  0.48631516237E+02  0.65032054277E+02  0.00000000000E+00 0.  1.
         14    1    3    3    0    0 -0.20671919264E+02  0.33894861021E+02  0.31464087818E+02  0.50657464128E+02  0.00000000000E+00 0. -1.
        -13    1    4    4    0    0  0.65784895247E+02  0.10572497435E+03 -0.49877857471E+02  0.13413882104E+03  0.00000000000E+00 0. -1.
         13    1    4    4    0    0 -0.83711238899E+01  0.27420539524E+02  0.23066057971E+02  0.36796803303E+02  0.00000000000E+00 0.  1.
          1    1    1    2  501    0 -0.75847969262E+02 -0.14874132268E+03  0.72708095837E+02  0.18210810722E+03  0.00000000000E+00 0. -1.
<scales pt_clust_5="13000.00000" pt_clust_6="13000.00000" pt_clust_7="13000.00000" pt_clust_8="13000.00000" pt_clust_9="13000.00000"></scales>
<clustering>
<clus scale="   79.911">  5  6 -1 -1</clus>
<clus scale="   83.479">  1  5  2 -1</clus>
<clus scale="   86.464">  7  8 -1 -1</clus>
<clus scale="  152.857">  7  9 -1 -1</clus>
<clus scale="  350.048">  2  5  1 -1</clus>
</clustering>
</event>
<event>
 9    2  0.2147756E-005  0.2824120E+03  0.7546771E-02  0.1128205E+00
         21   -1    0    0  501  502  0.00000000000E+00  0.00000000000E+00  0.46577747902E+02  0.46577747902E+02  0.00000000000E+00 0. -1.
          2   -1    0    0  502    0 -0.00000000000E+00 -0.00000000000E+00 -0.96826254451E+03  0.96826254451E+03  0.00000000000E+00 0. -1.
         24    2    1    2    0    0 -0.19461463426E+02  0.86522640111E+02 -0.44503014291E+03  0.46080401107E+03  0.80147318752E+02 0.  0.
         23    2    1    2    0    0 -0.14472084312E+02  0.52283288806E+02 -0.34316812150E+03  0.35849286969E+03  0.88373041668E+02 0.  0.
        -11    1    3    3    0    0 -0.37234680296E+02  0.10670826435E+02 -0.10374546360E+03  0.11074027800E+03  0.00000000000E+00 0.  1.
         12    1    3    3    0    0  0.17773216869E+02  0.75851813676E+02 -0.34128467931E+03  0.35006373307E+03  0.00000000000E+00 0. -1.
        -11    1    4    4    0    0 -0.45180776110E+02  0.53157715819E+02 -0.27518694252E+03  0.28389240676E+03  0.00000000000E+00 0. -1.
         11    1    4    4    0    0  0.30708691798E+02 -0.87442701294E+00 -0.67981178973E+02  0.74600462929E+02  0.00000000000E+00 0.  1.
          1    1    1    2  501    0  0.33933547739E+02 -0.13880592892E+03 -0.13348653220E+03  0.19554341166E+03  0.00000000000E+00 0. -1.
<scales pt_clust_5="13000.00000" pt_clust_6="13000.00000" pt_clust_7="13000.00000" pt_clust_8="13000.00000" pt_clust_9="13000.00000"></scales>
<clustering>
<clus scale="   80.147">  5  6 -1 -1</clus>
<clus scale="   88.373">  7  8 -1 -1</clus>
<clus scale="  119.535">  2  5  1 -1</clus>
<clus scale="  114.589">  7  9 -1 -1</clus>
<clus scale="  282.412">  1  5  2 -1</clus>
</clustering>
</event>
<event>
 9    2  0.2147756E-005  0.6395231E+03  0.7546771E-02  0.1005855E+00
         -3   -1    0    0    0  501 -0.00000000000E+00  0.00000000000E+00  0.21539587672E+03  0.21539587672E+03  0.00000000000E+00 0.  1.
         21   -1    0    0  501  502  0.00000000000E+00 -0.00000000000E+00 -0.11260554489E+04  0.11260554489E+04  0.00000000000E+00 0.  1.
         24    2    1    2    0    0  0.28199050617E+03  0.84237184069E+02 -0.12864156860E+03  0.33123257960E+03  0.80943312668E+02 0.  0.
         23    2    1    2    0    0  0.15003539222E+03  0.21777317874E+02 -0.34033598001E+03  0.38334678026E+03  0.90229175764E+02 0.  0.
        -13    1    3    3    0    0  0.18840564103E+03  0.79167636457E+02 -0.53884493662E+02  0.21134743644E+03  0.00000000000E+00 0.  1.
         14    1    3    3    0    0  0.93584865144E+02  0.50695476125E+01 -0.74757074934E+02  0.11988514316E+03  0.00000000000E+00 0. -1.
        -13    1    4    4    0    0  0.12664297632E+03  0.53096178584E+02 -0.26679336924E+03  0.30006057638E+03  0.00000000000E+00 0.  1.
         13    1    4    4    0    0  0.23392415900E+02 -0.31318860710E+02 -0.73542610767E+02  0.83286203877E+02  0.00000000000E+00 0. -1.
         -4    1    1    2    0  502 -0.43202589839E+03 -0.10601450194E+03 -0.44168202358E+03  0.62687196576E+03  0.00000000000E+00 0.  1.
<scales pt_clust_5="13000.00000" pt_clust_6="13000.00000" pt_clust_7="13000.00000" pt_clust_8="13000.00000" pt_clust_9="13000.00000"></scales>
<clustering>
<clus scale="   80.943">  5  6 -1 -1</clus>
<clus scale="   90.229">  7  8 -1 -1</clus>
<clus scale="  305.232">  1  5  2 -1</clus>
<clus scale="  206.644">  7  9 -1 -1</clus>
<clus scale="  639.523">  2  5  1 -1</clus>
</clustering>
</event>
<event>
 9    2  0.2147756E-005  0.2903227E+03  0.7546771E-02  0.1135961E+00
          4   -1    0    0  502    0 -0.00000000000E+00  0.00000000000E+00  0.45548451568E+03  0.45548451568E+03  0.00000000000E+00 0. -1.
         21   -1    0    0  501  502  0.00000000000E+00 -0.00000000000E+00 -0.83303018704E+02  0.83303018704E+02  0.00000000000E+00 0.  1.
         24    2    1    2    0    0 -0.29530471886E+02  0.24989265547E+02  0.14028327606E+03  0.16721784316E+03  0.82376558351E+02 0.  0.
         23    2    1    2    0    0 -0.89182791561E+02 -0.79413561830E+02  0.16993504967E+03  0.22702116119E+03  0.91654800257E+02 0.  0.
        -13    1    3    3    0    0  0.28971086853E+02  0.71078660810E+01  0.45238205095E+02  0.54188013747E+02  0.00000000000E+00 0.  1.
         14    1    3    3    0    0 -0.58501558739E+02  0.17881399466E+02  0.95045070966E+02  0.11302982941E+03  0.00000000000E+00 0. -1.
        -13    1    4    4    0    0 -0.48101634404E+02 -0.23014798464E+02  0.12430838657E+02  0.54753757227E+02  0.00000000000E+00 0.  1.
         13    1    4    4    0    0 -0.41081157157E+02 -0.56398763366E+02  0.15750421102E+03  0.17226740397E+03  0.00000000000E+00 0. -1.
          3    1    1    2  501    0  0.11871326345E+03  0.54424296283E+02  0.61963171247E+02  0.14454853003E+03  0.00000000000E+00 0. -1.
<scales pt_clust_5="13000.00000" pt_clust_6="13000.00000" pt_clust_7="13000.00000" pt_clust_8="13000.00000" pt_clust_9="13000.00000"></scales>
<clustering>
<clus scale="   82.377">  5  6 -1 -1</clus>
<clus scale="   91.008">  1  5  2 -1</clus>
<clus scale="   91.655">  7  8 -1 -1</clus>
<clus scale="  125.545">  7  9 -1 -1</clus>
<clus scale="  290.323">  2  5  1 -1</clus>
</clustering>
</event>
<event>
 9    2  0.2147756E-005  0.2964200E+03  0.7546771E-02  0.1101990E+00
          2   -1    0    0  502    0 -0.00000000000E+00  0.00000000000E+00  0.18958806092E+03  0.18958806092E+03  0.00000000000E+00 0. -1.
         21   -1    0    0  501  502  0.00000000000E+00 -0.00000000000E+00 -0.56102049175E+03  0.56102049175E+03  0.00000000000E+00 0. -1.
         24    2    1    2    0    0 -0.18169928682E+03  0.39786668140E+01  0.75689908753E+02  0.21415424564E+03  0.84277031367E+02 0.  0.
         23    2    1    2    0    0  0.22254804097E+02  0.63617535139E+02 -0.11344700958E+03  0.16051413169E+03  0.91389799246E+02 0.  0.
        -13    1    3    3    0    0 -0.93279577974E+02 -0.38762643129E+02  0.27110762503E+02  0.10458783683E+03  0.00000000000E+00 0.  1.
         14    1    3    3    0    0 -0.88419708848E+02  0.42741309943E+02  0.48579146250E+02  0.10956640881E+03  0.00000000000E+00 0. -1.
        -11    1    4    4    0    0  0.41535054863E+02  0.78378129889E+02 -0.82134136836E+02  0.12088965407E+03  0.00000000000E+00 0.  1.
         11    1    4    4    0    0 -0.19280250766E+02 -0.14760594750E+02 -0.31312872745E+02  0.39624477618E+02  0.00000000000E+00 0. -1.
          1    1    1    2  501    0  0.15944448273E+03 -0.67596201953E+02 -0.33367533000E+03  0.37594017534E+03  0.00000000000E+00 0. -1.
<scales pt_clust_5="13000.00000" pt_clust_6="13000.00000" pt_clust_7="13000.00000" pt_clust_8="13000.00000" pt_clust_9="13000.00000"></scales>
<clustering>
<clus scale="   84.277">  5  6 -1 -1</clus>
<clus scale="   91.390">  7  8 -1 -1</clus>
<clus scale="  173.181">  7  9 -1 -1</clus>
<clus scale="  200.332">  1  5  2 -1</clus>
<clus scale="  296.420">  2  5  1 -1</clus>
</clustering>
</event>
<event>
 9    2  0.2147756E-005  0.2542097E+03  0.7546771E-02  0.1131229E+00
         21   -1    0    0  501  502  0.00000000000E+00  0.00000000000E+00  0.19114192953E+03  0.19114192953E+03  0.00000000000E+00 0. -1.
          2   -1    0    0  502    0 -0.00000000000E+00 -0.00000000000E+00 -0.22024185286E+03  0.22024185286E+03  0.00000000000E+00 0. -1.
         24    2    1    2    0    0 -0.28526608130E+02  0.12197810203E+03  0.16736084630E+02  0.15307487275E+03  0.86367791408E+02 0.  0.
         23    2    1    2    0    0  0.51580527486E+02 -0.49930950033E+02  0.59550438225E+02  0.12858389916E+03  0.88509399742E+02 0.  0.
        -11    1    3    3    0    0  0.18120124321E+02  0.73459168564E+02 -0.17358306079E+02  0.77626665144E+02  0.00000000000E+00 0.  1.
         12    1    3    3    0    0 -0.46646732452E+02  0.48518933463E+02  0.34094390709E+02  0.75448207604E+02  0.00000000000E+00 0. -1.
        -13    1    4    4    0    0  0.56879208117E+01 -0.63551745654E+02  0.46541618628E+02  0.78976573004E+02  0.00000000000E+00 0.  1.
         13    1    4    4    0    0  0.45892606674E+02  0.13620795622E+02  0.13008819597E+02  0.49607326153E+02  0.00000000000E+00 0. -1.
          1    1    1    2  501    0 -0.23053919356E+02 -0.72047151994E+02 -0.10538644618E+03  0.12972501049E+03  0.00000000000E+00 0. -1.
<scales pt_clust_5="13000.00000" pt_clust_6="13000.00000" pt_clust_7="13000.00000" pt_clust_8="13000.00000" pt_clust_9="13000.00000"></scales>
<clustering>
<clus scale="   86.368">  5  6 -1 -1</clus>
<clus scale="   88.509">  7  8 -1 -1</clus>
<clus scale="   75.646">  7  9 -1 -1</clus>
<clus scale="  152.157">  2  5  1 -1</clus>
<clus scale="  254.210">  1  5  2 -1</clus>
</clustering>
</event>
<event>
 9    2  0.2147756E-005  0.1147125E+04  0.7546771E-02  0.9702455E-01
         21   -1    0    0  501  502  0.00000000000E+00  0.00000000000E+00  0.27135922710E+03  0.27135922710E+03  0.00000000000E+00 0. -1.
          2   -1    0    0  502    0 -0.00000000000E+00 -0.00000000000E+00 -0.19338301808E+04  0.19338301808E+04  0.00000000000E+00 0. -1.
         24    2    1    2    0    0 -0.14261744183E+03  0.36324803516E+02 -0.66297087202E+03  0.68371087506E+03  0.79189377271E+02 0.  0.
         23    2    1    2    0    0 -0.25042502657E+03 -0.42445734818E+03 -0.78000284847E+03  0.92708111561E+03  0.90544005607E+02 0.  0.
        -13    1    3    3    0    0 -0.41048564722E+02 -0.18818075465E+02 -0.11222209531E+03  0.12096653795E+03  0.00000000000E+00 0.  1.
         14    1    3    3    0    0 -0.10156887711E+03  0.55142878981E+02 -0.55074877671E+03  0.56274433711E+03  0.00000000000E+00 0. -1.
        -13    1    4    4    0    0 -0.24670386979E+02 -0.11028807766E+03 -0.20411020458E+03  0.23330894471E+03  0.00000000000E+00 0.  1.
         13    1    4    4    0    0 -0.22575463959E+03 -0.31416927052E+03 -0.57589264388E+03  0.69377217090E+03  0.00000000000E+00 0. -1.
          1    1    1    2  501    0  0.39304246840E+03  0.38813254466E+03 -0.21949723320E+03  0.59439741720E+03  0.00000000000E+00 0. -1.
<scales pt_clust_5="13000.00000" pt_clust_6="13000.00000" pt_clust_7="13000.00000" pt_clust_8="13000.00000" pt_clust_9="13000.00000"></scales>
<clustering>
<clus scale="   79.189">  5  6 -1 -1</clus>
<clus scale="   90.544">  7  8 -1 -1</clus>
<clus scale="  167.123">  2  5  1 -1</clus>
<clus scale="  529.430">  7  9 -1 -1</clus>
<clus scale=" 1147.125">  1  5  2 -1</clus>
</clustering>
</event>
<event>
 9    2  0.2147756E-005  0.1721845E+03  0.7546771E-02  0.1207947E+00
          2   -1    0    0  502    0 -0.00000000000E+00  0.00000000000E+00  0.12083357916E+03  0.12083357916E+03  0.00000000000E+00 0. -1.
         21   -1    0    0  501  502  0.00000000000E+00 -0.00000000000E+00 -0.14287704963E+03  0.14287704963E+03  0.00000000000E+00 0. -1.
         24    2    1    2    0    0  0.22302110812E+02 -0.15310120331E+02 -0.34251077393E+02  0.91093876731E+02  0.79957327019E+02 0.  0.
         23    2    1    2    0    0  0.11912405391E+02 -0.35208428380E+02  0.39902101398E+02  0.10561121567E+03  0.90443420703E+02 0.  0.
        -11    1    3    3    0    0  0.20815654942E+01  0.30150595548E+02  0.79900589124E+00  0.30232924722E+02  0.00000000000E+00 0.  1.
         12    1    3    3    0    0  0.20220545318E+02 -0.45460715879E+02 -0.35050083284E+02  0.60860952009E+02  0.00000000000E+00 0. -1.
        -11    1    4    4    0    0  0.46829084538E+02 -0.72933443935E+01  0.27306702264E+01  0.47472229682E+02  0.00000000000E+00 0.  1.
         11    1    4    4    0    0 -0.34916679146E+02 -0.27915083987E+02  0.37171431171E+02  0.58138985990E+02  0.00000000000E+00 0. -1.
          1    1    1    2  501    0 -0.34214516203E+02  0.50518548711E+02 -0.27694494468E+02  0.67005536388E+02  0.00000000000E+00 0. -1.
<scales pt_clust_5="13000.00000" pt_clust_6="13000.00000" pt_clust_7="13000.00000" pt_clust_8="13000.00000" pt_clust_9="13000.00000"></scales>
<clustering>
<clus scale="   79.957">  5  6 -1 -1</clus>
<clus scale="   84.410">  1  5  2 -1</clus>
<clus scale="   90.443">  7  8 -1 -1</clus>
<clus scale="   55.698">  7  9 -1 -1</clus>
<clus scale="  172.185">  2  5  1 -1</clus>
</clustering>
</event>
<event>
 9    2  0.2147756E-005  0.3749781E+03  0.7546771E-02  0.1108006E+00
          2   -1    0    0  502    0 -0.00000000000E+00  0.00000000000E+00  0.51015819660E+02  0.51015819660E+02  0.00000000000E+00 0. -1.
         21   -1    0    0  501  502  0.00000000000E+00 -0.00000000000E+00 -0.10385251707E+04  0.10385251707E+04  0.00000000000E+00 0. -1.
         24    2    1    2    0    0  0.65664444165E+01 -0.23798621174E+02 -0.20440988174E+03  0.22129371331E+03  0.81104964324E+02 0.  0.
         23    2    1    2    0    0 -0.97822198614E+02 -0.72337563899E+02 -0.12511974357E+03  0.19704902152E+03  0.91495688187E+02 0.  0.
        -13    1    3    3    0    0  0.12283596293E+02 -0.40939954226E+02 -0.49784196778E+02  0.65615797174E+02  0.00000000000E+00 0.  1.
         14    1    3    3    0    0 -0.57171518763E+01  0.17141333052E+02 -0.15462568496E+03  0.15567791614E+03  0.00000000000E+00 0. -1.
        -13    1    4    4    0    0 -0.71789638872E+02 -0.93003598532E+02 -0.10834000603E+03  0.15981545137E+03  0.00000000000E+00 0. -1.
         13    1    4    4    0    0 -0.26032559742E+02  0.20666034633E+02 -0.16779737544E+02  0.37233570151E+02  0.00000000000E+00 0.  1.
          1    1    1    2  501    0  0.91255754197E+02  0.96136185073E+02 -0.65797972578E+03  0.67119825558E+03  0.00000000000E+00 0. -1.
<scales pt_clust_5="13000.00000" pt_clust_6="13000.00000" pt_clust_7="13000.00000" pt_clust_8="13000.00000" pt_clust_9="13000.00000"></scales>
<clustering>
<clus scale="   81.105">  5  6 -1 -1</clus>
<clus scale="   84.779">  1  5  2 -1</clus>
<clus scale="   91.496">  7  8 -1 -1</clus>
<clus scale="  130.615">  7  9 -1 -1</clus>
<clus scale="  374.978">  2  5  1 -1</clus>
</clustering>
</event>
<event>
 9    2  0.2147756E-005  0.4996229E+03  0.7546771E-02  0.1064531E+00
         -1   -1    0    0    0  501 -0.00000000000E+00  0.00000000000E+00  0.82483905880E+03  0.82483905880E+03  0.00000000000E+00 0.  1.
         21   -1    0    0  501  502  0.00000000000E+00 -0.00000000000E+00 -0.11992994485E+03  0.11992994485E+03  0.00000000000E+00 0.  1.
         24    2    1    2    0    0 -0.51673191331E+02 -0.59403106659E+02  0.59782527311E+02  0.12879638873E+03  0.82557321880E+02 0.  0.
         23    2    1    2    0    0 -0.37438959764E+02  0.25693706771E+03  0.28857326698E+03  0.39873058562E+03  0.91067101778E+02 0.  0.
        -13    1    3    3    0    0 -0.74302939026E+02 -0.40856511186E+02  0.45675567139E+02  0.96314270426E+02  0.00000000000E+00 0.  1.
         14    1    3    3    0    0  0.22629747696E+02 -0.18546595474E+02  0.14106960172E+02  0.32482118307E+02  0.00000000000E+00 0. -1.
        -13    1    4    4    0    0  0.15853283557E+02  0.18026515121E+03  0.17547405643E+03  0.25206744300E+03  0.00000000000E+00 0.  1.
         13    1    4    4    0    0 -0.53292243321E+02  0.76671916500E+02  0.11309921055E+03  0.14666314262E+03  0.00000000000E+00 0. -1.
         -2    1    1    2    0  502  0.89112151095E+02 -0.19753396105E+03  0.35655331967E+03  0.41724202929E+03  0.00000000000E+00 0.  1.
<scales pt_clust_5="13000.00000" pt_clust_6="13000.00000" pt_clust_7="13000.00000" pt_clust_8="13000.00000" pt_clust_9="13000.00000"></scales>
<clustering>
<clus scale="   82.557">  5  6 -1 -1</clus>
<clus scale="   91.067">  7  8 -1 -1</clus>
<clus scale="  114.081">  1  5  2 -1</clus>
<clus scale="  237.172">  7  9 -1 -1</clus>
<clus scale="  499.623">  2  5  1 -1</clus>
</clustering>
</event>
<event>
 9    2  0.2147756E-005  0.1737014E+03  0.7546771E-02  0.1187134E+00
         -1   -1    0    0    0  501 -0.00000000000E+00  0.00000000000E+00  0.57217999655E+03  0.57217999655E+03  0.00000000000E+00 0.  1.
         21   -1    0    0  501  502  0.00000000000E+00 -0.00000000000E+00 -0.56553740267E+02  0.56553740267E+02  0.00000000000E+00 0.  1.
         24    2    1    2    0    0 -0.89603536866E+02 -0.48575329186E+02  0.39909144045E+03  0.41956262264E+03  0.79815161804E+02 0.  0.
         23    2    1    2    0    0  0.68777676487E+02 -0.69659531018E+01  0.73743595762E+02  0.13602988767E+03  0.91033615432E+02 0.  0.
        -13    1    3    3    0    0 -0.88304287914E+02 -0.67086205991E+02  0.34103145535E+03  0.35860934153E+03  0.00000000000E+00 0.  1.
         14    1    3    3    0    0 -0.12992489518E+01  0.18510876805E+02  0.58059985104E+02  0.60953281111E+02  0.00000000000E+00 0. -1.
        -13    1    4    4    0    0  0.68226636146E+02 -0.34906260093E+02  0.26406653247E+02  0.81059436275E+02  0.00000000000E+00 0.  1.
         13    1    4    4    0    0  0.55104034098E+00  0.27940306991E+02  0.47336942514E+02  0.54970451397E+02  0.00000000000E+00 0. -1.
         -2    1    1    2    0  502  0.20825860379E+02  0.55541282288E+02  0.42791220066E+02  0.73141226496E+02  0.00000000000E+00 0.  1.
<scales pt_clust_5="13000.00000" pt_clust_6="13000.00000" pt_clust_7="13000.00000" pt_clust_8="13000.00000" pt_clust_9="13000.00000"></scales>
<clustering>
<clus scale="   79.815">  5  6 -1 -1</clus>
<clus scale="   91.034">  7  8 -1 -1</clus>
<clus scale="   59.317">  7  9 -1 -1</clus>
<clus scale="  129.456">  1  5  2 -1</clus>
<clus scale="  173.701">  2  5  1 -1</clus>
</clustering>
</event>
<event>
 9    2  0.2147756E-005  0.1128944E+04  0.7546771E-02  0.9697475E-01
         21   -1    0    0  501  502  0.00000000000E+00  0.00000000000E+00  0.10260903623E+04  0.10260903623E+04  0.00000000000E+00 0.  1.
          2   -1    0    0  502    0 -0.00000000000E+00 -0.00000000000E+00 -0.42395959394E+03  0.42395959394E+03  0.00000000000E+00 0. -1.
         24    2    1    2    0    0  0.73644852025E+02  0.13996999716E+03  0.15340676851E+03  0.23519715541E+03  0.82273330757E+02 0.  0.
         23    2    1    2    0    0 -0.14055893794E+03 -0.18914742707E+03  0.80775725153E+03  0.84634121305E+03  0.91039042712E+02 0.  0.
        -11    1    3    3    0    0  0.30570006558E+02  0.66699853244E+01  0.60311972840E+01  0.31865174499E+02  0.00000000000E+00 0.  1.
         12    1    3    3    0    0  0.43074845467E+02  0.13330001184E+03  0.14737557122E+03  0.20333198091E+03  0.00000000000E+00 0. -1.
        -13    1    4    4    0    0  0.13189068256E+01 -0.59025756137E+02  0.15826993494E+03  0.16892350845E+03  0.00000000000E+00 0. -1.
         13    1    4    4    0    0 -0.14187784477E+03 -0.13012167093E+03  0.64948731659E+03  0.67741770459E+03  0.00000000000E+00 0.  1.
          1    1    1    2  501    0  0.66914085915E+02  0.49177429908E+02 -0.35903325168E+03  0.36851158777E+03  0.00000000000E+00 0. -1.
<scales pt_clust_5="13000.00000" pt_clust_6="13000.00000" pt_clust_7="13000.00000" pt_clust_8="13000.00000" pt_clust_9="13000.00000"></scales>
<clustering>
<clus scale="   82.273">  5  6 -1 -1</clus>
<clus scale="   91.039">  7  8 -1 -1</clus>
<clus scale="   83.042">  7  9 -1 -1</clus>
<clus scale="  178.281">  2  5  1 -1</clus>
<clus scale=" 1128.944">  1  5  2 -1</clus>
</clustering>
</event>
<event>
 9    2  0.2147756E-005  0.4415605E+03  0.7546771E-02  0.1090447E+00
          2   -1    0    0  502    0 -0.00000000000E+00  0.00000000000E+00  0.17358664607E+03  0.17358664607E+03  0.00000000000E+00 0. -1.
         21   -1    0    0  501  502  0.00000000000E+00 -0.00000000000E+00 -0.48237509410E+03  0.48237509410E+03  0.00000000000E+00 0. -1.
         24    2    1    2    0    0  0.16706518685E+02 -0.12891220776E+01 -0.17717240380E+03  0.19520315306E+03  0.80208732025E+02 0.  0.
         23    2    1    2    0    0  0.11390466468E+03 -0.35635099584E+02 -0.24024967633E+03  0.28690823368E+03  0.10174622656E+03 0.  0.
        -13    1    3    3    0    0  0.33302514175E+02 -0.32098212782E+02 -0.11319694775E+03  0.12228205794E+03  0.00000000000E+00 0.  1.
         14    1    3    3    0    0 -0.16595995490E+02  0.30809090704E+02 -0.63975456053E+02  0.72921095120E+02  0.00000000000E+00 0. -1.
        -13    1    4    4    0    0  0.10146427469E+03  0.42094101297E+01 -0.10807953238E+03  0.14830341699E+03  0.00000000000E+00 0.  1.
         13    1    4    4    0    0  0.12440389991E+02 -0.39844509714E+02 -0.13217014395E+03  0.13860481669E+03  0.00000000000E+00 0. -1.
          1    1    1    2  501    0 -0.13061118337E+03  0.36924221662E+02  0.10863363209E+03  0.17385035343E+03  0.00000000000E+00 0. -1.
<scales pt_clust_5="13000.00000" pt_clust_6="13000.00000" pt_clust_7="13000.00000" pt_clust_8="13000.00000" pt_clust_9="13000.00000"></scales>
<clustering>
<clus scale="   80.209">  5  6 -1 -1</clus>
<clus scale="   81.940">  1  5  2 -1</clus>
<clus scale="  101.746">  7  8 -1 -1</clus>
<clus scale="  121.665">  7  9 -1 -1</clus>
<clus scale="  441.561">  2  5  1 -1</clus>
</clustering>
</event>
<event>
 9    2  0.2308100E-005  0.3690498E+03  0.7546771E-02  0.1096953E+00
         21   -1    0    0  501  502  0.00000000000E+00  0.00000000000E+00  0.27189405712E+03  0.27189405712E+03  0.00000000000E+00 0.  1.
          2   -1    0    0  502    0 -0.00000000000E+00 -0.00000000000E+00 -0.29942494390E+03  0.29942494390E+03  0.00000000000E+00 0. -1.
         24    2    1    2    0    0 -0.84251994458E+02  0.10312201741E+02  0.12488925873E+03  0.17203257167E+03  0.82420499244E+02 0.  0.
         23    2    1    2    0    0 -0.89939321364E+02 -0.45779885794E+01  0.46551384376E+02  0.13477713762E+03  0.88813320684E+02 0.  0.
        -11    1    3    3    0    0 -0.83772293967E+02  0.24598186930E+02  0.13021695121E+03  0.15677793983E+03  0.00000000000E+00 0.  1.
         12    1    3    3    0    0 -0.47970049112E+00 -0.14285985189E+02 -0.53276924789E+01  0.15254631839E+02  0.00000000000E+00 0. -1.
        -11    1    4    4    0    0 -0.77415981461E+02 -0.24577287218E+02 -0.15076867959E+01  0.81237616607E+02  0.00000000000E+00 0.  1.
         11    1    4    4    0    0 -0.12523339903E+02  0.19999298638E+02  0.48059071172E+02  0.53539521013E+02  0.00000000000E+00 0. -1.
          1    1    1    2  501    0  0.17419131582E+03 -0.57342131613E+01 -0.19897152989E+03  0.26450929173E+03  0.00000000000E+00 0. -1.
<scales pt_clust_5="13000.00000" pt_clust_6="13000.00000" pt_clust_7="13000.00000" pt_clust_8="13000.00000" pt_clust_9="13000.00000"></scales>
<clustering>
<clus scale="   82.420">  5  6 -1 -1</clus>
<clus scale="   88.813">  7  8 -1 -1</clus>
<clus scale="  118.313">  2  5  1 -1</clus>
<clus scale="  103.454">  7  9 -1 -1</clus>
<clus scale="  369.050">  1  5  2 -1</clus>
</clustering>
</event>
<event>
 9    2  0.2147756E-005  0.6813741E+03  0.7546771E-02  0.1011741E+00
         21   -1    0    0  501  502  0.00000000000E+00  0.00000000000E+00  0.19174210326E+03  0.19174210326E+03  0.00000000000E+00 0. -1.
          2   -1    0    0  502    0 -0.00000000000E+00 -0.00000000000E+00 -0.12034305707E+04  0.12034305707E+04  0.00000000000E+00 0. -1.
         24    2    1    2    0    0 -0.69844786341E+01 -0.19360613943E+03 -0.50193110853E+03  0.54421840889E+03  0.81894558448E+02 0.  0.
         23    2    1    2    0    0 -0.10143031843E+03 -0.18128366720E+03 -0.23587334882E+02  0.22753031014E+03  0.89787539070E+02 0.  0.
        -13    1    3    3    0    0 -0.34353593571E+02 -0.51188825120E+02 -0.10681747421E+03  0.12333060450E+03  0.00000000000E+00 0.  1.
         14    1    3    3    0    0  0.27369114937E+02 -0.14241731431E+03 -0.39511363431E+03  0.42088780439E+03  0.00000000000E+00 0. -1.
        -13    1    4    4    0    0 -0.96014064809E+01 -0.10381089747E+03 -0.25671932526E+02  0.10736823348E+03  0.00000000000E+00 0. -1.
         13    1    4    4    0    0 -0.91828911950E+02 -0.77472769732E+02  0.20845976446E+01  0.12016207666E+03  0.00000000000E+00 0.  1.
          1    1    1    2  501    0  0.10841479707E+03  0.37488980663E+03 -0.48617002407E+03  0.62342395498E+03  0.00000000000E+00 0. -1.
<scales pt_clust_5="13000.00000" pt_clust_6="13000.00000" pt_clust_7="13000.00000" pt_clust_8="13000.00000" pt_clust_9="13000.00000"></scales>
<clustering>
<clus scale="   81.895">  5  6 -1 -1</clus>
<clus scale="   89.788">  7  8 -1 -1</clus>
<clus scale="  210.330">  2  5  1 -1</clus>
<clus scale="  240.096">  7  9 -1 -1</clus>
<clus scale="  681.374">  1  5  2 -1</clus>
</clustering>
</event>
<event>
 9    2  0.2147756E-005  0.2624807E+03  0.7546771E-02  0.1144924E+00
          2   -1    0    0  502    0 -0.00000000000E+00  0.00000000000E+00  0.69270075340E+03  0.69270075340E+03  0.00000000000E+00 0. -1.
         21   -1    0    0  501  502  0.00000000000E+00 -0.00000000000E+00 -0.47974536209E+02  0.47974536209E+02  0.00000000000E+00 0. -1.
         24    2    1    2    0    0  0.43191306609E+02  0.55900664267E+02  0.13756002038E+03  0.16961167294E+03  0.69677737902E+02 0.  0.
         23    2    1    2    0    0 -0.83845442096E+02  0.21779941302E+02  0.13401216503E+03  0.18774786347E+03  0.98922069625E+02 0.  0.
        -11    1    3    3    0    0  0.37877347674E+02  0.57472134412E+02  0.14489844189E+03  0.16041601592E+03  0.00000000000E+00 0.  1.
         12    1    3    3    0    0  0.53139589346E+01 -0.15714701448E+01 -0.73384215059E+01  0.91956570278E+01  0.00000000000E+00 0. -1.
        -11    1    4    4    0    0 -0.24504180165E+02 -0.31663096810E+02  0.85235532923E+02  0.94170603789E+02  0.00000000000E+00 0.  1.
         11    1    4    4    0    0 -0.59341261931E+02  0.53443038112E+02  0.48776632107E+02  0.93577259684E+02  0.00000000000E+00 0. -1.
          1    1    1    2  501    0  0.40654135487E+02 -0.77680605569E+02  0.37315403178E+03  0.38331575320E+03  0.00000000000E+00 0. -1.
<scales pt_clust_5="13000.00000" pt_clust_6="13000.00000" pt_clust_7="13000.00000" pt_clust_8="13000.00000" pt_clust_9="13000.00000"></scales>
<clustering>
<clus scale="   69.678">  5  6 -1 -1</clus>
<clus scale="   98.922">  7  8 -1 -1</clus>
<clus scale="   87.676">  7  9 -1 -1</clus>
<clus scale="   99.224">  1  5  2 -1</clus>
<clus scale="  262.481">  2  5  1 -1</clus>
</clustering>
</event>
<event>
 9    2  0.2147756E-005  0.2061027E+03  0.7546771E-02  0.1176770E+00
         21   -1    0    0  501  502  0.00000000000E+00  0.00000000000E+00  0.50192229602E+02  0.50192229602E+02  0.00000000000E+00 0. -1.
          2   -1    0    0  502    0 -0.00000000000E+00 -0.00000000000E+00 -0.46039930605E+03  0.46039930605E+03  0.00000000000E+00 0. -1.
         24    2    1    2    0    0  0.51458869813E+02 -0.23977339162E+02 -0.12392599590E+03  0.15783784593E+03  0.79575153610E+02 0.  0.
         23    2    1    2    0    0  0.29578726251E+02  0.61138082271E+02 -0.19147427131E+03  0.22261398063E+03  0.91004514441E+02 0.  0.
        -11    1    3    3    0    0  0.50565872625E+02 -0.49309855750E+02 -0.10340815387E+03  0.12522625777E+03  0.00000000000E+00 0.  1.
         12    1    3    3    0    0  0.89299718840E+00  0.25332516588E+02 -0.20517842028E+02  0.32611588157E+02  0.00000000000E+00 0. -1.
        -13    1    4    4    0    0 -0.30725410722E+02  0.50614655240E+01 -0.49178590505E+02  0.58208273134E+02  0.00000000000E+00 0.  1.
         13    1    4    4    0    0  0.60304136973E+02  0.56076616747E+02 -0.14229568081E+03  0.16440570750E+03  0.00000000000E+00 0. -1.
          1    1    1    2  501    0 -0.81037596064E+02 -0.37160743109E+02 -0.94806809239E+02  0.13013970909E+03  0.00000000000E+00 0. -1.
<scales pt_clust_5="13000.00000" pt_clust_6="13000.00000" pt_clust_7="13000.00000" pt_clust_8="13000.00000" pt_clust_9="13000.00000"></scales>
<clustering>
<clus scale="   79.575">  5  6 -1 -1</clus>
<clus scale="   91.005">  7  8 -1 -1</clus>
<clus scale="   89.152">  7  9 -1 -1</clus>
<clus scale="   97.750">  2  5  1 -1</clus>
<clus scale="  206.103">  1  5  2 -1</clus>
</clustering>
</event>
<event>
 9    2  0.2147756E-005  0.1655313E+03  0.7546771E-02  0.1200369E+00
         -3   -1    0    0    0  501 -0.00000000000E+00  0.00000000000E+00  0.34518770989E+03  0.34518770989E+03  0.00000000000E+00 0.  1.
         21   -1    0    0  501  502  0.00000000000E+00 -0.00000000000E+00 -0.59324890642E+02  0.59324890642E+02  0.00000000000E+00 0. -1.
         24    2    1    2    0    0 -0.73297653795E+02  0.24933281319E+02  0.16585826528E+03  0.20005792500E+03  0.80746483670E+02 0.  0.
         23    2    1    2    0    0  0.84880988992E+00 -0.79864386506E+01  0.63690677399E+02  0.11114185137E+03  0.90727642188E+02 0.  0.
        -11    1    3    3    0    0 -0.54601350298E+02  0.48200405905E+02  0.75528497816E+02  0.10492445171E+03  0.00000000000E+00 0.  1.
         12    1    3    3    0    0 -0.18696303497E+02 -0.23267124586E+02  0.90329767462E+02  0.95133473292E+02  0.00000000000E+00 0. -1.
        -13    1    4    4    0    0  0.21703568654E+01 -0.49480532830E+02  0.36269307087E+02  0.61388078766E+02  0.00000000000E+00 0.  1.
         13    1    4    4    0    0 -0.13215469754E+01  0.41494094179E+02  0.27421370312E+02  0.49753772600E+02  0.00000000000E+00 0. -1.
         -4    1    1    2    0  502  0.72448843905E+02 -0.16946842669E+02  0.56313876574E+02  0.93312824169E+02  0.00000000000E+00 0.  1.
<scales pt_clust_5="13000.00000" pt_clust_6="13000.00000" pt_clust_7="13000.00000" pt_clust_8="13000.00000" pt_clust_9="13000.00000"></scales>
<clustering>
<clus scale="   80.746">  5  6 -1 -1</clus>
<clus scale="   90.728">  7  8 -1 -1</clus>
<clus scale="   74.405">  7  9 -1 -1</clus>
<clus scale="  111.867">  1  5  2 -1</clus>
<clus scale="  165.531">  2  5  1 -1</clus>
</clustering>
</event>
<event>
 9    2  0.2147756E-005  0.2010934E+03  0.7546771E-02  0.1182101E+00
          2   -1    0    0  502    0 -0.00000000000E+00  0.00000000000E+00  0.26771877278E+03  0.26771877278E+03  0.00000000000E+00 0. -1.
         21   -1    0    0  501  502  0.00000000000E+00 -0.00000000000E+00 -0.84678226277E+02  0.84678226277E+02  0.00000000000E+00 0. -1.
         24    2    1    2    0    0  0.14804623411E+02 -0.47051582117E+02  0.24999292929E+02  0.96632300015E+02  0.79245242791E+02 0.  0.
         23    2    1    2    0    0  0.48395049257E+01  0.73290153496E+01  0.17980943380E+03  0.20639236105E+03  0.10094176016E+03 0.  0.
        -11    1    3    3    0    0  0.35184497467E+01  0.22318647940E+02  0.20005996717E+01  0.22682679152E+02  0.00000000000E+00 0.  1.
         12    1    3    3    0    0  0.11286173664E+02 -0.69370230057E+02  0.22998693258E+02  0.73949620862E+02  0.00000000000E+00 0. -1.
        -13    1    4    4    0    0  0.43874244615E+02 -0.21086051746E+02  0.12019807179E+03  0.12968094456E+03  0.00000000000E+00 0. -1.
         13    1    4    4    0    0 -0.39034739689E+02  0.28415067096E+02  0.59611362005E+02  0.76711416495E+02  0.00000000000E+00 0.  1.
          1    1    1    2  501    0 -0.19644128337E+02  0.39722566768E+02 -0.21768180221E+02  0.49372337993E+02  0.00000000000E+00 0. -1.
<scales pt_clust_5="13000.00000" pt_clust_6="13000.00000" pt_clust_7="13000.00000" pt_clust_8="13000.00000" pt_clust_9="13000.00000"></scales>
<clustering>
<clus scale="   79.245">  5  6 -1 -1</clus>
<clus scale="   93.343">  1  5  2 -1</clus>
<clus scale="  100.942">  7  8 -1 -1</clus>
<clus scale="   41.066">  7  9 -1 -1</clus>
<clus scale="  201.093">  2  5  1 -1</clus>
</clustering>
</event>
<event>
 9    2  0.2147756E-005  0.3029559E+03  0.7546771E-02  0.1120610E+00
         21   -1    0    0  501  502  0.00000000000E+00  0.00000000000E+00  0.49570684619E+03  0.49570684619E+03  0.00000000000E+00 0. -1.
          2   -1    0    0  502    0 -0.00000000000E+00 -0.00000000000E+00 -0.16072724525E+03  0.16072724525E+03  0.00000000000E+00 0. -1.
         24    2    1    2    0    0 -0.66430703994E+02  0.50987000842E+02 -0.80710019482E+02  0.14206052941E+03  0.81574346963E+02 0.  0.
         23    2    1    2    0    0 -0.79690765590E+02 -0.12962765157E+02  0.84260763614E+02  0.15017250013E+03  0.94515882845E+02 0.  0.
        -13    1    3    3    0    0 -0.12006975617E+02  0.44735690287E+02 -0.22568402116E+01  0.46373945019E+02  0.00000000000E+00 0.  1.
         14    1    3    3    0    0 -0.54423728377E+02  0.62513105555E+01 -0.78453179270E+02  0.95686584387E+02  0.00000000000E+00 0. -1.
        -11    1    4    4    0    0 -0.21253523991E+02  0.50102599041E+01 -0.19802641825E+02  0.29478120862E+02  0.00000000000E+00 0.  1.
         11    1    4    4    0    0 -0.58437241599E+02 -0.17973025061E+02  0.10406340544E+03  0.12069437927E+03  0.00000000000E+00 0. -1.
          1    1    1    2  501    0  0.14612146958E+03 -0.38024235685E+02  0.33142885681E+03  0.36420106191E+03  0.00000000000E+00 0. -1.
<scales pt_clust_5="13000.00000" pt_clust_6="13000.00000" pt_clust_7="13000.00000" pt_clust_8="13000.00000" pt_clust_9="13000.00000"></scales>
<clustering>
<clus scale="   81.574">  5  6 -1 -1</clus>
<clus scale="   94.516">  7  8 -1 -1</clus>
<clus scale="  116.906">  2  5  1 -1</clus>
<clus scale="  125.841">  7  9 -1 -1</clus>
<clus scale="  302.956">  1  5  2 -1</clus>
</clustering>
</event>
<event>
 9    2  0.2147756E-005  0.2168931E+03  0.7546771E-02  0.1156246E+00
         21   -1    0    0  501  502  0.00000000000E+00  0.00000000000E+00  0.84668051501E+03  0.84668051501E+03  0.00000000000E+00 0.  1.
          2   -1    0    0  502    0 -0.00000000000E+00 -0.00000000000E+00 -0.43464751854E+02  0.43464751854E+02  0.00000000000E+00 0. -1.
         24    2    1    2    0    0  0.52353750025E+02  0.94000217930E+02  0.14815524076E+03  0.20011127298E+03  0.80731592924E+02 0.  0.
         23    2    1    2    0    0 -0.53321955839E+02 -0.97067955362E+01  0.52065368955E+03  0.53137865929E+03  0.91354048879E+02 0.  0.
        -11    1    3    3    0    0  0.62120924735E+01  0.82002268072E+02  0.67380749095E+02  0.10631616721E+03  0.00000000000E+00 0.  1.
         12    1    3    3    0    0  0.46141657551E+02  0.11997949858E+02  0.80774491661E+02  0.93795105765E+02  0.00000000000E+00 0. -1.
        -13    1    4    4    0    0  0.21986342058E+02 -0.20600141454E+02  0.14826726337E+03  0.15129754279E+03  0.00000000000E+00 0. -1.
         13    1    4    4    0    0 -0.75308297897E+02  0.10893345918E+02  0.37238642618E+03  0.38008111650E+03  0.00000000000E+00 0.  1.
          1    1    1    2  501    0  0.96820581370E+00 -0.84293422394E+02  0.13440683284E+03  0.15865533460E+03  0.00000000000E+00 0. -1.
<scales pt_clust_5="13000.00000" pt_clust_6="13000.00000" pt_clust_7="13000.00000" pt_clust_8="13000.00000" pt_clust_9="13000.00000"></scales>
<clustering>
<clus scale="   80.732">  5  6 -1 -1</clus>
<clus scale="   91.354">  7  8 -1 -1</clus>
<clus scale="   84.299">  7  9 -1 -1</clus>
<clus scale="  134.516">  2  5  1 -1</clus>
<clus scale="  216.893">  1  5  2 -1</clus>
</clustering>
</event>
<event>
 9    2  0.2147756E-005  0.1996899E+03  0.7546771E-02  0.1189411E+00
         -3   -1    0    0    0  501 -0.00000000000E+00  0.00000000000E+00  0.28590007638E+03  0.28590007638E+03  0.00000000000E+00 0.  1.
         21   -1    0    0  501  502  0.00000000000E+00 -0.00000000000E+00 -0.15275534665E+03  0.15275534665E+03  0.00000000000E+00 0. -1.
         24    2    1    2    0    0  0.11530910786E+02  0.47760123620E+01  0.20969206170E+03  0.22479671468E+03  0.80043925406E+02 0.  0.
         23    2    1    2    0    0  0.47704436619E+01  0.22154627307E+02 -0.12528810217E+03  0.15583581468E+03  0.89856040131E+02 0.  0.
        -13    1    3    3    0    0  0.18476063725E+02 -0.35227532797E+02  0.11778372652E+03  0.12431954887E+03  0.00000000000E+00 0.  1.
         14    1    3    3    0    0 -0.69451529392E+01  0.40003545159E+02  0.91908335179E+02  0.10047716581E+03  0.00000000000E+00 0. -1.
        -11    1    4    4    0    0  0.17351300728E+02  0.53589552024E+02 -0.60047674557E+02  0.82332441618E+02  0.00000000000E+00 0. -1.
         11    1    4    4    0    0 -0.12580857066E+02 -0.31434924717E+02 -0.65240427614E+02  0.73503373063E+02  0.00000000000E+00 0.  1.
         -4    1    1    2    0  502 -0.16301354448E+02 -0.26930639669E+02  0.48740770195E+02  0.58022893663E+02  0.00000000000E+00 0.  1.
<scales pt_clust_5="13000.00000" pt_clust_6="13000.00000" pt_clust_7="13000.00000" pt_clust_8="13000.00000" pt_clust_9="13000.00000"></scales>
<clustering>
<clus scale="   80.044">  5  6 -1 -1</clus>
<clus scale="   81.011">  1  5  2 -1</clus>
<clus scale="   89.856">  7  8 -1 -1</clus>
<clus scale="   24.349">  7  9 -1 -1</clus>
<clus scale="  199.690">  2  5  1 -1</clus>
</clustering>
</event>
<event>
 9    2  0.2197333E-005  0.1237083E+04  0.7546771E-02  0.9830698E-01
         21   -1    0    0  501  502  0.00000000000E+00  0.00000000000E+00  0.35201541100E+03  0.35201541100E+03  0.00000000000E+00 0. -1.
          2   -1    0    0  502    0 -0.00000000000E+00 -0.00000000000E+00 -0.15462594011E+04  0.15462594011E+04  0.00000000000E+00 0. -1.
         24    2    1    2    0    0  0.25561652376E+00 -0.37833878155E+02  0.82837038819E+02  0.12026768516E+03  0.78554907018E+02 0.  0.
         23    2    1    2    0    0  0.16445740511E+03 -0.30853656908E+03  0.78190404680E+02  0.36951022423E+03  0.90460012553E+02 0.  0.
        -13    1    3    3    0    0 -0.23440395572E+02 -0.53257883706E+02  0.62801802123E+02  0.85614955886E+02  0.00000000000E+00 0.  1.
         14    1    3    3    0    0  0.23696012096E+02  0.15424005551E+02  0.20035236697E+02  0.34652729272E+02  0.00000000000E+00 0. -1.
        -13    1    4    4    0    0  0.20411648272E+02 -0.66413769956E+02  0.51564141937E+02  0.86523320317E+02  0.00000000000E+00 0. -1.
         13    1    4    4    0    0  0.14404575684E+03 -0.24212279913E+03  0.26626262744E+02  0.28298690392E+03  0.00000000000E+00 0.  1.
          1    1    1    2  501    0 -0.16471302163E+03  0.34637044724E+03 -0.13552714336E+04  0.14084969027E+04  0.00000000000E+00 0. -1.
<scales pt_clust_5="13000.00000" pt_clust_6="13000.00000" pt_clust_7="13000.00000" pt_clust_8="13000.00000" pt_clust_9="13000.00000"></scales>
<clustering>
<clus scale="   78.555">  5  6 -1 -1</clus>
<clus scale="   87.191">  2  5  1 -1</clus>
<clus scale="   90.460">  7  8 -1 -1</clus>
<clus scale="  352.829">  7  9 -1 -1</clus>
<clus scale=" 1237.083">  1  5  2 -1</clus>
</clustering>
</event>
<event>
 9    2  0.2147756E-005  0.1455887E+03  0.7546771E-02  0.1233036E+00
         21   -1    0    0  501  502  0.00000000000E+00  0.00000000000E+00  0.90113552416E+02  0.90113552416E+02  0.00000000000E+00 0.  1.
          2   -1    0    0  502    0 -0.00000000000E+00 -0.00000000000E+00 -0.24535602165E+03  0.24535602165E+03  0.00000000000E+00 0. -1.
         24    2    1    2    0    0  0.16661022735E+02 -0.36110454523E+01 -0.17018054756E+03  0.18911647876E+03  0.80703125369E+02 0.  0.
         23    2    1    2    0    0  0.11982774352E+02  0.36683596907E+02  0.11679622527E+02  0.10247966023E+03  0.94214616779E+02 0.  0.
        -11    1    3    3    0    0 -0.70398708147E+01 -0.27843241122E+02 -0.14246796509E+03  0.14533384648E+03  0.00000000000E+00 0.  1.
         12    1    3    3    0    0  0.23700893549E+02  0.24232195669E+02 -0.27712582466E+02  0.43782632275E+02  0.00000000000E+00 0. -1.
        -13    1    4    4    0    0  0.77076304553E+01  0.56674367263E+02  0.38359499290E+02  0.68868299367E+02  0.00000000000E+00 0.  1.
         13    1    4    4    0    0  0.42751438968E+01 -0.19990770356E+02 -0.26679876764E+02  0.33611360861E+02  0.00000000000E+00 0. -1.
          1    1    1    2  501    0 -0.28643797087E+02 -0.33072551454E+02  0.32584557974E+01  0.43873435077E+02  0.00000000000E+00 0. -1.
<scales pt_clust_5="13000.00000" pt_clust_6="13000.00000" pt_clust_7="13000.00000" pt_clust_8="13000.00000" pt_clust_9="13000.00000"></scales>
<clustering>
<clus scale="   80.703">  5  6 -1 -1</clus>
<clus scale="   82.484">  2  5  1 -1</clus>
<clus scale="   94.215">  7  8 -1 -1</clus>
<clus scale="   41.483">  7  9 -1 -1</clus>
<clus scale="  145.589">  1  5  2 -1</clus>
</clustering>
</event>
<event>
 9    2  0.2147756E-005  0.4011499E+03  0.7546771E-02  0.1102601E+00
          2   -1    0    0  502    0 -0.00000000000E+00  0.00000000000E+00  0.57174988055E+03  0.57174988055E+03  0.00000000000E+00 0. -1.
         21   -1    0    0  501  502  0.00000000000E+00 -0.00000000000E+00 -0.10696566651E+03  0.10696566651E+03  0.00000000000E+00 0.  1.
         24    2    1    2    0    0 -0.15180678919E+01  0.13422094038E+02  0.14620956401E+03  0.16645482663E+03  0.78406093908E+02 0.  0.
         23    2    1    2    0    0 -0.93904693683E+02 -0.83341417822E+02 -0.17442556185E+02  0.15602796206E+03  0.90975814143E+02 0.  0.
        -13    1    3    3    0    0 -0.20918722527E+02 -0.22709365530E+02  0.29317083991E+02  0.42576984965E+02  0.00000000000E+00 0.  1.
         14    1    3    3    0    0  0.19400654635E+02  0.36131459568E+02  0.11689248002E+03  0.12387784166E+03  0.00000000000E+00 0. -1.
        -13    1    4    4    0    0 -0.82959783405E+02 -0.36730173265E+02 -0.44478118083E+02  0.10104322975E+03  0.00000000000E+00 0.  1.
         13    1    4    4    0    0 -0.10944910278E+02 -0.46611244557E+02  0.27035561897E+02  0.54984732310E+02  0.00000000000E+00 0. -1.
          1    1    1    2  501    0  0.95422761575E+02  0.69919323784E+02  0.33601720621E+03  0.35623275837E+03  0.00000000000E+00 0. -1.
<scales pt_clust_5="13000.00000" pt_clust_6="13000.00000" pt_clust_7="13000.00000" pt_clust_8="13000.00000" pt_clust_9="13000.00000"></scales>
<clustering>
<clus scale="   78.406">  5  6 -1 -1</clus>
<clus scale="   79.561">  1  5  2 -1</clus>
<clus scale="   90.976">  7  8 -1 -1</clus>
<clus scale="  124.271">  7  9 -1 -1</clus>
<clus scale="  401.150">  2  5  1 -1</clus>
</clustering>
</event>
<event>
 9    2  0.5690355E-005  0.4049333E+03  0.7546771E-02  0.1074416E+00
         21   -1    0    0  501  502  0.00000000000E+00  0.00000000000E+00  0.18125474107E+03  0.18125474107E+03  0.00000000000E+00 0. -1.
          2   -1    0    0  502    0 -0.00000000000E+00 -0.00000000000E+00 -0.56167870247E+03  0.56167870247E+03  0.00000000000E+00 0. -1.
         24    2    1    2    0    0 -0.32597630869E+02 -0.13888737985E+03 -0.28253140889E+03  0.32633539570E+03  0.79488890178E+02 0.  0.
         23    2    1    2    0    0 -0.16154545563E+02 -0.91985965141E+02 -0.12403254344E+03  0.17919001246E+03  0.89457261352E+02 0.  0.
        -11    1    3    3    0    0 -0.73490913117E+01 -0.23332881458E+02 -0.54479997404E+01  0.25062186685E+02  0.00000000000E+00 0.  1.
         12    1    3    3    0    0 -0.25248539557E+02 -0.11555449839E+03 -0.27708340915E+03  0.30127320902E+03  0.00000000000E+00 0. -1.
        -11    1    4    4    0    0 -0.33130914289E+02 -0.37458148068E+01 -0.60704481188E+02  0.69258376002E+02  0.00000000000E+00 0.  1.
         11    1    4    4    0    0  0.16976368726E+02 -0.88240150334E+02 -0.63328062256E+02  0.10993163646E+03  0.00000000000E+00 0. -1.
          1    1    1    2  501    0  0.48752176432E+02  0.23087334499E+03  0.26139990937E+02  0.23740803537E+03  0.00000000000E+00 0. -1.
<scales pt_clust_5="13000.00000" pt_clust_6="13000.00000" pt_clust_7="13000.00000" pt_clust_8="13000.00000" pt_clust_9="13000.00000"></scales>
<clustering>
<clus scale="   79.489">  5  6 -1 -1</clus>
<clus scale="   89.457">  7  8 -1 -1</clus>
<clus scale="  163.312">  2  5  1 -1</clus>
<clus scale="  177.402">  7  9 -1 -1</clus>
<clus scale="  404.933">  1  5  2 -1</clus>
</clustering>
</event>
<event>
 9    2  0.2147756E-005  0.3198803E+03  0.7546771E-02  0.1125683E+00
         21   -1    0    0  501  502  0.00000000000E+00  0.00000000000E+00  0.15562455276E+03  0.15562455276E+03  0.00000000000E+00 0. -1.
          2   -1    0    0  502    0 -0.00000000000E+00 -0.00000000000E+00 -0.41888793249E+03  0.41888793249E+03  0.00000000000E+00 0. -1.
         24    2    1    2    0    0  0.29839015389E+02  0.31648778753E+02  0.70359769145E+02  0.11231360388E+03  0.75972603392E+02 0.  0.
         23    2    1    2    0    0  0.20300005353E+02  0.27651657187E+02  0.20888397640E+02  0.99281673582E+02  0.90795491027E+02 0.  0.
        -11    1    3    3    0    0  0.60083239330E+01  0.34441972675E+02 -0.30377054403E+01  0.35093832686E+02  0.00000000000E+00 0.  1.
         12    1    3    3    0    0  0.23830691456E+02 -0.27931939228E+01  0.73397474585E+02  0.77219771193E+02  0.00000000000E+00 0. -1.
        -11    1    4    4    0    0 -0.35127075024E+02  0.64493908581E+01 -0.17728869822E+01  0.35758204239E+02  0.00000000000E+00 0.  1.
         11    1    4    4    0    0  0.55427080377E+02  0.21202266329E+02  0.22661284622E+02  0.63523469343E+02  0.00000000000E+00 0. -1.
          1    1    1    2  501    0 -0.50139020743E+02 -0.59300435940E+02 -0.35451154651E+03  0.36291720779E+03  0.00000000000E+00 0. -1.
<scales pt_clust_5="13000.00000" pt_clust_6="13000.00000" pt_clust_7="13000.00000" pt_clust_8="13000.00000" pt_clust_9="13000.00000"></scales>
<clustering>
<clus scale="   75.973">  5  6 -1 -1</clus>
<clus scale="   87.543">  2  5  1 -1</clus>
<clus scale="   90.795">  7  8 -1 -1</clus>
<clus scale="   38.559">  7  9 -1 -1</clus>
<clus scale="  319.880">  1  5  2 -1</clus>
</clustering>
</event>
<event>
 9    2  0.2147756E-005  0.2386293E+03  0.7546771E-02  0.1146419E+00
          2   -1    0    0  502    0 -0.00000000000E+00  0.00000000000E+00  0.59817801623E+02  0.59817801623E+02  0.00000000000E+00 0. -1.
         21   -1    0    0  501  502  0.00000000000E+00 -0.00000000000E+00 -0.58112346152E+03  0.58112346152E+03  0.00000000000E+00 0.  1.
         24    2    1    2    0    0 -0.92441767886E+02  0.34460270109E+02 -0.24267320747E+03  0.27408978559E+03  0.80634572464E+02 0.  0.
         23    2    1    2    0    0 -0.54898319499E+01 -0.20773186238E+02 -0.29809363654E+02  0.99099980791E+02  0.92035561116E+02 0.  0.
        -11    1    3    3    0    0 -0.76181661530E+02 -0.53587003716E+01 -0.19732737407E+03  0.21159029699E+03  0.00000000000E+00 0.  1.
         12    1    3    3    0    0 -0.16260106356E+02  0.39818970481E+02 -0.45345833404E+02  0.62499488606E+02  0.00000000000E+00 0. -1.
        -13    1    4    4    0    0 -0.82142456337E+01 -0.50594303792E+02 -0.42492180505E+02  0.66579597562E+02  0.00000000000E+00 0. -1.
         13    1    4    4    0    0  0.27244136839E+01  0.29821117553E+02  0.12682816851E+02  0.32520383228E+02  0.00000000000E+00 0.  1.
          1    1    1    2  501    0  0.97931599836E+02 -0.13687083871E+02 -0.24882308877E+03  0.26775149676E+03  0.00000000000E+00 0. -1.
<scales pt_clust_5="13000.00000" pt_clust_6="13000.00000" pt_clust_7="13000.00000" pt_clust_8="13000.00000" pt_clust_9="13000.00000"></scales>
<clustering>
<clus scale="   80.635">  5  6 -1 -1</clus>
<clus scale="   92.036">  7  8 -1 -1</clus>
<clus scale="   98.883">  7  9 -1 -1</clus>
<clus scale="  127.416">  1  5  2 -1</clus>
<clus scale="  238.629">  2  5  1 -1</clus>
</clustering>
</event>
<event>
 9    2  0.2147756E-005  0.1547042E+03  0.7546771E-02  0.1212385E+00
         21   -1    0    0  501  502  0.00000000000E+00  0.00000000000E+00  0.15715712194E+02  0.15715712194E+02  0.00000000000E+00 0. -1.
          2   -1    0    0  502    0 -0.00000000000E+00 -0.00000000000E+00 -0.10903964178E+04  0.10903964178E+04  0.00000000000E+00 0. -1.
         24    2    1    2    0    0  0.54506969269E+02 -0.40549857129E+02 -0.49061352924E+03  0.50190367243E+03  0.81181036691E+02 0.  0.
         23    2    1    2    0    0  0.34108947940E+01  0.19870892404E+02 -0.32095188001E+03  0.33400157804E+03  0.90224488286E+02 0.  0.
        -11    1    3    3    0    0 -0.37366644552E+00 -0.40605615358E+02 -0.10814022145E+03  0.11551304308E+03  0.00000000000E+00 0.  1.
         12    1    3    3    0    0  0.54880635714E+02  0.55758229063E-01 -0.38247330778E+03  0.38639062935E+03  0.00000000000E+00 0. -1.
        -11    1    4    4    0    0  0.23898570760E+02 -0.30104383236E+02 -0.13409922566E+03  0.13949916809E+03  0.00000000000E+00 0. -1.
         11    1    4    4    0    0 -0.20487675966E+02  0.49975275641E+02 -0.18685265435E+03  0.19450240996E+03  0.00000000000E+00 0.  1.
          1    1    1    2  501    0 -0.57917864063E+02  0.20678964725E+02 -0.26311529636E+03  0.27020687951E+03  0.00000000000E+00 0. -1.
<scales pt_clust_5="13000.00000" pt_clust_6="13000.00000" pt_clust_7="13000.00000" pt_clust_8="13000.00000" pt_clust_9="13000.00000"></scales>
<clustering>
<clus scale="   81.181">  5  6 -1 -1</clus>
<clus scale="   90.224">  7  8 -1 -1</clus>
<clus scale="   61.499">  7  9 -1 -1</clus>
<clus scale="  105.857">  2  5  1 -1</clus>
<clus scale="  154.704">  1  5  2 -1</clus>
</clustering>
</event>
<event>
 9    2  0.2147756E-005  0.4760824E+03  0.7546771E-02  0.1075941E+00
         21   -1    0    0  501  502  0.00000000000E+00  0.00000000000E+00  0.27126433847E+03  0.27126433847E+03  0.00000000000E+00 0. -1.
          2   -1    0    0  502    0 -0.00000000000E+00 -0.00000000000E+00 -0.32455928166E+03  0.32455928166E+03  0.00000000000E+00 0. -1.
         24    2    1    2    0    0  0.19717513962E+02  0.37837807702E+02  0.50091598509E+02  0.10864474963E+03  0.86452491760E+02 0.  0.
         23    2    1    2    0    0 -0.11045956983E+03  0.15348093044E+03  0.60810551124E+02  0.21922800642E+03  0.92764665135E+02 0.  0.
        -13    1    3    3    0    0  0.34839935216E+02  0.42989974451E+02 -0.76250646742E+00  0.55340224117E+02  0.00000000000E+00 0.  1.
         14    1    3    3    0    0 -0.15122421255E+02 -0.51521667486E+01  0.50854104977E+02  0.53304525509E+02  0.00000000000E+00 0. -1.
        -11    1    4    4    0    0 -0.14558160300E+02  0.55974162198E+02  0.58758584219E+02  0.82447668763E+02  0.00000000000E+00 0.  1.
         11    1    4    4    0    0 -0.95901409530E+02  0.97506768240E+02  0.20519669054E+01  0.13678033766E+03  0.00000000000E+00 0. -1.
          1    1    1    2  501    0  0.90742055868E+02 -0.19131873814E+03 -0.16419709283E+03  0.26795086408E+03  0.00000000000E+00 0. -1.
<scales pt_clust_5="13000.00000" pt_clust_6="13000.00000" pt_clust_7="13000.00000" pt_clust_8="13000.00000" pt_clust_9="13000.00000"></scales>
<clustering>
<clus scale="   86.452">  5  6 -1 -1</clus>
<clus scale="   92.765">  7  8 -1 -1</clus>
<clus scale="   96.408">  2  5  1 -1</clus>
<clus scale="  194.515">  7  9 -1 -1</clus>
<clus scale="  476.082">  1  5  2 -1</clus>
</clustering>
</event>
<event>
 9    2  0.2147756E-005  0.6335458E+03  0.7546771E-02  0.1035199E+00
         21   -1    0    0  501  502  0.00000000000E+00  0.00000000000E+00  0.31023112951E+03  0.31023112951E+03  0.00000000000E+00 0.  1.
         -1   -1    0    0    0  501 -0.00000000000E+00 -0.00000000000E+00 -0.59531840689E+03  0.59531840689E+03  0.00000000000E+00 0.  1.
         24    2    1    2    0    0 -0.33346124102E+02  0.98493685741E+02 -0.23728382613E+03  0.27020283710E+03  0.76765805634E+02 0.  0.
         23    2    1    2    0    0 -0.88553136845E+02  0.48640863748E+02 -0.29353630125E+03  0.32407087461E+03  0.93009569109E+02 0.  0.
        -13    1    3    3    0    0 -0.42779471431E+02  0.32434591081E+02 -0.15633421781E+03  0.16529511043E+03  0.00000000000E+00 0.  1.
         14    1    3    3    0    0  0.94333473292E+01  0.66059094660E+02 -0.80949608320E+02  0.10490772668E+03  0.00000000000E+00 0. -1.
        -11    1    4    4    0    0 -0.30783000124E+02 -0.12446594167E+02 -0.17862686513E+03  0.18168672970E+03  0.00000000000E+00 0. -1.
         11    1    4    4    0    0 -0.57770136721E+02  0.61087457916E+02 -0.11490943612E+03  0.14238414491E+03  0.00000000000E+00 0.  1.
         -2    1    1    2    0  502  0.12189926095E+03 -0.14713454949E+03  0.24573284999E+03  0.31127582469E+03  0.00000000000E+00 0.  1.
<scales pt_clust_5="13000.00000" pt_clust_6="13000.00000" pt_clust_7="13000.00000" pt_clust_8="13000.00000" pt_clust_9="13000.00000"></scales>
<clustering>
<clus scale="   76.766">  5  6 -1 -1</clus>
<clus scale="   93.010">  7  8 -1 -1</clus>
<clus scale="  129.252">  2  5  1 -1</clus>
<clus scale="  181.788">  7  9 -1 -1</clus>
<clus scale="  633.546">  1  5  2 -1</clus>
</clustering>
</event>
<event>
 9    2  0.2147756E-005  0.2468352E+03  0.7546771E-02  0.1138248E+00
         21   -1    0    0  501  502  0.00000000000E+00  0.00000000000E+00  0.31409618401E+03  0.31409618401E+03  0.00000000000E+00 0. -1.
          2   -1    0    0  502    0 -0.00000000000E+00 -0.00000000000E+00 -0.12899255827E+03  0.12899255827E+03  0.00000000000E+00 0. -1.
         24    2    1    2    0    0  0.11435405022E+03 -0.91569646491E+01  0.12793580294E+03  0.18971989055E+03  0.80407514521E+02 0.  0.
         23    2    1    2    0    0 -0.68409824672E+02 -0.67944658357E+02  0.86651552910E+02  0.15889757317E+03  0.91888880873E+02 0.  0.
        -11    1    3    3    0    0  0.33429275215E+02 -0.23464055906E+02  0.40326837014E+01  0.41040722445E+02  0.00000000000E+00 0.  1.
         12    1    3    3    0    0  0.80924775003E+02  0.14307091257E+02  0.12390311924E+03  0.14867916810E+03  0.00000000000E+00 0. -1.
        -13    1    4    4    0    0 -0.64441427438E+02 -0.75805390002E+00  0.30750497801E+02  0.71406339572E+02  0.00000000000E+00 0.  1.
         13    1    4    4    0    0 -0.39683972336E+01 -0.67186604457E+02  0.55901055109E+02  0.87491233602E+02  0.00000000000E+00 0. -1.
          1    1    1    2  501    0 -0.45944225547E+02  0.77101623006E+02 -0.29483730118E+02  0.94471278561E+02  0.00000000000E+00 0. -1.
<scales pt_clust_5="13000.00000" pt_clust_6="13000.00000" pt_clust_7="13000.00000" pt_clust_8="13000.00000" pt_clust_9="13000.00000"></scales>
<clustering>
<clus scale="   80.408">  5  6 -1 -1</clus>
<clus scale="   91.889">  7  8 -1 -1</clus>
<clus scale="   89.753">  7  9 -1 -1</clus>
<clus scale="  140.093">  2  5  1 -1</clus>
<clus scale="  246.835">  1  5  2 -1</clus>
</clustering>
</event>
<event>
 9    2  0.2147756E-005  0.2912457E+03  0.7546771E-02  0.1115994E+00
         21   -1    0    0  501  502  0.00000000000E+00  0.00000000000E+00  0.52654494096E+02  0.52654494096E+02  0.00000000000E+00 0. -1.
          2   -1    0    0  502    0 -0.00000000000E+00 -0.00000000000E+00 -0.93271777400E+03  0.93271777400E+03  0.00000000000E+00 0. -1.
         24    2    1    2    0    0 -0.45483187919E+02 -0.11691075011E+03 -0.36326890856E+03  0.39216025402E+03  0.78028975590E+02 0.  0.
         23    2    1    2    0    0  0.18545758453E+02 -0.55958751816E+02 -0.26721672888E+03  0.28841947903E+03  0.91135550847E+02 0.  0.
        -13    1    3    3    0    0  0.17873814645E+02 -0.18862127814E+02 -0.11379784222E+03  0.11672704061E+03  0.00000000000E+00 0.  1.
         14    1    3    3    0    0 -0.63357002564E+02 -0.98048622298E+02 -0.24947106634E+03  0.27543321341E+03  0.00000000000E+00 0. -1.
        -13    1    4    4    0    0 -0.24850808255E+02 -0.59058073398E+02 -0.13991246816E+03  0.15388605346E+03  0.00000000000E+00 0.  1.
         13    1    4    4    0    0  0.43396566707E+02  0.30993215823E+01 -0.12730426073E+03  0.13453342557E+03  0.00000000000E+00 0. -1.
          1    1    1    2  501    0  0.26937429467E+02  0.17286950193E+03 -0.24957764246E+03  0.30479253504E+03  0.00000000000E+00 0. -1.
<scales pt_clust_5="13000.00000" pt_clust_6="13000.00000" pt_clust_7="13000.00000" pt_clust_8="13000.00000" pt_clust_9="13000.00000"></scales>
<clustering>
<clus scale="   78.029">  5  6 -1 -1</clus>
<clus scale="   91.136">  7  8 -1 -1</clus>
<clus scale="  147.734">  2  5  1 -1</clus>
<clus scale="  114.559">  7  9 -1 -1</clus>
<clus scale="  291.246">  1  5  2 -1</clus>
</clustering>
</event>
<event>
 9    2  0.2147756E-005  0.1810437E+03  0.7546771E-02  0.1196983E+00
          4   -1    0    0  502    0 -0.00000000000E+00  0.00000000000E+00  0.11997567173E+03  0.11997567173E+03  0.00000000000E+00 0. -1.
         21   -1    0    0  501  502  0.00000000000E+00 -0.00000000000E+00 -0.18971830341E+03  0.18971830341E+03  0.00000000000E+00 0. -1.
         24    2    1    2    0    0 -0.39549078675E+02 -0.21098482632E+02 -0.88487965159E+02  0.12768243603E+03  0.80395328840E+02 0.  0.
         23    2    1    2    0    0  0.31112438495E+02  0.59704454019E+02  0.63697953274E+02  0.12215892052E+03  0.79578684039E+02 0.  0.
        -13    1    3    3    0    0 -0.22159475343E+02 -0.27719094598E+02  0.17645732408E+01  0.35531736118E+02  0.00000000000E+00 0.  1.
         14    1    3    3    0    0 -0.17389603332E+02  0.66206119660E+01 -0.90252538400E+02  0.92150699913E+02  0.00000000000E+00 0. -1.
        -13    1    4    4    0    0  0.56666563694E+02  0.53470384879E+02  0.46519486098E+02  0.90742735725E+02  0.00000000000E+00 0. -1.
         13    1    4    4    0    0 -0.25554125200E+02  0.62340691395E+01  0.17178467176E+02  0.31416184798E+02  0.00000000000E+00 0.  1.
          3    1    1    2  501    0  0.84366401806E+01 -0.38605971387E+02 -0.44952619799E+02  0.59852618581E+02  0.00000000000E+00 0. -1.
<scales pt_clust_5="13000.00000" pt_clust_6="13000.00000" pt_clust_7="13000.00000" pt_clust_8="13000.00000" pt_clust_9="13000.00000"></scales>
<clustering>
<clus scale="   79.579">  7  8 -1 -1</clus>
<clus scale="   39.517">  7  9 -1 -1</clus>
<clus scale="   80.395">  5  6 -1 -1</clus>
<clus scale="   92.047">  1  5  2 -1</clus>
<clus scale="  181.044">  2  5  1 -1</clus>
</clustering>
</event>
<event>
 9    2  0.2147756E-005  0.2934680E+03  0.7546771E-02  0.1139056E+00
         21   -1    0    0  501  502  0.00000000000E+00  0.00000000000E+00  0.35740802977E+03  0.35740802977E+03  0.00000000000E+00 0.  1.
          2   -1    0    0  502    0 -0.00000000000E+00 -0.00000000000E+00 -0.10399149662E+03  0.10399149662E+03  0.00000000000E+00 0. -1.
         24    2    1    2    0    0  0.12412395683E+02  0.44099657130E+01  0.14604667290E+02  0.83041757526E+02  0.80679128789E+02 0.  0.
         23    2    1    2    0    0  0.23115880655E+01 -0.43220928065E+02  0.29165901266E+03  0.31115726723E+03  0.99400569522E+02 0.  0.
        -13    1    3    3    0    0  0.46983796108E+02  0.32167165341E+01  0.68252515545E+01  0.47585800621E+02  0.00000000000E+00 0.  1.
         14    1    3    3    0    0 -0.34571400424E+02  0.11932491789E+01  0.77794157359E+01  0.35455956905E+02  0.00000000000E+00 0. -1.
        -13    1    4    4    0    0  0.46406929647E+02 -0.14340371134E+02  0.85173134422E+02  0.98049539473E+02  0.00000000000E+00 0. -1.
         13    1    4    4    0    0 -0.44095341581E+02 -0.28880556932E+02  0.20648587823E+03  0.21310772775E+03  0.00000000000E+00 0.  1.
          1    1    1    2  501    0 -0.14723983749E+02  0.38810962352E+02 -0.52847146801E+02  0.67200501644E+02  0.00000000000E+00 0. -1.
<scales pt_clust_5="13000.00000" pt_clust_6="13000.00000" pt_clust_7="13000.00000" pt_clust_8="13000.00000" pt_clust_9="13000.00000"></scales>
<clustering>
<clus scale="   80.679">  5  6 -1 -1</clus>
<clus scale="   81.747">  2  5  1 -1</clus>
<clus scale="   99.401">  7  8 -1 -1</clus>
<clus scale="   42.796">  7  9 -1 -1</clus>
<clus scale="  293.468">  1  5  2 -1</clus>
</clustering>
</event>
<event>
 9    2  0.2147756E-005  0.2272131E+03  0.7546771E-02  0.1164507E+00
          2   -1    0    0  502    0 -0.00000000000E+00  0.00000000000E+00  0.16461646080E+03  0.16461646080E+03  0.00000000000E+00 0. -1.
         21   -1    0    0  501  502  0.00000000000E+00 -0.00000000000E+00 -0.23272047862E+03  0.23272047862E+03  0.00000000000E+00 0. -1.
         24    2    1    2    0    0 -0.33467734402E+02  0.43272464083E+02  0.80614165135E+02  0.12578055571E+03  0.79558212535E+02 0.  0.
         23    2    1    2    0    0  0.33445641844E+02  0.56935803333E+02 -0.39228876162E+02  0.12313264689E+03  0.96241609226E+02 0.  0.
        -13    1    3    3    0    0  0.23215012031E+02  0.27785336493E+02  0.42075554259E+02  0.55509584522E+02  0.00000000000E+00 0.  1.
         14    1    3    3    0    0 -0.56682746433E+02  0.15487127590E+02  0.38538610876E+02  0.70270971193E+02  0.00000000000E+00 0. -1.
        -11    1    4    4    0    0  0.22485804181E+02 -0.39859010503E+01  0.25048727702E+02  0.33895981418E+02  0.00000000000E+00 0.  1.
         11    1    4    4    0    0  0.10959837663E+02  0.60921704383E+02 -0.64277603864E+02  0.89236665475E+02  0.00000000000E+00 0. -1.
          1    1    1    2  501    0  0.22092558155E-01 -0.10020826742E+03 -0.10948930679E+03  0.14842373681E+03  0.00000000000E+00 0. -1.
<scales pt_clust_5="13000.00000" pt_clust_6="13000.00000" pt_clust_7="13000.00000" pt_clust_8="13000.00000" pt_clust_9="13000.00000"></scales>
<clustering>
<clus scale="   79.558">  5  6 -1 -1</clus>
<clus scale="   96.242">  7  8 -1 -1</clus>
<clus scale="   96.551">  1  5  2 -1</clus>
<clus scale="   87.138">  7  9 -1 -1</clus>
<clus scale="  227.213">  2  5  1 -1</clus>
</clustering>
</event>
<event>
 9    2  0.2147756E-005  0.1792447E+03  0.7546771E-02  0.1200058E+00
         21   -1    0    0  501  502  0.00000000000E+00  0.00000000000E+00  0.28829682041E+03  0.28829682041E+03  0.00000000000E+00 0. -1.
         -1   -1    0    0    0  501 -0.00000000000E+00 -0.00000000000E+00 -0.76564972096E+02  0.76564972096E+02  0.00000000000E+00 0.  1.
         24    2    1    2    0    0  0.10006834856E+02  0.36804301466E+02  0.15188546201E+03  0.17589022030E+03  0.80084222385E+02 0.  0.
         23    2    1    2    0    0 -0.21915838672E+02 -0.15541027835E+02  0.10272326175E+03  0.13965243165E+03  0.90713315621E+02 0.  0.
        -11    1    3    3    0    0  0.64506885616E+01  0.45771158811E+02  0.33436668459E+02  0.57049287108E+02  0.00000000000E+00 0.  1.
         12    1    3    3    0    0  0.35561462941E+01 -0.89668573448E+01  0.11844879355E+03  0.11884093319E+03  0.00000000000E+00 0. -1.
        -11    1    4    4    0    0 -0.16880635208E+01 -0.33091872458E+02  0.10746329524E+03  0.11245568641E+03  0.00000000000E+00 0.  1.
         11    1    4    4    0    0 -0.20227775151E+02  0.17550844623E+02 -0.47400334890E+01  0.27196745247E+02  0.00000000000E+00 0. -1.
         -2    1    1    2    0  502  0.11909003816E+02 -0.21263273631E+02 -0.42876875447E+02  0.49319140559E+02  0.00000000000E+00 0.  1.
<scales pt_clust_5="13000.00000" pt_clust_6="13000.00000" pt_clust_7="13000.00000" pt_clust_8="13000.00000" pt_clust_9="13000.00000"></scales>
<clustering>
<clus scale="   80.084">  5  6 -1 -1</clus>
<clus scale="   88.703">  2  5  1 -1</clus>
<clus scale="   90.713">  7  8 -1 -1</clus>
<clus scale="   19.703">  7  9 -1 -1</clus>
<clus scale="  179.245">  1  5  2 -1</clus>
</clustering>
</event>
<event>
 9    2  0.2147756E-005  0.3707432E+03  0.7546771E-02  0.1109087E+00
         21   -1    0    0  501  502  0.00000000000E+00  0.00000000000E+00  0.35147608988E+03  0.35147608988E+03  0.00000000000E+00 0.  1.
         -3   -1    0    0    0  501 -0.00000000000E+00 -0.00000000000E+00 -0.17101955674E+03  0.17101955674E+03  0.00000000000E+00 0.  1.
         24    2    1    2    0    0  0.24439296939E+02  0.32395798522E+01  0.11940275415E+03  0.14675895847E+03  0.81690881249E+02 0.  0.
         23    2    1    2    0    0 -0.10542539391E+03 -0.16521535417E+02 -0.11504818570E+03  0.18145066133E+03  0.91108631048E+02 0.  0.
        -11    1    3    3    0    0 -0.75764889753E+01  0.37574899705E+02  0.56242590905E+02  0.68062510273E+02  0.00000000000E+00 0.  1.
         12    1    3    3    0    0  0.32015785914E+02 -0.34335319853E+02  0.63160163248E+02  0.78696448195E+02  0.00000000000E+00 0. -1.
        -13    1    4    4    0    0 -0.27332208701E+02 -0.47729301345E+02 -0.34041277974E+02  0.64683417083E+02  0.00000000000E+00 0. -1.
         13    1    4    4    0    0 -0.78093185205E+02  0.31207765928E+02 -0.81006907729E+02  0.11676724425E+03  0.00000000000E+00 0.  1.
         -4    1    1    2    0  502  0.80986096967E+02  0.13281955565E+02  0.17610196470E+03  0.19428602682E+03  0.00000000000E+00 0.  1.
<scales pt_clust_5="13000.00000" pt_clust_6="13000.00000" pt_clust_7="13000.00000" pt_clust_8="13000.00000" pt_clust_9="13000.00000"></scales>
<clustering>
<clus scale="   81.691">  5  6 -1 -1</clus>
<clus scale="   85.330">  2  5  1 -1</clus>
<clus scale="   91.109">  7  8 -1 -1</clus>
<clus scale="   83.492">  7  9 -1 -1</clus>
<clus scale="  370.743">  1  5  2 -1</clus>
</clustering>
</event>
<event>
 9    2  0.2147756E-005  0.1755786E+03  0.7546771E-02  0.1207429E+00
         -3   -1    0    0    0  501 -0.00000000000E+00  0.00000000000E+00  0.75029778020E+03  0.75029778020E+03  0.00000000000E+00 0.  1.
         21   -1    0    0  501  502  0.00000000000E+00 -0.00000000000E+00 -0.23094675656E+02  0.23094675656E+02  0.00000000000E+00 0. -1.
         24    2    1    2    0    0 -0.76494908836E+01  0.23358408983E+01  0.15213739150E+03  0.17212010933E+03  0.80097286344E+02 0.  0.
         23    2    1    2    0    0 -0.51708970966E+02 -0.22361266299E+02  0.28093020335E+03  0.30053967002E+03  0.90710915511E+02 0.  0.
        -13    1    3    3    0    0 -0.36967008790E+02 -0.15634167411E+02  0.11354633239E+03  0.12043154292E+03  0.00000000000E+00 0.  1.
         14    1    3    3    0    0  0.29317517906E+02  0.17970008309E+02  0.38591059109E+02  0.51688566414E+02  0.00000000000E+00 0. -1.
        -13    1    4    4    0    0 -0.13526936510E+02 -0.54764373939E+02  0.13766396389E+03  0.14877325573E+03  0.00000000000E+00 0. -1.
         13    1    4    4    0    0 -0.38182034456E+02  0.32403107640E+02  0.14326623946E+03  0.15176641430E+03  0.00000000000E+00 0.  1.
         -4    1    1    2    0  502  0.59358461849E+02  0.20025425401E+02  0.29413550969E+03  0.30073267650E+03  0.00000000000E+00 0.  1.
<scales pt_clust_5="13000.00000" pt_clust_6="13000.00000" pt_clust_7="13000.00000" pt_clust_8="13000.00000" pt_clust_9="13000.00000"></scales>
<clustering>
<clus scale="   80.097">  5  6 -1 -1</clus>
<clus scale="   80.496">  1  5  2 -1</clus>
<clus scale="   90.711">  7  8 -1 -1</clus>
<clus scale="   59.404">  7  9 -1 -1</clus>
<clus scale="  175.579">  2  5  1 -1</clus>
</clustering>
</event>
<event>
 9    2  0.2147756E-005  0.1310353E+04  0.7546771E-02  0.9757949E-01
          2   -1    0    0  502    0 -0.00000000000E+00  0.00000000000E+00  0.19816010422E+04  0.19816010422E+04  0.00000000000E+00 0. -1.
         21   -1    0    0  501  502  0.00000000000E+00 -0.00000000000E+00 -0.29849027787E+03  0.29849027787E+03  0.00000000000E+00 0. -1.
         24    2    1    2    0    0  0.44217920413E+02  0.24787677985E+02  0.51908515106E+03  0.52738476564E+03  0.78202579909E+02 0.  0.
         23    2    1    2    0    0  0.35535982690E+03  0.47460207046E+03  0.84663011596E+03  0.10387090763E+04  0.10298669896E+03 0.  0.
        -11    1    3    3    0    0  0.31548609975E+02 -0.15935737114E+02  0.98624715327E+02  0.10476686968E+03  0.00000000000E+00 0.  1.
         12    1    3    3    0    0  0.12669310438E+02  0.40723415099E+02  0.42046043574E+03  0.42261789596E+03  0.00000000000E+00 0. -1.
        -11    1    4    4    0    0  0.26809724661E+03  0.41656914988E+03  0.72607411677E+03  0.87897076932E+03  0.00000000000E+00 0. -1.
         11    1    4    4    0    0  0.87262580291E+02  0.58032920581E+02  0.12055599919E+03  0.15973830702E+03  0.00000000000E+00 0.  1.
          1    1    1    2  501    0 -0.39957774732E+03 -0.49938974845E+03  0.31739549730E+03  0.71399747809E+03  0.00000000000E+00 0. -1.
<scales pt_clust_5="13000.00000" pt_clust_6="13000.00000" pt_clust_7="13000.00000" pt_clust_8="13000.00000" pt_clust_9="13000.00000"></scales>
<clustering>
<clus scale="   78.203">  5  6 -1 -1</clus>
<clus scale="   93.195">  1  5  2 -1</clus>
<clus scale="  102.987">  7  8 -1 -1</clus>
<clus scale="  622.996">  7  9 -1 -1</clus>
<clus scale=" 1310.353">  2  5  1 -1</clus>
</clustering>
</event>
<event>
 9    2  0.2147756E-005  0.3104025E+03  0.7546771E-02  0.1124424E+00
         21   -1    0    0  501  502  0.00000000000E+00  0.00000000000E+00  0.26581661659E+03  0.26581661659E+03  0.00000000000E+00 0. -1.
         -3   -1    0    0    0  501 -0.00000000000E+00 -0.00000000000E+00 -0.15892939935E+03  0.15892939935E+03  0.00000000000E+00 0.  1.
         24    2    1    2    0    0  0.16912750752E+02  0.57772639305E+02  0.43220644161E+02  0.10788149459E+03  0.78400725774E+02 0.  0.
         23    2    1    2    0    0  0.38849763696E+02 -0.49396491530E+01  0.16326549838E+03  0.19108404279E+03  0.91234775032E+02 0.  0.
        -11    1    3    3    0    0  0.18341743451E+02 -0.13925058898E+02  0.24796327950E+02  0.33840577683E+02  0.00000000000E+00 0.  1.
         12    1    3    3    0    0 -0.14289926989E+01  0.71697698204E+02  0.18424316211E+02  0.74040916902E+02  0.00000000000E+00 0. -1.
        -13    1    4    4    0    0  0.23968799577E+02  0.24509445834E+02  0.12091820520E+02  0.36351456803E+02  0.00000000000E+00 0.  1.
         13    1    4    4    0    0  0.14880964119E+02 -0.29449094987E+02  0.15117367786E+03  0.15473258599E+03  0.00000000000E+00 0. -1.
         -4    1    1    2    0  502 -0.55762514448E+02 -0.52832990152E+02 -0.99598925297E+02  0.12578047856E+03  0.00000000000E+00 0.  1.
<scales pt_clust_5="13000.00000" pt_clust_6="13000.00000" pt_clust_7="13000.00000" pt_clust_8="13000.00000" pt_clust_9="13000.00000"></scales>
<clustering>
<clus scale="   78.401">  5  6 -1 -1</clus>
<clus scale="   91.235">  7  8 -1 -1</clus>
<clus scale="   76.817">  7  9 -1 -1</clus>
<clus scale="   98.845">  2  5  1 -1</clus>
<clus scale="  310.402">  1  5  2 -1</clus>
</clustering>
</event>
<event>
 9    2  0.2147756E-005  0.2166979E+03  0.7546771E-02  0.1165499E+00
          2   -1    0    0  502    0 -0.00000000000E+00  0.00000000000E+00  0.10133912421E+03  0.10133912421E+03  0.00000000000E+00 0. -1.
         21   -1    0    0  501  502  0.00000000000E+00 -0.00000000000E+00 -0.26225830052E+03  0.26225830052E+03  0.00000000000E+00 0.  1.
         24    2    1    2    0    0 -0.86787098539E+01 -0.71477860200E+02 -0.43728451716E+02  0.11724066230E+03  0.81540118372E+02 0.  0.
         23    2    1    2    0    0 -0.30668785325E+02  0.64667151401E+02  0.77642628036E+01  0.11517612359E+03  0.89904620599E+02 0.  0.
        -11    1    3    3    0    0 -0.38171913602E+02 -0.40629541334E+02 -0.49020450719E+02  0.74235161519E+02  0.00000000000E+00 0.  1.
         12    1    3    3    0    0  0.29493203748E+02 -0.30848318866E+02  0.52919990035E+01  0.43005500783E+02  0.00000000000E+00 0. -1.
        -13    1    4    4    0    0  0.11582677986E+02  0.71029892742E+02  0.14378250948E+01  0.71982438367E+02  0.00000000000E+00 0. -1.
         13    1    4    4    0    0 -0.42251463311E+02 -0.63627413401E+01  0.63264377088E+01  0.43193685226E+02  0.00000000000E+00 0.  1.
          1    1    1    2  501    0  0.39347495179E+02  0.68107087980E+01 -0.12495498740E+03  0.13118063884E+03  0.00000000000E+00 0. -1.
<scales pt_clust_5="13000.00000" pt_clust_6="13000.00000" pt_clust_7="13000.00000" pt_clust_8="13000.00000" pt_clust_9="13000.00000"></scales>
<clustering>
<clus scale="   81.540">  5  6 -1 -1</clus>
<clus scale="   89.905">  7  8 -1 -1</clus>
<clus scale="   39.933">  7  9 -1 -1</clus>
<clus scale="  108.780">  1  5  2 -1</clus>
<clus scale="  216.698">  2  5  1 -1</clus>
</clustering>
</event>
<event>
 9    2  0.2147756E-005  0.2843146E+03  0.7546771E-02  0.1101823E+00
         21   -1    0    0  501  502  0.00000000000E+00  0.00000000000E+00  0.29294807099E+03  0.29294807099E+03  0.00000000000E+00 0. -1.
         -1   -1    0    0    0  501 -0.00000000000E+00 -0.00000000000E+00 -0.25993351369E+03  0.25993351369E+03  0.00000000000E+00 0.  1.
         24    2    1    2    0    0  0.20712822999E+03 -0.51581599410E+02 -0.87311774636E+02  0.24415317280E+03  0.80153981468E+02 0.  0.
         23    2    1    2    0    0 -0.93150854918E+02 -0.13217136480E+02  0.12129266215E+03  0.17761528517E+03  0.89350462605E+02 0.  0.
        -13    1    3    3    0    0  0.12768302279E+03 -0.60834808073E+02 -0.83142093696E+02  0.16406229282E+03  0.00000000000E+00 0.  1.
         14    1    3    3    0    0  0.79445207195E+02  0.92532086638E+01 -0.41696809400E+01  0.80090879980E+02  0.00000000000E+00 0. -1.
        -13    1    4    4    0    0 -0.96009107888E+02  0.15701065691E+02  0.74500406184E+02  0.12253400664E+03  0.00000000000E+00 0.  1.
         13    1    4    4    0    0  0.28582529705E+01 -0.28918202171E+02  0.46792255965E+02  0.55081278536E+02  0.00000000000E+00 0. -1.
         -2    1    1    2    0  502 -0.11397737507E+03  0.64798735889E+02 -0.96633021147E+00  0.13111312671E+03  0.00000000000E+00 0.  1.
<scales pt_clust_5="13000.00000" pt_clust_6="13000.00000" pt_clust_7="13000.00000" pt_clust_8="13000.00000" pt_clust_9="13000.00000"></scales>
<clustering>
<clus scale="   80.154">  5  6 -1 -1</clus>
<clus scale="   89.350">  7  8 -1 -1</clus>
<clus scale="  131.110">  7  9 -1 -1</clus>
<clus scale="  228.008">  2  5  1 -1</clus>
<clus scale="  284.315">  1  5  2 -1</clus>
</clustering>
</event>
<event>
 9    2  0.2147756E-005  0.2977542E+03  0.7546771E-02  0.1115398E+00
         21   -1    0    0  501  502  0.00000000000E+00  0.00000000000E+00  0.21093593347E+03  0.21093593347E+03  0.00000000000E+00 0.  1.
          2   -1    0    0  502    0 -0.00000000000E+00 -0.00000000000E+00 -0.22856889680E+03  0.22856889680E+03  0.00000000000E+00 0. -1.
         24    2    1    2    0    0  0.11414363144E+03 -0.58510043930E+01 -0.19815066647E+02  0.14174267229E+03  0.81457629667E+02 0.  0.
         23    2    1    2    0    0  0.55726489930E+02 -0.55105135146E+01  0.54007217057E+02  0.11979928366E+03  0.91100392054E+02 0.  0.
        -11    1    3    3    0    0  0.10748270896E+03  0.20244288406E+02 -0.29232279903E+02  0.11321170490E+03  0.00000000000E+00 0.  1.
         12    1    3    3    0    0  0.66609224783E+01 -0.26095292799E+02  0.94172132557E+01  0.28530967387E+02  0.00000000000E+00 0. -1.
        -11    1    4    4    0    0  0.20335131830E+02  0.20498236628E+01  0.75154305853E+02  0.77883817650E+02  0.00000000000E+00 0.  1.
         11    1    4    4    0    0  0.35391358100E+02 -0.75603371774E+01 -0.21147088796E+02  0.41915466011E+02  0.00000000000E+00 0. -1.
          1    1    1    2  501    0 -0.16987012137E+03  0.11361517908E+02 -0.51825113734E+02  0.17796287432E+03  0.00000000000E+00 0. -1.
<scales pt_clust_5="13000.00000" pt_clust_6="13000.00000" pt_clust_7="13000.00000" pt_clust_8="13000.00000" pt_clust_9="13000.00000"></scales>
<clustering>
<clus scale="   81.458">  5  6 -1 -1</clus>
<clus scale="   91.100">  7  8 -1 -1</clus>
<clus scale="  140.351">  2  5  1 -1</clus>
<clus scale="   81.419">  7  9 -1 -1</clus>
<clus scale="  297.754">  1  5  2 -1</clus>
</clustering>
</event>
<event>
 9    2  0.2147756E-005  0.2155723E+03  0.7546771E-02  0.1162056E+00
         -1   -1    0    0    0  501 -0.00000000000E+00  0.00000000000E+00  0.26854810421E+03  0.26854810421E+03  0.00000000000E+00 0.  1.
         21   -1    0    0  501  502  0.00000000000E+00 -0.00000000000E+00 -0.10772906439E+03  0.10772906439E+03  0.00000000000E+00 0.  1.
         24    2    1    2    0    0 -0.53549091855E+02  0.72002606028E+02  0.27359321171E+02  0.12273644287E+03  0.79144307699E+02 0.  0.
         23    2    1    2    0    0 -0.18900618557E+02 -0.44552034688E+02  0.14231975156E+03  0.17555999356E+03  0.90687829817E+02 0.  0.
        -13    1    3    3    0    0 -0.21631008533E+02  0.16811945273E+02  0.48385624608E+02  0.55603153711E+02  0.00000000000E+00 0.  1.
         14    1    3    3    0    0 -0.31918083323E+02  0.55190660755E+02 -0.21026303437E+02  0.67133289163E+02  0.00000000000E+00 0. -1.
        -11    1    4    4    0    0  0.35199017932E+02 -0.21218818621E+02  0.39203296697E+02  0.56798834486E+02  0.00000000000E+00 0.  1.
         11    1    4    4    0    0 -0.54099636489E+02 -0.23333216067E+02  0.10311645487E+03  0.11876115907E+03  0.00000000000E+00 0. -1.
         -2    1    1    2    0  502  0.72449710412E+02 -0.27450571340E+02 -0.88600329139E+01  0.77980732165E+02  0.00000000000E+00 0.  1.
<scales pt_clust_5="13000.00000" pt_clust_6="13000.00000" pt_clust_7="13000.00000" pt_clust_8="13000.00000" pt_clust_9="13000.00000"></scales>
<clustering>
<clus scale="   79.144">  5  6 -1 -1</clus>
<clus scale="   90.688">  7  8 -1 -1</clus>
<clus scale="   77.476">  7  9 -1 -1</clus>
<clus scale="  119.648">  1  5  2 -1</clus>
<clus scale="  215.572">  2  5  1 -1</clus>
</clustering>
</event>
<event>
 9    2  0.2147756E-005  0.6672953E+03  0.7546771E-02  0.9938281E-01
         21   -1    0    0  501  502  0.00000000000E+00  0.00000000000E+00  0.16974558350E+03  0.16974558350E+03  0.00000000000E+00 0. -1.
          2   -1    0    0  502    0 -0.00000000000E+00 -0.00000000000E+00 -0.35214196878E+04  0.35214196878E+04  0.00000000000E+00 0. -1.
         24    2    1    2    0    0 -0.38394507277E+03 -0.19520728437E+02 -0.27942128175E+04  0.28216561776E+04  0.79520043250E+02 0.  0.
         23    2    1    2    0    0 -0.10589851289E+03 -0.77248642537E+02 -0.82680761216E+02  0.18050430632E+03  0.92541063948E+02 0.  0.
        -13    1    3    3    0    0 -0.82950500030E+02  0.16443873919E+02 -0.44473811279E+03  0.45270650029E+03  0.00000000000E+00 0.  1.
         14    1    3    3    0    0 -0.30099457274E+03 -0.35964602356E+02 -0.23494747047E+04  0.23689496773E+04  0.00000000000E+00 0. -1.
        -11    1    4    4    0    0 -0.41684975531E+02 -0.27299006748E+02  0.16257933326E+02  0.52413675223E+02  0.00000000000E+00 0. -1.
         11    1    4    4    0    0 -0.64213537362E+02 -0.49949635789E+02 -0.98938694542E+02  0.12809063109E+03  0.00000000000E+00 0.  1.
          1    1    1    2  501    0  0.48984358566E+03  0.96769370974E+02 -0.47478052552E+03  0.68900478735E+03  0.00000000000E+00 0. -1.
<scales pt_clust_5="13000.00000" pt_clust_6="13000.00000" pt_clust_7="13000.00000" pt_clust_8="13000.00000" pt_clust_9="13000.00000"></scales>
<clustering>
<clus scale="   79.520">  5  6 -1 -1</clus>
<clus scale="   92.541">  7  8 -1 -1</clus>
<clus scale="  392.579">  2  5  1 -1</clus>
<clus scale="  194.329">  7  9 -1 -1</clus>
<clus scale="  667.295">  1  5  2 -1</clus>
</clustering>
</event>
<event>
 9    2  0.2147756E-005  0.1777689E+03  0.7546771E-02  0.1191951E+00
         -3   -1    0    0    0  501 -0.00000000000E+00  0.00000000000E+00  0.25299735835E+03  0.25299735835E+03  0.00000000000E+00 0.  1.
         21   -1    0    0  501  502  0.00000000000E+00 -0.00000000000E+00 -0.11919269734E+03  0.11919269734E+03  0.00000000000E+00 0.  1.
         24    2    1    2    0    0 -0.61433715050E+02 -0.40328233537E+02  0.15911744265E+03  0.19262802827E+03  0.79917012929E+02 0.  0.
         23    2    1    2    0    0  0.64564560200E+01 -0.11647800619E+01  0.21502835100E+02  0.96280149683E+02  0.93618656093E+02 0.  0.
        -13    1    3    3    0    0 -0.64682355422E+02  0.26550337462E+01  0.10620184361E+03  0.12437720006E+03  0.00000000000E+00 0.  1.
         14    1    3    3    0    0  0.32486403723E+01 -0.42983267283E+02  0.52915599034E+02  0.68250828213E+02  0.00000000000E+00 0. -1.
        -11    1    4    4    0    0 -0.31261530593E+02  0.36968336355E+01 -0.22070036353E+02  0.38445238698E+02  0.00000000000E+00 0.  1.
         11    1    4    4    0    0  0.37717986613E+02 -0.48616136974E+01  0.43572871453E+02  0.57834910984E+02  0.00000000000E+00 0. -1.
         -4    1    1    2    0  502  0.54977259030E+02  0.41493013599E+02 -0.46815616737E+02  0.83281877731E+02  0.00000000000E+00 0.  1.
<scales pt_clust_5="13000.00000" pt_clust_6="13000.00000" pt_clust_7="13000.00000" pt_clust_8="13000.00000" pt_clust_9="13000.00000"></scales>
<clustering>
<clus scale="   79.917">  5  6 -1 -1</clus>
<clus scale="   93.619">  7  8 -1 -1</clus>
<clus scale="   68.878">  7  9 -1 -1</clus>
<clus scale="  108.569">  1  5  2 -1</clus>
<clus scale="  177.769">  2  5  1 -1</clus>
</clustering>
</event>
<event>
 9    2  0.2147756E-005  0.4011751E+03  0.7546771E-02  0.1100161E+00
         21   -1    0    0  501  502  0.00000000000E+00  0.00000000000E+00  0.46020575146E+02  0.46020575146E+02  0.00000000000E+00 0. -1.
          2   -1    0    0  502    0 -0.00000000000E+00 -0.00000000000E+00 -0.12830360298E+04  0.12830360298E+04  0.00000000000E+00 0. -1.
         24    2    1    2    0    0 -0.36136071400E+01 -0.25779455161E+02 -0.22510184152E+03  0.24052061292E+03  0.80633043577E+02 0.  0.
         23    2    1    2    0    0  0.14014097912E+03  0.14252028827E+03 -0.50498254008E+03  0.55071886862E+03  0.91281870404E+02 0.  0.
        -11    1    3    3    0    0 -0.30587638225E+02 -0.31632188346E+02 -0.67880247553E+02  0.80894542212E+02  0.00000000000E+00 0.  1.
         12    1    3    3    0    0  0.26974031085E+02  0.58527331854E+01 -0.15722159397E+03  0.15962607071E+03  0.00000000000E+00 0. -1.
        -11    1    4    4    0    0  0.58103631320E+02  0.67804766328E+01 -0.17667688035E+03  0.18610944868E+03  0.00000000000E+00 0.  1.
         11    1    4    4    0    0  0.82037347799E+02  0.13573981164E+03 -0.32830565973E+03  0.36460941994E+03  0.00000000000E+00 0. -1.
          1    1    1    2  501    0 -0.13652737198E+03 -0.11674083311E+03 -0.50693107305E+03  0.53781712342E+03  0.00000000000E+00 0. -1.
<scales pt_clust_5="13000.00000" pt_clust_6="13000.00000" pt_clust_7="13000.00000" pt_clust_8="13000.00000" pt_clust_9="13000.00000"></scales>
<clustering>
<clus scale="   80.633">  5  6 -1 -1</clus>
<clus scale="   84.731">  2  5  1 -1</clus>
<clus scale="   91.282">  7  8 -1 -1</clus>
<clus scale="  189.527">  7  9 -1 -1</clus>
<clus scale="  401.175">  1  5  2 -1</clus>
</clustering>
</event>
<event>
 9    2  0.2147756E-005  0.1766154E+03  0.7546771E-02  0.1201811E+00
         21   -1    0    0  501  502  0.00000000000E+00  0.00000000000E+00  0.49491834390E+02  0.49491834390E+02  0.00000000000E+00 0. -1.
          2   -1    0    0  502    0 -0.00000000000E+00 -0.00000000000E+00 -0.37633747199E+03  0.37633747199E+03  0.00000000000E+00 0. -1.
         24    2    1    2    0    0 -0.33932497694E+02  0.57749273448E+01 -0.15809270046E+03  0.18155375407E+03  0.82363216880E+02 0.  0.
         23    2    1    2    0    0 -0.17466176666E+02 -0.35271305820E+02 -0.54950520709E+02  0.11596791397E+03  0.94233035624E+02 0.  0.
        -13    1    3    3    0    0  0.10916447964E+02  0.20030779437E+02 -0.78690231140E+01  0.24131358970E+02  0.00000000000E+00 0.  1.
         14    1    3    3    0    0 -0.44848945658E+02 -0.14255852092E+02 -0.15022367734E+03  0.15742239510E+03  0.00000000000E+00 0. -1.
        -13    1    4    4    0    0 -0.21025340791E+02  0.18742255227E+02  0.11358194616E+02  0.30370144407E+02  0.00000000000E+00 0. -1.
         13    1    4    4    0    0  0.35591641258E+01 -0.54013561047E+02 -0.66308715325E+02  0.85597769563E+02  0.00000000000E+00 0.  1.
          1    1    1    2  501    0  0.51398674360E+02  0.29496378475E+02 -0.11380241643E+03  0.12830763833E+03  0.00000000000E+00 0. -1.
<scales pt_clust_5="13000.00000" pt_clust_6="13000.00000" pt_clust_7="13000.00000" pt_clust_8="13000.00000" pt_clust_9="13000.00000"></scales>
<clustering>
<clus scale="   82.363">  5  6 -1 -1</clus>
<clus scale="   89.266">  2  5  1 -1</clus>
<clus scale="   94.233">  7  8 -1 -1</clus>
<clus scale="   45.541">  7  9 -1 -1</clus>
<clus scale="  176.615">  1  5  2 -1</clus>
</clustering>
</event>
<event>
 9    2  0.2147756E-005  0.1413851E+03  0.7546771E-02  0.1226326E+00
         21   -1    0    0  501  502  0.00000000000E+00  0.00000000000E+00  0.52050584427E+02  0.52050584427E+02  0.00000000000E+00 0. -1.
          4   -1    0    0  502    0 -0.00000000000E+00 -0.00000000000E+00 -0.39255729246E+03  0.39255729246E+03  0.00000000000E+00 0. -1.
         24    2    1    2    0    0  0.40505817661E+02  0.63132102362E+02 -0.26466531156E+03  0.28416580323E+03  0.71246704990E+02 0.  0.
         23    2    1    2    0    0 -0.42954225917E+02 -0.28669117877E+02 -0.31146722599E+02  0.10395042936E+03  0.84667523826E+02 0.  0.
        -11    1    3    3    0    0 -0.16764212461E+02  0.34405080976E+02 -0.79586385231E+02  0.88310481431E+02  0.00000000000E+00 0.  1.
         12    1    3    3    0    0  0.57270030122E+02  0.28727021385E+02 -0.18507892633E+03  0.19585532180E+03  0.00000000000E+00 0. -1.
        -11    1    4    4    0    0 -0.21155776593E+02  0.27695033411E+02 -0.25642026993E+02  0.43267716686E+02  0.00000000000E+00 0.  1.
         11    1    4    4    0    0 -0.21798449324E+02 -0.56364151288E+02 -0.55046956059E+01  0.60682712671E+02  0.00000000000E+00 0. -1.
          3    1    1    2  501    0  0.24484082564E+01 -0.34462984485E+02 -0.44694673873E+02  0.56491644296E+02  0.00000000000E+00 0. -1.
<scales pt_clust_5="13000.00000" pt_clust_6="13000.00000" pt_clust_7="13000.00000" pt_clust_8="13000.00000" pt_clust_9="13000.00000"></scales>
<clustering>
<clus scale="   71.247">  5  6 -1 -1</clus>
<clus scale="   84.668">  7  8 -1 -1</clus>
<clus scale="   34.550">  7  9 -1 -1</clus>
<clus scale="  103.453">  2  5  1 -1</clus>
<clus scale="  141.385">  1  5  2 -1</clus>
</clustering>
</event>
<event>
 9    2  0.2750770E-005  0.5560239E+03  0.7546771E-02  0.1035251E+00
         21   -1    0    0  501  502  0.00000000000E+00  0.00000000000E+00  0.16437683672E+03  0.16437683672E+03  0.00000000000E+00 0. -1.
          4   -1    0    0  502    0 -0.00000000000E+00 -0.00000000000E+00 -0.91502383133E+03  0.91502383133E+03  0.00000000000E+00 0. -1.
         24    2    1    2    0    0  0.17042949030E+03  0.29763403147E+02 -0.76825250221E+02  0.20578845213E+03  0.80713670622E+02 0.  0.
         23    2    1    2    0    0  0.10590673696E+03  0.83431682324E+02 -0.30407443542E+02  0.16427675198E+03  0.88798401273E+02 0.  0.
        -13    1    3    3    0    0  0.19394641746E+02  0.24188644188E+02  0.86064656594E+01  0.32176293870E+02  0.00000000000E+00 0.  1.
         14    1    3    3    0    0  0.15103484856E+03  0.55747589595E+01 -0.85431715880E+02  0.17361215826E+03  0.00000000000E+00 0. -1.
        -13    1    4    4    0    0  0.81897239906E+02  0.89086673862E+02 -0.51794752630E+02  0.13162936513E+03  0.00000000000E+00 0.  1.
         13    1    4    4    0    0  0.24009497057E+02 -0.56549915382E+01  0.21387309087E+02  0.32647386852E+02  0.00000000000E+00 0. -1.
          3    1    1    2  501    0 -0.27633622727E+03 -0.11319508547E+03 -0.64341430085E+03  0.70933546394E+03  0.00000000000E+00 0. -1.
<scales pt_clust_5="13000.00000" pt_clust_6="13000.00000" pt_clust_7="13000.00000" pt_clust_8="13000.00000" pt_clust_9="13000.00000"></scales>
<clustering>
<clus scale="   80.714">  5  6 -1 -1</clus>
<clus scale="   88.798">  7  8 -1 -1</clus>
<clus scale="  190.910">  2  5  1 -1</clus>
<clus scale="  154.329">  7  9 -1 -1</clus>
<clus scale="  556.024">  1  5  2 -1</clus>
</clustering>
</event>
<event>
 9    2  0.2147756E-005  0.1495380E+03  0.7546771E-02  0.1225023E+00
          2   -1    0    0  502    0 -0.00000000000E+00  0.00000000000E+00  0.13936153200E+03  0.13936153200E+03  0.00000000000E+00 0. -1.
         21   -1    0    0  501  502  0.00000000000E+00 -0.00000000000E+00 -0.10344220564E+03  0.10344220564E+03  0.00000000000E+00 0.  1.
         24    2    1    2    0    0 -0.39458092533E+02  0.25388178661E+01  0.42045023917E+01  0.89939564732E+02  0.80672552961E+02 0.  0.
         23    2    1    2    0    0  0.60127975692E+02  0.19618543228E+02  0.29946573597E+01  0.11111443411E+03  0.91308207711E+02 0.  0.
        -11    1    3    3    0    0 -0.62035382298E+02  0.29274064197E+01  0.16458420300E+02  0.64248252614E+02  0.00000000000E+00 0.  1.
         12    1    3    3    0    0  0.22577289765E+02 -0.38858855360E+00 -0.12253917908E+02  0.25691312117E+02  0.00000000000E+00 0. -1.
        -13    1    4    4    0    0  0.22647232691E+02  0.49869917807E+02 -0.19255634988E+02  0.58057603546E+02  0.00000000000E+00 0. -1.
         13    1    4    4    0    0  0.37480743001E+02 -0.30251374579E+02  0.22250292348E+02  0.53056830563E+02  0.00000000000E+00 0.  1.
          1    1    1    2  501    0 -0.20669883159E+02 -0.22157361094E+02  0.28720166604E+02  0.41749738804E+02  0.00000000000E+00 0. -1.
<scales pt_clust_5="13000.00000" pt_clust_6="13000.00000" pt_clust_7="13000.00000" pt_clust_8="13000.00000" pt_clust_9="13000.00000"></scales>
<clustering>
<clus scale="   80.673">  5  6 -1 -1</clus>
<clus scale="   89.841">  1  5  2 -1</clus>
<clus scale="   91.308">  7  8 -1 -1</clus>
<clus scale="   41.544">  7  9 -1 -1</clus>
<clus scale="  149.538">  2  5  1 -1</clus>
</clustering>
</event>
<event>
 9    2  0.2147756E-005  0.3348084E+03  0.7546771E-02  0.1119160E+00
         21   -1    0    0  501  502  0.00000000000E+00  0.00000000000E+00  0.42682394239E+02  0.42682394239E+02  0.00000000000E+00 0.  1.
         -1   -1    0    0    0  501 -0.00000000000E+00 -0.00000000000E+00 -0.10772381368E+04  0.10772381368E+04  0.00000000000E+00 0.  1.
         24    2    1    2    0    0  0.38147340334E+02 -0.14364359722E+02 -0.28911344186E+03  0.30274193009E+03  0.80028367278E+02 0.  0.
         23    2    1    2    0    0  0.51292973760E+02 -0.43084122785E+02 -0.60978693017E+02  0.12450961205E+03  0.85422665011E+02 0.  0.
        -13    1    3    3    0    0  0.60528896523E+02 -0.31231666796E+01 -0.24094355402E+03  0.24844978910E+03  0.00000000000E+00 0.  1.
         14    1    3    3    0    0 -0.22381556189E+02 -0.11241193042E+02 -0.48169887840E+02  0.54292140988E+02  0.00000000000E+00 0. -1.
        -13    1    4    4    0    0  0.15525145511E+02 -0.33829098424E+02  0.14916763701E+02  0.40099225462E+02  0.00000000000E+00 0.  1.
         13    1    4    4    0    0  0.35767828249E+02 -0.92550243612E+01 -0.75895456718E+02  0.84410386588E+02  0.00000000000E+00 0. -1.
         -2    1    1    2    0  502 -0.89440314094E+02  0.57448482507E+02 -0.68446360766E+03  0.69266898886E+03  0.00000000000E+00 0.  1.
<scales pt_clust_5="13000.00000" pt_clust_6="13000.00000" pt_clust_7="13000.00000" pt_clust_8="13000.00000" pt_clust_9="13000.00000"></scales>
<clustering>
<clus scale="   80.028">  5  6 -1 -1</clus>
<clus scale="   85.423">  7  8 -1 -1</clus>
<clus scale="   89.811">  2  5  1 -1</clus>
<clus scale="   71.569">  7  9 -1 -1</clus>
<clus scale="  334.808">  1  5  2 -1</clus>
</clustering>
</event>
<event>
 9    2  0.2147756E-005  0.2512141E+03  0.7546771E-02  0.1140346E+00
         21   -1    0    0  501  502  0.00000000000E+00  0.00000000000E+00  0.76405966839E+02  0.76405966839E+02  0.00000000000E+00 0. -1.
          2   -1    0    0  502    0 -0.00000000000E+00 -0.00000000000E+00 -0.14014431001E+04  0.14014431001E+04  0.00000000000E+00 0. -1.
         24    2    1    2    0    0 -0.93868832799E+02 -0.24805262987E+02  0.28952614523E+01  0.12636360239E+03  0.80825235083E+02 0.  0.
         23    2    1    2    0    0 -0.43376556963E+02  0.16582575908E+02 -0.38868407415E+03  0.40222716605E+03  0.92492573186E+02 0.  0.
        -11    1    3    3    0    0 -0.73289388821E+02  0.19155456140E+02  0.12797096540E+02  0.76824681538E+02  0.00000000000E+00 0.  1.
         12    1    3    3    0    0 -0.20579443979E+02 -0.43960719128E+02 -0.99018350876E+01  0.49538920848E+02  0.00000000000E+00 0. -1.
        -11    1    4    4    0    0  0.16602693900E+02 -0.22604782804E+02 -0.16447016408E+03  0.16684442011E+03  0.00000000000E+00 0.  1.
         11    1    4    4    0    0 -0.59979250863E+02  0.39187358712E+02 -0.22421391008E+03  0.23538274594E+03  0.00000000000E+00 0. -1.
          1    1    1    2  501    0  0.13724538976E+03  0.82226870792E+01 -0.93924832061E+03  0.94925829855E+03  0.00000000000E+00 0. -1.
<scales pt_clust_5="13000.00000" pt_clust_6="13000.00000" pt_clust_7="13000.00000" pt_clust_8="13000.00000" pt_clust_9="13000.00000"></scales>
<clustering>
<clus scale="   80.825">  5  6 -1 -1</clus>
<clus scale="   92.493">  7  8 -1 -1</clus>
<clus scale="  126.330">  2  5  1 -1</clus>
<clus scale="   71.685">  7  9 -1 -1</clus>
<clus scale="  251.214">  1  5  2 -1</clus>
</clustering>
</event>
<event>
 9    2  0.2147756E-005  0.2489086E+03  0.7546771E-02  0.1143850E+00
         21   -1    0    0  501  502  0.00000000000E+00  0.00000000000E+00  0.40904519074E+02  0.40904519074E+02  0.00000000000E+00 0. -1.
          2   -1    0    0  502    0 -0.00000000000E+00 -0.00000000000E+00 -0.82983545212E+03  0.82983545212E+03  0.00000000000E+00 0. -1.
         24    2    1    2    0    0  0.68579376489E+02  0.53475594471E+02 -0.24297903692E+03  0.27072418094E+03  0.81792418256E+02 0.  0.
         23    2    1    2    0    0 -0.13825448113E+03 -0.11598011738E+02 -0.39572985463E+03  0.42920884105E+03  0.91483856274E+02 0.  0.
        -13    1    3    3    0    0  0.40317413367E+02  0.31871408202E+02 -0.41299287299E+02  0.65931112631E+02  0.00000000000E+00 0.  1.
         14    1    3    3    0    0  0.28261963122E+02  0.21604186269E+02 -0.20167974962E+03  0.20479306831E+03  0.00000000000E+00 0. -1.
        -11    1    4    4    0    0 -0.69339080032E+01  0.27507714153E+02 -0.53217945618E+02  0.60306742193E+02  0.00000000000E+00 0.  1.
         11    1    4    4    0    0 -0.13132057313E+03 -0.39105725891E+02 -0.34251190901E+03  0.36890209885E+03  0.00000000000E+00 0. -1.
          1    1    1    2  501    0  0.69675104646E+02 -0.41877582733E+02 -0.15022204150E+03  0.17080694920E+03  0.00000000000E+00 0. -1.
<scales pt_clust_5="13000.00000" pt_clust_6="13000.00000" pt_clust_7="13000.00000" pt_clust_8="13000.00000" pt_clust_9="13000.00000"></scales>
<clustering>
<clus scale="   81.792">  5  6 -1 -1</clus>
<clus scale="   91.484">  7  8 -1 -1</clus>
<clus scale="   81.292">  7  9 -1 -1</clus>
<clus scale="  119.385">  2  5  1 -1</clus>
<clus scale="  248.909">  1  5  2 -1</clus>
</clustering>
</event>
<event>
 9    2  0.2147756E-005  0.3835360E+03  0.7546771E-02  0.1081333E+00
         21   -1    0    0  501  502  0.00000000000E+00  0.00000000000E+00  0.15777500354E+03  0.15777500354E+03  0.00000000000E+00 0. -1.
         -3   -1    0    0    0  501 -0.00000000000E+00 -0.00000000000E+00 -0.47523044641E+03  0.47523044641E+03  0.00000000000E+00 0.  1.
         24    2    1    2    0    0  0.11828074833E+02  0.13337191107E+03 -0.56547823291E+02  0.16913841063E+03  0.86499570015E+02 0.  0.
         23    2    1    2    0    0 -0.10768484220E+02  0.69206605999E+02  0.19996175869E+02  0.11753465474E+03  0.92244422324E+02 0.  0.
        -13    1    3    3    0    0 -0.22940617124E+02  0.40402796618E+02  0.12635590996E+02  0.48148894571E+02  0.00000000000E+00 0.  1.
         14    1    3    3    0    0  0.34768691957E+02  0.92969114454E+02 -0.69183414287E+02  0.12098951605E+03  0.00000000000E+00 0. -1.
        -13    1    4    4    0    0 -0.13005163236E+02  0.39801406940E+02 -0.35365233358E+02  0.54808630668E+02  0.00000000000E+00 0.  1.
         13    1    4    4    0    0  0.22366790165E+01  0.29405199058E+02  0.55361409227E+02  0.62726024075E+02  0.00000000000E+00 0. -1.
         -4    1    1    2    0  502 -0.10595906133E+01 -0.20257851707E+03 -0.28090379545E+03  0.34633238458E+03  0.00000000000E+00 0.  1.
<scales pt_clust_5="13000.00000" pt_clust_6="13000.00000" pt_clust_7="13000.00000" pt_clust_8="13000.00000" pt_clust_9="13000.00000"></scales>
<clustering>
<clus scale="   86.500">  5  6 -1 -1</clus>
<clus scale="   92.244">  7  8 -1 -1</clus>
<clus scale="  159.406">  2  5  1 -1</clus>
<clus scale="   87.637">  7  9 -1 -1</clus>
<clus scale="  383.536">  1  5  2 -1</clus>
</clustering>
</event>
<event>
 9    2  0.2147756E-005  0.1280195E+03  0.7546771E-02  0.1247906E+00
         21   -1    0    0  501  502  0.00000000000E+00  0.00000000000E+00  0.23447478579E+02  0.23447478579E+02  0.00000000000E+00 0. -1.
          2   -1    0    0  502    0 -0.00000000000E+00 -0.00000000000E+00 -0.53596036442E+03  0.53596036442E+03  0.00000000000E+00 0. -1.
         24    2    1    2    0    0 -0.31334181534E+02  0.22803543593E+02 -0.27946703325E+03  0.29351431021E+03  0.80913503766E+02 0.  0.
         23    2    1    2    0    0  0.43734527409E+02  0.11031450763E+01 -0.19613600783E+03  0.22020288844E+03  0.90033619788E+02 0.  0.
        -11    1    3    3    0    0 -0.28532661026E+02 -0.23677702162E+02 -0.73180414907E+02  0.82037305239E+02  0.00000000000E+00 0.  1.
         12    1    3    3    0    0 -0.28015205078E+01  0.46481245755E+02 -0.20628661835E+03  0.21147700497E+03  0.00000000000E+00 0. -1.
        -11    1    4    4    0    0  0.31981196675E+02  0.30444414794E+02 -0.35981062892E+02  0.56958723825E+02  0.00000000000E+00 0. -1.
         11    1    4    4    0    0  0.11753330734E+02 -0.29341269718E+02 -0.16015494494E+03  0.16324416461E+03  0.00000000000E+00 0.  1.
          1    1    1    2  501    0 -0.12400345875E+02 -0.23906688670E+02 -0.36909844763E+02  0.45690644353E+02  0.00000000000E+00 0. -1.
<scales pt_clust_5="13000.00000" pt_clust_6="13000.00000" pt_clust_7="13000.00000" pt_clust_8="13000.00000" pt_clust_9="13000.00000"></scales>
<clustering>
<clus scale="   80.914">  5  6 -1 -1</clus>
<clus scale="   89.715">  2  5  1 -1</clus>
<clus scale="   90.034">  7  8 -1 -1</clus>
<clus scale="   26.732">  7  9 -1 -1</clus>
<clus scale="  128.020">  1  5  2 -1</clus>
</clustering>
</event>
<event>
 9    2  0.2147756E-005  0.1591846E+03  0.7546771E-02  0.1210856E+00
          2   -1    0    0  502    0 -0.00000000000E+00  0.00000000000E+00  0.44413617478E+03  0.44413617478E+03  0.00000000000E+00 0. -1.
         21   -1    0    0  501  502  0.00000000000E+00 -0.00000000000E+00 -0.38727797517E+02  0.38727797517E+02  0.00000000000E+00 0. -1.
         24    2    1    2    0    0 -0.54792978579E+02 -0.22566322999E+02  0.19161702196E+03  0.21631853746E+03  0.81025410280E+02 0.  0.
         23    2    1    2    0    0  0.13326664336E+01  0.34326248848E+02  0.10570934258E+03  0.14539254669E+03  0.93725450995E+02 0.  0.
        -11    1    3    3    0    0 -0.17408968406E+02 -0.41093957497E+02  0.43068038286E+02  0.62021298322E+02  0.00000000000E+00 0.  1.
         12    1    3    3    0    0 -0.37384010173E+02  0.18527634498E+02  0.14854898367E+03  0.15429723914E+03  0.00000000000E+00 0. -1.
        -13    1    4    4    0    0  0.36816704575E+02  0.71015714128E-01  0.10693023389E+02  0.38338173251E+02  0.00000000000E+00 0.  1.
         13    1    4    4    0    0 -0.35484038142E+02  0.34255233134E+02  0.95016319186E+02  0.10705437344E+03  0.00000000000E+00 0. -1.
          1    1    1    2  501    0  0.53460312145E+02 -0.11759925849E+02  0.10808201273E+03  0.12115288815E+03  0.00000000000E+00 0. -1.
<scales pt_clust_5="13000.00000" pt_clust_6="13000.00000" pt_clust_7="13000.00000" pt_clust_8="13000.00000" pt_clust_9="13000.00000"></scales>
<clustering>
<clus scale="   81.025">  5  6 -1 -1</clus>
<clus scale="   93.725">  7  8 -1 -1</clus>
<clus scale="   54.739">  7  9 -1 -1</clus>
<clus scale="  100.382">  1  5  2 -1</clus>
<clus scale="  159.185">  2  5  1 -1</clus>
</clustering>
</event>
<event>
 9    2  0.2147756E-005  0.7424218E+03  0.7546771E-02  0.9929064E-01
         21   -1    0    0  501  502  0.00000000000E+00  0.00000000000E+00  0.40379670921E+03  0.40379670921E+03  0.00000000000E+00 0. -1.
          2   -1    0    0  502    0 -0.00000000000E+00 -0.00000000000E+00 -0.91354750523E+03  0.91354750523E+03  0.00000000000E+00 0. -1.
         24    2    1    2    0    0 -0.23921397863E+03 -0.15244799333E+03 -0.49412639833E+03  0.57475802716E+03  0.75645052810E+02 0.  0.
         23    2    1    2    0    0 -0.83749304665E+02 -0.14456344547E+03 -0.18751596238E+03  0.27134549809E+03  0.10273075191E+03 0.  0.
        -13    1    3    3    0    0 -0.13404035454E+03 -0.54221898874E+02 -0.19443341116E+03  0.24230390492E+03  0.00000000000E+00 0.  1.
         14    1    3    3    0    0 -0.10517362409E+03 -0.98226094460E+02 -0.29969298717E+03  0.33245412224E+03  0.00000000000E+00 0. -1.
        -13    1    4    4    0    0 -0.71348329956E+02 -0.67108263762E+02 -0.43124191647E+02  0.10702242362E+03  0.00000000000E+00 0. -1.
         13    1    4    4    0    0 -0.12400974709E+02 -0.77455181707E+02 -0.14439177073E+03  0.16432307446E+03  0.00000000000E+00 0.  1.
          1    1    1    2  501    0  0.32296328329E+03  0.29701143880E+03  0.17189156470E+03  0.47124068919E+03  0.00000000000E+00 0. -1.
<scales pt_clust_5="13000.00000" pt_clust_6="13000.00000" pt_clust_7="13000.00000" pt_clust_8="13000.00000" pt_clust_9="13000.00000"></scales>
<clustering>
<clus scale="   75.645">  5  6 -1 -1</clus>
<clus scale="  102.731">  7  8 -1 -1</clus>
<clus scale="  293.574">  2  5  1 -1</clus>
<clus scale="  329.100">  7  9 -1 -1</clus>
<clus scale="  742.422">  1  5  2 -1</clus>
</clustering>
</event>
<event>
 9    2  0.3884940E-005  0.3894651E+03  0.7546771E-02  0.1091192E+00
          2   -1    0    0  502    0 -0.00000000000E+00  0.00000000000E+00  0.75280313399E+03  0.75280313399E+03  0.00000000000E+00 0. -1.
         21   -1    0    0  501  502  0.00000000000E+00 -0.00000000000E+00 -0.11626619854E+03  0.11626619854E+03  0.00000000000E+00 0. -1.
         24    2    1    2    0    0 -0.51772677193E+02 -0.65554077975E+02  0.39219778183E+03  0.40930341699E+03  0.82051446297E+02 0.  0.
         23    2    1    2    0    0 -0.42125939229E+02 -0.11875553276E+03  0.18791052332E+03  0.24535702325E+03  0.94932780260E+02 0.  0.
        -11    1    3    3    0    0  0.17910563499E+02 -0.12408417969E+02  0.32818415807E+02  0.39392963045E+02  0.00000000000E+00 0.  1.
         12    1    3    3    0    0 -0.69683240691E+02 -0.53145660006E+02  0.35937936602E+03  0.36991045394E+03  0.00000000000E+00 0. -1.
        -13    1    4    4    0    0 -0.23966193175E+02 -0.23209570240E+02  0.12535726902E+03  0.12972088291E+03  0.00000000000E+00 0.  1.
         13    1    4    4    0    0 -0.18159746055E+02 -0.95545962517E+02  0.62553254299E+02  0.11563614034E+03  0.00000000000E+00 0. -1.
          1    1    1    2  501    0  0.93898616422E+02  0.18430961073E+03  0.56428630301E+02  0.21440889229E+03  0.00000000000E+00 0. -1.
<scales pt_clust_5="13000.00000" pt_clust_6="13000.00000" pt_clust_7="13000.00000" pt_clust_8="13000.00000" pt_clust_9="13000.00000"></scales>
<clustering>
<clus scale="   82.051">  5  6 -1 -1</clus>
<clus scale="   94.933">  7  8 -1 -1</clus>
<clus scale="  117.091">  1  5  2 -1</clus>
<clus scale="  175.455">  7  9 -1 -1</clus>
<clus scale="  389.465">  2  5  1 -1</clus>
</clustering>
</event>
<event>
 9    2  0.2147756E-005  0.3633767E+03  0.7546771E-02  0.1111403E+00
         21   -1    0    0  501  502  0.00000000000E+00  0.00000000000E+00  0.12191357135E+03  0.12191357135E+03  0.00000000000E+00 0.  1.
          2   -1    0    0  502    0 -0.00000000000E+00 -0.00000000000E+00 -0.41307855056E+03  0.41307855056E+03  0.00000000000E+00 0. -1.
         24    2    1    2    0    0  0.44263987412E+01  0.29877123072E+02 -0.54227342604E+02  0.10119252249E+03  0.79919249452E+02 0.  0.
         23    2    1    2    0    0  0.16712141158E+02 -0.16370555232E+03 -0.22973817322E+03  0.29812086631E+03  0.94961145606E+02 0.  0.
        -11    1    3    3    0    0  0.41225881353E+02  0.22594377472E+02 -0.22770938765E+02  0.52235953508E+02  0.00000000000E+00 0.  1.
         12    1    3    3    0    0 -0.36799482612E+02  0.72827456004E+01 -0.31456403839E+02  0.48956568981E+02  0.00000000000E+00 0. -1.
        -13    1    4    4    0    0  0.37723924698E+01 -0.81078876444E+02 -0.39410695928E+02  0.90228698893E+02  0.00000000000E+00 0.  1.
         13    1    4    4    0    0  0.12939748688E+02 -0.82626675874E+02 -0.19032747729E+03  0.20789216742E+03  0.00000000000E+00 0. -1.
          1    1    1    2  501    0 -0.21138539899E+02  0.13382842925E+03 -0.71994633825E+01  0.13567873310E+03  0.00000000000E+00 0. -1.
<scales pt_clust_5="13000.00000" pt_clust_6="13000.00000" pt_clust_7="13000.00000" pt_clust_8="13000.00000" pt_clust_9="13000.00000"></scales>
<clustering>
<clus scale="   79.919">  5  6 -1 -1</clus>
<clus scale="   85.436">  2  5  1 -1</clus>
<clus scale="   94.961">  7  8 -1 -1</clus>
<clus scale="  141.640">  7  9 -1 -1</clus>
<clus scale="  363.377">  1  5  2 -1</clus>
</clustering>
</event>
<event>
 9    2  0.2147756E-005  0.4568367E+03  0.7546771E-02  0.1067904E+00
          2   -1    0    0  502    0 -0.00000000000E+00  0.00000000000E+00  0.70951376350E+03  0.70951376350E+03  0.00000000000E+00 0. -1.
         21   -1    0    0  501  502  0.00000000000E+00 -0.00000000000E+00 -0.12411901070E+03  0.12411901070E+03  0.00000000000E+00 0. -1.
         24    2    1    2    0    0  0.87340816694E+02 -0.64378200516E+02  0.15207151592E+03  0.20397508809E+03  0.81897006317E+02 0.  0.
         23    2    1    2    0    0  0.14395736128E+03  0.10317868378E+03  0.29912292302E+03  0.35944656703E+03  0.91420724229E+02 0.  0.
        -13    1    3    3    0    0  0.38787310143E+02 -0.62768330281E+02  0.13238233394E+03  0.15155659357E+03  0.00000000000E+00 0.  1.
         14    1    3    3    0    0  0.48553506551E+02 -0.16098702348E+01  0.19689181978E+02  0.52418494518E+02  0.00000000000E+00 0. -1.
        -11    1    4    4    0    0  0.18457484663E+02  0.97845540116E+01  0.11923488206E+03  0.12105111869E+03  0.00000000000E+00 0.  1.
         11    1    4    4    0    0  0.12549987661E+03  0.93394129769E+02  0.17988804097E+03  0.23839544834E+03  0.00000000000E+00 0. -1.
          1    1    1    2  501    0 -0.23129817797E+03 -0.38800483264E+02  0.13420031386E+03  0.27021111908E+03  0.00000000000E+00 0. -1.
<scales pt_clust_5="13000.00000" pt_clust_6="13000.00000" pt_clust_7="13000.00000" pt_clust_8="13000.00000" pt_clust_9="13000.00000"></scales>
<clustering>
<clus scale="   81.897">  5  6 -1 -1</clus>
<clus scale="   91.421">  7  8 -1 -1</clus>
<clus scale="  135.941">  1  5  2 -1</clus>
<clus scale="  207.936">  7  9 -1 -1</clus>
<clus scale="  456.837">  2  5  1 -1</clus>
</clustering>
</event>
<event>
 9    2  0.2147756E-005  0.3507047E+03  0.7546771E-02  0.1080815E+00
         21   -1    0    0  501  502  0.00000000000E+00  0.00000000000E+00  0.81045573852E+02  0.81045573852E+02  0.00000000000E+00 0. -1.
          4   -1    0    0  502    0 -0.00000000000E+00 -0.00000000000E+00 -0.11538145249E+04  0.11538145249E+04  0.00000000000E+00 0. -1.
         24    2    1    2    0    0 -0.18535749801E+03 -0.61842996086E+02 -0.66097869409E+03  0.69396734277E+03  0.80721004467E+02 0.  0.
         23    2    1    2    0    0  0.40296061776E+01 -0.17151099461E+02 -0.90009232952E+01  0.92162192279E+02  0.90013638560E+02 0.  0.
        -11    1    3    3    0    0 -0.33937917354E+02  0.19703265832E+02 -0.11161117243E+03  0.11830914897E+03  0.00000000000E+00 0.  1.
         12    1    3    3    0    0 -0.15141958065E+03 -0.81546261917E+02 -0.54936752166E+03  0.57565819380E+03  0.00000000000E+00 0. -1.
        -11    1    4    4    0    0  0.38601004084E+02 -0.22593320032E+02 -0.27572488344E+02  0.52542722996E+02  0.00000000000E+00 0. -1.
         11    1    4    4    0    0 -0.34571397906E+02  0.54422205704E+01  0.18571565049E+02  0.39619469283E+02  0.00000000000E+00 0.  1.
          3    1    1    2  501    0  0.18132789183E+03  0.78994095547E+02 -0.40278933368E+03  0.44873056371E+03  0.00000000000E+00 0. -1.
<scales pt_clust_5="13000.00000" pt_clust_6="13000.00000" pt_clust_7="13000.00000" pt_clust_8="13000.00000" pt_clust_9="13000.00000"></scales>
<clustering>
<clus scale="   80.721">  5  6 -1 -1</clus>
<clus scale="   90.014">  7  8 -1 -1</clus>
<clus scale="  197.788">  7  9 -1 -1</clus>
<clus scale="  211.419">  2  5  1 -1</clus>
<clus scale="  350.705">  1  5  2 -1</clus>
</clustering>
</event>
<event>
 9    2  0.2147756E-005  0.1907274E+03  0.7546771E-02  0.1186436E+00
         21   -1    0    0  501  502  0.00000000000E+00  0.00000000000E+00  0.14328379999E+03  0.14328379999E+03  0.00000000000E+00 0. -1.
          2   -1    0    0  502    0 -0.00000000000E+00 -0.00000000000E+00 -0.23673066968E+03  0.23673066968E+03  0.00000000000E+00 0. -1.
         24    2    1    2    0    0  0.39827359948E+02  0.21348523392E+02 -0.15105223160E+03  0.18077759294E+03  0.88440846811E+02 0.  0.
         23    2    1    2    0    0  0.20027400498E+01  0.43377452338E+02 -0.25228939885E+01  0.10148915882E+03  0.91695528928E+02 0.  0.
        -13    1    3    3    0    0  0.79505670662E+01  0.39913936393E+02 -0.21403779312E+02  0.45983210022E+02  0.00000000000E+00 0.  1.
         14    1    3    3    0    0  0.31876792882E+02 -0.18565413001E+02 -0.12964845229E+03  0.13479438291E+03  0.00000000000E+00 0. -1.
        -13    1    4    4    0    0 -0.19693867541E+02  0.15798449984E+02  0.39414468277E+02  0.46807475366E+02  0.00000000000E+00 0. -1.
         13    1    4    4    0    0  0.21696607591E+02  0.27579002354E+02 -0.41937362266E+02  0.54681683456E+02  0.00000000000E+00 0.  1.
          1    1    1    2  501    0 -0.41830099998E+02 -0.64725975729E+02  0.60128255900E+02  0.97747717914E+02  0.00000000000E+00 0. -1.
<scales pt_clust_5="13000.00000" pt_clust_6="13000.00000" pt_clust_7="13000.00000" pt_clust_8="13000.00000" pt_clust_9="13000.00000"></scales>
<clustering>
<clus scale="   88.441">  5  6 -1 -1</clus>
<clus scale="   91.696">  7  8 -1 -1</clus>
<clus scale="   77.066">  7  9 -1 -1</clus>
<clus scale="   99.316">  2  5  1 -1</clus>
<clus scale="  190.727">  1  5  2 -1</clus>
</clustering>
</event>
<event>
 9    2  0.2147756E-005  0.4075949E+03  0.7546771E-02  0.1090788E+00
         -3   -1    0    0    0  501 -0.00000000000E+00  0.00000000000E+00  0.21650077391E+03  0.21650077391E+03  0.00000000000E+00 0.  1.
         21   -1    0    0  501  502  0.00000000000E+00 -0.00000000000E+00 -0.30336623210E+03  0.30336623210E+03  0.00000000000E+00 0.  1.
         24    2    1    2    0    0 -0.35840097555E+01  0.64706650334E+02 -0.34843340689E+02  0.10896563713E+03  0.80371984934E+02 0.  0.
         23    2    1    2    0    0 -0.74986176038E+01  0.14505881793E+03 -0.94747587104E+02  0.19654222619E+03  0.92484871665E+02 0.  0.
        -11    1    3    3    0    0  0.29631575707E+02  0.57839021031E+02 -0.75398671075E+01  0.65423483771E+02  0.00000000000E+00 0.  1.
         12    1    3    3    0    0 -0.33215585463E+02  0.68676293035E+01 -0.27303473581E+02  0.43542153363E+02  0.00000000000E+00 0. -1.
        -11    1    4    4    0    0 -0.43912217893E+02  0.11702910125E+03 -0.79454991384E+02  0.14811208281E+03  0.00000000000E+00 0.  1.
         11    1    4    4    0    0  0.36413600289E+02  0.28029716682E+02 -0.15292595720E+02  0.48430143373E+02  0.00000000000E+00 0. -1.
         -4    1    1    2    0  502  0.11082627359E+02 -0.20976546826E+03  0.42725469605E+02  0.21435914270E+03  0.00000000000E+00 0.  1.
<scales pt_clust_5="13000.00000" pt_clust_6="13000.00000" pt_clust_7="13000.00000" pt_clust_8="13000.00000" pt_clust_9="13000.00000"></scales>
<clustering>
<clus scale="   80.372">  5  6 -1 -1</clus>
<clus scale="   92.485">  7  8 -1 -1</clus>
<clus scale="  103.245">  1  5  2 -1</clus>
<clus scale="  163.634">  7  9 -1 -1</clus>
<clus scale="  407.595">  2  5  1 -1</clus>
</clustering>
</event>
<event>
 9    2  0.2147756E-005  0.2285069E+03  0.7546771E-02  0.1147628E+00
          4   -1    0    0  502    0 -0.00000000000E+00  0.00000000000E+00  0.69085727494E+03  0.69085727494E+03  0.00000000000E+00 0. -1.
         21   -1    0    0  501  502  0.00000000000E+00 -0.00000000000E+00 -0.52276879526E+02  0.52276879526E+02  0.00000000000E+00 0.  1.
         24    2    1    2    0    0  0.72256201100E+02 -0.84402008202E+02  0.16308828765E+03  0.21558494452E+03  0.86801043475E+02 0.  0.
         23    2    1    2    0    0 -0.48711959720E+02  0.13124345209E+03  0.40790226741E+03  0.44201068829E+03  0.96909700592E+02 0.  0.
        -11    1    3    3    0    0  0.89120383694E+02 -0.65975628980E+02  0.15226807993E+03  0.18836346401E+03  0.00000000000E+00 0.  1.
         12    1    3    3    0    0 -0.16864182595E+02 -0.18426379221E+02  0.10820207720E+02  0.27221480505E+02  0.00000000000E+00 0. -1.
        -11    1    4    4    0    0 -0.12226424253E+02  0.77933140040E+02  0.33692539256E+03  0.34603725221E+03  0.00000000000E+00 0. -1.
         11    1    4    4    0    0 -0.36485535467E+02  0.53310312054E+02  0.70976874851E+02  0.95973436081E+02  0.00000000000E+00 0.  1.
          3    1    1    2  501    0 -0.23544241380E+02 -0.46841443892E+02  0.67589840356E+02  0.85538521658E+02  0.00000000000E+00 0. -1.
<scales pt_clust_5="13000.00000" pt_clust_6="13000.00000" pt_clust_7="13000.00000" pt_clust_8="13000.00000" pt_clust_9="13000.00000"></scales>
<clustering>
<clus scale="   86.801">  5  6 -1 -1</clus>
<clus scale="   96.910">  7  8 -1 -1</clus>
<clus scale="   52.426">  7  9 -1 -1</clus>
<clus scale="  140.993">  1  5  2 -1</clus>
<clus scale="  228.507">  2  5  1 -1</clus>
</clustering>
</event>
<event>
 9    2  0.2147756E-005  0.2875798E+03  0.7546771E-02  0.1137068E+00
          2   -1    0    0  502    0 -0.00000000000E+00  0.00000000000E+00  0.76017370488E+03  0.76017370488E+03  0.00000000000E+00 0. -1.
         21   -1    0    0  501  502  0.00000000000E+00 -0.00000000000E+00 -0.10387165864E+03  0.10387165864E+03  0.00000000000E+00 0.  1.
         24    2    1    2    0    0  0.38789183403E+02  0.62889119534E+01  0.54991357410E+03  0.55741745956E+03  0.82250435095E+02 0.  0.
         23    2    1    2    0    0 -0.94414974070E+02 -0.10892872022E+03  0.52007154239E+02  0.17783936967E+03  0.90235491330E+02 0.  0.
        -13    1    3    3    0    0  0.16490850249E+02 -0.21481723655E+02  0.55826597176E+02  0.62048541848E+02  0.00000000000E+00 0.  1.
         14    1    3    3    0    0  0.22298333153E+02  0.27770635609E+02  0.49408697693E+03  0.49536891771E+03  0.00000000000E+00 0. -1.
        -13    1    4    4    0    0 -0.27066840650E+02 -0.98197773043E+02  0.30331531494E+02  0.10627990542E+03  0.00000000000E+00 0. -1.
         13    1    4    4    0    0 -0.67348133420E+02 -0.10730947177E+02  0.21675622745E+02  0.71559464250E+02  0.00000000000E+00 0.  1.
          1    1    1    2  501    0  0.55625790667E+02  0.10263980827E+03  0.54381317901E+02  0.12878853429E+03  0.00000000000E+00 0. -1.
<scales pt_clust_5="13000.00000" pt_clust_6="13000.00000" pt_clust_7="13000.00000" pt_clust_8="13000.00000" pt_clust_9="13000.00000"></scales>
<clustering>
<clus scale="   82.250">  5  6 -1 -1</clus>
<clus scale="   90.235">  7  8 -1 -1</clus>
<clus scale="   91.155">  1  5  2 -1</clus>
<clus scale="  128.138">  7  9 -1 -1</clus>
<clus scale="  287.580">  2  5  1 -1</clus>
</clustering>
</event>
<event>
 9    2  0.2601597E-005  0.5473431E+03  0.7546771E-02  0.1038427E+00
         21   -1    0    0  501  502  0.00000000000E+00  0.00000000000E+00  0.90949900456E+02  0.90949900456E+02  0.00000000000E+00 0. -1.
          2   -1    0    0  502    0 -0.00000000000E+00 -0.00000000000E+00 -0.14741346592E+04  0.14741346592E+04  0.00000000000E+00 0. -1.
         24    2    1    2    0    0 -0.16402775259E+03  0.62951278308E+00 -0.40531340071E+03  0.44445222008E+03  0.79707736317E+02 0.  0.
         23    2    1    2    0    0 -0.17849128309E+03 -0.53760055521E+01 -0.43820033437E+03  0.48142452300E+03  0.88667912644E+02 0.  0.
        -11    1    3    3    0    0 -0.87731987799E+02  0.36771304962E+02 -0.25323147697E+03  0.27050917079E+03  0.00000000000E+00 0.  1.
         12    1    3    3    0    0 -0.76295764792E+02 -0.36141792179E+02 -0.15208192374E+03  0.17394304929E+03  0.00000000000E+00 0. -1.
        -11    1    4    4    0    0 -0.73169673124E+02 -0.36496388045E+02 -0.25541403468E+03  0.26818299073E+03  0.00000000000E+00 0.  1.
         11    1    4    4    0    0 -0.10532160996E+03  0.31120382493E+02 -0.18278629969E+03  0.21324153227E+03  0.00000000000E+00 0. -1.
          1    1    1    2  501    0  0.34251903568E+03  0.47464927690E+01 -0.53967102368E+03  0.63920781659E+03  0.00000000000E+00 0. -1.
<scales pt_clust_5="13000.00000" pt_clust_6="13000.00000" pt_clust_7="13000.00000" pt_clust_8="13000.00000" pt_clust_9="13000.00000"></scales>
<clustering>
<clus scale="   79.708">  5  6 -1 -1</clus>
<clus scale="   88.668">  7  8 -1 -1</clus>
<clus scale="  182.370">  2  5  1 -1</clus>
<clus scale="  250.425">  7  9 -1 -1</clus>
<clus scale="  547.343">  1  5  2 -1</clus>
</clustering>
</event>
<event>
 9    2  0.2147756E-005  0.2244564E+03  0.7546771E-02  0.1154804E+00
         -3   -1    0    0    0  501 -0.00000000000E+00  0.00000000000E+00  0.32925535708E+03  0.32925535708E+03  0.00000000000E+00 0.  1.
         21   -1    0    0  501  502  0.00000000000E+00 -0.00000000000E+00 -0.22689467382E+03  0.22689467382E+03  0.00000000000E+00 0.  1.
         24    2    1    2    0    0 -0.58260267439E+02 -0.77333188591E+02  0.25532839539E+03  0.28452567296E+03  0.79922388992E+02 0.  0.
         23    2    1    2    0    0  0.14867888616E+02  0.41711939892E+02  0.94863378183E+01  0.99743322805E+02  0.88869566205E+02 0.  0.
        -13    1    3    3    0    0 -0.60769208864E+02 -0.46139541246E+02  0.23532221359E+03  0.24738289800E+03  0.00000000000E+00 0.  1.
         14    1    3    3    0    0  0.25089414242E+01 -0.31193647345E+02  0.20006181794E+02  0.37142774960E+02  0.00000000000E+00 0. -1.
        -13    1    4    4    0    0 -0.30850949306E+02 -0.77605572360E+01  0.79304607725E+00  0.31821945946E+02  0.00000000000E+00 0.  1.
         13    1    4    4    0    0  0.45718837923E+02  0.49472497128E+02  0.86932917411E+01  0.67921376858E+02  0.00000000000E+00 0. -1.
         -4    1    1    2    0  502  0.43392378823E+02  0.35621248699E+02 -0.16245404994E+03  0.17188103514E+03  0.00000000000E+00 0.  1.
<scales pt_clust_5="13000.00000" pt_clust_6="13000.00000" pt_clust_7="13000.00000" pt_clust_8="13000.00000" pt_clust_9="13000.00000"></scales>
<clustering>
<clus scale="   79.922">  5  6 -1 -1</clus>
<clus scale="   88.870">  7  8 -1 -1</clus>
<clus scale="   56.141">  7  9 -1 -1</clus>
<clus scale="  125.548">  1  5  2 -1</clus>
<clus scale="  224.456">  2  5  1 -1</clus>
</clustering>
</event>
<event>
 9    2  0.2147756E-005  0.4939583E+03  0.7546771E-02  0.1053247E+00
          2   -1    0    0  502    0 -0.00000000000E+00  0.00000000000E+00  0.18197666450E+04  0.18197666450E+04  0.00000000000E+00 0. -1.
         21   -1    0    0  501  502  0.00000000000E+00 -0.00000000000E+00 -0.11945732750E+03  0.11945732750E+03  0.00000000000E+00 0. -1.
         24    2    1    2    0    0 -0.13676944393E+03  0.32591061552E+02  0.12812594123E+04  0.12914604258E+04  0.80475412067E+02 0.  0.
         23    2    1    2    0    0 -0.35774196533E+02  0.15135329515E+03  0.33321950939E+03  0.38135466719E+03  0.10103725878E+03 0.  0.
        -13    1    3    3    0    0 -0.53834556919E+02  0.17183550954E+02  0.23071886825E+03  0.23753869182E+03  0.00000000000E+00 0.  1.
         14    1    3    3    0    0 -0.82934887007E+02  0.15407510599E+02  0.10505405440E+04  0.10539217340E+04  0.00000000000E+00 0. -1.
        -11    1    4    4    0    0  0.28094369338E+02  0.10189524638E+02  0.42993388727E+02  0.52359826920E+02  0.00000000000E+00 0.  1.
         11    1    4    4    0    0 -0.63868565871E+02  0.14116377051E+03  0.29022612066E+03  0.32899484027E+03  0.00000000000E+00 0. -1.
          1    1    1    2  501    0  0.17254364046E+03 -0.18394435670E+03  0.85830395899E+02  0.26640887951E+03  0.00000000000E+00 0. -1.
<scales pt_clust_5="13000.00000" pt_clust_6="13000.00000" pt_clust_7="13000.00000" pt_clust_8="13000.00000" pt_clust_9="13000.00000"></scales>
<clustering>
<clus scale="   80.475">  5  6 -1 -1</clus>
<clus scale="  101.037">  7  8 -1 -1</clus>
<clus scale="  162.001">  1  5  2 -1</clus>
<clus scale="  214.987">  7  9 -1 -1</clus>
<clus scale="  493.958">  2  5  1 -1</clus>
</clustering>
</event>
<event>
 9    2  0.2147756E-005  0.4999571E+03  0.7546771E-02  0.1077027E+00
         21   -1    0    0  501  502  0.00000000000E+00  0.00000000000E+00  0.47726150171E+02  0.47726150171E+02  0.00000000000E+00 0.  1.
          2   -1    0    0  502    0 -0.00000000000E+00 -0.00000000000E+00 -0.17833864087E+04  0.17833864087E+04  0.00000000000E+00 0. -1.
         24    2    1    2    0    0  0.13531845852E+02 -0.81603262231E+01 -0.18613178228E+03  0.20292473011E+03  0.79269817322E+02 0.  0.
         23    2    1    2    0    0 -0.59091908043E+02  0.22709587266E+03 -0.56464114189E+03  0.61823161479E+03  0.91248679122E+02 0.  0.
        -13    1    3    3    0    0  0.44731581674E+02  0.61001664690E+01 -0.86838264266E+02  0.97872419868E+02  0.00000000000E+00 0.  1.
         14    1    3    3    0    0 -0.31199735821E+02 -0.14260492692E+02 -0.99293518015E+02  0.10505231024E+03  0.00000000000E+00 0. -1.
        -11    1    4    4    0    0 -0.16446939277E+02  0.18964919239E+03 -0.47954786654E+03  0.51594910048E+03  0.00000000000E+00 0.  1.
         11    1    4    4    0    0 -0.42644968765E+02  0.37446680271E+02 -0.85093275352E+02  0.10228251431E+03  0.00000000000E+00 0. -1.
          1    1    1    2  501    0  0.45560062190E+02 -0.21893554643E+03 -0.98488733439E+03  0.10099562140E+04  0.00000000000E+00 0. -1.
<scales pt_clust_5="13000.00000" pt_clust_6="13000.00000" pt_clust_7="13000.00000" pt_clust_8="13000.00000" pt_clust_9="13000.00000"></scales>
<clustering>
<clus scale="   79.270">  5  6 -1 -1</clus>
<clus scale="   80.830">  2  5  1 -1</clus>
<clus scale="   91.249">  7  8 -1 -1</clus>
<clus scale="  230.487">  7  9 -1 -1</clus>
<clus scale="  499.957">  1  5  2 -1</clus>
</clustering>
</event>
<event>
 9    2  0.2147756E-005  0.2327618E+03  0.7546771E-02  0.1166960E+00
         21   -1    0    0  501  502  0.00000000000E+00  0.00000000000E+00  0.25083801266E+02  0.25083801266E+02  0.00000000000E+00 0. -1.
          2   -1    0    0  502    0 -0.00000000000E+00 -0.00000000000E+00 -0.10195880937E+04  0.10195880937E+04  0.00000000000E+00 0. -1.
         24    2    1    2    0    0  0.26613226574E+02 -0.52072766096E+01 -0.21455790972E+03  0.23073429456E+03  0.80422872999E+02 0.  0.
         23    2    1    2    0    0  0.18599951645E+01 -0.64105272100E+02 -0.19920622111E+03  0.22838308624E+03  0.91448182372E+02 0.  0.
        -13    1    3    3    0    0 -0.75069907690E+01  0.25015164758E+02 -0.14658552824E+03  0.14889402428E+03  0.00000000000E+00 0.  1.
         14    1    3    3    0    0  0.34120217343E+02 -0.30222441367E+02 -0.67972381485E+02  0.81840270274E+02  0.00000000000E+00 0. -1.
        -13    1    4    4    0    0 -0.22399105238E+02 -0.78075094852E+02 -0.16704022752E+03  0.18574142769E+03  0.00000000000E+00 0. -1.
         13    1    4    4    0    0  0.24259100403E+02  0.13969822752E+02 -0.32165993588E+02  0.42641658546E+02  0.00000000000E+00 0.  1.
          1    1    1    2  501    0 -0.28473221739E+02  0.69312548710E+02 -0.58074016157E+03  0.58555451414E+03  0.00000000000E+00 0. -1.
<scales pt_clust_5="13000.00000" pt_clust_6="13000.00000" pt_clust_7="13000.00000" pt_clust_8="13000.00000" pt_clust_9="13000.00000"></scales>
<clustering>
<clus scale="   80.423">  5  6 -1 -1</clus>
<clus scale="   84.872">  2  5  1 -1</clus>
<clus scale="   91.448">  7  8 -1 -1</clus>
<clus scale="   66.118">  7  9 -1 -1</clus>
<clus scale="  232.762">  1  5  2 -1</clus>
</clustering>
</event>
