<event>
10    3  0.7209067E-005  0.1277865E+03  0.7546771E-02  0.1235319E+00
         21   -1    0    0  501  502  0.00000000000E+00  0.00000000000E+00  0.16311964220E+03  0.16311964220E+03  0.00000000000E+00 0. -1.
          1   -1    0    0  503    0 -0.00000000000E+00 -0.00000000000E+00 -0.17806092052E+03  0.17806092052E+03  0.00000000000E+00 0. -1.
         23    2    1    2    0    0 -0.76375688846E+02 -0.53161861044E+02 -0.43358364022E+02  0.13979379773E+03  0.94883764872E+02 0.  0.
        -24    2    1    2    0    0  0.71676967583E+02  0.30882756591E+02 -0.17049005937E+01  0.11098537456E+03  0.78889253669E+02 0.  0.
         13    1    4    4    0    0  0.87227351083E+01  0.44235065803E+02  0.83393100178E+01  0.45851622065E+02  0.00000000000E+00 0. -1.
        -14    1    4    4    0    0  0.62954232475E+02 -0.13352309213E+02 -0.10044210612E+02  0.65133752499E+02  0.00000000000E+00 0.  1.
        -11    1    3    3    0    0 -0.22603834703E+02 -0.22801668344E+02 -0.66503279099E+02  0.73848057209E+02  0.00000000000E+00 0.  1.
         11    1    3    3    0    0 -0.53771854144E+02 -0.30360192699E+02  0.23144915077E+02  0.65945740520E+02  0.00000000000E+00 0. -1.
         21    1    1    2  503  502 -0.33880604536E+02 -0.50116603395E+01  0.25933403508E+02  0.42959905966E+02  0.00000000000E+00 0. -1.
          2    1    1    2  501    0  0.38579325799E+02  0.27290764792E+02  0.41885827929E+01  0.47441484461E+02  0.00000000000E+00 0. -1.
<scales pt_clust_5="13000.00000" pt_clust_6="13000.00000" pt_clust_7="13000.00000" pt_clust_8="13000.00000" pt_clust_9="34.24926" pt_clust_10="41.24335"></scales>
<clustering>
<clus scale="   34.249">  1  9  2 -1</clus>
<clus scale="   41.243">  1 10  2 -1</clus>
<clus scale="   78.889">  5  6 -1 -1</clus>
<clus scale="   94.884">  7  8 -1 -1</clus>
<clus scale="  116.404">  1  5  2 -1</clus>
<clus scale="   34.249">  1  5  2 -1</clus>
</clustering>
</event>
<event>
10    3  0.7209067E-005  0.2514010E+03  0.7546771E-02  0.1140704E+00
         -2   -1    0    0    0  501 -0.00000000000E+00  0.00000000000E+00  0.85733181134E+03  0.85733181134E+03  0.00000000000E+00 0.  1.
         21   -1    0    0  503  502  0.00000000000E+00 -0.00000000000E+00 -0.17219865975E+03  0.17219865975E+03  0.00000000000E+00 0.  1.
        -24    2    1    2    0    0 -0.98110068964E+02 -0.15591248038E+02  0.10429781469E+03  0.16457207295E+03  0.79606911740E+02 0.  0.
         23    2    1    2    0    0 -0.16958933775E+03 -0.21021882713E+02  0.47734503271E+03  0.51525628598E+03  0.91805756645E+02 0.  0.
         11    1    3    3    0    0 -0.39050801087E+02 -0.44199445982E+02  0.66318907407E+02  0.88751076446E+02  0.00000000000E+00 0. -1.
        -12    1    3    3    0    0 -0.59059267877E+02  0.28608197944E+02  0.37978907286E+02  0.75820996501E+02  0.00000000000E+00 0.  1.
        -13    1    4    4    0    0 -0.89957818828E+02  0.28891275945E+02  0.17824244570E+03  0.20173617534E+03  0.00000000000E+00 0. -1.
         13    1    4    4    0    0 -0.79631518922E+02 -0.49913158658E+02  0.29910258701E+03  0.31352011063E+03  0.00000000000E+00 0.  1.
         21    1    1    2  503  501  0.89186792380E+01  0.29479103659E+02 -0.42507394219E+02  0.52492275195E+02  0.00000000000E+00 0.  1.
         -1    1    1    2    0  502  0.25878072748E+03  0.71340270918E+01  0.14599769840E+03  0.29720983697E+03  0.00000000000E+00 0.  1.
<scales pt_clust_5="13000.00000" pt_clust_6="13000.00000" pt_clust_7="13000.00000" pt_clust_8="13000.00000" pt_clust_9="30.79871" pt_clust_10="234.03878"></scales>
<clustering>
<clus scale="   30.799">  2  9  1 -1</clus>
<clus scale="   79.607">  5  6 -1 -1</clus>
<clus scale="   91.806">  7  8 -1 -1</clus>
<clus scale="  124.965">  1  5  2 -1</clus>
<clus scale="  234.039">  2 10  1 -1</clus>
<clus scale="   30.799">  2  5  1 -1</clus>
</clustering>
</event>
<event>
10    3  0.7209067E-005  0.1373836E+03  0.7546771E-02  0.1236770E+00
         21   -1    0    0  501  502  0.00000000000E+00  0.00000000000E+00  0.21252781182E+03  0.21252781182E+03  0.00000000000E+00 0. -1.
          1   -1    0    0  503    0 -0.00000000000E+00 -0.00000000000E+00 -0.18764614663E+03  0.18764614663E+03  0.00000000000E+00 0. -1.
        -24    2    1    2    0    0  0.37989172883E+02  0.20869148353E+02  0.49143429142E+01  0.91336420098E+02  0.80246447029E+02 0.  0.
         23    2    1    2    0    0  0.74122975297E+02 -0.12945413761E+02 -0.58783157561E+02  0.13152524259E+03  0.90452366591E+02 0.  0.
         11    1    3    3    0    0  0.11102418396E+02 -0.19254255429E+02  0.29663031631E+02  0.37065961365E+02  0.00000000000E+00 0. -1.
        -12    1    3    3    0    0  0.26886754487E+02  0.40123403782E+02 -0.24748688717E+02  0.54270458733E+02  0.00000000000E+00 0.  1.
        -13    1    4    4    0    0  0.64169578607E+01  0.21035957458E+02  0.14324653471E+02  0.26246610284E+02  0.00000000000E+00 0.  1.
         13    1    4    4    0    0  0.67706017437E+02 -0.33981371218E+02 -0.73107811032E+02  0.10527863231E+03  0.00000000000E+00 0. -1.
         21    1    1    2  503  502  0.69433143751E+01 -0.19666718688E+02  0.50141110749E+02  0.54305804714E+02  0.00000000000E+00 0. -1.
          2    1    1    2  501    0 -0.11905546255E+03  0.11742984095E+02  0.28609369084E+02  0.12300649104E+03  0.00000000000E+00 0. -1.
<scales pt_clust_5="13000.00000" pt_clust_6="13000.00000" pt_clust_7="13000.00000" pt_clust_8="13000.00000" pt_clust_9="20.85640" pt_clust_10="103.40508"></scales>
<clustering>
<clus scale="   20.856">  1  9  2 -1</clus>
<clus scale="   80.246">  5  6 -1 -1</clus>
<clus scale="   90.452">  7  8 -1 -1</clus>
<clus scale="   90.936">  2  5  1 -1</clus>
<clus scale="  103.405">  1 10  2 -1</clus>
<clus scale="   20.856">  1  5  2 -1</clus>
</clustering>
</event>
<event>
10    3  0.7209067E-005  0.1745972E+03  0.7546771E-02  0.1174412E+00
         21   -1    0    0  503  502  0.00000000000E+00  0.00000000000E+00  0.21510721680E+03  0.21510721680E+03  0.00000000000E+00 0. -1.
          1   -1    0    0  502    0 -0.00000000000E+00 -0.00000000000E+00 -0.67234209209E+03  0.67234209209E+03  0.00000000000E+00 0. -1.
         23    2    1    2    0    0  0.73948598610E+02  0.94001482273E+02 -0.22240598244E+03  0.26907410052E+03  0.92907355135E+02 0.  0.
        -24    2    1    2    0    0 -0.89983411171E+02 -0.16031984255E+03 -0.32245741621E+03  0.38038573152E+03  0.83156799323E+02 0.  0.
         13    1    4    4    0    0 -0.93249629987E+02 -0.84524906501E+02 -0.19681271080E+03  0.23361334818E+03  0.00000000000E+00 0. -1.
        -14    1    4    4    0    0  0.32662188163E+01 -0.75794936047E+02 -0.12564470541E+03  0.14677238334E+03  0.00000000000E+00 0.  1.
        -11    1    3    3    0    0  0.23048001705E+02  0.89221171167E+02 -0.97731433142E+02  0.13432446088E+03  0.00000000000E+00 0.  1.
         11    1    3    3    0    0  0.50900596905E+02  0.47803111066E+01 -0.12467454930E+03  0.13474963963E+03  0.00000000000E+00 0. -1.
         21    1    1    2  503  501  0.30820777218E+01  0.25606687824E+02  0.15559104168E+03  0.15771421596E+03  0.00000000000E+00 0. -1.
          2    1    1    2  501    0  0.12952734839E+02  0.40711672451E+02 -0.67962518325E+02  0.80275260889E+02  0.00000000000E+00 0. -1.
<scales pt_clust_5="13000.00000" pt_clust_6="13000.00000" pt_clust_7="13000.00000" pt_clust_8="13000.00000" pt_clust_9="25.79150" pt_clust_10="45.39373"></scales>
<clustering>
<clus scale="   25.792">  1  9  2 -1</clus>
<clus scale="   45.394">  1 10  2 -1</clus>
<clus scale="   83.157">  5  6 -1 -1</clus>
<clus scale="   92.907">  7  8 -1 -1</clus>
<clus scale="  169.610">  1  5  2 -1</clus>
<clus scale="   25.792">  1  5  2 -1</clus>
</clustering>
</event>
<event>
10    3  0.7209067E-005  0.9416863E+02  0.7546771E-02  0.1301646E+00
         21   -1    0    0  501  502  0.00000000000E+00  0.00000000000E+00  0.54461948612E+03  0.54461948612E+03  0.00000000000E+00 0. -1.
          1   -1    0    0  503    0 -0.00000000000E+00 -0.00000000000E+00 -0.17317598283E+03  0.17317598283E+03  0.00000000000E+00 0. -1.
         23    2    1    2    0    0 -0.20476244694E+02  0.10763397624E+02 -0.14303760608E+03  0.17116905243E+03  0.91126068903E+02 0.  0.
        -24    2    1    2    0    0  0.34211246030E+02  0.64621289339E+00  0.14318332611E+03  0.16601598277E+03  0.76739916032E+02 0.  0.
         11    1    4    4    0    0 -0.27358772417E+01  0.33267790158E+02  0.72836633042E+02  0.80121195692E+02  0.00000000000E+00 0. -1.
        -12    1    4    4    0    0  0.36947123272E+02 -0.32621577264E+02  0.70346693070E+02  0.85894787078E+02  0.00000000000E+00 0.  1.
        -13    1    3    3    0    0  0.32867659812E+02  0.21636388866E+02 -0.54216050504E+02  0.66991018181E+02  0.00000000000E+00 0.  1.
         13    1    3    3    0    0 -0.53343904505E+02 -0.10872991242E+02 -0.88821555573E+02  0.10417803425E+03  0.00000000000E+00 0. -1.
         21    1    1    2  503  502  0.27292129473E+02  0.14336598642E+02  0.20827423725E+03  0.21054347840E+03  0.00000000000E+00 0. -1.
          2    1    1    2  501    0 -0.41027130810E+02 -0.25746209159E+02  0.16302354600E+03  0.17006695534E+03  0.00000000000E+00 0. -1.
<scales pt_clust_5="13000.00000" pt_clust_6="13000.00000" pt_clust_7="13000.00000" pt_clust_8="13000.00000" pt_clust_9="30.82853" pt_clust_10="33.18557"></scales>
<clustering>
<clus scale="   30.829">  1  9  2 -1</clus>
<clus scale="   33.186">  1 10  2 -1</clus>
<clus scale="   76.740">  5  6 -1 -1</clus>
<clus scale="   80.329">  1  5  2 -1</clus>
<clus scale="   91.126">  7  8 -1 -1</clus>
<clus scale="   30.829">  1  5  2 -1</clus>
</clustering>
</event>
<event>
10    3  0.7209067E-005  0.9138902E+02  0.7546771E-02  0.1304693E+00
         21   -1    0    0  501  502  0.00000000000E+00  0.00000000000E+00  0.65794047573E+02  0.65794047573E+02  0.00000000000E+00 0. -1.
          1   -1    0    0  503    0 -0.00000000000E+00 -0.00000000000E+00 -0.39471540384E+03  0.39471540384E+03  0.00000000000E+00 0. -1.
        -24    2    1    2    0    0 -0.19967226789E+02 -0.21210480826E+01 -0.22820163122E+03  0.24254925460E+03  0.79692957171E+02 0.  0.
         23    2    1    2    0    0  0.34762376832E+02 -0.55305097972E+02 -0.46503488093E+02  0.11927212946E+03  0.88296034769E+02 0.  0.
         13    1    3    3    0    0 -0.49320559052E+02  0.75287996694E+01 -0.16165501885E+03  0.16917903384E+03  0.00000000000E+00 0. -1.
        -14    1    3    3    0    0  0.29353332263E+02 -0.96498477520E+01 -0.66546612367E+02  0.73370220758E+02  0.00000000000E+00 0.  1.
        -13    1    4    4    0    0  0.12407548996E+02 -0.65698647031E+02 -0.61141465663E+02  0.90600984085E+02  0.00000000000E+00 0. -1.
         13    1    4    4    0    0  0.22354827836E+02  0.10393549059E+02  0.14637977570E+02  0.28671145373E+02  0.00000000000E+00 0.  1.
         21    1    1    2  503  502 -0.31928680099E+02  0.15094016812E+02 -0.14542406270E+02  0.38193605964E+02  0.00000000000E+00 0. -1.
          2    1    1    2  501    0  0.17133530056E+02  0.42332129243E+02 -0.39673830686E+02  0.60494461397E+02  0.00000000000E+00 0. -1.
<scales pt_clust_5="13000.00000" pt_clust_6="13000.00000" pt_clust_7="13000.00000" pt_clust_8="13000.00000" pt_clust_9="35.31671" pt_clust_10="46.55572"></scales>
<clustering>
<clus scale="   35.317">  1  9  2 -1</clus>
<clus scale="   46.556">  1 10  2 -1</clus>
<clus scale="   79.693">  5  6 -1 -1</clus>
<clus scale="   83.107">  2  5  1 -1</clus>
<clus scale="   88.296">  7  8 -1 -1</clus>
<clus scale="   35.317">  1  5  2 -1</clus>
</clustering>
</event>
<event>
10    3  0.7209067E-005  0.1240642E+03  0.7546771E-02  0.1240139E+00
         21   -1    0    0  501  502  0.00000000000E+00  0.00000000000E+00  0.14017882696E+03  0.14017882696E+03  0.00000000000E+00 0. -1.
          1   -1    0    0  503    0 -0.00000000000E+00 -0.00000000000E+00 -0.32867048862E+03  0.32867048862E+03  0.00000000000E+00 0. -1.
        -24    2    1    2    0    0  0.54414052815E+02 -0.15910816124E+02 -0.10614002160E+03  0.14525835774E+03  0.81364876295E+02 0.  0.
         23    2    1    2    0    0 -0.10199372499E+03 -0.16322889159E+02 -0.58232554179E+02  0.15092862039E+03  0.93376985596E+02 0.  0.
         11    1    3    3    0    0  0.11976115055E+02 -0.45748802268E+02 -0.50628107397E+02  0.69279040837E+02  0.00000000000E+00 0. -1.
        -12    1    3    3    0    0  0.42437937761E+02  0.29837986144E+02 -0.55511914206E+02  0.75979316904E+02  0.00000000000E+00 0.  1.
        -13    1    4    4    0    0 -0.35386612846E+02 -0.48435056116E+02 -0.57643923224E+01  0.60261059138E+02  0.00000000000E+00 0.  1.
         13    1    4    4    0    0 -0.66607112147E+02  0.32112166957E+02 -0.52468161857E+02  0.90667561254E+02  0.00000000000E+00 0. -1.
         21    1    1    2  503  502  0.71263082957E+02 -0.19622672720E+02 -0.68221025135E+02  0.10058620456E+03  0.00000000000E+00 0. -1.
          2    1    1    2  501    0 -0.23683410780E+02  0.51856378003E+02  0.44101939260E+02  0.72076132889E+02  0.00000000000E+00 0. -1.
<scales pt_clust_5="13000.00000" pt_clust_6="13000.00000" pt_clust_7="13000.00000" pt_clust_8="13000.00000" pt_clust_9="67.25447" pt_clust_10="57.00867"></scales>
<clustering>
<clus scale="   57.009">  1 10  2 -1</clus>
<clus scale="   67.254">  2  9  1 -1</clus>
<clus scale="   81.365">  5  6 -1 -1</clus>
<clus scale="   93.377">  7  8 -1 -1</clus>
<clus scale="  115.295">  2  5  1 -1</clus>
<clus scale="   57.009">  1  5  2 -1</clus>
</clustering>
</event>
<event>
10    3  0.7209067E-005  0.2977950E+03  0.7546771E-02  0.1106514E+00
          1   -1    0    0  502    0 -0.00000000000E+00  0.00000000000E+00  0.37553445850E+03  0.37553445850E+03  0.00000000000E+00 0. -1.
         21   -1    0    0  503  502  0.00000000000E+00 -0.00000000000E+00 -0.58347265954E+03  0.58347265954E+03  0.00000000000E+00 0. -1.
        -24    2    1    2    0    0 -0.50994331084E+02 -0.14911829565E+03  0.12598615272E+03  0.21796192263E+03  0.82451204575E+02 0.  0.
         23    2    1    2    0    0 -0.26267815994E+03  0.63482404811E+02 -0.24830754688E+03  0.37762615499E+03  0.88966531132E+02 0.  0.
         11    1    3    3    0    0 -0.15372031656E+02 -0.26564271712E+02  0.74076677218E+02  0.80183003165E+02  0.00000000000E+00 0. -1.
        -12    1    3    3    0    0 -0.35622299428E+02 -0.12255402394E+03  0.51909475504E+02  0.13777891946E+03  0.00000000000E+00 0.  1.
        -13    1    4    4    0    0 -0.91478371069E+02  0.34606591803E+02 -0.14714757076E+03  0.17668705711E+03  0.00000000000E+00 0.  1.
         13    1    4    4    0    0 -0.17119978888E+03  0.28875813009E+02 -0.10115997612E+03  0.20093909788E+03  0.00000000000E+00 0. -1.
         21    1    1    2  503  501 -0.33250736777E+01  0.30427705171E+02 -0.14569859924E+02  0.33899589601E+02  0.00000000000E+00 0.  1.
          2    1    1    2  501    0  0.31699756471E+03  0.55208185671E+02 -0.71046946956E+02  0.32951945082E+03  0.00000000000E+00 0. -1.
<scales pt_clust_5="13000.00000" pt_clust_6="13000.00000" pt_clust_7="13000.00000" pt_clust_8="13000.00000" pt_clust_9="30.60884" pt_clust_10="284.19513"></scales>
<clustering>
<clus scale="   30.609">  2  9  1 -1</clus>
<clus scale="   82.451">  5  6 -1 -1</clus>
<clus scale="   88.967">  7  8 -1 -1</clus>
<clus scale="  175.849">  1  5  2 -1</clus>
<clus scale="  284.195">  2 10  1 -1</clus>
<clus scale="   30.609">  2  5  1 -1</clus>
</clustering>
</event>
<event>
10    3  0.7209067E-005  0.2156139E+03  0.7546771E-02  0.1163839E+00
         21   -1    0    0  503  502  0.00000000000E+00  0.00000000000E+00  0.59116813900E+03  0.59116813900E+03  0.00000000000E+00 0.  1.
         -2   -1    0    0    0  501 -0.00000000000E+00 -0.00000000000E+00 -0.25849624562E+03  0.25849624562E+03  0.00000000000E+00 0.  1.
        -24    2    1    2    0    0  0.77907747522E+02 -0.74995695099E+01  0.23314268567E+02  0.11513727309E+03  0.81161418602E+02 0.  0.
         23    2    1    2    0    0 -0.18417681237E+03 -0.12689093962E+03  0.40749051915E+03  0.47258271665E+03  0.85226123406E+02 0.  0.
         13    1    3    3    0    0  0.12532832346E+02 -0.29348808583E+02 -0.16090263953E+02  0.35739628509E+02  0.00000000000E+00 0. -1.
        -14    1    3    3    0    0  0.65374915175E+02  0.21849239073E+02  0.39404532520E+02  0.79397644584E+02  0.00000000000E+00 0.  1.
        -13    1    4    4    0    0 -0.14879637406E+03 -0.54374719514E+02  0.25989589304E+03  0.30437287375E+03  0.00000000000E+00 0.  1.
         13    1    4    4    0    0 -0.35380438308E+02 -0.72516220104E+02  0.14759462610E+03  0.16820984290E+03  0.00000000000E+00 0. -1.
         21    1    1    2  503  501  0.22752149012E+02  0.40927629912E+01  0.45348327513E+02  0.50900705317E+02  0.00000000000E+00 0.  1.
         -1    1    1    2    0  502  0.83516915836E+02  0.13029774614E+03 -0.14348122185E+03  0.21104368956E+03  0.00000000000E+00 0.  1.
<scales pt_clust_5="13000.00000" pt_clust_6="13000.00000" pt_clust_7="13000.00000" pt_clust_8="13000.00000" pt_clust_9="23.11733" pt_clust_10="198.05529"></scales>
<clustering>
<clus scale="   23.117">  1  9  2 -1</clus>
<clus scale="   81.161">  5  6 -1 -1</clus>
<clus scale="   85.226">  7  8 -1 -1</clus>
<clus scale="  114.742">  2  5  1 -1</clus>
<clus scale="  198.055">  1 10  2 -1</clus>
<clus scale="   23.117">  1  5  2 -1</clus>
</clustering>
</event>
<event>
10    3  0.7209067E-005  0.1577404E+03  0.7546771E-02  0.1195347E+00
          1   -1    0    0  503    0 -0.00000000000E+00  0.00000000000E+00  0.65769988588E+03  0.65769988588E+03  0.00000000000E+00 0. -1.
         21   -1    0    0  501  502  0.00000000000E+00 -0.00000000000E+00 -0.17131595471E+03  0.17131595471E+03  0.00000000000E+00 0. -1.
         23    2    1    2    0    0 -0.51508603878E+02  0.88150457449E+02  0.24491640098E+03  0.28015944681E+03  0.89897901784E+02 0.  0.
        -24    2    1    2    0    0  0.96624448262E+01 -0.16156813830E+03  0.96606614408E+02  0.21838383297E+03  0.11027708013E+03 0.  0.
         13    1    4    4    0    0 -0.32190984613E+02 -0.11199199570E+03  0.20399618966E+02  0.11829882098E+03  0.00000000000E+00 0. -1.
        -14    1    4    4    0    0  0.41853429439E+02 -0.49576142596E+02  0.76206995442E+02  0.10008501199E+03  0.00000000000E+00 0.  1.
        -11    1    3    3    0    0 -0.25263917888E+02  0.10266174279E+03  0.18249690249E+03  0.21090950286E+03  0.00000000000E+00 0.  1.
         11    1    3    3    0    0 -0.26244685989E+02 -0.14511285338E+02  0.62419498491E+02  0.69249943947E+02  0.00000000000E+00 0. -1.
         21    1    1    2  503  502 -0.36525445187E+02  0.94633681162E+02 -0.54543331194E+02  0.11517211787E+03  0.00000000000E+00 0. -1.
          2    1    1    2  501    0  0.78371604238E+02 -0.21216000311E+02  0.19940424698E+03  0.21530044294E+03  0.00000000000E+00 0. -1.
<scales pt_clust_5="13000.00000" pt_clust_6="13000.00000" pt_clust_7="13000.00000" pt_clust_8="13000.00000" pt_clust_9="83.71807" pt_clust_10="81.19257"></scales>
<clustering>
<clus scale="   81.193">  2 10  1 -1</clus>
<clus scale="   83.718">  2  9  1 -1</clus>
<clus scale="   89.898">  7  8 -1 -1</clus>
<clus scale="  110.277">  5  6 -1 -1</clus>
<clus scale="  144.231">  1  7  2 -1</clus>
<clus scale="   81.193">  2  5  1 -1</clus>
</clustering>
</event>
<event>
10    3  0.7209067E-005  0.3136657E+03  0.7546771E-02  0.1096160E+00
         21   -1    0    0  503  502  0.00000000000E+00  0.00000000000E+00  0.14473613415E+04  0.14473613415E+04  0.00000000000E+00 0. -1.
          1   -1    0    0  502    0 -0.00000000000E+00 -0.00000000000E+00 -0.18000319489E+03  0.18000319489E+03  0.00000000000E+00 0. -1.
        -24    2    1    2    0    0  0.14045121927E+03 -0.11089276424E+03  0.10483981712E+03  0.22415417851E+03  0.85029161667E+02 0.  0.
         23    2    1    2    0    0  0.24901942033E+03  0.81969137434E+02  0.76172752344E+03  0.81135571804E+03  0.96641968342E+02 0.  0.
         11    1    3    3    0    0  0.39352535021E+02 -0.54005614511E+02 -0.14214249604E+01  0.66837480953E+02  0.00000000000E+00 0. -1.
        -12    1    3    3    0    0  0.10109868425E+03 -0.56887149731E+02  0.10626124208E+03  0.15731669756E+03  0.00000000000E+00 0.  1.
        -11    1    4    4    0    0  0.13090964721E+03  0.87021423986E+02  0.36553125540E+03  0.39789843256E+03  0.00000000000E+00 0.  1.
         11    1    4    4    0    0  0.11810977312E+03 -0.50522865519E+01  0.39619626804E+03  0.41345728548E+03  0.00000000000E+00 0. -1.
         21    1    1    2  503  501  0.87174400973E+01  0.32550262264E+02  0.54819497890E+02  0.64348198764E+02  0.00000000000E+00 0. -1.
          2    1    1    2  501    0 -0.39818807970E+03 -0.36266354550E+01  0.34597130813E+03  0.52750644105E+03  0.00000000000E+00 0. -1.
<scales pt_clust_5="13000.00000" pt_clust_6="13000.00000" pt_clust_7="13000.00000" pt_clust_8="13000.00000" pt_clust_9="33.69738" pt_clust_10="298.40674"></scales>
<clustering>
<clus scale="   33.697">  1  9  2 -1</clus>
<clus scale="   85.029">  5  6 -1 -1</clus>
<clus scale="   96.642">  7  8 -1 -1</clus>
<clus scale="  196.734">  2  5  1 -1</clus>
<clus scale="  298.407">  1 10  2 -1</clus>
<clus scale="   33.697">  1  5  2 -1</clus>
</clustering>
</event>
<event>
10    3  0.7209067E-005  0.1119503E+03  0.7546771E-02  0.1260865E+00
         21   -1    0    0  503  502  0.00000000000E+00  0.00000000000E+00  0.69251841977E+02  0.69251841977E+02  0.00000000000E+00 0. -1.
         -2   -1    0    0    0  501 -0.00000000000E+00 -0.00000000000E+00 -0.33819657963E+03  0.33819657963E+03  0.00000000000E+00 0.  1.
         23    2    1    2    0    0 -0.57084657200E+02 -0.29771794318E+02 -0.16603242565E+03  0.19993943723E+03  0.90906514448E+02 0.  0.
        -24    2    1    2    0    0  0.59568674937E+02  0.31973479043E+02 -0.28463452013E+02  0.10897454649E+03  0.80588791322E+02 0.  0.
         11    1    4    4    0    0  0.45633655202E+02 -0.13026256497E+02  0.95914513339E+01  0.48416007519E+02  0.00000000000E+00 0. -1.
        -12    1    4    4    0    0  0.13935019735E+02  0.44999735541E+02 -0.38054903347E+02  0.60558538973E+02  0.00000000000E+00 0.  1.
        -13    1    3    3    0    0  0.21097754680E+02 -0.86604976257E+01 -0.11657674137E+02  0.25612903739E+02  0.00000000000E+00 0.  1.
         13    1    3    3    0    0 -0.78182411879E+02 -0.21111296692E+02 -0.15437475151E+03  0.17432653349E+03  0.00000000000E+00 0. -1.
         21    1    1    2  503  501 -0.26147333591E+02 -0.90607343769E+01 -0.98111278656E+01  0.29360486907E+02  0.00000000000E+00 0. -1.
         -1    1    1    2    0  502  0.23663315855E+02  0.68590496516E+01 -0.64637732131E+02  0.69173950981E+02  0.00000000000E+00 0.  1.
<scales pt_clust_5="13000.00000" pt_clust_6="13000.00000" pt_clust_7="13000.00000" pt_clust_8="13000.00000" pt_clust_9="24.08296" pt_clust_10="24.63736"></scales>
<clustering>
<clus scale="   24.637">  1 10  2 -1</clus>
<clus scale="   24.083">  1  9  2 -1</clus>
<clus scale="   80.589">  5  6 -1 -1</clus>
<clus scale="   90.907">  7  8 -1 -1</clus>
<clus scale="  103.747">  1  5  2 -1</clus>
<clus scale="   24.637">  1  5  2 -1</clus>
</clustering>
</event>
<event>
10    3  0.7209067E-005  0.1496107E+03  0.7546771E-02  0.1202755E+00
          1   -1    0    0  503    0 -0.00000000000E+00  0.00000000000E+00  0.58270393081E+03  0.58270393081E+03  0.00000000000E+00 0. -1.
         21   -1    0    0  501  502  0.00000000000E+00 -0.00000000000E+00 -0.65596656663E+02  0.65596656663E+02  0.00000000000E+00 0. -1.
        -24    2    1    2    0    0  0.93388345368E+02  0.75212861118E+02  0.27571656905E+03  0.31141374191E+03  0.81120494776E+02 0.  0.
         23    2    1    2    0    0 -0.63746501961E+02 -0.10310075509E+03  0.10448946357E+03  0.18404619242E+03  0.90893183107E+02 0.  0.
         13    1    3    3    0    0  0.10504204318E+03  0.50342255873E+02  0.23522310607E+03  0.26248444371E+03  0.00000000000E+00 0. -1.
        -14    1    3    3    0    0 -0.11653697811E+02  0.24870605245E+02  0.40493462982E+02  0.48929298199E+02  0.00000000000E+00 0.  1.
        -13    1    4    4    0    0  0.21526115021E+02 -0.15084616816E+02  0.32929388689E+02  0.42133881044E+02  0.00000000000E+00 0.  1.
         13    1    4    4    0    0 -0.85272616981E+02 -0.88016138279E+02  0.71560074880E+02  0.14191231138E+03  0.00000000000E+00 0. -1.
         21    1    1    2  503  502 -0.28076180651E+01  0.27237141277E+02  0.22819752645E+02  0.35643873175E+02  0.00000000000E+00 0. -1.
          2    1    1    2  501    0 -0.26834225342E+02  0.65075270000E+00  0.11408148889E+03  0.11719677997E+03  0.00000000000E+00 0. -1.
<scales pt_clust_5="13000.00000" pt_clust_6="13000.00000" pt_clust_7="13000.00000" pt_clust_8="13000.00000" pt_clust_9="27.84968" pt_clust_10="26.84213"></scales>
<clustering>
<clus scale="   26.842">  2 10  1 -1</clus>
<clus scale="   27.850">  2  9  1 -1</clus>
<clus scale="   81.120">  5  6 -1 -1</clus>
<clus scale="   90.893">  7  8 -1 -1</clus>
<clus scale="  143.883">  1  5  2 -1</clus>
<clus scale="   26.842">  2  5  1 -1</clus>
</clustering>
</event>
<event>
10    3  0.7209067E-005  0.1109011E+03  0.7546771E-02  0.1262528E+00
         21   -1    0    0  503  502  0.00000000000E+00  0.00000000000E+00  0.14273693229E+03  0.14273693229E+03  0.00000000000E+00 0.  1.
         -2   -1    0    0    0  501 -0.00000000000E+00 -0.00000000000E+00 -0.20017157978E+03  0.20017157978E+03  0.00000000000E+00 0.  1.
        -24    2    1    2    0    0 -0.14993465670E+01 -0.54470826893E+02 -0.81157730136E+02  0.12743501001E+03  0.81754422459E+02 0.  0.
         23    2    1    2    0    0 -0.17616342197E+02  0.64994793013E+02  0.67829895079E+02  0.13209127095E+03  0.91173189941E+02 0.  0.
         13    1    3    3    0    0  0.25508518791E+01  0.21622421971E+02 -0.14182659714E+02  0.25984299371E+02  0.00000000000E+00 0. -1.
        -14    1    3    3    0    0 -0.40501984461E+01 -0.76093248865E+02 -0.66975070422E+02  0.10145071063E+03  0.00000000000E+00 0.  1.
        -11    1    4    4    0    0  0.28211995730E+02  0.60775469625E+02  0.45042152827E+02  0.80736422651E+02  0.00000000000E+00 0.  1.
         11    1    4    4    0    0 -0.45828337928E+02  0.42193233883E+01  0.22787742253E+02  0.51354848301E+02  0.00000000000E+00 0. -1.
         21    1    1    2  503  501 -0.23295357396E+02 -0.14627585840E+02 -0.11901648968E+02  0.29971472968E+02  0.00000000000E+00 0.  1.
         -1    1    1    2    0  502  0.42411046160E+02  0.41036197199E+01 -0.32205163471E+02  0.53410758143E+02  0.00000000000E+00 0.  1.
<scales pt_clust_5="13000.00000" pt_clust_6="13000.00000" pt_clust_7="13000.00000" pt_clust_8="13000.00000" pt_clust_9="27.50709" pt_clust_10="36.85232"></scales>
<clustering>
<clus scale="   27.507">  2  9  1 -1</clus>
<clus scale="   36.852">  1 10  2 -1</clus>
<clus scale="   81.754">  5  6 -1 -1</clus>
<clus scale="   91.173">  7  8 -1 -1</clus>
<clus scale="  103.297">  2  5  1 -1</clus>
<clus scale="   36.852">  1  5  2 -1</clus>
</clustering>
</event>
<event>
10    3  0.7209067E-005  0.1413627E+03  0.7546771E-02  0.1228091E+00
          1   -1    0    0  503    0 -0.00000000000E+00  0.00000000000E+00  0.22493747044E+03  0.22493747044E+03  0.00000000000E+00 0. -1.
         21   -1    0    0  501  502  0.00000000000E+00 -0.00000000000E+00 -0.58928008589E+03  0.58928008589E+03  0.00000000000E+00 0. -1.
         23    2    1    2    0    0  0.44520301551E+02  0.32980582060E+01 -0.31647735305E+02  0.10584535757E+03  0.90602020570E+02 0.  0.
        -24    2    1    2    0    0  0.35289256725E+02 -0.90377731103E+02  0.15567128046E+03  0.20060833608E+03  0.81220016158E+02 0.  0.
         13    1    4    4    0    0  0.60904845886E+02 -0.59710728583E+02  0.11873332673E+03  0.14619293497E+03  0.00000000000E+00 0. -1.
        -14    1    4    4    0    0 -0.25615589160E+02 -0.30667002520E+02  0.36937953734E+02  0.54415401106E+02  0.00000000000E+00 0.  1.
        -11    1    3    3    0    0 -0.70137635017E+01  0.36148457147E+02 -0.24696106998E+02  0.44337360470E+02  0.00000000000E+00 0.  1.
         11    1    3    3    0    0  0.51534065052E+02 -0.32850398941E+02 -0.69516283072E+01  0.61507997102E+02  0.00000000000E+00 0. -1.
         21    1    1    2  503  502 -0.21212461547E+02 -0.10438278162E+02 -0.58479509217E+02  0.63077564745E+02  0.00000000000E+00 0. -1.
          2    1    1    2  501    0 -0.58597096729E+02  0.97517951058E+02 -0.42988665139E+03  0.44468629793E+03  0.00000000000E+00 0. -1.
<scales pt_clust_5="13000.00000" pt_clust_6="13000.00000" pt_clust_7="13000.00000" pt_clust_8="13000.00000" pt_clust_9="23.64162" pt_clust_10="115.70106"></scales>
<clustering>
<clus scale="   23.642">  2  9  1 -1</clus>
<clus scale="   81.220">  5  6 -1 -1</clus>
<clus scale="   90.602">  7  8 -1 -1</clus>
<clus scale="   99.782">  1  7  2 -1</clus>
<clus scale="  115.701">  2 10  1 -1</clus>
<clus scale="   23.642">  2  5  1 -1</clus>
</clustering>
</event>
<event>
10    3  0.7209067E-005  0.2770892E+03  0.7546771E-02  0.1097944E+00
         -2   -1    0    0    0  501 -0.00000000000E+00  0.00000000000E+00  0.41706906581E+03  0.41706906581E+03  0.00000000000E+00 0.  1.
         21   -1    0    0  501  502  0.00000000000E+00 -0.00000000000E+00 -0.35724233160E+03  0.35724233160E+03  0.00000000000E+00 0.  1.
        -24    2    1    2    0    0 -0.23310526655E+03  0.96997246550E+02  0.13744679370E+03  0.29783798068E+03  0.77905779650E+02 0.  0.
         23    2    1    2    0    0  0.30213654983E+03  0.77090065394E+01 -0.98706944380E+02  0.33126250705E+03  0.92983139225E+02 0.  0.
         13    1    3    3    0    0 -0.55716506982E+02  0.57329211527E+02  0.23582484327E+02  0.83349272412E+02  0.00000000000E+00 0. -1.
        -14    1    3    3    0    0 -0.17738875957E+03  0.39668035023E+02  0.11386430937E+03  0.21448870826E+03  0.00000000000E+00 0.  1.
        -13    1    4    4    0    0  0.24489192658E+03  0.43105873175E+02 -0.72202169005E+02  0.25892725854E+03  0.00000000000E+00 0.  1.
         13    1    4    4    0    0  0.57244623251E+02 -0.35396866635E+02 -0.26504775374E+02  0.72335248506E+02  0.00000000000E+00 0. -1.
         21    1    1    2  503  502 -0.11194253271E+02 -0.23748506626E+02 -0.24371564156E+02  0.35822842051E+02  0.00000000000E+00 0.  1.
         -1    1    1    2    0  503 -0.57837030009E+02 -0.80957746464E+02  0.45458449038E+02  0.10938806764E+03  0.00000000000E+00 0.  1.
<scales pt_clust_5="13000.00000" pt_clust_6="13000.00000" pt_clust_7="13000.00000" pt_clust_8="13000.00000" pt_clust_9="26.25458" pt_clust_10="102.02012"></scales>
<clustering>
<clus scale="   26.255">  2  9  1 -1</clus>
<clus scale="   77.906">  5  6 -1 -1</clus>
<clus scale="   92.983">  7  8 -1 -1</clus>
<clus scale="  102.020">  2 10  1 -1</clus>
<clus scale="  272.400">  1  5  2 -1</clus>
<clus scale="   26.255">  2  5  1 -1</clus>
</clustering>
</event>
<event>
10    3  0.7209067E-005  0.2279272E+03  0.7546771E-02  0.1128393E+00
         21   -1    0    0  501  502  0.00000000000E+00  0.00000000000E+00  0.39939964727E+03  0.39939964727E+03  0.00000000000E+00 0.  1.
         -2   -1    0    0    0  501 -0.00000000000E+00 -0.00000000000E+00 -0.27043768265E+03  0.27043768265E+03  0.00000000000E+00 0.  1.
         23    2    1    2    0    0 -0.13348985283E+03 -0.13385012067E+03 -0.93671355350E+01  0.20966819836E+03  0.90208727761E+02 0.  0.
        -24    2    1    2    0    0  0.23900666353E+03  0.77082978223E+02  0.67313892582E+01  0.26556249293E+03  0.86093874953E+02 0.  0.
         11    1    4    4    0    0  0.26380607844E+02  0.19552234051E+02 -0.27268115270E+02  0.42682273100E+02  0.00000000000E+00 0. -1.
        -12    1    4    4    0    0  0.21262605569E+03  0.57530744172E+02  0.33999504528E+02  0.22288021983E+03  0.00000000000E+00 0.  1.
        -11    1    3    3    0    0 -0.26420867250E+02 -0.39952409264E+02 -0.41844483351E+02  0.63602028420E+02  0.00000000000E+00 0. -1.
         11    1    3    3    0    0 -0.10706898558E+03 -0.93897711402E+02  0.32477347816E+02  0.14606616994E+03  0.00000000000E+00 0.  1.
         21    1    1    2  503  502 -0.29927738231E+02  0.26653236535E+02  0.99267921869E+02  0.10705225288E+03  0.00000000000E+00 0.  1.
         -1    1    1    2    0  503 -0.75589072476E+02  0.30113905907E+02  0.32329789025E+02  0.87554385756E+02  0.00000000000E+00 0.  1.
<scales pt_clust_5="13000.00000" pt_clust_6="13000.00000" pt_clust_7="13000.00000" pt_clust_8="13000.00000" pt_clust_9="40.07573" pt_clust_10="89.03153"></scales>
<clustering>
<clus scale="   40.076">  1  9  2 -1</clus>
<clus scale="   86.094">  5  6 -1 -1</clus>
<clus scale="   89.032">  1 10  2 -1</clus>
<clus scale="   90.209">  7  8 -1 -1</clus>
<clus scale="  226.330">  1  5  2 -1</clus>
<clus scale="   40.076">  1  5  2 -1</clus>
</clustering>
</event>
<event>
10    3  0.7209067E-005  0.9576189E+02  0.7546771E-02  0.1296504E+00
         21   -1    0    0  503  502  0.00000000000E+00  0.00000000000E+00  0.24798741790E+03  0.24798741790E+03  0.00000000000E+00 0. -1.
          1   -1    0    0  502    0 -0.00000000000E+00 -0.00000000000E+00 -0.49897194256E+03  0.49897194256E+03  0.00000000000E+00 0. -1.
        -24    2    1    2    0    0  0.49149910496E+02 -0.25540962597E+01 -0.30268744599E+03  0.31683560015E+03  0.79642139926E+02 0.  0.
         23    2    1    2    0    0  0.28496185212E+02 -0.29651149619E+02 -0.13886979062E+03  0.17156493238E+03  0.91970017030E+02 0.  0.
         11    1    3    3    0    0  0.34928902027E+01 -0.32579886824E+02 -0.17348711844E+03  0.17655432470E+03  0.00000000000E+00 0. -1.
        -12    1    3    3    0    0  0.45657020293E+02  0.30025790564E+02 -0.12920032755E+03  0.14028127545E+03  0.00000000000E+00 0.  1.
        -13    1    4    4    0    0 -0.13017198271E+02  0.18242578302E+02 -0.43046563885E+01  0.22820367669E+02  0.00000000000E+00 0.  1.
         13    1    4    4    0    0  0.41513383483E+02 -0.47893727921E+02 -0.13456513423E+03  0.14874456472E+03  0.00000000000E+00 0. -1.
         21    1    1    2  503  501  0.73975023225E+01 -0.37466648432E+02  0.12465196671E+03  0.13037095378E+03  0.00000000000E+00 0. -1.
          2    1    1    2  501    0 -0.85043598030E+02  0.69671894311E+02  0.65920745244E+02  0.12818787414E+03  0.00000000000E+00 0. -1.
<scales pt_clust_5="13000.00000" pt_clust_6="13000.00000" pt_clust_7="13000.00000" pt_clust_8="13000.00000" pt_clust_9="38.18996" pt_clust_10="88.39517"></scales>
<clustering>
<clus scale="   38.190">  1  9  2 -1</clus>
<clus scale="   79.642">  5  6 -1 -1</clus>
<clus scale="   88.395">  1 10  2 -1</clus>
<clus scale="   83.992">  2  5  1 -1</clus>
<clus scale="   91.970">  7  8 -1 -1</clus>
<clus scale="   38.190">  1  5  2 -1</clus>
</clustering>
</event>
<event>
10    3  0.7209067E-005  0.1500093E+03  0.7546771E-02  0.1219272E+00
         21   -1    0    0  501  502  0.00000000000E+00  0.00000000000E+00  0.23092083082E+03  0.23092083082E+03  0.00000000000E+00 0. -1.
          1   -1    0    0  503    0 -0.00000000000E+00 -0.00000000000E+00 -0.17491621651E+03  0.17491621651E+03  0.00000000000E+00 0. -1.
        -24    2    1    2    0    0 -0.40693856303E+02 -0.40030137633E+02  0.43841174468E+02  0.10545063724E+03  0.77067415007E+02 0.  0.
         23    2    1    2    0    0 -0.33399908759E+02  0.85050562038E+02 -0.22838267963E+01  0.14854633116E+03  0.11709673192E+03 0.  0.
         13    1    3    3    0    0  0.69383248440E+01 -0.22775664162E+02  0.49049369939E+02  0.54522581754E+02  0.00000000000E+00 0. -1.
        -14    1    3    3    0    0 -0.47632181147E+02 -0.17254473470E+02 -0.52081954706E+01  0.50928055486E+02  0.00000000000E+00 0.  1.
        -13    1    4    4    0    0 -0.70713218438E+02  0.83166709713E+02 -0.12327232227E+02  0.10985909849E+03  0.00000000000E+00 0. -1.
         13    1    4    4    0    0  0.37313309679E+02  0.18838523256E+01  0.10043405431E+02  0.38687232667E+02  0.00000000000E+00 0.  1.
         21    1    1    2  503  502 -0.34794454998E+02 -0.16700428373E+02  0.20644938546E+01  0.38649974662E+02  0.00000000000E+00 0. -1.
          2    1    1    2  501    0  0.10888822006E+03 -0.28319996033E+02  0.12382772782E+02  0.11319010427E+03  0.00000000000E+00 0. -1.
<scales pt_clust_5="13000.00000" pt_clust_6="13000.00000" pt_clust_7="13000.00000" pt_clust_8="13000.00000" pt_clust_9="38.59480" pt_clust_10="93.76109"></scales>
<clustering>
<clus scale="   38.595">  2  9  1 -1</clus>
<clus scale="   77.067">  5  6 -1 -1</clus>
<clus scale="  100.376">  2  5  1 -1</clus>
<clus scale="   93.761">  1 10  2 -1</clus>
<clus scale="  117.097">  7  8 -1 -1</clus>
<clus scale="   93.761">  1  5  2 -1</clus>
</clustering>
</event>
<event>
10    3  0.7209067E-005  0.1894717E+03  0.7546771E-02  0.1185710E+00
          1   -1    0    0  502    0 -0.00000000000E+00  0.00000000000E+00  0.84552420249E+02  0.84552420249E+02  0.00000000000E+00 0. -1.
         21   -1    0    0  503  502  0.00000000000E+00 -0.00000000000E+00 -0.95047185722E+03  0.95047185722E+03  0.00000000000E+00 0. -1.
         23    2    1    2    0    0  0.13344881553E+02 -0.51308273596E+02 -0.28373127330E+02  0.10737774844E+03  0.88962473560E+02 0.  0.
        -24    2    1    2    0    0  0.12732197991E+03 -0.76119097184E+02 -0.30850183069E+03  0.35208186782E+03  0.82360540192E+02 0.  0.
         13    1    4    4    0    0  0.74860994448E+02 -0.13767408193E+02 -0.84541991241E+02  0.11375877241E+03  0.00000000000E+00 0. -1.
        -14    1    4    4    0    0  0.52460985463E+02 -0.62351688990E+02 -0.22395983945E+03  0.23832309540E+03  0.00000000000E+00 0.  1.
        -13    1    3    3    0    0  0.92691740179E+00  0.22598350573E+02  0.81089506281E+01  0.24027061926E+02  0.00000000000E+00 0.  1.
         13    1    3    3    0    0  0.12417964151E+02 -0.73906624169E+02 -0.36482077958E+02  0.83350686511E+02  0.00000000000E+00 0. -1.
         21    1    1    2  503  501  0.19422637367E+02  0.20543887533E+02 -0.12295555661E+03  0.12616401650E+03  0.00000000000E+00 0. -1.
          2    1    1    2  501    0 -0.16008949883E+03  0.10688348325E+03 -0.40608892234E+03  0.44940064472E+03  0.00000000000E+00 0. -1.
<scales pt_clust_5="13000.00000" pt_clust_6="13000.00000" pt_clust_7="13000.00000" pt_clust_8="13000.00000" pt_clust_9="28.27172" pt_clust_10="170.63496"></scales>
<clustering>
<clus scale="   28.272">  2  9  1 -1</clus>
<clus scale="   82.361">  5  6 -1 -1</clus>
<clus scale="   88.962">  7  8 -1 -1</clus>
<clus scale="  102.955">  1  7  2 -1</clus>
<clus scale="  170.635">  2 10  1 -1</clus>
<clus scale="   28.272">  2  5  1 -1</clus>
</clustering>
</event>
<event>
10    3  0.7209067E-005  0.3640469E+03  0.7546771E-02  0.1079897E+00
         21   -1    0    0  503  502  0.00000000000E+00  0.00000000000E+00  0.10521249864E+03  0.10521249864E+03  0.00000000000E+00 0.  1.
         -2   -1    0    0    0  501 -0.00000000000E+00 -0.00000000000E+00 -0.23536951297E+04  0.23536951297E+04  0.00000000000E+00 0.  1.
        -24    2    1    2    0    0 -0.10906571862E+03  0.13442146410E+03 -0.67204870718E+03  0.69861892409E+03  0.80339749134E+02 0.  0.
         23    2    1    2    0    0 -0.22750778274E+03 -0.26898152804E+03 -0.92908627921E+03  0.99782725721E+03  0.91362286390E+02 0.  0.
         11    1    3    3    0    0 -0.91100415815E+02  0.12280229145E+03 -0.65058995778E+03  0.66831652809E+03  0.00000000000E+00 0. -1.
        -12    1    3    3    0    0 -0.17965302808E+02  0.11619172650E+02 -0.21458749397E+02  0.30302396006E+02  0.00000000000E+00 0.  1.
        -11    1    4    4    0    0 -0.75419801514E+02 -0.66323491570E+02 -0.38085233892E+03  0.39387238549E+03  0.00000000000E+00 0. -1.
         11    1    4    4    0    0 -0.15208798122E+03 -0.20265803647E+03 -0.54823394029E+03  0.60395487172E+03  0.00000000000E+00 0.  1.
         21    1    1    2  503  501 -0.20801919520E+02  0.14758355131E+02 -0.50169346987E+02  0.56280478667E+02  0.00000000000E+00 0.  1.
         -1    1    1    2    0  502  0.35737542088E+03  0.11980170881E+03 -0.59717829770E+03  0.70618096840E+03  0.00000000000E+00 0.  1.
<scales pt_clust_5="13000.00000" pt_clust_6="13000.00000" pt_clust_7="13000.00000" pt_clust_8="13000.00000" pt_clust_9="25.50547" pt_clust_10="352.39615"></scales>
<clustering>
<clus scale="   25.505">  1  9  2 -1</clus>
<clus scale="   80.340">  5  6 -1 -1</clus>
<clus scale="   91.362">  7  8 -1 -1</clus>
<clus scale="  193.742">  2  5  1 -1</clus>
<clus scale="  352.396">  1 10  2 -1</clus>
<clus scale="   25.505">  1  5  2 -1</clus>
</clustering>
</event>
<event>
10    3  0.7209067E-005  0.2792421E+03  0.7546771E-02  0.1144014E+00
          1   -1    0    0  503    0 -0.00000000000E+00  0.00000000000E+00  0.28979610947E+03  0.28979610947E+03  0.00000000000E+00 0. -1.
         21   -1    0    0  501  502  0.00000000000E+00 -0.00000000000E+00 -0.62051763178E+03  0.62051763178E+03  0.00000000000E+00 0. -1.
        -24    2    1    2    0    0 -0.27047036471E+02  0.21535141430E+02 -0.25572797927E+02  0.89783756177E+02  0.78815292813E+02 0.  0.
         23    2    1    2    0    0  0.14867124967E+03 -0.22449285905E+03 -0.28866417234E+02  0.28634710902E+03  0.93065635740E+02 0.  0.
         11    1    3    3    0    0 -0.41318529950E+02  0.39064585302E+01 -0.44055169354E+02  0.60525525874E+02  0.00000000000E+00 0. -1.
        -12    1    3    3    0    0  0.14271493480E+02  0.17628682900E+02  0.18482371427E+02  0.29258230303E+02  0.00000000000E+00 0.  1.
        -13    1    4    4    0    0  0.25356797916E+02 -0.59938363388E+02  0.31126976199E+02  0.72141965966E+02  0.00000000000E+00 0.  1.
         13    1    4    4    0    0  0.12331445176E+03 -0.16455449567E+03 -0.59993393433E+02  0.21420514306E+03  0.00000000000E+00 0. -1.
         21    1    1    2  503  502  0.48242005236E+02  0.74789362142E+01 -0.27078724097E+03  0.27515260389E+03  0.00000000000E+00 0. -1.
          2    1    1    2  501    0 -0.16986621844E+03  0.19547878141E+03 -0.54950661798E+01  0.25903027217E+03  0.00000000000E+00 0. -1.
<scales pt_clust_5="13000.00000" pt_clust_6="13000.00000" pt_clust_7="13000.00000" pt_clust_8="13000.00000" pt_clust_9="48.81829" pt_clust_10="263.27734"></scales>
<clustering>
<clus scale="   48.818">  2  9  1 -1</clus>
<clus scale="   78.815">  5  6 -1 -1</clus>
<clus scale="   84.221">  1  5  2 -1</clus>
<clus scale="   93.066">  7  8 -1 -1</clus>
<clus scale="  263.277">  2 10  1 -1</clus>
<clus scale="   48.818">  2  5  1 -1</clus>
</clustering>
</event>
<event>
10    3  0.7209067E-005  0.2548948E+03  0.7546771E-02  0.1124759E+00
          1   -1    0    0  503    0 -0.00000000000E+00  0.00000000000E+00  0.25818753796E+04  0.25818753796E+04  0.00000000000E+00 0. -1.
         21   -1    0    0  501  502  0.00000000000E+00 -0.00000000000E+00 -0.87723748108E+02  0.87723748108E+02  0.00000000000E+00 0. -1.
         23    2    1    2    0    0 -0.44899803523E+02  0.13959766632E+03  0.74605093364E+03  0.76573850698E+03  0.90884347913E+02 0.  0.
        -24    2    1    2    0    0  0.22247431805E+03 -0.17360546665E+03  0.43694894960E+03  0.52680368389E+03  0.83450923060E+02 0.  0.
         11    1    4    4    0    0  0.20409172923E+03 -0.12418642866E+03  0.32817981825E+03  0.40592819083E+03  0.00000000000E+00 0. -1.
        -12    1    4    4    0    0  0.18382588821E+02 -0.49419037991E+02  0.10876913136E+03  0.12087549307E+03  0.00000000000E+00 0.  1.
        -13    1    3    3    0    0 -0.46122945632E+02  0.16058042786E+02  0.19787745500E+03  0.20381529395E+03  0.00000000000E+00 0. -1.
         13    1    3    3    0    0  0.12231421091E+01  0.12353962353E+03  0.54817347864E+03  0.56192321303E+03  0.00000000000E+00 0.  1.
         21    1    1    2  503  502  0.36512588082E+01  0.35367664268E+02 -0.14991908626E+02  0.38587053410E+02  0.00000000000E+00 0. -1.
          2    1    1    2  501    0 -0.18122577334E+03 -0.13598639321E+01  0.13261436569E+04  0.13384698834E+04  0.00000000000E+00 0. -1.
<scales pt_clust_5="13000.00000" pt_clust_6="13000.00000" pt_clust_7="13000.00000" pt_clust_8="13000.00000" pt_clust_9="35.55564" pt_clust_10="240.84717"></scales>
<clustering>
<clus scale="   35.556">  2  9  1 -1</clus>
<clus scale="   83.451">  5  6 -1 -1</clus>
<clus scale="   90.884">  7  8 -1 -1</clus>
<clus scale="  177.027">  1  7  2 -1</clus>
<clus scale="  240.847">  2 10  1 -1</clus>
<clus scale="   35.556">  2  5  1 -1</clus>
</clustering>
</event>
<event>
10    3  0.7209067E-005  0.2824146E+03  0.7546771E-02  0.1094377E+00
          1   -1    0    0  502    0 -0.00000000000E+00  0.00000000000E+00  0.12105055967E+04  0.12105055967E+04  0.00000000000E+00 0. -1.
         21   -1    0    0  503  502  0.00000000000E+00 -0.00000000000E+00 -0.14126418941E+03  0.14126418941E+03  0.00000000000E+00 0. -1.
        -24    2    1    2    0    0  0.62217045677E+02  0.82541681226E+02 -0.36752674894E+02  0.13595143995E+03  0.80299097134E+02 0.  0.
         23    2    1    2    0    0  0.64631801732E+02  0.17727119434E+02  0.76163143646E+02  0.13553324308E+03  0.89871658337E+02 0.  0.
         13    1    3    3    0    0  0.64603232369E+02  0.68380226168E+02 -0.57845828317E+02  0.11043356744E+03  0.00000000000E+00 0. -1.
        -14    1    3    3    0    0 -0.23861866921E+01  0.14161455058E+02  0.21093153423E+02  0.25517872513E+02  0.00000000000E+00 0.  1.
        -13    1    4    4    0    0 -0.22705612899E+02 -0.11633509484E+01  0.14515783922E+02  0.26974177011E+02  0.00000000000E+00 0.  1.
         13    1    4    4    0    0  0.87337414631E+02  0.18890470382E+02  0.61647359724E+02  0.10855906607E+03  0.00000000000E+00 0. -1.
         21    1    1    2  503  501 -0.12851088107E+02  0.46243136567E+02  0.17519219693E+02  0.51093064145E+02  0.00000000000E+00 0. -1.
          2    1    1    2  501    0 -0.11399775930E+03 -0.14651193723E+03  0.10123117189E+04  0.10291920389E+04  0.00000000000E+00 0. -1.
<scales pt_clust_5="13000.00000" pt_clust_6="13000.00000" pt_clust_7="13000.00000" pt_clust_8="13000.00000" pt_clust_9="47.99561" pt_clust_10="183.71649"></scales>
<clustering>
<clus scale="   47.996">  2  9  1 -1</clus>
<clus scale="   80.299">  5  6 -1 -1</clus>
<clus scale="   89.872">  7  8 -1 -1</clus>
<clus scale="  110.937">  5  7 -1 -1</clus>
<clus scale="  183.716">  2 10  1 -1</clus>
<clus scale="   47.996">  2  5  1 -1</clus>
</clustering>
</event>
<event>
10    3  0.7209067E-005  0.1756284E+03  0.7546771E-02  0.1187411E+00
          1   -1    0    0  502    0 -0.00000000000E+00  0.00000000000E+00  0.16425512705E+04  0.16425512705E+04  0.00000000000E+00 0. -1.
         21   -1    0    0  503  502  0.00000000000E+00 -0.00000000000E+00 -0.82305978135E+02  0.82305978135E+02  0.00000000000E+00 0. -1.
        -24    2    1    2    0    0  0.83359588511E+02 -0.59038479830E+02  0.75813432455E+01  0.12991339950E+03  0.79910271598E+02 0.  0.
         23    2    1    2    0    0 -0.20801029760E+02 -0.12056160716E+03  0.71305296676E+03  0.73149092118E+03  0.10801226970E+03 0.  0.
         13    1    3    3    0    0  0.29261649120E+02 -0.93494317964E+00 -0.30140199213E+02  0.42018446385E+02  0.00000000000E+00 0. -1.
        -14    1    3    3    0    0  0.54097939390E+02 -0.58103536651E+02  0.37721542459E+02  0.87894953115E+02  0.00000000000E+00 0.  1.
        -13    1    4    4    0    0 -0.57389022658E+02 -0.41072758210E+02  0.41112554996E+03  0.41713869302E+03  0.00000000000E+00 0.  1.
         13    1    4    4    0    0  0.36587992898E+02 -0.79488848954E+02  0.30192741680E+03  0.31435222816E+03  0.00000000000E+00 0. -1.
         21    1    1    2  503  501  0.32276094924E+01  0.22512654917E+02  0.41007046776E+02  0.46891523538E+02  0.00000000000E+00 0. -1.
          2    1    1    2  501    0 -0.65786168243E+02  0.15708743208E+03  0.79860393557E+03  0.81656140440E+03  0.00000000000E+00 0. -1.
<scales pt_clust_5="13000.00000" pt_clust_6="13000.00000" pt_clust_7="13000.00000" pt_clust_8="13000.00000" pt_clust_9="22.74285" pt_clust_10="138.48714"></scales>
<clustering>
<clus scale="   22.743">  2  9  1 -1</clus>
<clus scale="   79.910">  5  6 -1 -1</clus>
<clus scale="  108.012">  7  8 -1 -1</clus>
<clus scale="  124.472">  1  5  2 -1</clus>
<clus scale="  138.487">  2 10  1 -1</clus>
<clus scale="   22.743">  2  5  1 -1</clus>
</clustering>
</event>
<event>
10    3  0.7209067E-005  0.1027753E+03  0.7546771E-02  0.1277886E+00
          1   -1    0    0  503    0 -0.00000000000E+00  0.00000000000E+00  0.32868376636E+03  0.32868376636E+03  0.00000000000E+00 0. -1.
         21   -1    0    0  501  502  0.00000000000E+00 -0.00000000000E+00 -0.25217963901E+03  0.25217963901E+03  0.00000000000E+00 0. -1.
        -24    2    1    2    0    0  0.33503479874E+01  0.94923437565E+02  0.26232435532E+02  0.12654241468E+03  0.79392431685E+02 0.  0.
         23    2    1    2    0    0 -0.79516664586E+02  0.32024958607E+02 -0.17223569336E+02  0.12332643560E+03  0.86972756972E+02 0.  0.
         11    1    3    3    0    0 -0.10564015996E+02  0.74181613940E+02  0.51572022526E+02  0.90962540577E+02  0.00000000000E+00 0. -1.
        -12    1    3    3    0    0  0.13914363984E+02  0.20741823625E+02 -0.25339586994E+02  0.35579874106E+02  0.00000000000E+00 0.  1.
        -11    1    4    4    0    0 -0.17286359649E+02  0.27339301208E+02 -0.44669867021E+02  0.55151179861E+02  0.00000000000E+00 0.  1.
         11    1    4    4    0    0 -0.62230304937E+02  0.46856573993E+01  0.27446297685E+02  0.68175255734E+02  0.00000000000E+00 0. -1.
         21    1    1    2  503  502  0.22097548500E+02 -0.63721693606E+02 -0.11336923445E+03  0.13191413573E+03  0.00000000000E+00 0. -1.
          2    1    1    2  501    0  0.54068768099E+02 -0.63226702566E+02  0.18086449560E+03  0.19908041936E+03  0.00000000000E+00 0. -1.
<scales pt_clust_5="13000.00000" pt_clust_6="13000.00000" pt_clust_7="13000.00000" pt_clust_8="13000.00000" pt_clust_9="67.44447" pt_clust_10="87.62483"></scales>
<clustering>
<clus scale="   67.444">  2  9  1 -1</clus>
<clus scale="   79.392">  5  6 -1 -1</clus>
<clus scale="   86.973">  7  8 -1 -1</clus>
<clus scale="   87.625">  2 10  1 -1</clus>
<clus scale="   96.445">  1  5  2 -1</clus>
<clus scale="   67.444">  2  5  1 -1</clus>
</clustering>
</event>
<event>
10    3  0.7209067E-005  0.3364041E+03  0.7546771E-02  0.1073355E+00
         21   -1    0    0  503  502  0.00000000000E+00  0.00000000000E+00  0.75612632780E+03  0.75612632780E+03  0.00000000000E+00 0.  1.
         -2   -1    0    0    0  501 -0.00000000000E+00 -0.00000000000E+00 -0.61729885675E+03  0.61729885675E+03  0.00000000000E+00 0.  1.
         23    2    1    2    0    0 -0.21037747372E+03  0.19072778878E+03 -0.34412231345E+03  0.45511766567E+03  0.89867414164E+02 0.  0.
        -24    2    1    2    0    0 -0.22117881129E+03 -0.16099499956E+03  0.13789108832E+03  0.31948615587E+03  0.90653158293E+02 0.  0.
         13    1    4    4    0    0 -0.23525656655E+02 -0.42761218394E+02 -0.40011259276E+01  0.48969248803E+02  0.00000000000E+00 0. -1.
        -14    1    4    4    0    0 -0.19765315464E+03 -0.11823378116E+03  0.14189221425E+03  0.27051690707E+03  0.00000000000E+00 0.  1.
        -11    1    3    3    0    0 -0.62220807526E+02  0.73345227878E+02 -0.18303212988E+03  0.20676487107E+03  0.00000000000E+00 0.  1.
         11    1    3    3    0    0 -0.14815666619E+03  0.11738256090E+03 -0.16109018357E+03  0.24835279460E+03  0.00000000000E+00 0. -1.
         21    1    1    2  503  501  0.19356558957E+02 -0.64723802067E+02  0.91066622452E+02  0.11338860901E+03  0.00000000000E+00 0. -1.
         -1    1    1    2    0  502  0.41219972605E+03  0.34991012846E+02  0.25399207372E+03  0.48543275399E+03  0.00000000000E+00 0.  1.
<scales pt_clust_5="13000.00000" pt_clust_6="13000.00000" pt_clust_7="13000.00000" pt_clust_8="13000.00000" pt_clust_9="67.55625" pt_clust_10="323.95957"></scales>
<clustering>
<clus scale="   67.556">  1  9  2 -1</clus>
<clus scale="   89.867">  7  8 -1 -1</clus>
<clus scale="   90.653">  5  6 -1 -1</clus>
<clus scale="  293.186">  2  7  1 -1</clus>
<clus scale="  323.960">  1 10  2 -1</clus>
<clus scale="   67.556">  1  5  2 -1</clus>
</clustering>
</event>
<event>
10    3  0.7209067E-005  0.1377904E+03  0.7546771E-02  0.1230394E+00
         21   -1    0    0  503  502  0.00000000000E+00  0.00000000000E+00  0.52108549562E+02  0.52108549562E+02  0.00000000000E+00 0. -1.
          1   -1    0    0  502    0 -0.00000000000E+00 -0.00000000000E+00 -0.78961310733E+03  0.78961310733E+03  0.00000000000E+00 0. -1.
        -24    2    1    2    0    0  0.34112095144E+02  0.56040430718E+02 -0.24376688788E+03  0.26440498879E+03  0.78635472634E+02 0.  0.
         23    2    1    2    0    0  0.53685264896E+02 -0.92779517517E+02 -0.35066568376E+03  0.37771478329E+03  0.90619474809E+02 0.  0.
         13    1    3    3    0    0  0.37305640828E+02  0.55772390136E+02 -0.98963074946E+02  0.11956571641E+03  0.00000000000E+00 0. -1.
        -14    1    3    3    0    0 -0.31935456840E+01  0.26804058232E+00 -0.14480381294E+03  0.14483927237E+03  0.00000000000E+00 0.  1.
        -13    1    4    4    0    0  0.20746961395E+02  0.14816139940E+02 -0.95410162338E+02  0.98757549014E+02  0.00000000000E+00 0.  1.
         13    1    4    4    0    0  0.32938303501E+02 -0.10759565746E+03 -0.25525552142E+03  0.27895723428E+03  0.00000000000E+00 0. -1.
         21    1    1    2  503  501  0.18629183330E+02 -0.95878782716E+01 -0.10627252252E+02  0.23492815321E+02  0.00000000000E+00 0.  1.
          2    1    1    2  501    0 -0.10642654337E+03  0.46326965071E+02 -0.13244473388E+03  0.17610906950E+03  0.00000000000E+00 0. -1.
<scales pt_clust_5="13000.00000" pt_clust_6="13000.00000" pt_clust_7="13000.00000" pt_clust_8="13000.00000" pt_clust_9="20.95170" pt_clust_10="103.79931"></scales>
<clustering>
<clus scale="   20.952">  1  9  2 -1</clus>
<clus scale="   78.635">  5  6 -1 -1</clus>
<clus scale="   90.619">  7  8 -1 -1</clus>
<clus scale="  102.735">  2  5  1 -1</clus>
<clus scale="  103.799">  1 10  2 -1</clus>
<clus scale="   20.952">  1  5  2 -1</clus>
</clustering>
</event>
<event>
10    3  0.7209067E-005  0.1036350E+03  0.7546771E-02  0.1277520E+00
          1   -1    0    0  502    0 -0.00000000000E+00  0.00000000000E+00  0.38315234766E+03  0.38315234766E+03  0.00000000000E+00 0. -1.
         21   -1    0    0  503  502  0.00000000000E+00 -0.00000000000E+00 -0.10650869732E+03  0.10650869732E+03  0.00000000000E+00 0. -1.
         23    2    1    2    0    0  0.45309284825E+02  0.64732174309E+01  0.14312268157E+03  0.17560493630E+03  0.90874406940E+02 0.  0.
        -24    2    1    2    0    0 -0.37217254794E+02 -0.96453482468E+02 -0.46951516140E+01  0.13115278869E+03  0.80564329559E+02 0.  0.
         11    1    4    4    0    0 -0.55246722896E+02 -0.94457808000E+02 -0.14742385716E+02  0.11041655591E+03  0.00000000000E+00 0. -1.
        -12    1    4    4    0    0  0.18029468103E+02 -0.19956744688E+01  0.10047234102E+02  0.20736232776E+02  0.00000000000E+00 0.  1.
        -13    1    3    3    0    0 -0.22852044210E+02  0.22119254104E+02  0.43501446624E+02  0.53887412121E+02  0.00000000000E+00 0.  1.
         13    1    3    3    0    0  0.68161329034E+02 -0.15646036673E+02  0.99621234946E+02  0.12171752418E+03  0.00000000000E+00 0. -1.
         21    1    1    2  503  501 -0.16855011753E+02  0.14072891820E+02 -0.31746678299E+01  0.22185946479E+02  0.00000000000E+00 0. -1.
          2    1    1    2  501    0  0.87629817215E+01  0.75907373218E+02  0.14139078822E+03  0.16071737352E+03  0.00000000000E+00 0. -1.
<scales pt_clust_5="13000.00000" pt_clust_6="13000.00000" pt_clust_7="13000.00000" pt_clust_8="13000.00000" pt_clust_9="21.95763" pt_clust_10="77.67528"></scales>
<clustering>
<clus scale="   21.958">  2  9  1 -1</clus>
<clus scale="   77.675">  2 10  1 -1</clus>
<clus scale="   80.564">  5  6 -1 -1</clus>
<clus scale="   90.874">  7  8 -1 -1</clus>
<clus scale="   94.724">  2  5  1 -1</clus>
<clus scale="   21.958">  2  5  1 -1</clus>
</clustering>
</event>
<event>
10    3  0.7209067E-005  0.1403288E+03  0.7546771E-02  0.1215323E+00
          1   -1    0    0  503    0 -0.00000000000E+00  0.00000000000E+00  0.79818517609E+03  0.79818517609E+03  0.00000000000E+00 0. -1.
         21   -1    0    0  501  502  0.00000000000E+00 -0.00000000000E+00 -0.17014198433E+03  0.17014198433E+03  0.00000000000E+00 0.  1.
        -24    2    1    2    0    0  0.57901944493E+02  0.10733340711E+03  0.50170063826E+03  0.52239227442E+03  0.79479950200E+02 0.  0.
         23    2    1    2    0    0 -0.43375322581E+02 -0.27782205727E+02  0.21988921040E+02  0.10670647188E+03  0.90826697219E+02 0.  0.
         13    1    3    3    0    0  0.47661948746E+02  0.10402409416E+03  0.31088697775E+03  0.33127539368E+03  0.00000000000E+00 0. -1.
        -14    1    3    3    0    0  0.10239995747E+02  0.33093129468E+01  0.19081366051E+03  0.19111688074E+03  0.00000000000E+00 0.  1.
        -11    1    4    4    0    0 -0.64637984472E+02 -0.38191216641E+02  0.31201984982E+02  0.81303148352E+02  0.00000000000E+00 0. -1.
         11    1    4    4    0    0  0.21262661891E+02  0.10409010914E+02 -0.92130639414E+01  0.25403323525E+02  0.00000000000E+00 0.  1.
         21    1    1    2  503  502 -0.38726139279E+02  0.31848585008E+02 -0.96232475623E+02  0.10851145375E+03  0.00000000000E+00 0.  1.
          2    1    1    2  501    0  0.24199517367E+02 -0.11139978639E+03  0.20058610808E+03  0.23071696037E+03  0.00000000000E+00 0. -1.
<scales pt_clust_5="13000.00000" pt_clust_6="13000.00000" pt_clust_7="13000.00000" pt_clust_8="13000.00000" pt_clust_9="50.14027" pt_clust_10="105.47840"></scales>
<clustering>
<clus scale="   50.140">  2  9  1 -1</clus>
<clus scale="   79.480">  5  6 -1 -1</clus>
<clus scale="   90.827">  7  8 -1 -1</clus>
<clus scale="  105.478">  2 10  1 -1</clus>
<clus scale="  133.266">  1  5  2 -1</clus>
<clus scale="   50.140">  2  5  1 -1</clus>
</clustering>
</event>
<event>
10    3  0.7209067E-005  0.1684538E+03  0.7546771E-02  0.1182035E+00
          1   -1    0    0  503    0 -0.00000000000E+00  0.00000000000E+00  0.63639500294E+03  0.63639500294E+03  0.00000000000E+00 0. -1.
         21   -1    0    0  501  502  0.00000000000E+00 -0.00000000000E+00 -0.17568816028E+03  0.17568816028E+03  0.00000000000E+00 0. -1.
        -24    2    1    2    0    0  0.56323577793E+02 -0.14986029820E+03  0.50659943349E+03  0.53739990664E+03  0.80778829216E+02 0.  0.
         23    2    1    2    0    0 -0.66022184188E+02  0.36660130218E+02  0.22595075884E+02  0.12579746312E+03  0.98038616481E+02 0.  0.
         11    1    3    3    0    0  0.53927927114E+02 -0.14572716346E+03  0.37772586516E+03  0.40843782477E+03  0.00000000000E+00 0. -1.
        -12    1    3    3    0    0  0.23956506792E+01 -0.41331347385E+01  0.12887356833E+03  0.12896208187E+03  0.00000000000E+00 0.  1.
        -11    1    4    4    0    0  0.69173433535E+01  0.49246507732E+02  0.85745059280E+01  0.50463752484E+02  0.00000000000E+00 0.  1.
         11    1    4    4    0    0 -0.72939527541E+02 -0.12586377514E+02  0.14020569956E+02  0.75333710640E+02  0.00000000000E+00 0. -1.
         21    1    1    2  503  502  0.30939046789E+02  0.24799342651E+02 -0.10385276207E+02  0.40988851826E+02  0.00000000000E+00 0. -1.
          2    1    1    2  501    0 -0.21240440395E+02  0.88400825333E+02 -0.58102390511E+02  0.10789694162E+03  0.00000000000E+00 0. -1.
<scales pt_clust_5="13000.00000" pt_clust_6="13000.00000" pt_clust_7="13000.00000" pt_clust_8="13000.00000" pt_clust_9="39.65138" pt_clust_10="102.20609"></scales>
<clustering>
<clus scale="   39.651">  2  9  1 -1</clus>
<clus scale="   80.779">  5  6 -1 -1</clus>
<clus scale="   98.039">  7  8 -1 -1</clus>
<clus scale="  102.206">  2 10  1 -1</clus>
<clus scale="  159.029">  1  5  2 -1</clus>
<clus scale="   39.651">  2  5  1 -1</clus>
</clustering>
</event>
<event>
10    3  0.7209067E-005  0.1696727E+03  0.7546771E-02  0.1210423E+00
          1   -1    0    0  503    0 -0.00000000000E+00  0.00000000000E+00  0.27446066587E+03  0.27446066587E+03  0.00000000000E+00 0. -1.
         21   -1    0    0  501  502  0.00000000000E+00 -0.00000000000E+00 -0.29052262884E+03  0.29052262884E+03  0.00000000000E+00 0. -1.
        -24    2    1    2    0    0  0.38541774165E+01  0.23845423026E+02  0.40041126662E+02  0.94142715527E+02  0.81707405904E+02 0.  0.
         23    2    1    2    0    0 -0.52873912191E+02 -0.10154575576E+03 -0.11303624194E+03  0.18685311972E+03  0.95024761265E+02 0.  0.
         11    1    3    3    0    0 -0.24315543849E+02  0.44183907726E+02  0.22569790536E+02  0.55252681559E+02  0.00000000000E+00 0. -1.
        -12    1    3    3    0    0  0.28169721265E+02 -0.20338484700E+02  0.17471336126E+02  0.38890033969E+02  0.00000000000E+00 0.  1.
        -11    1    4    4    0    0 -0.31069378669E+02 -0.33955386058E+02  0.78101668874E+01  0.46682686726E+02  0.00000000000E+00 0.  1.
         11    1    4    4    0    0 -0.21804533522E+02 -0.67590369701E+02 -0.12084640883E+03  0.14017043299E+03  0.00000000000E+00 0. -1.
         21    1    1    2  503  502  0.17453980725E+02 -0.52608709568E+02 -0.76736295244E+02  0.94661379524E+02  0.00000000000E+00 0. -1.
          2    1    1    2  501    0  0.31565754049E+02  0.13030904230E+03  0.13366944756E+03  0.18932607994E+03  0.00000000000E+00 0. -1.
<scales pt_clust_5="13000.00000" pt_clust_6="13000.00000" pt_clust_7="13000.00000" pt_clust_8="13000.00000" pt_clust_9="55.42849" pt_clust_10="140.56724"></scales>
<clustering>
<clus scale="   55.428">  2  9  1 -1</clus>
<clus scale="   81.707">  5  6 -1 -1</clus>
<clus scale="   83.663">  1  5  2 -1</clus>
<clus scale="   95.025">  7  8 -1 -1</clus>
<clus scale="  140.567">  2 10  1 -1</clus>
<clus scale="   55.428">  2  5  1 -1</clus>
</clustering>
</event>
<event>
10    3  0.7209067E-005  0.1687692E+03  0.7546771E-02  0.1180719E+00
          1   -1    0    0  503    0 -0.00000000000E+00  0.00000000000E+00  0.35172416814E+03  0.35172416814E+03  0.00000000000E+00 0. -1.
         21   -1    0    0  501  502  0.00000000000E+00 -0.00000000000E+00 -0.22620772466E+03  0.22620772466E+03  0.00000000000E+00 0. -1.
         23    2    1    2    0    0 -0.12789200477E+03  0.91352459401E+02  0.21302395250E+03  0.28018117644E+03  0.91764102848E+02 0.  0.
        -24    2    1    2    0    0  0.71202313433E+02 -0.65978718988E+02 -0.57173717255E+02  0.13840957966E+03  0.80407816782E+02 0.  0.
         13    1    4    4    0    0  0.64573961536E+02 -0.14567918589E+02 -0.55763667370E+02  0.86554071880E+02  0.00000000000E+00 0. -1.
        -14    1    4    4    0    0  0.66283518972E+01 -0.51410800399E+02 -0.14100498857E+01  0.51855507781E+02  0.00000000000E+00 0.  1.
        -11    1    3    3    0    0 -0.39269791619E+02  0.39779457567E+01  0.11553617222E+03  0.12209237354E+03  0.00000000000E+00 0.  1.
         11    1    3    3    0    0 -0.88622213155E+02  0.87374513644E+02  0.97487780281E+02  0.15808880290E+03  0.00000000000E+00 0. -1.
         21    1    1    2  503  502 -0.43383539908E+02 -0.14334137990E+00 -0.35426758377E+02  0.56010778345E+02  0.00000000000E+00 0. -1.
          2    1    1    2  501    0  0.10007323125E+03 -0.25230399033E+02  0.50929666159E+01  0.10333035835E+03  0.00000000000E+00 0. -1.
<scales pt_clust_5="13000.00000" pt_clust_6="13000.00000" pt_clust_7="13000.00000" pt_clust_8="13000.00000" pt_clust_9="43.38378" pt_clust_10="91.81263"></scales>
<clustering>
<clus scale="   43.384">  2  9  1 -1</clus>
<clus scale="   80.408">  5  6 -1 -1</clus>
<clus scale="   91.764">  7  8 -1 -1</clus>
<clus scale="   91.813">  2 10  1 -1</clus>
<clus scale="  162.874">  2  5  1 -1</clus>
<clus scale="   43.384">  2  5  1 -1</clus>
</clustering>
</event>
<event>
10    3  0.7209067E-005  0.1522832E+03  0.7546771E-02  0.1198851E+00
          1   -1    0    0  502    0 -0.00000000000E+00  0.00000000000E+00  0.17581526229E+03  0.17581526229E+03  0.00000000000E+00 0. -1.
         21   -1    0    0  503  502  0.00000000000E+00 -0.00000000000E+00 -0.19851899775E+03  0.19851899775E+03  0.00000000000E+00 0. -1.
         23    2    1    2    0    0  0.28216841971E+02 -0.12404905613E+03  0.50774685729E+01  0.14554388499E+03  0.70518673208E+02 0.  0.
        -24    2    1    2    0    0 -0.37578679431E+02  0.13039230512E+03 -0.37222870034E+02  0.16097134904E+03  0.78178787254E+02 0.  0.
         13    1    4    4    0    0 -0.41558898487E+02  0.12069860229E+03 -0.56056373056E+02  0.13941883517E+03  0.00000000000E+00 0. -1.
        -14    1    4    4    0    0  0.39802190558E+01  0.96937028237E+01  0.18833503022E+02  0.21552513873E+02  0.00000000000E+00 0.  1.
        -13    1    3    3    0    0  0.41253563748E+01 -0.26495167868E+02 -0.28944181404E+02  0.39456027710E+02  0.00000000000E+00 0. -1.
         13    1    3    3    0    0  0.24091485596E+02 -0.97553888267E+02  0.34021649977E+02  0.10608785728E+03  0.00000000000E+00 0.  1.
         21    1    1    2  503  501 -0.93900529290E+01  0.26134444879E+02 -0.38394492817E+01  0.28034330275E+02  0.00000000000E+00 0. -1.
          2    1    1    2  501    0  0.18751890389E+02 -0.32477693863E+02  0.13281115279E+02  0.39784695737E+02  0.00000000000E+00 0. -1.
<scales pt_clust_5="13000.00000" pt_clust_6="13000.00000" pt_clust_7="13000.00000" pt_clust_8="13000.00000" pt_clust_9="27.77017" pt_clust_10="35.52081"></scales>
<clustering>
<clus scale="   27.770">  2  9  1 -1</clus>
<clus scale="   35.521">  2 10  1 -1</clus>
<clus scale="   70.519">  7  8 -1 -1</clus>
<clus scale="   78.179">  5  6 -1 -1</clus>
<clus scale="  148.496">  1  7  2 -1</clus>
<clus scale="   27.770">  2  5  1 -1</clus>
</clustering>
</event>
<event>
10    3  0.7209067E-005  0.1037872E+03  0.7546771E-02  0.1276707E+00
          1   -1    0    0  503    0 -0.00000000000E+00  0.00000000000E+00  0.39888410492E+03  0.39888410492E+03  0.00000000000E+00 0. -1.
         21   -1    0    0  501  502  0.00000000000E+00 -0.00000000000E+00 -0.89404616829E+02  0.89404616829E+02  0.00000000000E+00 0.  1.
        -24    2    1    2    0    0  0.18549066714E+02 -0.31441027293E+02  0.14391532235E+03  0.16983196333E+03  0.82454045906E+02 0.  0.
         23    2    1    2    0    0 -0.46589220040E+02  0.57277374511E+02  0.10644798573E+03  0.15867542415E+03  0.91626761968E+02 0.  0.
         11    1    3    3    0    0 -0.96273766386E+01 -0.47328972870E+02  0.45949320316E+02  0.66663768956E+02  0.00000000000E+00 0. -1.
        -12    1    3    3    0    0  0.28176443352E+02  0.15887945577E+02  0.97966002037E+02  0.10316819437E+03  0.00000000000E+00 0.  1.
        -11    1    4    4    0    0 -0.37079009702E+02  0.90227853171E+00  0.92742267642E+02  0.99883908986E+02  0.00000000000E+00 0.  1.
         11    1    4    4    0    0 -0.95102103377E+01  0.56375095979E+02  0.13705718093E+02  0.58791515168E+02  0.00000000000E+00 0. -1.
         21    1    1    2  503  502 -0.15951599070E+02  0.41566160766E+02 -0.18270827660E+02  0.48125070151E+02  0.00000000000E+00 0.  1.
          2    1    1    2  501    0  0.43991752396E+02 -0.67402507983E+02  0.77387007664E+02  0.11165626412E+03  0.00000000000E+00 0. -1.
<scales pt_clust_5="13000.00000" pt_clust_6="13000.00000" pt_clust_7="13000.00000" pt_clust_8="13000.00000" pt_clust_9="44.52190" pt_clust_10="67.27970"></scales>
<clustering>
<clus scale="   44.522">  2  9  1 -1</clus>
<clus scale="   67.280">  2 10  1 -1</clus>
<clus scale="   82.454">  5  6 -1 -1</clus>
<clus scale="   91.627">  7  8 -1 -1</clus>
<clus scale="   95.786">  1  5  2 -1</clus>
<clus scale="   44.522">  2  5  1 -1</clus>
</clustering>
</event>
<event>
10    3  0.7209067E-005  0.1290032E+03  0.7546771E-02  0.1233291E+00
          1   -1    0    0  503    0 -0.00000000000E+00  0.00000000000E+00  0.40173189229E+03  0.40173189229E+03  0.00000000000E+00 0. -1.
         21   -1    0    0  501  502  0.00000000000E+00 -0.00000000000E+00 -0.17406131685E+03  0.17406131685E+03  0.00000000000E+00 0. -1.
        -24    2    1    2    0    0  0.44780198142E+02 -0.78750851108E+02  0.21868502371E+03  0.24905269487E+03  0.77441219842E+02 0.  0.
         23    2    1    2    0    0 -0.97498166840E+02  0.33352118231E+02  0.10067141567E+03  0.17170074589E+03  0.93424599975E+02 0.  0.
         11    1    3    3    0    0  0.21550383606E+01 -0.68416844515E+02  0.17137471156E+03  0.18453942821E+03  0.00000000000E+00 0. -1.
        -12    1    3    3    0    0  0.42625159781E+02 -0.10334006592E+02  0.47310312152E+02  0.64513266655E+02  0.00000000000E+00 0.  1.
        -13    1    4    4    0    0 -0.82966049385E+02 -0.16511980175E+02  0.45999653485E+02  0.96291115689E+02  0.00000000000E+00 0. -1.
         13    1    4    4    0    0 -0.14532117455E+02  0.49864098407E+02  0.54671762182E+02  0.75409630206E+02  0.00000000000E+00 0.  1.
         21    1    1    2  503  502  0.25174500430E+02  0.32624422539E+02 -0.11144175947E+03  0.11881655681E+03  0.00000000000E+00 0. -1.
          2    1    1    2  501    0  0.27543468268E+02  0.12774310338E+02  0.19755895531E+02  0.36223211579E+02  0.00000000000E+00 0. -1.
<scales pt_clust_5="13000.00000" pt_clust_6="13000.00000" pt_clust_7="13000.00000" pt_clust_8="13000.00000" pt_clust_9="60.69532" pt_clust_10="30.36160"></scales>
<clustering>
<clus scale="   30.362">  2 10  1 -1</clus>
<clus scale="   60.695">  2  9  1 -1</clus>
<clus scale="   77.441">  5  6 -1 -1</clus>
<clus scale="   93.425">  7  8 -1 -1</clus>
<clus scale="  117.944">  1  5  2 -1</clus>
<clus scale="   30.362">  2  5  1 -1</clus>
</clustering>
</event>
<event>
10    3  0.7209067E-005  0.1408517E+03  0.7546771E-02  0.1236923E+00
         21   -1    0    0  501  502  0.00000000000E+00  0.00000000000E+00  0.47648338593E+03  0.47648338593E+03  0.00000000000E+00 0. -1.
          3   -1    0    0  503    0 -0.00000000000E+00 -0.00000000000E+00 -0.18760474507E+03  0.18760474507E+03  0.00000000000E+00 0. -1.
        -24    2    1    2    0    0  0.28354823638E+02 -0.13874705042E+02 -0.95622284230E+01  0.88888541962E+02  0.82542311672E+02 0.  0.
         23    2    1    2    0    0  0.97233336197E+02  0.47566004684E+02 -0.66650726240E+02  0.15549939435E+03  0.89559454359E+02 0.  0.
         13    1    3    3    0    0  0.18656659498E+02 -0.16218921868E+02  0.35207953440E+02  0.43020045974E+02  0.00000000000E+00 0. -1.
        -14    1    3    3    0    0  0.96981641396E+01  0.23442168258E+01 -0.44770181862E+02  0.45868495988E+02  0.00000000000E+00 0.  1.
        -13    1    4    4    0    0  0.40625353807E+02  0.67432041133E+02 -0.49919749096E+02  0.93217385144E+02  0.00000000000E+00 0.  1.
         13    1    4    4    0    0  0.56607982391E+02 -0.19866036449E+02 -0.16730977144E+02  0.62282009206E+02  0.00000000000E+00 0. -1.
         21    1    1    2  503  502 -0.64238537854E+02  0.44605870289E+02  0.27358033867E+03  0.28453905728E+03  0.00000000000E+00 0. -1.
          4    1    1    2  501    0 -0.61349621981E+02 -0.78297169931E+02  0.91511256841E+02  0.13516113741E+03  0.00000000000E+00 0. -1.
<scales pt_clust_5="13000.00000" pt_clust_6="13000.00000" pt_clust_7="13000.00000" pt_clust_8="13000.00000" pt_clust_9="78.20661" pt_clust_10="108.71203"></scales>
<clustering>
<clus scale="   78.207">  1  9  2 -1</clus>
<clus scale="   82.542">  5  6 -1 -1</clus>
<clus scale="   84.119">  2  5  1 -1</clus>
<clus scale="   89.559">  7  8 -1 -1</clus>
<clus scale="  108.712">  1 10  2 -1</clus>
<clus scale="   78.207">  1  5  2 -1</clus>
</clustering>
</event>
<event>
10    3  0.7209067E-005  0.1376762E+03  0.7546771E-02  0.1228537E+00
         21   -1    0    0  503  502  0.00000000000E+00  0.00000000000E+00  0.44805337240E+03  0.44805337240E+03  0.00000000000E+00 0. -1.
          3   -1    0    0  502    0 -0.00000000000E+00 -0.00000000000E+00 -0.29404775028E+03  0.29404775028E+03  0.00000000000E+00 0. -1.
         23    2    1    2    0    0 -0.12500719223E+02  0.54858170645E+02 -0.20180598171E+03  0.22848078082E+03  0.91170862024E+02 0.  0.
        -24    2    1    2    0    0  0.59906561275E+02  0.84878019873E+02  0.42347823491E+02  0.13790868069E+03  0.80202192704E+02 0.  0.
         11    1    4    4    0    0  0.78916591445E+02  0.75628728578E+02  0.40943072039E+02  0.11672132684E+03  0.00000000000E+00 0. -1.
        -12    1    4    4    0    0 -0.19010030170E+02  0.92492912957E+01  0.14047514515E+01  0.21187353851E+02  0.00000000000E+00 0.  1.
        -13    1    3    3    0    0  0.24321362232E+02  0.15152158777E+01 -0.10576386762E+02  0.26564722790E+02  0.00000000000E+00 0. -1.
         13    1    3    3    0    0 -0.36822081455E+02  0.53342954767E+02 -0.19122959495E+03  0.20191605803E+03  0.00000000000E+00 0.  1.
         21    1    1    2  503  501 -0.53716158912E+02 -0.17848776060E+02  0.20419277739E+03  0.21189312134E+03  0.00000000000E+00 0. -1.
          4    1    1    2  501    0  0.63103168603E+01 -0.12188741446E+03  0.10927100296E+03  0.16381853982E+03  0.00000000000E+00 0. -1.
<scales pt_clust_5="13000.00000" pt_clust_6="13000.00000" pt_clust_7="13000.00000" pt_clust_8="13000.00000" pt_clust_9="56.60393" pt_clust_10="111.90324"></scales>
<clustering>
<clus scale="   56.604">  1  9  2 -1</clus>
<clus scale="   80.202">  5  6 -1 -1</clus>
<clus scale="   91.171">  7  8 -1 -1</clus>
<clus scale="  107.021">  2  7  1 -1</clus>
<clus scale="  111.903">  1 10  2 -1</clus>
<clus scale="   56.604">  1  5  2 -1</clus>
</clustering>
</event>
<event>
10    3  0.7209067E-005  0.3763388E+03  0.7546771E-02  0.1078569E+00
          1   -1    0    0  503    0 -0.00000000000E+00  0.00000000000E+00  0.21276757062E+04  0.21276757062E+04  0.00000000000E+00 0. -1.
         21   -1    0    0  501  502  0.00000000000E+00 -0.00000000000E+00 -0.40201670367E+03  0.40201670367E+03  0.00000000000E+00 0. -1.
         23    2    1    2    0    0  0.12206325756E+03  0.13606048895E+03 -0.18311171053E+03  0.27514803519E+03  0.93619694715E+02 0.  0.
        -24    2    1    2    0    0  0.32477455703E+03  0.12534108556E+03  0.22248632272E+03  0.42129364231E+03  0.82457677811E+02 0.  0.
         13    1    4    4    0    0  0.90569950101E+02  0.76022371796E+02  0.67560854974E+02  0.13618658524E+03  0.00000000000E+00 0. -1.
        -14    1    4    4    0    0  0.23420460693E+03  0.49318713761E+02  0.15492546775E+03  0.28510705707E+03  0.00000000000E+00 0.  1.
        -13    1    3    3    0    0  0.10492102797E+03  0.93940655280E+02 -0.18138807517E+03  0.22964081222E+03  0.00000000000E+00 0. -1.
         13    1    3    3    0    0  0.17142229598E+02  0.42119833666E+02 -0.17236353574E+01  0.45507222971E+02  0.00000000000E+00 0.  1.
         21    1    1    2  503  502  0.86293518843E+01 -0.73839924986E+02 -0.22099396552E+01  0.74375292061E+02  0.00000000000E+00 0. -1.
          2    1    1    2  501    0 -0.45546716648E+03 -0.18756164952E+03  0.16884943300E+04  0.17588754403E+04  0.00000000000E+00 0. -1.
<scales pt_clust_5="13000.00000" pt_clust_6="13000.00000" pt_clust_7="13000.00000" pt_clust_8="13000.00000" pt_clust_9="74.34245" pt_clust_10="367.19448"></scales>
<clustering>
<clus scale="   74.342">  2  9  1 -1</clus>
<clus scale="   82.458">  5  6 -1 -1</clus>
<clus scale="   93.620">  7  8 -1 -1</clus>
<clus scale="  181.766">  1  7  2 -1</clus>
<clus scale="  367.194">  2 10  1 -1</clus>
<clus scale="   74.342">  2  5  1 -1</clus>
</clustering>
</event>
<event>
10    3  0.7209067E-005  0.1287230E+03  0.7546771E-02  0.1233711E+00
          1   -1    0    0  503    0 -0.00000000000E+00  0.00000000000E+00  0.24476560447E+03  0.24476560447E+03  0.00000000000E+00 0. -1.
         21   -1    0    0  501  502  0.00000000000E+00 -0.00000000000E+00 -0.92117214602E+02  0.92117214602E+02  0.00000000000E+00 0. -1.
         23    2    1    2    0    0  0.35302340058E+02 -0.85156124376E+02  0.48054931710E+02  0.13966329833E+03  0.93267034405E+02 0.  0.
        -24    2    1    2    0    0 -0.60650155742E+02  0.63328660162E+02  0.61055356250E+02  0.13190272383E+03  0.77340878174E+02 0.  0.
         11    1    4    4    0    0 -0.32001438675E+02  0.77073888668E+02  0.33796295601E+02  0.90037025651E+02  0.00000000000E+00 0. -1.
        -12    1    4    4    0    0 -0.28648717067E+02 -0.13745228507E+02  0.27259060648E+02  0.41865698176E+02  0.00000000000E+00 0.  1.
        -13    1    3    3    0    0  0.44151223102E+02  0.54802695064E+00  0.23771225594E+02  0.50146804496E+02  0.00000000000E+00 0.  1.
         13    1    3    3    0    0 -0.88488830446E+01 -0.85704151326E+02  0.24283706116E+02  0.89516493835E+02  0.00000000000E+00 0. -1.
         21    1    1    2  503  502 -0.16981468397E+00  0.20966374414E+02  0.29463316442E+02  0.36162200001E+02  0.00000000000E+00 0.  1.
          2    1    1    2  501    0  0.25517630369E+02  0.86108979962E+00  0.14074785465E+02  0.29154596913E+02  0.00000000000E+00 0. -1.
<scales pt_clust_5="13000.00000" pt_clust_6="13000.00000" pt_clust_7="13000.00000" pt_clust_8="13000.00000" pt_clust_9="20.96706" pt_clust_10="25.67610"></scales>
<clustering>
<clus scale="   20.967">  1  9  2 -1</clus>
<clus scale="   25.676">  2 10  1 -1</clus>
<clus scale="   77.341">  5  6 -1 -1</clus>
<clus scale="   93.267">  7  8 -1 -1</clus>
<clus scale="  117.697">  2  5  1 -1</clus>
<clus scale="   25.676">  2  5  1 -1</clus>
</clustering>
</event>
<event>
10    3  0.7209067E-005  0.2899412E+03  0.7546771E-02  0.1125981E+00
         -4   -1    0    0    0  501 -0.00000000000E+00  0.00000000000E+00  0.17813246894E+03  0.17813246894E+03  0.00000000000E+00 0.  1.
         21   -1    0    0  503  502  0.00000000000E+00 -0.00000000000E+00 -0.88356118704E+03  0.88356118704E+03  0.00000000000E+00 0.  1.
        -24    2    1    2    0    0 -0.76456047850E+02  0.44289870091E+01 -0.64388686282E+02  0.13218108703E+03  0.86375885919E+02 0.  0.
         23    2    1    2    0    0 -0.16082254419E+03  0.18656454342E+03 -0.42256974258E+03  0.49750641796E+03  0.90979277787E+02 0.  0.
         11    1    3    3    0    0 -0.28690847188E+02  0.32339227274E+02  0.49087516585E+01  0.43509610155E+02  0.00000000000E+00 0. -1.
        -12    1    3    3    0    0 -0.47765200662E+02 -0.27910240265E+02 -0.69297437940E+02  0.88671476874E+02  0.00000000000E+00 0.  1.
        -13    1    4    4    0    0 -0.57430563433E+02  0.10496109394E+03 -0.27384070820E+03  0.29883747142E+03  0.00000000000E+00 0.  1.
         13    1    4    4    0    0 -0.10339198076E+03  0.81603449483E+02 -0.14872903438E+03  0.19866894654E+03  0.00000000000E+00 0. -1.
         21    1    1    2  503  501 -0.14458459678E+02  0.15812471474E+02 -0.71420824913E+02  0.74565511743E+02  0.00000000000E+00 0.  1.
         -3    1    1    2    0  502  0.25173705172E+03 -0.20680600191E+03 -0.14704946433E+03  0.35744063925E+03  0.00000000000E+00 0.  1.
<scales pt_clust_5="13000.00000" pt_clust_6="13000.00000" pt_clust_7="13000.00000" pt_clust_8="13000.00000" pt_clust_9="21.42618" pt_clust_10="275.29761"></scales>
<clustering>
<clus scale="   21.426">  2  9  1 -1</clus>
<clus scale="   86.376">  5  6 -1 -1</clus>
<clus scale="   90.979">  7  8 -1 -1</clus>
<clus scale="  116.695">  1  5  2 -1</clus>
<clus scale="  275.298">  2 10  1 -1</clus>
<clus scale="   21.426">  2  5  1 -1</clus>
</clustering>
</event>
<event>
10    3  0.7209067E-005  0.9237015E+02  0.7546771E-02  0.1301613E+00
         21   -1    0    0  501  502  0.00000000000E+00  0.00000000000E+00  0.51712108478E+03  0.51712108478E+03  0.00000000000E+00 0. -1.
          1   -1    0    0  503    0 -0.00000000000E+00 -0.00000000000E+00 -0.55404986527E+03  0.55404986527E+03  0.00000000000E+00 0. -1.
        -24    2    1    2    0    0  0.17016886175E+02 -0.13017587302E+02 -0.46258924492E+03  0.47010045140E+03  0.80911018369E+02 0.  0.
         23    2    1    2    0    0 -0.82750262128E+02  0.60724855858E+02 -0.27455135024E+02  0.13825569796E+03  0.88463210312E+02 0.  0.
         13    1    3    3    0    0  0.12390921959E+02 -0.46715145320E+02 -0.22870763628E+03  0.23375847074E+03  0.00000000000E+00 0. -1.
        -14    1    3    3    0    0  0.46259642159E+01  0.33697558019E+02 -0.23388160864E+03  0.23634198065E+03  0.00000000000E+00 0.  1.
        -13    1    4    4    0    0 -0.62033290986E+02  0.51787572134E+02  0.22125101379E+02  0.83783064691E+02  0.00000000000E+00 0.  1.
         13    1    4    4    0    0 -0.20716971143E+02  0.89372837240E+01 -0.49580236403E+02  0.54472633271E+02  0.00000000000E+00 0. -1.
         21    1    1    2  503  502 -0.75905495000E+00 -0.23375561230E+02  0.10543308151E+03  0.10799596152E+03  0.00000000000E+00 0. -1.
          2    1    1    2  501    0  0.66492430904E+02 -0.24331707326E+02  0.34768251794E+03  0.35481883917E+03  0.00000000000E+00 0. -1.
<scales pt_clust_5="13000.00000" pt_clust_6="13000.00000" pt_clust_7="13000.00000" pt_clust_8="13000.00000" pt_clust_9="23.38788" pt_clust_10="79.37962"></scales>
<clustering>
<clus scale="   23.388">  1  9  2 -1</clus>
<clus scale="   79.380">  1 10  2 -1</clus>
<clus scale="   80.911">  5  6 -1 -1</clus>
<clus scale="   85.165">  2  5  1 -1</clus>
<clus scale="   88.463">  7  8 -1 -1</clus>
<clus scale="   23.388">  1  5  2 -1</clus>
</clustering>
</event>
<event>
10    3  0.7209067E-005  0.1851733E+03  0.7546771E-02  0.1196685E+00
         21   -1    0    0  503  502  0.00000000000E+00  0.00000000000E+00  0.35271555517E+02  0.35271555517E+02  0.00000000000E+00 0. -1.
         -2   -1    0    0    0  501 -0.00000000000E+00 -0.00000000000E+00 -0.18221568771E+04  0.18221568771E+04  0.00000000000E+00 0.  1.
        -24    2    1    2    0    0  0.25058948084E+02  0.18248004791E+02 -0.14800176859E+03  0.17082911983E+03  0.79480337916E+02 0.  0.
         23    2    1    2    0    0 -0.62887802192E+02  0.15262112014E+03 -0.85721008612E+03  0.87774461724E+03  0.91533596946E+02 0.  0.
         11    1    3    3    0    0 -0.13744473781E+02  0.20157049077E+02 -0.82134821619E+01  0.25742542147E+02  0.00000000000E+00 0. -1.
        -12    1    3    3    0    0  0.38803421865E+02 -0.19090442859E+01 -0.13978828643E+03  0.14508657768E+03  0.00000000000E+00 0.  1.
        -11    1    4    4    0    0 -0.45325196675E+02  0.35686441201E+02 -0.14987478611E+03  0.16059373291E+03  0.00000000000E+00 0.  1.
         11    1    4    4    0    0 -0.17562605517E+02  0.11693467894E+03 -0.70733530001E+03  0.71715088433E+03  0.00000000000E+00 0. -1.
         21    1    1    2  503  501  0.16799647132E+02 -0.11663706221E+02 -0.14541080159E+02  0.25094086928E+02  0.00000000000E+00 0. -1.
         -1    1    1    2    0  502  0.21029206975E+02 -0.15920541871E+03 -0.76713238672E+03  0.78376060864E+03  0.00000000000E+00 0.  1.
<scales pt_clust_5="13000.00000" pt_clust_6="13000.00000" pt_clust_7="13000.00000" pt_clust_8="13000.00000" pt_clust_9="20.45165" pt_clust_10="160.96826"></scales>
<clustering>
<clus scale="   20.452">  1  9  2 -1</clus>
<clus scale="   79.480">  5  6 -1 -1</clus>
<clus scale="   86.585">  2  5  1 -1</clus>
<clus scale="   91.534">  7  8 -1 -1</clus>
<clus scale="  160.968">  1 10  2 -1</clus>
<clus scale="   20.452">  1  5  2 -1</clus>
</clustering>
</event>
<event>
10    3  0.7209067E-005  0.1813585E+03  0.7546771E-02  0.1189781E+00
          3   -1    0    0  502    0 -0.00000000000E+00  0.00000000000E+00  0.98964962446E+02  0.98964962446E+02  0.00000000000E+00 0. -1.
         21   -1    0    0  503  502  0.00000000000E+00 -0.00000000000E+00 -0.63286352488E+03  0.63286352488E+03  0.00000000000E+00 0. -1.
         23    2    1    2    0    0  0.32725428857E+02 -0.44908897932E+02 -0.87144340762E+02  0.13703708736E+03  0.89984800817E+02 0.  0.
        -24    2    1    2    0    0 -0.10459003287E+03 -0.11620145312E+03 -0.11151502175E+03  0.20855833690E+03  0.81358018257E+02 0.  0.
         13    1    4    4    0    0 -0.92515651451E+02 -0.43002854903E+02 -0.66522574924E+02  0.12179344920E+03  0.00000000000E+00 0. -1.
        -14    1    4    4    0    0 -0.12074381415E+02 -0.73198598214E+02 -0.44992446823E+02  0.86764887704E+02  0.00000000000E+00 0.  1.
        -13    1    3    3    0    0  0.50142396905E+02 -0.16920430860E+02 -0.89513695944E+02  0.10398683912E+03  0.00000000000E+00 0. -1.
         13    1    3    3    0    0 -0.17416968048E+02 -0.27988467072E+02  0.23693551811E+01  0.33050248244E+02  0.00000000000E+00 0.  1.
         21    1    1    2  503  501  0.25877782373E+02  0.17461546209E+01 -0.46355034148E+02  0.53117773555E+02  0.00000000000E+00 0.  1.
          4    1    1    2  501    0  0.45986821636E+02  0.15936419643E+03 -0.28888416578E+03  0.33311528951E+03  0.00000000000E+00 0. -1.
<scales pt_clust_5="13000.00000" pt_clust_6="13000.00000" pt_clust_7="13000.00000" pt_clust_8="13000.00000" pt_clust_9="25.93663" pt_clust_10="162.08567"></scales>
<clustering>
<clus scale="   25.937">  2  9  1 -1</clus>
<clus scale="   81.358">  5  6 -1 -1</clus>
<clus scale="   89.985">  7  8 -1 -1</clus>
<clus scale="  107.263">  1  7  2 -1</clus>
<clus scale="  162.086">  2 10  1 -1</clus>
<clus scale="   25.937">  2  5  1 -1</clus>
</clustering>
</event>
<event>
10    3  0.7209067E-005  0.1008069E+03  0.7546771E-02  0.1284302E+00
          1   -1    0    0  503    0 -0.00000000000E+00  0.00000000000E+00  0.18654639248E+03  0.18654639248E+03  0.00000000000E+00 0. -1.
         21   -1    0    0  501  502  0.00000000000E+00 -0.00000000000E+00 -0.37048900001E+03  0.37048900001E+03  0.00000000000E+00 0. -1.
         23    2    1    2    0    0  0.30631848541E+02 -0.29712742291E+02  0.13574730266E+03  0.16941272919E+03  0.91935767981E+02 0.  0.
        -24    2    1    2    0    0 -0.22209829109E+02  0.34949814814E+01 -0.28448045526E+03  0.29649779882E+03  0.80475610434E+02 0.  0.
         13    1    4    4    0    0 -0.49817175875E+02  0.53382150110E+01 -0.23000132869E+03  0.23539511199E+03  0.00000000000E+00 0. -1.
        -14    1    4    4    0    0  0.27607346767E+02 -0.18432335296E+01 -0.54479126573E+02  0.61102686827E+02  0.00000000000E+00 0.  1.
        -11    1    3    3    0    0  0.30650613622E+02 -0.61530492588E+02  0.10228304830E+03  0.12323669747E+03  0.00000000000E+00 0.  1.
         11    1    3    3    0    0 -0.18765081092E-01  0.31817750297E+02  0.33464254360E+02  0.46176031726E+02  0.00000000000E+00 0. -1.
         21    1    1    2  503  502 -0.36552974133E+02  0.78475611344E+01 -0.42646699053E+02  0.56713711515E+02  0.00000000000E+00 0. -1.
          2    1    1    2  501    0  0.28130954702E+02  0.18370199675E+02  0.74372441230E+01  0.34411152969E+02  0.00000000000E+00 0. -1.
<scales pt_clust_5="13000.00000" pt_clust_6="13000.00000" pt_clust_7="13000.00000" pt_clust_8="13000.00000" pt_clust_9="34.25638" pt_clust_10="33.59786"></scales>
<clustering>
<clus scale="   33.598">  2 10  1 -1</clus>
<clus scale="   34.256">  2  9  1 -1</clus>
<clus scale="   80.476">  5  6 -1 -1</clus>
<clus scale="   90.477">  2  5  1 -1</clus>
<clus scale="   91.936">  7  8 -1 -1</clus>
<clus scale="   33.598">  2  5  1 -1</clus>
</clustering>
</event>
<event>
10    3  0.7209067E-005  0.1345669E+03  0.7546771E-02  0.1222031E+00
         21   -1    0    0  503  502  0.00000000000E+00  0.00000000000E+00  0.36930594257E+03  0.36930594257E+03  0.00000000000E+00 0.  1.
          1   -1    0    0  502    0 -0.00000000000E+00 -0.00000000000E+00 -0.11717065992E+03  0.11717065992E+03  0.00000000000E+00 0. -1.
        -24    2    1    2    0    0 -0.15653753233E+02  0.10548059464E+03 -0.38256967962E+02  0.13972408524E+03  0.81780367828E+02 0.  0.
         23    2    1    2    0    0 -0.10735321593E+02 -0.91507187390E+02  0.14079885335E+03  0.18944117201E+03  0.87033488232E+02 0.  0.
         13    1    3    3    0    0  0.28452130280E+02  0.74015476991E+02 -0.14707290457E+02  0.80648118045E+02  0.00000000000E+00 0. -1.
        -14    1    3    3    0    0 -0.44105883513E+02  0.31465117647E+02 -0.23549677505E+02  0.59075967191E+02  0.00000000000E+00 0.  1.
        -11    1    4    4    0    0 -0.17027071250E+02  0.10616455806E+02  0.75457351745E+01  0.21437546701E+02  0.00000000000E+00 0. -1.
         11    1    4    4    0    0  0.62917496569E+01 -0.10212364320E+03  0.13325311818E+03  0.16800362531E+03  0.00000000000E+00 0.  1.
         21    1    1    2  503  501  0.20921960704E+02  0.99523266066E+01  0.88251216055E+02  0.91241735953E+02  0.00000000000E+00 0. -1.
          2    1    1    2  501    0  0.54671141223E+01 -0.23925733855E+02  0.61342181206E+02  0.66069609295E+02  0.00000000000E+00 0. -1.
<scales pt_clust_5="13000.00000" pt_clust_6="13000.00000" pt_clust_7="13000.00000" pt_clust_8="13000.00000" pt_clust_9="23.16845" pt_clust_10="23.95436"></scales>
<clustering>
<clus scale="   23.168">  1  9  2 -1</clus>
<clus scale="   23.954">  1 10  2 -1</clus>
<clus scale="   81.780">  5  6 -1 -1</clus>
<clus scale="   87.033">  7  8 -1 -1</clus>
<clus scale="  131.231">  2  5  1 -1</clus>
<clus scale="   23.168">  1  5  2 -1</clus>
</clustering>
</event>
<event>
10    3  0.7209067E-005  0.1156842E+03  0.7546771E-02  0.1254616E+00
         21   -1    0    0  501  502  0.00000000000E+00  0.00000000000E+00  0.10409675214E+03  0.10409675214E+03  0.00000000000E+00 0. -1.
          3   -1    0    0  503    0 -0.00000000000E+00 -0.00000000000E+00 -0.42239831296E+03  0.42239831296E+03  0.00000000000E+00 0. -1.
        -24    2    1    2    0    0  0.59979838115E+02  0.18307577739E+02 -0.16319843009E+03  0.19230845001E+03  0.80100336934E+02 0.  0.
         23    2    1    2    0    0 -0.66023188588E+02 -0.10526660921E+03 -0.26017397840E+02  0.15685672090E+03  0.92124944804E+02 0.  0.
         13    1    3    3    0    0  0.52749900069E+02 -0.22032389069E+02 -0.69160933237E+02  0.89728550705E+02  0.00000000000E+00 0. -1.
        -14    1    3    3    0    0  0.72299380455E+01  0.40339966808E+02 -0.94037496856E+02  0.10257989930E+03  0.00000000000E+00 0.  1.
        -13    1    4    4    0    0 -0.86332487740E+02 -0.60854512483E+02 -0.21700784999E+02  0.10783085921E+03  0.00000000000E+00 0. -1.
         13    1    4    4    0    0  0.20309299151E+02 -0.44412096731E+02 -0.43166128417E+01  0.49025861690E+02  0.00000000000E+00 0.  1.
         21    1    1    2  503  502 -0.14972744589E+02  0.45982532489E+02 -0.96347953479E+01  0.49309285698E+02  0.00000000000E+00 0.  1.
          4    1    1    2  501    0  0.21016095062E+02  0.40976498986E+02 -0.11945093753E+03  0.12802060849E+03  0.00000000000E+00 0. -1.
<scales pt_clust_5="13000.00000" pt_clust_6="13000.00000" pt_clust_7="13000.00000" pt_clust_8="13000.00000" pt_clust_9="55.19261" pt_clust_10="46.05162"></scales>
<clustering>
<clus scale="   46.052">  1 10  2 -1</clus>
<clus scale="   55.193">  1  9  2 -1</clus>
<clus scale="   80.100">  5  6 -1 -1</clus>
<clus scale="   92.125">  7  8 -1 -1</clus>
<clus scale="  106.357">  2  5  1 -1</clus>
<clus scale="   46.052">  1  5  2 -1</clus>
</clustering>
</event>
<event>
10    3  0.7209067E-005  0.1754282E+03  0.7546771E-02  0.1194013E+00
         -2   -1    0    0    0  501 -0.00000000000E+00  0.00000000000E+00  0.50364959929E+03  0.50364959929E+03  0.00000000000E+00 0.  1.
         21   -1    0    0  501  502  0.00000000000E+00 -0.00000000000E+00 -0.14803998266E+03  0.14803998266E+03  0.00000000000E+00 0.  1.
        -24    2    1    2    0    0  0.15767798862E+02  0.74238397838E+02  0.30200998656E+01  0.11085713346E+03  0.80747878248E+02 0.  0.
         23    2    1    2    0    0 -0.18584030109E+03 -0.20026420527E+02  0.20723439399E+03  0.28530645795E+03  0.59295917809E+02 0.  0.
         13    1    3    3    0    0 -0.12452613661E+02  0.51036335179E+02  0.34318504180E+02  0.62749779478E+02  0.00000000000E+00 0. -1.
        -14    1    3    3    0    0  0.28220412523E+02  0.23202062659E+02 -0.31298404314E+02  0.48107353983E+02  0.00000000000E+00 0.  1.
        -11    1    4    4    0    0 -0.14592358637E+03 -0.23744818383E+02  0.19221544476E+03  0.24249595186E+03  0.00000000000E+00 0.  1.
         11    1    4    4    0    0 -0.39916714718E+02  0.37183978560E+01  0.15018949223E+02  0.42810506097E+02  0.00000000000E+00 0. -1.
         21    1    1    2  503  502  0.23264485689E+02 -0.16950479184E+02 -0.17048098155E+02  0.33454337382E+02  0.00000000000E+00 0.  1.
         -1    1    1    2    0  503  0.14680801654E+03 -0.37261498127E+02  0.16240322093E+03  0.22207165315E+03  0.00000000000E+00 0.  1.
<scales pt_clust_5="13000.00000" pt_clust_6="13000.00000" pt_clust_7="13000.00000" pt_clust_8="13000.00000" pt_clust_9="28.78463" pt_clust_10="165.10319"></scales>
<clustering>
<clus scale="   28.785">  2  9  1 -1</clus>
<clus scale="   59.296">  7  8 -1 -1</clus>
<clus scale="   80.748">  5  6 -1 -1</clus>
<clus scale="  107.967">  1  5  2 -1</clus>
<clus scale="  165.103">  2 10  1 -1</clus>
<clus scale="   28.785">  2  5  1 -1</clus>
</clustering>
</event>
<event>
10    3  0.7209067E-005  0.1514250E+03  0.7546771E-02  0.1201301E+00
         21   -1    0    0  503  502  0.00000000000E+00  0.00000000000E+00  0.15544651455E+03  0.15544651455E+03  0.00000000000E+00 0.  1.
         -2   -1    0    0    0  501 -0.00000000000E+00 -0.00000000000E+00 -0.59159991450E+03  0.59159991450E+03  0.00000000000E+00 0.  1.
         23    2    1    2    0    0 -0.10871693710E+03 -0.10101382985E+03 -0.38971826326E+03  0.42828629619E+03  0.97599490540E+02 0.  0.
        -24    2    1    2    0    0  0.36876539318E+01  0.69900978585E+02 -0.45370883676E+02  0.11859097114E+03  0.84294458605E+02 0.  0.
         11    1    4    4    0    0  0.24014294603E+02  0.61574143992E+01 -0.45351237229E+02  0.51684957343E+02  0.00000000000E+00 0. -1.
        -12    1    4    4    0    0 -0.20326640671E+02  0.63743564186E+02 -0.19646446699E-01  0.66906013796E+02  0.00000000000E+00 0.  1.
        -11    1    3    3    0    0 -0.52834314449E+02 -0.44197311477E+02 -0.67807742506E+02  0.96657938468E+02  0.00000000000E+00 0. -1.
         11    1    3    3    0    0 -0.55882622653E+02 -0.56816518374E+02 -0.32191052075E+03  0.33162835772E+03  0.00000000000E+00 0.  1.
         21    1    1    2  503  501 -0.30130713086E+02  0.54809381008E+02  0.55290387989E+01  0.62789317464E+02  0.00000000000E+00 0.  1.
         -1    1    1    2    0  502  0.13515999626E+03 -0.23696529742E+02 -0.65932918191E+01  0.13737984425E+03  0.00000000000E+00 0.  1.
<scales pt_clust_5="13000.00000" pt_clust_6="13000.00000" pt_clust_7="13000.00000" pt_clust_8="13000.00000" pt_clust_9="62.54541" pt_clust_10="119.05875"></scales>
<clustering>
<clus scale="   62.545">  1  9  2 -1</clus>
<clus scale="   84.294">  5  6 -1 -1</clus>
<clus scale="   97.599">  7  8 -1 -1</clus>
<clus scale="  119.059">  1 10  2 -1</clus>
<clus scale="  143.211">  1  5  2 -1</clus>
<clus scale="   62.545">  1  5  2 -1</clus>
</clustering>
</event>
<event>
10    3  0.7209067E-005  0.1304659E+03  0.7546771E-02  0.1231728E+00
         21   -1    0    0  501  502  0.00000000000E+00  0.00000000000E+00  0.24896884854E+03  0.24896884854E+03  0.00000000000E+00 0.  1.
         -2   -1    0    0    0  501 -0.00000000000E+00 -0.00000000000E+00 -0.33186453789E+03  0.33186453789E+03  0.00000000000E+00 0.  1.
         23    2    1    2    0    0  0.92527220041E+02 -0.19297559239E+02 -0.19976096205E+03  0.24072827023E+03  0.95456670210E+02 0.  0.
        -24    2    1    2    0    0 -0.77518635696E+02 -0.44191144739E+02  0.82123808356E+01  0.11825498920E+03  0.77167370814E+02 0.  0.
         13    1    4    4    0    0 -0.37251367186E+02 -0.33443534290E+02 -0.32746634412E+02  0.59820367838E+02  0.00000000000E+00 0. -1.
        -14    1    4    4    0    0 -0.40267268510E+02 -0.10747610449E+02  0.40959015248E+02  0.58434621362E+02  0.00000000000E+00 0.  1.
        -13    1    3    3    0    0  0.18725480038E+02 -0.42223241192E+02 -0.12476494247E+03  0.13304035692E+03  0.00000000000E+00 0. -1.
         13    1    3    3    0    0  0.73801740004E+02  0.22925681953E+02 -0.74996019581E+02  0.10768791331E+03  0.00000000000E+00 0.  1.
         21    1    1    2  503  502  0.40098086991E+01  0.25204461510E+02  0.15599221030E+03  0.15806616690E+03  0.00000000000E+00 0.  1.
         -1    1    1    2    0  503 -0.19018393044E+02  0.38284242468E+02 -0.47339318437E+02  0.63783960095E+02  0.00000000000E+00 0.  1.
<scales pt_clust_5="13000.00000" pt_clust_6="13000.00000" pt_clust_7="13000.00000" pt_clust_8="13000.00000" pt_clust_9="25.52143" pt_clust_10="44.62673"></scales>
<clustering>
<clus scale="   25.521">  1  9  2 -1</clus>
<clus scale="   44.627">  1 10  2 -1</clus>
<clus scale="   77.167">  5  6 -1 -1</clus>
<clus scale="   95.457">  7  8 -1 -1</clus>
<clus scale="  117.746">  1  5  2 -1</clus>
<clus scale="   25.521">  1  5  2 -1</clus>
</clustering>
</event>
<event>
10    3  0.7209067E-005  0.9860313E+02  0.7546771E-02  0.1288527E+00
         21   -1    0    0  501  502  0.00000000000E+00  0.00000000000E+00  0.11446901716E+03  0.11446901716E+03  0.00000000000E+00 0. -1.
          1   -1    0    0  503    0 -0.00000000000E+00 -0.00000000000E+00 -0.42128953161E+03  0.42128953161E+03  0.00000000000E+00 0. -1.
         23    2    1    2    0    0 -0.34501725271E+02  0.84928359548E+01 -0.19675017997E+03  0.21934096732E+03  0.90207146714E+02 0.  0.
        -24    2    1    2    0    0  0.75601341177E+02  0.47372665177E+02  0.29495836782E+02  0.12335386430E+03  0.79915200418E+02 0.  0.
         13    1    4    4    0    0  0.77568132553E+02  0.44209230222E+02 -0.42691887663E+01  0.89383987365E+02  0.00000000000E+00 0. -1.
        -14    1    4    4    0    0 -0.19667913764E+01  0.31634349554E+01  0.33765025548E+02  0.33969876940E+02  0.00000000000E+00 0.  1.
        -13    1    3    3    0    0 -0.51303562096E+02 -0.80227783953E+01 -0.54976304395E+02  0.75622843784E+02  0.00000000000E+00 0.  1.
         13    1    3    3    0    0  0.16801836825E+02  0.16515614350E+02 -0.14177387557E+03  0.14371812354E+03  0.00000000000E+00 0. -1.
         21    1    1    2  503  502  0.31736576098E+02 -0.16562275607E+02 -0.65372152013E+01  0.36390306652E+02  0.00000000000E+00 0. -1.
          2    1    1    2  501    0 -0.72836192003E+02 -0.39303225525E+02 -0.13302895607E+03  0.15667341049E+03  0.00000000000E+00 0. -1.
<scales pt_clust_5="13000.00000" pt_clust_6="13000.00000" pt_clust_7="13000.00000" pt_clust_8="13000.00000" pt_clust_9="35.79831" pt_clust_10="80.45799"></scales>
<clustering>
<clus scale="   35.798">  1  9  2 -1</clus>
<clus scale="   79.915">  5  6 -1 -1</clus>
<clus scale="   80.458">  1 10  2 -1</clus>
<clus scale="   89.284">  1  5  2 -1</clus>
<clus scale="   90.207">  7  8 -1 -1</clus>
<clus scale="   35.798">  1  5  2 -1</clus>
</clustering>
</event>
<event>
10    3  0.7209067E-005  0.1397202E+03  0.7546771E-02  0.1215930E+00
         21   -1    0    0  501  502  0.00000000000E+00  0.00000000000E+00  0.13124392877E+03  0.13124392877E+03  0.00000000000E+00 0. -1.
          1   -1    0    0  503    0 -0.00000000000E+00 -0.00000000000E+00 -0.33953051172E+03  0.33953051172E+03  0.00000000000E+00 0. -1.
         23    2    1    2    0    0  0.36098928476E+02  0.99661425516E+02 -0.10097930898E+03  0.17187555132E+03  0.90049163932E+02 0.  0.
        -24    2    1    2    0    0 -0.92696039445E+02 -0.75695142154E+02  0.23540830140E+01  0.14381036756E+03  0.79709283259E+02 0.  0.
         11    1    4    4    0    0 -0.67183480399E+02 -0.81644219160E+02  0.25598952670E+02  0.10878743006E+03  0.00000000000E+00 0. -1.
        -12    1    4    4    0    0 -0.25512559046E+02  0.59490770056E+01 -0.23244869656E+02  0.35022937507E+02  0.00000000000E+00 0.  1.
        -13    1    3    3    0    0 -0.43512649104E+01  0.98021722785E+02 -0.77848004582E+02  0.12524976432E+03  0.00000000000E+00 0. -1.
         13    1    3    3    0    0  0.40450193387E+02  0.16397027306E+01 -0.23131304402E+02  0.46625787000E+02  0.00000000000E+00 0.  1.
         21    1    1    2  503  502  0.30895836489E+02  0.92239855590E+00  0.81487738657E+01  0.31965701102E+02  0.00000000000E+00 0.  1.
          2    1    1    2  501    0  0.25701274480E+02 -0.24888681918E+02 -0.11781013085E+03  0.12312282050E+03  0.00000000000E+00 0. -1.
<scales pt_clust_5="13000.00000" pt_clust_6="13000.00000" pt_clust_7="13000.00000" pt_clust_8="13000.00000" pt_clust_9="30.90960" pt_clust_10="36.29591"></scales>
<clustering>
<clus scale="   30.910">  1  9  2 -1</clus>
<clus scale="   36.296">  1 10  2 -1</clus>
<clus scale="   79.709">  5  6 -1 -1</clus>
<clus scale="   90.049">  7  8 -1 -1</clus>
<clus scale="  133.291">  1  5  2 -1</clus>
<clus scale="   30.910">  1  5  2 -1</clus>
</clustering>
</event>
<event>
10    3  0.7209067E-005  0.2332922E+03  0.7546771E-02  0.1143098E+00
          1   -1    0    0  503    0 -0.00000000000E+00  0.00000000000E+00  0.16490796537E+04  0.16490796537E+04  0.00000000000E+00 0. -1.
         21   -1    0    0  501  502  0.00000000000E+00 -0.00000000000E+00 -0.22503934834E+03  0.22503934834E+03  0.00000000000E+00 0. -1.
        -24    2    1    2    0    0 -0.12641856476E+03  0.27937730993E+02  0.22555062397E+03  0.26957400668E+03  0.70956964228E+02 0.  0.
         23    2    1    2    0    0 -0.80382599373E+01  0.17533486626E+03  0.63729677691E+03  0.66748946036E+03  0.92671834371E+02 0.  0.
         11    1    3    3    0    0 -0.12477557392E+03  0.18952185910E+02  0.16194169610E+03  0.20531254743E+03  0.00000000000E+00 0. -1.
        -12    1    3    3    0    0 -0.16429908458E+01  0.89855450832E+01  0.63608927876E+02  0.64261459250E+02  0.00000000000E+00 0.  1.
        -11    1    4    4    0    0  0.20756657409E+02  0.16659314472E+03  0.52211864817E+03  0.54844507242E+03  0.00000000000E+00 0. -1.
         11    1    4    4    0    0 -0.28794917346E+02  0.87417215365E+01  0.11517812874E+03  0.11904438794E+03  0.00000000000E+00 0.  1.
         21    1    1    2  503  502  0.22119633307E+03  0.86990510439E+02 -0.60685614747E+02  0.24531186378E+03  0.00000000000E+00 0. -1.
          2    1    1    2  501    0 -0.86739508377E+02 -0.29026310769E+03  0.62187851925E+03  0.69174367125E+03  0.00000000000E+00 0. -1.
<scales pt_clust_5="13000.00000" pt_clust_6="13000.00000" pt_clust_7="13000.00000" pt_clust_8="13000.00000" pt_clust_9="13000.00000" pt_clust_10="233.29216"></scales>
<clustering>
<clus scale="   70.957">  5  6 -1 -1</clus>
<clus scale="   92.672">  7  8 -1 -1</clus>
<clus scale="  147.638">  1  5  2 -1</clus>
<clus scale="  220.303">  1  7  2 -1</clus>
<clus scale="  233.292">  1 10  2 -1</clus>
<clus scale="  233.292">  2  5  1 -1</clus>
</clustering>
</event>
<event>
10    3  0.7209067E-005  0.1304395E+03  0.7546771E-02  0.1250617E+00
         21   -1    0    0  503  502  0.00000000000E+00  0.00000000000E+00  0.62777634006E+02  0.62777634006E+02  0.00000000000E+00 0.  1.
          1   -1    0    0  502    0 -0.00000000000E+00 -0.00000000000E+00 -0.66707453266E+03  0.66707453266E+03  0.00000000000E+00 0. -1.
        -24    2    1    2    0    0 -0.22677258236E+02 -0.17999687192E+02 -0.23682437439E+03  0.25004600700E+03  0.74826295721E+02 0.  0.
         23    2    1    2    0    0 -0.50554683831E+02 -0.54946051059E+02 -0.53004395635E+02  0.13057586022E+03  0.93089981912E+02 0.  0.
         13    1    3    3    0    0  0.32200086622E+01  0.26613235944E+02 -0.57360624017E+02  0.63315669236E+02  0.00000000000E+00 0. -1.
        -14    1    3    3    0    0 -0.25897266898E+02 -0.44612923136E+02 -0.17946375037E+03  0.18673033776E+03  0.00000000000E+00 0.  1.
        -13    1    4    4    0    0 -0.85091480050E+00 -0.29792020414E+02 -0.66834191553E+02  0.73178533033E+02  0.00000000000E+00 0. -1.
         13    1    4    4    0    0 -0.49703769031E+02 -0.25154030645E+02  0.13829795918E+02  0.57397327191E+02  0.00000000000E+00 0.  1.
         21    1    1    2  503  501  0.21829172069E+02 -0.27507808419E+02 -0.44933359458E+02  0.57028055108E+02  0.00000000000E+00 0. -1.
          2    1    1    2  501    0  0.51402769998E+02  0.10045354667E+03 -0.26953476917E+03  0.29220224434E+03  0.00000000000E+00 0. -1.
<scales pt_clust_5="13000.00000" pt_clust_6="13000.00000" pt_clust_7="13000.00000" pt_clust_8="13000.00000" pt_clust_9="35.11684" pt_clust_10="91.37133"></scales>
<clustering>
<clus scale="   35.117">  1  9  2 -1</clus>
<clus scale="   74.826">  5  6 -1 -1</clus>
<clus scale="   80.337">  2  5  1 -1</clus>
<clus scale="   91.371">  1 10  2 -1</clus>
<clus scale="   93.090">  7  8 -1 -1</clus>
<clus scale="   35.117">  1  5  2 -1</clus>
</clustering>
</event>
<event>
10    3  0.7209067E-005  0.1280648E+03  0.7546771E-02  0.1235284E+00
          1   -1    0    0  503    0 -0.00000000000E+00  0.00000000000E+00  0.59327461979E+03  0.59327461979E+03  0.00000000000E+00 0. -1.
         21   -1    0    0  501  502  0.00000000000E+00 -0.00000000000E+00 -0.77738306416E+02  0.77738306416E+02  0.00000000000E+00 0. -1.
         23    2    1    2    0    0  0.46606704741E+00  0.10232802750E+03  0.13560275001E+03  0.19338474719E+03  0.92402988073E+02 0.  0.
        -24    2    1    2    0    0 -0.43190211602E+02 -0.67999285853E+02  0.58363619802E+02  0.12420343452E+03  0.74369911767E+02 0.  0.
         11    1    4    4    0    0 -0.53573409574E+02 -0.15441061091E+02  0.34413472151E+02  0.65519643211E+02  0.00000000000E+00 0. -1.
        -12    1    4    4    0    0  0.10383197972E+02 -0.52558224762E+02  0.23950147650E+02  0.58683791312E+02  0.00000000000E+00 0.  1.
        -11    1    3    3    0    0  0.28006003825E+02  0.16631048375E+02  0.24536553740E+01  0.32664176784E+02  0.00000000000E+00 0.  1.
         11    1    3    3    0    0 -0.27539936778E+02  0.85696979127E+02  0.13314909464E+03  0.16072057041E+03  0.00000000000E+00 0. -1.
         21    1    1    2  503  502 -0.16699838676E+02 -0.21512112757E+02  0.11164782887E+01  0.27256231046E+02  0.00000000000E+00 0. -1.
          2    1    1    2  501    0  0.59423983230E+02 -0.12816628893E+02  0.32045346527E+03  0.32616851345E+03  0.00000000000E+00 0. -1.
<scales pt_clust_5="13000.00000" pt_clust_6="13000.00000" pt_clust_7="13000.00000" pt_clust_8="13000.00000" pt_clust_9="27.23335" pt_clust_10="60.27929"></scales>
<clustering>
<clus scale="   27.233">  2  9  1 -1</clus>
<clus scale="   60.279">  2 10  1 -1</clus>
<clus scale="   74.370">  5  6 -1 -1</clus>
<clus scale="   92.403">  7  8 -1 -1</clus>
<clus scale="  115.729">  2  5  1 -1</clus>
<clus scale="   27.233">  2  5  1 -1</clus>
</clustering>
</event>
<event>
10    3  0.7209067E-005  0.1175744E+03  0.7546771E-02  0.1251570E+00
         21   -1    0    0  503  502  0.00000000000E+00  0.00000000000E+00  0.12291940235E+03  0.12291940235E+03  0.00000000000E+00 0.  1.
         -4   -1    0    0    0  501 -0.00000000000E+00 -0.00000000000E+00 -0.25828873830E+03  0.25828873830E+03  0.00000000000E+00 0.  1.
        -24    2    1    2    0    0 -0.51153586408E+02  0.46896027647E+02 -0.14329067207E+03  0.17748558509E+03  0.78440993111E+02 0.  0.
         23    2    1    2    0    0  0.54473279218E+02 -0.76626669595E+02  0.16381806062E+02  0.13228340571E+03  0.91605410399E+02 0.  0.
         11    1    3    3    0    0 -0.70985372417E+01  0.21898286347E+02  0.24911977975E+01  0.23154486442E+02  0.00000000000E+00 0. -1.
        -12    1    3    3    0    0 -0.44055049166E+02  0.24997741300E+02 -0.14578186987E+03  0.15433109865E+03  0.00000000000E+00 0.  1.
        -11    1    4    4    0    0  0.67771067447E+02 -0.16624118797E+02  0.10036328388E+02  0.70498275129E+02  0.00000000000E+00 0. -1.
         11    1    4    4    0    0 -0.13297788228E+02 -0.60002550798E+02  0.63454776740E+01  0.61785130581E+02  0.00000000000E+00 0.  1.
         21    1    1    2  503  501  0.15565450508E+02 -0.14482348380E+02  0.43128899510E+01  0.21693839767E+02  0.00000000000E+00 0. -1.
         -3    1    1    2    0  502 -0.18885143318E+02  0.44212990328E+02 -0.12773359894E+02  0.49745310079E+02  0.00000000000E+00 0.  1.
<scales pt_clust_5="13000.00000" pt_clust_6="13000.00000" pt_clust_7="13000.00000" pt_clust_8="13000.00000" pt_clust_9="21.26080" pt_clust_10="44.83268"></scales>
<clustering>
<clus scale="   21.261">  1  9  2 -1</clus>
<clus scale="   44.833">  1 10  2 -1</clus>
<clus scale="   78.441">  5  6 -1 -1</clus>
<clus scale="   91.605">  7  8 -1 -1</clus>
<clus scale="  107.634">  2  5  1 -1</clus>
<clus scale="   21.261">  1  5  2 -1</clus>
</clustering>
</event>
<event>
10    3  0.7209067E-005  0.2253584E+03  0.7546771E-02  0.1165667E+00
         21   -1    0    0  501  502  0.00000000000E+00  0.00000000000E+00  0.40526839089E+03  0.40526839089E+03  0.00000000000E+00 0. -1.
          1   -1    0    0  503    0 -0.00000000000E+00 -0.00000000000E+00 -0.35266907171E+03  0.35266907171E+03  0.00000000000E+00 0. -1.
         23    2    1    2    0    0 -0.88320177294E+00 -0.35669622621E+02  0.13130556441E+02  0.96847222664E+02  0.89072279650E+02 0.  0.
        -24    2    1    2    0    0 -0.72945386775E+02  0.22566127681E+03 -0.12359045836E+03  0.27906826503E+03  0.79752453542E+02 0.  0.
         11    1    4    4    0    0 -0.81136482807E+02  0.16339106719E+03 -0.66433910264E+02  0.19414745456E+03  0.00000000000E+00 0. -1.
        -12    1    4    4    0    0  0.81910960326E+01  0.62270209620E+02 -0.57156548096E+02  0.84920810469E+02  0.00000000000E+00 0.  1.
        -11    1    3    3    0    0 -0.30116924817E+02 -0.55340096567E+01  0.37412307303E+02  0.48345994260E+02  0.00000000000E+00 0. -1.
         11    1    3    3    0    0  0.29233723044E+02 -0.30135612964E+02 -0.24281750862E+02  0.48501228404E+02  0.00000000000E+00 0.  1.
         21    1    1    2  503  502  0.23477481665E+02 -0.27719944028E+01  0.18536895438E+03  0.18687034368E+03  0.00000000000E+00 0. -1.
          2    1    1    2  501    0  0.50351106882E+02 -0.18721965978E+03 -0.22309733280E+02  0.19515163123E+03  0.00000000000E+00 0. -1.
<scales pt_clust_5="13000.00000" pt_clust_6="13000.00000" pt_clust_7="13000.00000" pt_clust_8="13000.00000" pt_clust_9="23.64056" pt_clust_10="210.77461"></scales>
<clustering>
<clus scale="   23.641">  1  9  2 -1</clus>
<clus scale="   79.752">  5  6 -1 -1</clus>
<clus scale="   89.072">  7  8 -1 -1</clus>
<clus scale="   96.340">  2  7  1 -1</clus>
<clus scale="  210.775">  1 10  2 -1</clus>
<clus scale="   23.641">  1  5  2 -1</clus>
</clustering>
</event>
<event>
10    3  0.7209067E-005  0.5326558E+03  0.7546771E-02  0.1005590E+00
         21   -1    0    0  503  502  0.00000000000E+00  0.00000000000E+00  0.54282211240E+03  0.54282211240E+03  0.00000000000E+00 0. -1.
          1   -1    0    0  502    0 -0.00000000000E+00 -0.00000000000E+00 -0.47172701205E+03  0.47172701205E+03  0.00000000000E+00 0. -1.
        -24    2    1    2    0    0 -0.37103849283E+03 -0.34374909985E+02 -0.50094582552E+02  0.38426505317E+03  0.79366027327E+02 0.  0.
         23    2    1    2    0    0 -0.89675763870E+02  0.13625380973E+02  0.78364759504E+02  0.14914046801E+03  0.88738097984E+02 0.  0.
         13    1    3    3    0    0 -0.26254210038E+03 -0.40432627164E+02 -0.67833023410E+02  0.27416139567E+03  0.00000000000E+00 0. -1.
        -14    1    3    3    0    0 -0.10849639245E+03  0.60577171789E+01  0.17738440857E+02  0.11010365750E+03  0.00000000000E+00 0.  1.
        -13    1    4    4    0    0 -0.45553985261E+02  0.51490728529E+02  0.42087193442E+02  0.80608886294E+02  0.00000000000E+00 0.  1.
         13    1    4    4    0    0 -0.44121778610E+02 -0.37865347556E+02  0.36277566061E+02  0.68531581716E+02  0.00000000000E+00 0. -1.
         21    1    1    2  503  501  0.37952965792E+02 -0.21843495709E+02  0.35183606308E+02  0.56173410703E+02  0.00000000000E+00 0. -1.
          2    1    1    2  501    0  0.42276129090E+03  0.42593024721E+02  0.76413170984E+01  0.42497019256E+03  0.00000000000E+00 0. -1.
<scales pt_clust_5="13000.00000" pt_clust_6="13000.00000" pt_clust_7="13000.00000" pt_clust_8="13000.00000" pt_clust_9="41.82869" pt_clust_10="479.23396"></scales>
<clustering>
<clus scale="   41.829">  9 10 -1 -1</clus>
<clus scale="   79.366">  5  6 -1 -1</clus>
<clus scale="   88.738">  7  8 -1 -1</clus>
<clus scale="  124.395">  5  7 -1 -1</clus>
<clus scale="  479.234">  1  9  2 -1</clus>
<clus scale="  479.234">  1  5  2 -1</clus>
</clustering>
</event>
<event>
10    3  0.7209067E-005  0.1112064E+03  0.7546771E-02  0.1264089E+00
          1   -1    0    0  502    0 -0.00000000000E+00  0.00000000000E+00  0.20726210394E+03  0.20726210394E+03  0.00000000000E+00 0. -1.
         21   -1    0    0  503  502  0.00000000000E+00 -0.00000000000E+00 -0.19087500330E+03  0.19087500330E+03  0.00000000000E+00 0. -1.
        -24    2    1    2    0    0  0.85915202463E+01  0.84638549916E+02  0.10823577714E+03  0.15910221254E+03  0.79756079590E+02 0.  0.
         23    2    1    2    0    0 -0.12835102269E+02 -0.13115756688E+02  0.84641679185E+01  0.96239383334E+02  0.94093644005E+02 0.  0.
         11    1    3    3    0    0 -0.15637534789E+02  0.76159595543E+02  0.10843970730E+03  0.13343158024E+03  0.00000000000E+00 0. -1.
        -12    1    3    3    0    0  0.24229055036E+02  0.84789543736E+01 -0.20393015952E+00  0.25670632300E+02  0.00000000000E+00 0.  1.
        -11    1    4    4    0    0  0.58431208735E+01  0.25615879138E+02 -0.29054318728E+02  0.39172295852E+02  0.00000000000E+00 0. -1.
         11    1    4    4    0    0 -0.18678223142E+02 -0.38731635826E+02  0.37518486646E+02  0.57067087482E+02  0.00000000000E+00 0.  1.
         21    1    1    2  503  501  0.17149098569E+02 -0.15374231147E+02 -0.77467424095E+02  0.80818688191E+02  0.00000000000E+00 0. -1.
          2    1    1    2  501    0 -0.12905516547E+02 -0.56148562081E+02 -0.22845420326E+02  0.61976823176E+02  0.00000000000E+00 0. -1.
<scales pt_clust_5="13000.00000" pt_clust_6="13000.00000" pt_clust_7="13000.00000" pt_clust_8="13000.00000" pt_clust_9="23.03169" pt_clust_10="62.31343"></scales>
<clustering>
<clus scale="   23.032">  2  9  1 -1</clus>
<clus scale="   62.313">  2 10  1 -1</clus>
<clus scale="   79.756">  5  6 -1 -1</clus>
<clus scale="   94.094">  7  8 -1 -1</clus>
<clus scale="   99.369">  1  5  2 -1</clus>
<clus scale="   23.032">  2  5  1 -1</clus>
</clustering>
</event>
<event>
10    3  0.7209067E-005  0.2437993E+03  0.7546771E-02  0.1124038E+00
         -2   -1    0    0    0  501 -0.00000000000E+00  0.00000000000E+00  0.12556063433E+04  0.12556063433E+04  0.00000000000E+00 0.  1.
         21   -1    0    0  501  502  0.00000000000E+00 -0.00000000000E+00 -0.38755970676E+03  0.38755970676E+03  0.00000000000E+00 0. -1.
        -24    2    1    2    0    0  0.15068919600E+03  0.15303925939E+03 -0.26212583263E+03  0.34811373162E+03  0.79655315590E+02 0.  0.
         23    2    1    2    0    0 -0.12124617194E+03  0.14429604830E+03  0.62940153712E+03  0.66347512368E+03  0.92363201746E+02 0.  0.
         11    1    3    3    0    0  0.14612509663E+03  0.14078359523E+03 -0.20102308611E+03  0.28562710953E+03  0.00000000000E+00 0. -1.
        -12    1    3    3    0    0  0.45640993678E+01  0.12255664166E+02 -0.61102746522E+02  0.62486622086E+02  0.00000000000E+00 0.  1.
        -13    1    4    4    0    0 -0.20133924166E+02  0.67958186767E+02  0.34386124299E+03  0.35109008029E+03  0.00000000000E+00 0.  1.
         13    1    4    4    0    0 -0.10111224778E+03  0.76337861528E+02  0.28554029414E+03  0.31238504338E+03  0.00000000000E+00 0. -1.
         21    1    1    2  503  502 -0.27348470801E+02 -0.14250858326E+02 -0.21446869819E+02  0.37563200652E+02  0.00000000000E+00 0. -1.
         -1    1    1    2    0  503 -0.20945532533E+01 -0.28308444936E+03  0.52221780185E+03  0.59401399411E+03  0.00000000000E+00 0.  1.
<scales pt_clust_5="13000.00000" pt_clust_6="13000.00000" pt_clust_7="13000.00000" pt_clust_8="13000.00000" pt_clust_9="30.83871" pt_clust_10="225.62614"></scales>
<clustering>
<clus scale="   30.839">  2  9  1 -1</clus>
<clus scale="   79.655">  5  6 -1 -1</clus>
<clus scale="   92.363">  7  8 -1 -1</clus>
<clus scale="  205.969">  1  5  2 -1</clus>
<clus scale="  225.626">  2 10  1 -1</clus>
<clus scale="   30.839">  2  5  1 -1</clus>
</clustering>
</event>
<event>
10    3  0.7209067E-005  0.1028843E+03  0.7546771E-02  0.1274347E+00
         21   -1    0    0  501  502  0.00000000000E+00  0.00000000000E+00  0.49151367365E+03  0.49151367365E+03  0.00000000000E+00 0.  1.
         -2   -1    0    0    0  501 -0.00000000000E+00 -0.00000000000E+00 -0.86800310031E+02  0.86800310031E+02  0.00000000000E+00 0.  1.
         23    2    1    2    0    0  0.60903161813E+02  0.23233676873E+02 -0.33628040801E+02  0.10894083137E+03  0.80549740849E+02 0.  0.
        -24    2    1    2    0    0 -0.54836292269E+02 -0.16698411191E+02  0.20637274887E+03  0.22882946879E+03  0.80544139609E+02 0.  0.
         11    1    4    4    0    0 -0.40637605498E+02 -0.44164936027E+02  0.88228406365E+02  0.10670617716E+03  0.00000000000E+00 0. -1.
        -12    1    4    4    0    0 -0.14198686771E+02  0.27466524836E+02  0.11814434250E+03  0.12212329162E+03  0.00000000000E+00 0.  1.
        -13    1    3    3    0    0  0.21910027851E+01 -0.26349914129E+02 -0.12465570925E+02  0.29231984645E+02  0.00000000000E+00 0. -1.
         13    1    3    3    0    0  0.58712159028E+02  0.49583591002E+02 -0.21162469876E+02  0.79708846721E+02  0.00000000000E+00 0.  1.
         21    1    1    2  503  502  0.28202643715E+02  0.17129390818E+01  0.95041424800E+02  0.99152386259E+02  0.00000000000E+00 0. -1.
         -1    1    1    2    0  503 -0.34269513259E+02 -0.82482047637E+01  0.13692723076E+03  0.14139129727E+03  0.00000000000E+00 0.  1.
<scales pt_clust_5="13000.00000" pt_clust_6="13000.00000" pt_clust_7="13000.00000" pt_clust_8="13000.00000" pt_clust_9="28.25462" pt_clust_10="25.49198"></scales>
<clustering>
<clus scale="   28.255">  1  9  2 -1</clus>
<clus scale="   25.492">  1 10  2 -1</clus>
<clus scale="   80.544">  5  6 -1 -1</clus>
<clus scale="   80.550">  7  8 -1 -1</clus>
<clus scale="  102.880">  1  5  2 -1</clus>
<clus scale="   28.255">  1  5  2 -1</clus>
</clustering>
</event>
<event>
10    3  0.7209067E-005  0.2194439E+03  0.7546771E-02  0.1134298E+00
         -4   -1    0    0    0  501 -0.00000000000E+00  0.00000000000E+00  0.41504460089E+03  0.41504460089E+03  0.00000000000E+00 0.  1.
         21   -1    0    0  503  502  0.00000000000E+00 -0.00000000000E+00 -0.37709036107E+03  0.37709036107E+03  0.00000000000E+00 0. -1.
        -24    2    1    2    0    0  0.17918358230E+02  0.27319501994E+02  0.78637144664E+02  0.11782845005E+03  0.81439059242E+02 0.  0.
         23    2    1    2    0    0  0.83728978188E+02  0.23518839190E+02  0.23895429079E+03  0.26787021867E+03  0.84211776967E+02 0.  0.
         13    1    3    3    0    0  0.83470577322E+01  0.55378321402E+02  0.38632245522E+02  0.68035889412E+02  0.00000000000E+00 0. -1.
        -14    1    3    3    0    0  0.95713004983E+01 -0.28058819408E+02  0.40004899143E+02  0.49792560641E+02  0.00000000000E+00 0.  1.
        -11    1    4    4    0    0  0.51041880136E+02  0.45355676181E+02  0.20449845549E+03  0.21559691368E+03  0.00000000000E+00 0.  1.
         11    1    4    4    0    0  0.32687098052E+02 -0.21836836991E+02  0.34455835296E+02  0.52273304992E+02  0.00000000000E+00 0. -1.
         21    1    1    2  503  501 -0.12239079101E+03 -0.36499460902E+02 -0.32794821192E+03  0.35193997509E+03  0.00000000000E+00 0. -1.
         -3    1    1    2    0  502  0.20743454588E+02 -0.14338880282E+02  0.48311016291E+02  0.54496318142E+02  0.00000000000E+00 0.  1.
<scales pt_clust_5="13000.00000" pt_clust_6="13000.00000" pt_clust_7="13000.00000" pt_clust_8="13000.00000" pt_clust_9="114.77463" pt_clust_10="25.21696"></scales>
<clustering>
<clus scale="   25.217">  2 10  1 -1</clus>
<clus scale="   81.439">  5  6 -1 -1</clus>
<clus scale="   84.212">  7  8 -1 -1</clus>
<clus scale="   87.107">  5  7 -1 -1</clus>
<clus scale="  114.775">  2  9  1 -1</clus>
<clus scale="   25.217">  2  5  1 -1</clus>
</clustering>
</event>
<event>
10    3  0.7209067E-005  0.1027838E+03  0.7546771E-02  0.1278885E+00
         21   -1    0    0  503  502  0.00000000000E+00  0.00000000000E+00  0.74114189416E+02  0.74114189416E+02  0.00000000000E+00 0. -1.
          1   -1    0    0  502    0 -0.00000000000E+00 -0.00000000000E+00 -0.32878674221E+03  0.32878674221E+03  0.00000000000E+00 0. -1.
         23    2    1    2    0    0  0.16827909159E+01 -0.27573861530E+02 -0.13188114799E+03  0.16175652306E+03  0.89495172680E+02 0.  0.
        -24    2    1    2    0    0  0.13067549424E+02  0.87369462339E+02 -0.12245276836E+03  0.17086015103E+03  0.79964535478E+02 0.  0.
         13    1    4    4    0    0 -0.28106852525E+02  0.40552627713E+02 -0.84556137559E+02  0.97899188823E+02  0.00000000000E+00 0. -1.
        -14    1    4    4    0    0  0.41174401949E+02  0.46816834626E+02 -0.37896630796E+02  0.72960962206E+02  0.00000000000E+00 0.  1.
        -13    1    3    3    0    0 -0.16812517062E+02 -0.52374568285E+02 -0.50421085948E+02  0.74619314129E+02  0.00000000000E+00 0.  1.
         13    1    3    3    0    0  0.18495307978E+02  0.24800706754E+02 -0.81460062039E+02  0.87137208930E+02  0.00000000000E+00 0. -1.
         21    1    1    2  503  501 -0.95800843179E+01 -0.17905247857E+02  0.15137492342E+02  0.25328237025E+02  0.00000000000E+00 0. -1.
          2    1    1    2  501    0 -0.51702560221E+01 -0.41890352952E+02 -0.15476128790E+02  0.44956020510E+02  0.00000000000E+00 0. -1.
<scales pt_clust_5="13000.00000" pt_clust_6="13000.00000" pt_clust_7="13000.00000" pt_clust_8="13000.00000" pt_clust_9="20.30704" pt_clust_10="47.43280"></scales>
<clustering>
<clus scale="   20.307">  1  9  2 -1</clus>
<clus scale="   47.433">  1 10  2 -1</clus>
<clus scale="   79.965">  5  6 -1 -1</clus>
<clus scale="   89.495">  7  8 -1 -1</clus>
<clus scale="   94.602">  1  5  2 -1</clus>
<clus scale="   20.307">  1  5  2 -1</clus>
</clustering>
</event>
<event>
10    3  0.7209067E-005  0.1916969E+03  0.7546771E-02  0.1169094E+00
          1   -1    0    0  503    0 -0.00000000000E+00  0.00000000000E+00  0.98628227878E+03  0.98628227878E+03  0.00000000000E+00 0. -1.
         21   -1    0    0  501  502  0.00000000000E+00 -0.00000000000E+00 -0.27638118134E+03  0.27638118134E+03  0.00000000000E+00 0.  1.
         23    2    1    2    0    0  0.11073049429E+03  0.48619431671E+02 -0.38065343749E+02  0.15639977227E+03  0.91579620391E+02 0.  0.
        -24    2    1    2    0    0  0.66500592426E+02 -0.13965212212E+03  0.47919955944E+03  0.50976682478E+03  0.79403739727E+02 0.  0.
         11    1    4    4    0    0  0.79335308043E+02 -0.11112767713E+03  0.32657189633E+03  0.35396702558E+03  0.00000000000E+00 0. -1.
        -12    1    4    4    0    0 -0.12834715616E+02 -0.28524444991E+02  0.15262766310E+03  0.15579979920E+03  0.00000000000E+00 0.  1.
        -13    1    3    3    0    0  0.71095914083E+02  0.26987085075E+00  0.16986397791E+02  0.73097466027E+02  0.00000000000E+00 0.  1.
         13    1    3    3    0    0  0.39634580208E+02  0.48349560820E+02 -0.55051741539E+02  0.83302306248E+02  0.00000000000E+00 0. -1.
         21    1    1    2  503  502 -0.58348679201E+01 -0.19959490602E+02 -0.13895378131E+03  0.14050117540E+03  0.00000000000E+00 0.  1.
          2    1    1    2  501    0 -0.17139621880E+03  0.11099218105E+03  0.40772066306E+03  0.45599568766E+03  0.00000000000E+00 0. -1.
<scales pt_clust_5="13000.00000" pt_clust_6="13000.00000" pt_clust_7="13000.00000" pt_clust_8="13000.00000" pt_clust_9="20.79488" pt_clust_10="174.47849"></scales>
<clustering>
<clus scale="   20.795">  2  9  1 -1</clus>
<clus scale="   79.404">  5  6 -1 -1</clus>
<clus scale="   91.580">  7  8 -1 -1</clus>
<clus scale="  144.674">  1  7  2 -1</clus>
<clus scale="  174.478">  2 10  1 -1</clus>
<clus scale="   20.795">  2  5  1 -1</clus>
</clustering>
</event>
<event>
10    3  0.7209067E-005  0.1292534E+03  0.7546771E-02  0.1230485E+00
         21   -1    0    0  501  502  0.00000000000E+00  0.00000000000E+00  0.28333537841E+03  0.28333537841E+03  0.00000000000E+00 0.  1.
         -4   -1    0    0    0  501 -0.00000000000E+00 -0.00000000000E+00 -0.34782213829E+03  0.34782213829E+03  0.00000000000E+00 0.  1.
         23    2    1    2    0    0  0.61837982713E+02 -0.11407749717E+03 -0.16579797141E+03  0.22907855409E+03  0.90279594324E+02 0.  0.
        -24    2    1    2    0    0 -0.83515450970E+02 -0.71796153160E+01 -0.56415143869E+02  0.13071741469E+03  0.82933688081E+02 0.  0.
         13    1    4    4    0    0 -0.45734173021E+02  0.33157472277E+02 -0.49331871825E+02  0.74997774151E+02  0.00000000000E+00 0. -1.
        -14    1    4    4    0    0 -0.37781277949E+02 -0.40337087593E+02 -0.70832720435E+01  0.55719640539E+02  0.00000000000E+00 0.  1.
        -11    1    3    3    0    0 -0.20685546844E+02 -0.34959921798E+02 -0.24943750508E+02  0.47668424243E+02  0.00000000000E+00 0. -1.
         11    1    3    3    0    0  0.82523529557E+02 -0.79117575369E+02 -0.14085422091E+03  0.18141012984E+03  0.00000000000E+00 0.  1.
         21    1    1    2  503  502  0.38586079943E+02  0.49647435877E+02  0.18304859885E+03  0.19354726295E+03  0.00000000000E+00 0.  1.
         -3    1    1    2    0  503 -0.16908611685E+02  0.71609676607E+02 -0.25322243450E+02  0.77814284975E+02  0.00000000000E+00 0.  1.
<scales pt_clust_5="13000.00000" pt_clust_6="13000.00000" pt_clust_7="13000.00000" pt_clust_8="13000.00000" pt_clust_9="62.87888" pt_clust_10="85.54935"></scales>
<clustering>
<clus scale="   62.879">  1  9  2 -1</clus>
<clus scale="   82.934">  5  6 -1 -1</clus>
<clus scale="   85.549">  1 10  2 -1</clus>
<clus scale="   90.280">  7  8 -1 -1</clus>
<clus scale="  124.234">  1  5  2 -1</clus>
<clus scale="   62.879">  1  5  2 -1</clus>
</clustering>
</event>
<event>
10    3  0.7209067E-005  0.1333655E+03  0.7546771E-02  0.1242728E+00
         21   -1    0    0  501  502  0.00000000000E+00  0.00000000000E+00  0.19005591991E+03  0.19005591991E+03  0.00000000000E+00 0. -1.
          1   -1    0    0  503    0 -0.00000000000E+00 -0.00000000000E+00 -0.46034248829E+03  0.46034248829E+03  0.00000000000E+00 0. -1.
        -24    2    1    2    0    0 -0.27645690185E+02 -0.30824397985E+02 -0.30904353534E+03  0.32158438768E+03  0.78703138213E+02 0.  0.
         23    2    1    2    0    0  0.35630799850E+02 -0.80391196122E+02 -0.71132478622E+02  0.14599670157E+03  0.92319602698E+02 0.  0.
         13    1    3    3    0    0 -0.53167906395E+02 -0.79003829893E+01 -0.20990682864E+03  0.21667976147E+03  0.00000000000E+00 0. -1.
        -14    1    3    3    0    0  0.25522216209E+02 -0.22924014996E+02 -0.99136706708E+02  0.10490462621E+03  0.00000000000E+00 0.  1.
        -13    1    4    4    0    0  0.42148711727E+02  0.38329410438E+01 -0.31066982366E+02  0.52501073614E+02  0.00000000000E+00 0.  1.
         13    1    4    4    0    0 -0.65179118767E+01 -0.84224137166E+02 -0.40065496256E+02  0.93495627955E+02  0.00000000000E+00 0. -1.
         21    1    1    2  503  502  0.31192952305E+02  0.37589331959E+02  0.54289442953E+01  0.49147040468E+02  0.00000000000E+00 0.  1.
          2    1    1    2  501    0 -0.39178061970E+02  0.73626262149E+02  0.10446050130E+03  0.13367027848E+03  0.00000000000E+00 0. -1.
<scales pt_clust_5="13000.00000" pt_clust_6="13000.00000" pt_clust_7="13000.00000" pt_clust_8="13000.00000" pt_clust_9="48.84627" pt_clust_10="96.24687"></scales>
<clustering>
<clus scale="   48.846">  1  9  2 -1</clus>
<clus scale="   78.703">  5  6 -1 -1</clus>
<clus scale="   88.071">  2  5  1 -1</clus>
<clus scale="   92.320">  7  8 -1 -1</clus>
<clus scale="   96.247">  1 10  2 -1</clus>
<clus scale="   48.846">  1  5  2 -1</clus>
</clustering>
</event>
<event>
10    3  0.7209067E-005  0.2851164E+03  0.7546771E-02  0.1093455E+00
          1   -1    0    0  502    0 -0.00000000000E+00  0.00000000000E+00  0.36020990229E+03  0.36020990229E+03  0.00000000000E+00 0. -1.
         21   -1    0    0  503  502  0.00000000000E+00 -0.00000000000E+00 -0.40741419363E+03  0.40741419363E+03  0.00000000000E+00 0. -1.
        -24    2    1    2    0    0  0.25556167021E+03  0.23086471764E+03  0.86332263676E+02  0.36354043341E+03  0.78090344077E+02 0.  0.
         23    2    1    2    0    0 -0.13492574004E+03 -0.13740173997E+03 -0.66907450208E+02  0.22335253720E+03  0.91244482084E+02 0.  0.
         13    1    3    3    0    0  0.21095035987E+03  0.14946495939E+03  0.47206091361E+02  0.26280837786E+03  0.00000000000E+00 0. -1.
        -14    1    3    3    0    0  0.44611310343E+02  0.81399758252E+02  0.39126172315E+02  0.10073205554E+03  0.00000000000E+00 0.  1.
        -13    1    4    4    0    0 -0.36668169970E+02 -0.21045856813E+02 -0.56686544916E+02  0.70716668137E+02  0.00000000000E+00 0. -1.
         13    1    4    4    0    0 -0.98257570069E+02 -0.11635588316E+03 -0.10220905292E+02  0.15263586907E+03  0.00000000000E+00 0.  1.
         21    1    1    2  503  501 -0.29201943583E+02  0.20863617262E+01 -0.33314325111E+02  0.44350317608E+02  0.00000000000E+00 0. -1.
          2    1    1    2  501    0 -0.91433986592E+02 -0.95549339396E+02 -0.33314779696E+02  0.13638080770E+03  0.00000000000E+00 0. -1.
<scales pt_clust_5="13000.00000" pt_clust_6="13000.00000" pt_clust_7="13000.00000" pt_clust_8="13000.00000" pt_clust_9="29.27638" pt_clust_10="136.64839"></scales>
<clustering>
<clus scale="   29.276">  2  9  1 -1</clus>
<clus scale="   78.090">  5  6 -1 -1</clus>
<clus scale="   91.244">  7  8 -1 -1</clus>
<clus scale="  136.648">  2 10  1 -1</clus>
<clus scale="  281.183">  1  5  2 -1</clus>
<clus scale="   29.276">  2  5  1 -1</clus>
</clustering>
</event>
<event>
10    3  0.7209067E-005  0.1565199E+03  0.7546771E-02  0.1216528E+00
          1   -1    0    0  503    0 -0.00000000000E+00  0.00000000000E+00  0.17962730869E+04  0.17962730869E+04  0.00000000000E+00 0. -1.
         21   -1    0    0  501  502  0.00000000000E+00 -0.00000000000E+00 -0.31588752255E+02  0.31588752255E+02  0.00000000000E+00 0. -1.
         23    2    1    2    0    0  0.89948725098E+01  0.26907433407E+02  0.12229362476E+03  0.15407193918E+03  0.89316930539E+02 0.  0.
        -24    2    1    2    0    0 -0.76958399635E+01  0.12127832624E+03  0.65946520483E+03  0.67529304611E+03  0.79741352948E+02 0.  0.
         13    1    4    4    0    0  0.13911631779E+02  0.12289208085E+03  0.56301066807E+03  0.57643473993E+03  0.00000000000E+00 0. -1.
        -14    1    4    4    0    0 -0.21607471742E+02 -0.16137546102E+01  0.96454536761E+02  0.98858306180E+02  0.00000000000E+00 0.  1.
        -11    1    3    3    0    0  0.35053015881E+02 -0.19778850524E+02  0.52689758900E+02  0.66303299642E+02  0.00000000000E+00 0.  1.
         11    1    3    3    0    0 -0.26058143371E+02  0.46686283931E+02  0.69603865857E+02  0.87768639533E+02  0.00000000000E+00 0. -1.
         21    1    1    2  503  502 -0.21393172020E+02  0.20196706730E+01  0.75264452940E+02  0.78271864389E+02  0.00000000000E+00 0.  1.
          2    1    1    2  501    0  0.20094139474E+02 -0.15020543032E+03  0.90766105215E+03  0.92022498951E+03  0.00000000000E+00 0. -1.
<scales pt_clust_5="13000.00000" pt_clust_6="13000.00000" pt_clust_7="13000.00000" pt_clust_8="13000.00000" pt_clust_9="21.48830" pt_clust_10="134.68418"></scales>
<clustering>
<clus scale="   21.488">  2  9  1 -1</clus>
<clus scale="   79.741">  5  6 -1 -1</clus>
<clus scale="   89.317">  7  8 -1 -1</clus>
<clus scale="   93.624">  1  7  2 -1</clus>
<clus scale="  134.684">  2 10  1 -1</clus>
<clus scale="   21.488">  2  5  1 -1</clus>
</clustering>
</event>
<event>
10    3  0.7209067E-005  0.2022682E+03  0.7546771E-02  0.1165699E+00
         21   -1    0    0  501  502  0.00000000000E+00  0.00000000000E+00  0.24082263328E+03  0.24082263328E+03  0.00000000000E+00 0. -1.
          1   -1    0    0  503    0 -0.00000000000E+00 -0.00000000000E+00 -0.11010447414E+04  0.11010447414E+04  0.00000000000E+00 0. -1.
         23    2    1    2    0    0  0.91170761404E+02  0.17591273337E+02 -0.41527736916E+03  0.43546467370E+03  0.92480419971E+02 0.  0.
        -24    2    1    2    0    0 -0.13927585835E+03  0.16141142599E+03 -0.31599316773E+03  0.38913984848E+03  0.78273408415E+02 0.  0.
         11    1    4    4    0    0 -0.14376783956E+03  0.16517214947E+03 -0.31426472400E+03  0.38303178381E+03  0.00000000000E+00 0. -1.
        -12    1    4    4    0    0  0.44919812136E+01 -0.37607234845E+01 -0.17284437296E+01  0.61080646753E+01  0.00000000000E+00 0.  1.
        -11    1    3    3    0    0  0.59790960927E+02  0.36916300214E+02 -0.37219580797E+03  0.37877102806E+03  0.00000000000E+00 0. -1.
         11    1    3    3    0    0  0.31379800477E+02 -0.19325026877E+02 -0.43081561188E+02  0.56693645641E+02  0.00000000000E+00 0.  1.
         21    1    1    2  503  502  0.21711773822E+02 -0.38713162446E+01  0.16911547395E+03  0.17054744719E+03  0.00000000000E+00 0. -1.
          2    1    1    2  501    0  0.26393323125E+02 -0.17513138308E+03 -0.29806704518E+03  0.34671540529E+03  0.00000000000E+00 0. -1.
<scales pt_clust_5="13000.00000" pt_clust_6="13000.00000" pt_clust_7="13000.00000" pt_clust_8="13000.00000" pt_clust_9="22.05421" pt_clust_10="186.50934"></scales>
<clustering>
<clus scale="   22.054">  1  9  2 -1</clus>
<clus scale="   78.273">  5  6 -1 -1</clus>
<clus scale="   92.480">  7  8 -1 -1</clus>
<clus scale="  133.145">  2  7  1 -1</clus>
<clus scale="  186.509">  1 10  2 -1</clus>
<clus scale="   22.054">  1  5  2 -1</clus>
</clustering>
</event>
<event>
10    3  0.7209067E-005  0.9651654E+02  0.7546771E-02  0.1294487E+00
          1   -1    0    0  502    0 -0.00000000000E+00  0.00000000000E+00  0.64243481830E+03  0.64243481830E+03  0.00000000000E+00 0. -1.
         21   -1    0    0  503  502  0.00000000000E+00 -0.00000000000E+00 -0.11794809102E+03  0.11794809102E+03  0.00000000000E+00 0.  1.
         23    2    1    2    0    0 -0.19049507477E+02 -0.26143395033E-01  0.10986657523E+03  0.14435724383E+03  0.91681323476E+02 0.  0.
        -24    2    1    2    0    0  0.51973732971E+02  0.80268665114E+02 -0.13869951103E+02  0.12522135184E+03  0.79647246617E+02 0.  0.
         11    1    4    4    0    0  0.42559233798E+02  0.77945480177E+00  0.53503905432E+01  0.42901312454E+02  0.00000000000E+00 0. -1.
        -12    1    4    4    0    0  0.94144991731E+01  0.79489210313E+02 -0.19220341646E+02  0.82320039382E+02  0.00000000000E+00 0.  1.
        -11    1    3    3    0    0 -0.52227405161E+02  0.61382974521E+01  0.92504542852E+02  0.10640710030E+03  0.00000000000E+00 0.  1.
         11    1    3    3    0    0  0.33177897684E+02 -0.61644408471E+01  0.17362032380E+02  0.37950143532E+02  0.00000000000E+00 0. -1.
         21    1    1    2  503  501  0.20973207775E+02 -0.26639603890E+02 -0.17657505168E+02  0.38227364918E+02  0.00000000000E+00 0. -1.
          2    1    1    2  501    0 -0.53897433269E+02 -0.53602917829E+02  0.44614760832E+03  0.45257694873E+03  0.00000000000E+00 0. -1.
<scales pt_clust_5="13000.00000" pt_clust_6="13000.00000" pt_clust_7="13000.00000" pt_clust_8="13000.00000" pt_clust_9="33.90493" pt_clust_10="76.16386"></scales>
<clustering>
<clus scale="   33.905">  2  9  1 -1</clus>
<clus scale="   76.164">  2 10  1 -1</clus>
<clus scale="   79.647">  5  6 -1 -1</clus>
<clus scale="   85.168">  2  5  1 -1</clus>
<clus scale="   91.681">  7  8 -1 -1</clus>
<clus scale="   33.905">  2  5  1 -1</clus>
</clustering>
</event>
<event>
10    3  0.7209067E-005  0.1451090E+03  0.7546771E-02  0.1216542E+00
          1   -1    0    0  503    0 -0.00000000000E+00  0.00000000000E+00  0.43361330523E+03  0.43361330523E+03  0.00000000000E+00 0. -1.
         21   -1    0    0  501  502  0.00000000000E+00 -0.00000000000E+00 -0.11820539714E+03  0.11820539714E+03  0.00000000000E+00 0. -1.
        -24    2    1    2    0    0 -0.54089287305E+02  0.59173283174E+02  0.12216980030E+03  0.16692594701E+03  0.80695001310E+02 0.  0.
         23    2    1    2    0    0  0.15676286632E+02  0.87781355272E+02  0.73355457644E+02  0.14672126966E+03  0.90525109828E+02 0.  0.
         13    1    3    3    0    0  0.21430952247E+01  0.49288730530E+02  0.86572795306E+02  0.99643467932E+02  0.00000000000E+00 0. -1.
        -14    1    3    3    0    0 -0.56232382530E+02  0.98845526440E+01  0.35597004990E+02  0.67282479073E+02  0.00000000000E+00 0.  1.
        -13    1    4    4    0    0 -0.10898011392E+02  0.26704308596E+02 -0.17747884408E+02  0.33865530423E+02  0.00000000000E+00 0. -1.
         13    1    4    4    0    0  0.26574298024E+02  0.61077046677E+02  0.91103342052E+02  0.11285573924E+03  0.00000000000E+00 0.  1.
         21    1    1    2  503  502 -0.39459984509E+02 -0.67237577820E+01  0.38762613499E+01  0.40215975659E+02  0.00000000000E+00 0.  1.
          2    1    1    2  501    0  0.77872985182E+02 -0.14023088066E+03  0.11600638880E+03  0.19795551004E+03  0.00000000000E+00 0. -1.
<scales pt_clust_5="13000.00000" pt_clust_6="13000.00000" pt_clust_7="13000.00000" pt_clust_8="13000.00000" pt_clust_9="40.02873" pt_clust_10="113.41009"></scales>
<clustering>
<clus scale="   40.029">  2  9  1 -1</clus>
<clus scale="   80.695">  5  6 -1 -1</clus>
<clus scale="   90.525">  7  8 -1 -1</clus>
<clus scale="  117.456">  1  5  2 -1</clus>
<clus scale="  113.410">  2 10  1 -1</clus>
<clus scale="   40.029">  2  5  1 -1</clus>
</clustering>
</event>
<event>
10    3  0.1370155E-004  0.2601471E+03  0.7546771E-02  0.1145896E+00
          1   -1    0    0  502    0 -0.00000000000E+00  0.00000000000E+00  0.10578137068E+04  0.10578137068E+04  0.00000000000E+00 0. -1.
         21   -1    0    0  503  502  0.00000000000E+00 -0.00000000000E+00 -0.13241542347E+03  0.13241542347E+03  0.00000000000E+00 0.  1.
        -24    2    1    2    0    0  0.34813394619E+02 -0.48021116661E+02  0.23294438632E+03  0.25348983722E+03  0.80473662545E+02 0.  0.
         23    2    1    2    0    0 -0.46966703486E+02  0.25250183985E+03  0.94220343556E+02  0.28890429425E+03  0.92871781132E+02 0.  0.
         11    1    3    3    0    0 -0.21264695221E+02 -0.35984014221E+02  0.11446876955E+03  0.12186113304E+03  0.00000000000E+00 0. -1.
        -12    1    3    3    0    0  0.56078089840E+02 -0.12037102440E+02  0.11847561677E+03  0.13162870418E+03  0.00000000000E+00 0.  1.
        -13    1    4    4    0    0 -0.55940975198E+02  0.18562290020E+03  0.30800111676E+02  0.19630053658E+03  0.00000000000E+00 0.  1.
         13    1    4    4    0    0  0.89742717114E+01  0.66878939657E+02  0.63420231881E+02  0.92603757668E+02  0.00000000000E+00 0. -1.
         21    1    1    2  503  501 -0.20930997591E+02 -0.48773952040E+01  0.64784034862E+01  0.22446945357E+02  0.00000000000E+00 0. -1.
          2    1    1    2  501    0  0.33084306458E+02 -0.19960332799E+03  0.59175514997E+03  0.62538805344E+03  0.00000000000E+00 0. -1.
<scales pt_clust_5="13000.00000" pt_clust_6="13000.00000" pt_clust_7="13000.00000" pt_clust_8="13000.00000" pt_clust_9="21.49176" pt_clust_10="243.00499"></scales>
<clustering>
<clus scale="   21.492">  2  9  1 -1</clus>
<clus scale="   80.474">  5  6 -1 -1</clus>
<clus scale="   92.872">  7  8 -1 -1</clus>
<clus scale="   99.577">  1  5  2 -1</clus>
<clus scale="  243.005">  2 10  1 -1</clus>
<clus scale="   21.492">  2  5  1 -1</clus>
</clustering>
</event>
<event>
10    3  0.7209067E-005  0.1277633E+03  0.7546771E-02  0.1233651E+00
         21   -1    0    0  501  502  0.00000000000E+00  0.00000000000E+00  0.39619039061E+03  0.39619039061E+03  0.00000000000E+00 0.  1.
          1   -1    0    0  503    0 -0.00000000000E+00 -0.00000000000E+00 -0.68881948188E+02  0.68881948188E+02  0.00000000000E+00 0. -1.
        -24    2    1    2    0    0 -0.32831851772E+02  0.89336874936E+02  0.64268869558E+02  0.14086896331E+03  0.81575544844E+02 0.  0.
         23    2    1    2    0    0  0.18626507822E+02 -0.75606592388E+02  0.15659568193E+03  0.19758370545E+03  0.91944599910E+02 0.  0.
         11    1    3    3    0    0 -0.51107782783E+02  0.35615164100E+02  0.11432298736E+02  0.63333583739E+02  0.00000000000E+00 0. -1.
        -12    1    3    3    0    0  0.18275931011E+02  0.53721710836E+02  0.52836570822E+02  0.77535379574E+02  0.00000000000E+00 0.  1.
        -11    1    4    4    0    0  0.49127308850E+02 -0.47382840049E+02  0.13375799212E+03  0.15016599636E+03  0.00000000000E+00 0.  1.
         11    1    4    4    0    0 -0.30500801027E+02 -0.28223752339E+02  0.22837689811E+02  0.47417709090E+02  0.00000000000E+00 0. -1.
         21    1    1    2  503  502  0.36735761493E+02  0.22662528248E+01  0.81371747779E+02  0.89308529329E+02  0.00000000000E+00 0.  1.
          2    1    1    2  501    0 -0.22530417543E+02 -0.15996535373E+02  0.25072143149E+02  0.37311140705E+02  0.00000000000E+00 0. -1.
<scales pt_clust_5="13000.00000" pt_clust_6="13000.00000" pt_clust_7="13000.00000" pt_clust_8="13000.00000" pt_clust_9="31.50244" pt_clust_10="27.63168"></scales>
<clustering>
<clus scale="   27.632">  1 10  2 -1</clus>
<clus scale="   31.502">  1  9  2 -1</clus>
<clus scale="   81.576">  5  6 -1 -1</clus>
<clus scale="   91.945">  7  8 -1 -1</clus>
<clus scale="  120.516">  2  5  1 -1</clus>
<clus scale="   27.632">  1  5  2 -1</clus>
</clustering>
</event>
<event>
10    3  0.7209067E-005  0.9794393E+02  0.7546771E-02  0.1291662E+00
         -2   -1    0    0    0  501 -0.00000000000E+00  0.00000000000E+00  0.45080369086E+03  0.45080369086E+03  0.00000000000E+00 0.  1.
         21   -1    0    0  503  502  0.00000000000E+00 -0.00000000000E+00 -0.54829194625E+02  0.54829194625E+02  0.00000000000E+00 0.  1.
        -24    2    1    2    0    0 -0.16967122870E+01 -0.67418989796E+02  0.16271007344E+03  0.19356239137E+03  0.80272238907E+02 0.  0.
         23    2    1    2    0    0 -0.35031174494E+02 -0.19139095009E+02  0.12878673203E+03  0.16381866524E+03  0.93043240435E+02 0.  0.
         13    1    3    3    0    0  0.26903038491E+02  0.23195285014E+01  0.26195386032E+02  0.37621163484E+02  0.00000000000E+00 0. -1.
        -14    1    3    3    0    0 -0.28599750778E+02 -0.69738518298E+02  0.13651468740E+03  0.15594122789E+03  0.00000000000E+00 0.  1.
        -13    1    4    4    0    0  0.23900831892E+02  0.19375607782E+02  0.36293125019E+02  0.47579983877E+02  0.00000000000E+00 0. -1.
         13    1    4    4    0    0 -0.58932006385E+02 -0.38514702792E+02  0.92493607007E+02  0.11623868136E+03  0.00000000000E+00 0.  1.
         21    1    1    2  503  501 -0.10667848168E+02  0.17838944008E+02  0.29215145812E+02  0.35854646180E+02  0.00000000000E+00 0.  1.
         -1    1    1    2    0  502  0.47395734949E+02  0.68719140798E+02  0.75262544963E+02  0.11239718269E+03  0.00000000000E+00 0.  1.
<scales pt_clust_5="13000.00000" pt_clust_6="13000.00000" pt_clust_7="13000.00000" pt_clust_8="13000.00000" pt_clust_9="20.78535" pt_clust_10="85.51942"></scales>
<clustering>
<clus scale="   20.785">  1  9  2 -1</clus>
<clus scale="   80.272">  5  6 -1 -1</clus>
<clus scale="   85.519">  2 10  1 -1</clus>
<clus scale="   85.905">  1  5  2 -1</clus>
<clus scale="   93.043">  7  8 -1 -1</clus>
<clus scale="   85.519">  2  5  1 -1</clus>
</clustering>
</event>
<event>
10    3  0.7209067E-005  0.9713920E+02  0.7546771E-02  0.1293411E+00
         21   -1    0    0  501  502  0.00000000000E+00  0.00000000000E+00  0.40081734227E+03  0.40081734227E+03  0.00000000000E+00 0. -1.
          1   -1    0    0  503    0 -0.00000000000E+00 -0.00000000000E+00 -0.70607492663E+02  0.70607492663E+02  0.00000000000E+00 0. -1.
         23    2    1    2    0    0  0.57041836620E+01  0.28651206311E+02  0.11125644687E+03  0.14740182712E+03  0.92173056441E+02 0.  0.
        -24    2    1    2    0    0 -0.22852563802E+02 -0.26876706327E+02  0.18023908232E+03  0.20013689170E+03  0.79523905892E+02 0.  0.
         11    1    4    4    0    0 -0.45544811944E+02 -0.36454087766E+02  0.95664886394E+02  0.11204910039E+03  0.00000000000E+00 0. -1.
        -12    1    4    4    0    0  0.22692248142E+02  0.95773814390E+01  0.84574195928E+02  0.88087791310E+02  0.00000000000E+00 0.  1.
        -13    1    3    3    0    0  0.47396266739E+02  0.49273285436E+01  0.44509496224E+02  0.65205673998E+02  0.00000000000E+00 0. -1.
         13    1    3    3    0    0 -0.41692083077E+02  0.23723877767E+02  0.66746950643E+02  0.82196153120E+02  0.00000000000E+00 0.  1.
         21    1    1    2  503  502 -0.26433191539E+02 -0.14553940782E+02  0.64821323044E+02  0.71500592504E+02  0.00000000000E+00 0. -1.
          2    1    1    2  501    0  0.43581571679E+02  0.12779440798E+02 -0.26107002631E+02  0.52385523606E+02  0.00000000000E+00 0. -1.
<scales pt_clust_5="13000.00000" pt_clust_6="13000.00000" pt_clust_7="13000.00000" pt_clust_8="13000.00000" pt_clust_9="30.17500" pt_clust_10="44.25375"></scales>
<clustering>
<clus scale="   30.175">  1  9  2 -1</clus>
<clus scale="   44.254">  1 10  2 -1</clus>
<clus scale="   79.524">  5  6 -1 -1</clus>
<clus scale="   85.230">  1  5  2 -1</clus>
<clus scale="   92.173">  7  8 -1 -1</clus>
<clus scale="   30.175">  1  5  2 -1</clus>
</clustering>
</event>
<event>
10    3  0.7209067E-005  0.1739067E+03  0.7546771E-02  0.1181604E+00
         21   -1    0    0  503  502  0.00000000000E+00  0.00000000000E+00  0.10717650686E+03  0.10717650686E+03  0.00000000000E+00 0.  1.
          1   -1    0    0  502    0 -0.00000000000E+00 -0.00000000000E+00 -0.10676668605E+04  0.10676668605E+04  0.00000000000E+00 0. -1.
         23    2    1    2    0    0 -0.72531869863E+02  0.94684357126E+02 -0.21903232339E+03  0.26527388069E+03  0.90382926789E+02 0.  0.
        -24    2    1    2    0    0 -0.15756123439E+03 -0.40098279372E+02 -0.86300308876E+02  0.20065997500E+03  0.79895354464E+02 0.  0.
         11    1    4    4    0    0 -0.37787379417E+02 -0.11120492592E+02 -0.64412526757E+02  0.75501821183E+02  0.00000000000E+00 0. -1.
        -12    1    4    4    0    0 -0.11977385497E+03 -0.28977786780E+02 -0.21887782119E+02  0.12515815382E+03  0.00000000000E+00 0.  1.
        -11    1    3    3    0    0  0.15717081581E+02  0.30616520729E+02 -0.24450607981E+02  0.42216468654E+02  0.00000000000E+00 0. -1.
         11    1    3    3    0    0 -0.88248951443E+02  0.64067836397E+02 -0.19458171541E+03  0.22305741203E+03  0.00000000000E+00 0.  1.
         21    1    1    2  503  501  0.27563514755E+02 -0.41188661405E+01 -0.81031885379E+01  0.29023681166E+02  0.00000000000E+00 0. -1.
          2    1    1    2  501    0  0.20252958949E+03 -0.50467211613E+02 -0.64705453286E+03  0.67988583053E+03  0.00000000000E+00 0. -1.
<scales pt_clust_5="13000.00000" pt_clust_6="13000.00000" pt_clust_7="13000.00000" pt_clust_8="13000.00000" pt_clust_9="27.86956" pt_clust_10="154.46776"></scales>
<clustering>
<clus scale="   27.870">  1  9  2 -1</clus>
<clus scale="   79.895">  5  6 -1 -1</clus>
<clus scale="   90.383">  7  8 -1 -1</clus>
<clus scale="  145.935">  2  7  1 -1</clus>
<clus scale="  154.468">  1 10  2 -1</clus>
<clus scale="   27.870">  1  5  2 -1</clus>
</clustering>
</event>
<event>
10    3  0.7209067E-005  0.1101921E+03  0.7546771E-02  0.1260719E+00
         21   -1    0    0  501  502  0.00000000000E+00  0.00000000000E+00  0.49821303954E+02  0.49821303954E+02  0.00000000000E+00 0. -1.
          1   -1    0    0  503    0 -0.00000000000E+00 -0.00000000000E+00 -0.64905132153E+03  0.64905132153E+03  0.00000000000E+00 0. -1.
        -24    2    1    2    0    0 -0.59973682308E+02 -0.17810747675E+02 -0.16846177645E+03  0.19767118606E+03  0.82343563015E+02 0.  0.
         23    2    1    2    0    0  0.83236592859E+02 -0.44230823277E+02 -0.21768533603E+03  0.25157590714E+03  0.83778490150E+02 0.  0.
         11    1    3    3    0    0 -0.44409276712E+02 -0.23172049855E+02 -0.17339552988E+03  0.18048583749E+03  0.00000000000E+00 0. -1.
        -12    1    3    3    0    0 -0.15564405596E+02  0.53613021797E+01  0.49337534250E+01  0.17185348570E+02  0.00000000000E+00 0.  1.
        -13    1    4    4    0    0  0.12000177251E+02 -0.46102991365E+02 -0.13079861203E+03  0.13920404799E+03  0.00000000000E+00 0.  1.
         13    1    4    4    0    0  0.71236415607E+02  0.18721680880E+01 -0.86886724000E+02  0.11237185915E+03  0.00000000000E+00 0. -1.
         21    1    1    2  503  502 -0.10966977720E+02 -0.21999286171E+02 -0.52901470852E+01  0.25144161321E+02  0.00000000000E+00 0.  1.
          2    1    1    2  501    0 -0.12295932831E+02  0.84040857123E+02 -0.20779275801E+03  0.22448137097E+03  0.00000000000E+00 0. -1.
<scales pt_clust_5="13000.00000" pt_clust_6="13000.00000" pt_clust_7="13000.00000" pt_clust_8="13000.00000" pt_clust_9="24.58136" pt_clust_10="80.76818"></scales>
<clustering>
<clus scale="   24.581">  1  9  2 -1</clus>
<clus scale="   80.768">  1 10  2 -1</clus>
<clus scale="   82.344">  5  6 -1 -1</clus>
<clus scale="   83.778">  7  8 -1 -1</clus>
<clus scale="  109.105">  2  5  1 -1</clus>
<clus scale="   24.581">  1  5  2 -1</clus>
</clustering>
</event>
<event>
10    3  0.7209067E-005  0.1708037E+03  0.7546771E-02  0.1199074E+00
          1   -1    0    0  502    0 -0.00000000000E+00  0.00000000000E+00  0.13152602656E+04  0.13152602656E+04  0.00000000000E+00 0. -1.
         21   -1    0    0  503  502  0.00000000000E+00 -0.00000000000E+00 -0.52547428530E+02  0.52547428530E+02  0.00000000000E+00 0.  1.
        -24    2    1    2    0    0 -0.42646407223E+02 -0.46532737849E+02  0.10993651119E+03  0.15014178225E+03  0.80451889622E+02 0.  0.
         23    2    1    2    0    0 -0.81578061577E+02 -0.81169206922E+02  0.49653176465E+03  0.51735968154E+03  0.88734584558E+02 0.  0.
         11    1    3    3    0    0 -0.43351755183E+02  0.10616659942E+02  0.55408039281E+02  0.71148710197E+02  0.00000000000E+00 0. -1.
        -12    1    3    3    0    0  0.70534796007E+00 -0.57149397791E+02  0.54528471914E+02  0.78993072056E+02  0.00000000000E+00 0.  1.
        -13    1    4    4    0    0  0.87754896560E+01 -0.43797664003E+02  0.20696279189E+03  0.21172822631E+03  0.00000000000E+00 0.  1.
         13    1    4    4    0    0 -0.90353551233E+02 -0.37371542919E+02  0.28956897277E+03  0.30563145524E+03  0.00000000000E+00 0. -1.
         21    1    1    2  503  501  0.20990350780E+02 -0.25751818980E+02  0.22496229119E+02  0.40122703439E+02  0.00000000000E+00 0. -1.
          2    1    1    2  501    0  0.10323411802E+03  0.15345376375E+03  0.63374833206E+03  0.66018352685E+03  0.00000000000E+00 0. -1.
<scales pt_clust_5="13000.00000" pt_clust_6="13000.00000" pt_clust_7="13000.00000" pt_clust_8="13000.00000" pt_clust_9="33.22275" pt_clust_10="145.94550"></scales>
<clustering>
<clus scale="   33.223">  2  9  1 -1</clus>
<clus scale="   80.452">  5  6 -1 -1</clus>
<clus scale="   88.735">  7  8 -1 -1</clus>
<clus scale="  104.730">  1  5  2 -1</clus>
<clus scale="  145.946">  2 10  1 -1</clus>
<clus scale="   33.223">  2  5  1 -1</clus>
</clustering>
</event>
<event>
10    3  0.7209067E-005  0.1662275E+03  0.7546771E-02  0.1198749E+00
         21   -1    0    0  501  502  0.00000000000E+00  0.00000000000E+00  0.92381641267E+02  0.92381641267E+02  0.00000000000E+00 0.  1.
         -2   -1    0    0    0  501 -0.00000000000E+00 -0.00000000000E+00 -0.10494160065E+04  0.10494160065E+04  0.00000000000E+00 0.  1.
         23    2    1    2    0    0 -0.63058199179E+02  0.50808268977E+02 -0.16290709199E+03  0.20172748005E+03  0.87163288738E+02 0.  0.
        -24    2    1    2    0    0 -0.10612500254E+03 -0.28959333852E+02 -0.70857443591E+03  0.72164350030E+03  0.81181593460E+02 0.  0.
         11    1    4    4    0    0 -0.52940003650E+02 -0.43488817425E+02 -0.23241696681E+03  0.24230470010E+03  0.00000000000E+00 0. -1.
        -12    1    4    4    0    0 -0.53184998890E+02  0.14529483573E+02 -0.47615746910E+03  0.47933880020E+03  0.00000000000E+00 0.  1.
        -11    1    3    3    0    0 -0.54359922424E+02  0.28274752341E+02 -0.33002061711E+02  0.69595968727E+02  0.00000000000E+00 0.  1.
         11    1    3    3    0    0 -0.86982767547E+01  0.22533516636E+02 -0.12990503028E+03  0.13213151132E+03  0.00000000000E+00 0. -1.
         21    1    1    2  503  502  0.30782309702E+02  0.28136557037E+01  0.24862027073E+02  0.39668471602E+02  0.00000000000E+00 0.  1.
         -1    1    1    2    0  503  0.13840089202E+03 -0.24662590829E+02 -0.11041486444E+03  0.17875819586E+03  0.00000000000E+00 0.  1.
<scales pt_clust_5="13000.00000" pt_clust_6="13000.00000" pt_clust_7="13000.00000" pt_clust_8="13000.00000" pt_clust_9="30.91063" pt_clust_10="145.05557"></scales>
<clustering>
<clus scale="   30.911">  1  9  2 -1</clus>
<clus scale="   81.182">  5  6 -1 -1</clus>
<clus scale="   87.163">  7  8 -1 -1</clus>
<clus scale="  114.428">  2  7  1 -1</clus>
<clus scale="  145.056">  1 10  2 -1</clus>
<clus scale="   30.911">  1  5  2 -1</clus>
</clustering>
</event>
<event>
10    3  0.7209067E-005  0.2651578E+03  0.7546771E-02  0.1140081E+00
         -2   -1    0    0    0  501 -0.00000000000E+00  0.00000000000E+00  0.13645187302E+04  0.13645187302E+04  0.00000000000E+00 0.  1.
         21   -1    0    0  501  502  0.00000000000E+00 -0.00000000000E+00 -0.12792881048E+03  0.12792881048E+03  0.00000000000E+00 0.  1.
         23    2    1    2    0    0 -0.10608912674E+02 -0.57736065718E+02 -0.59441325936E+01  0.10828186264E+03  0.90794420273E+02 0.  0.
        -24    2    1    2    0    0 -0.18622063735E+03  0.20494980773E+03  0.97024788124E+03  0.10122283320E+04  0.80886930915E+02 0.  0.
         13    1    4    4    0    0 -0.37306858896E+02  0.60391321334E+02  0.14726938610E+03  0.16348451148E+03  0.00000000000E+00 0. -1.
        -14    1    4    4    0    0 -0.14891377845E+03  0.14455848640E+03  0.82297849514E+03  0.84874382052E+03  0.00000000000E+00 0.  1.
        -11    1    3    3    0    0 -0.40060591949E+02 -0.24335870729E+02 -0.31938033311E+02  0.56719693257E+02  0.00000000000E+00 0.  1.
         11    1    3    3    0    0  0.29451679275E+02 -0.33400194989E+02  0.25993900717E+02  0.51562169387E+02  0.00000000000E+00 0. -1.
         21    1    1    2  503  502  0.10364982904E+02 -0.21742554502E+02  0.88620131502E+01  0.25665284412E+02  0.00000000000E+00 0.  1.
         -1    1    1    2    0  503  0.18646456712E+03 -0.12547118751E+03  0.26342415792E+03  0.34627206163E+03  0.00000000000E+00 0.  1.
<scales pt_clust_5="13000.00000" pt_clust_6="13000.00000" pt_clust_7="13000.00000" pt_clust_8="13000.00000" pt_clust_9="20.13764" pt_clust_10="259.90350"></scales>
<clustering>
<clus scale="   20.138">  9 10 -1 -1</clus>
<clus scale="   80.887">  5  6 -1 -1</clus>
<clus scale="   90.794">  7  8 -1 -1</clus>
<clus scale="  108.119">  1  7  2 -1</clus>
<clus scale="  259.903">  2  9  1 -1</clus>
<clus scale="  259.903">  2  5  1 -1</clus>
</clustering>
</event>
<event>
10    3  0.7209067E-005  0.1099269E+03  0.7546771E-02  0.1262522E+00
          1   -1    0    0  503    0 -0.00000000000E+00  0.00000000000E+00  0.82172209739E+03  0.82172209739E+03  0.00000000000E+00 0. -1.
         21   -1    0    0  501  502  0.00000000000E+00 -0.00000000000E+00 -0.48647243986E+02  0.48647243986E+02  0.00000000000E+00 0.  1.
         23    2    1    2    0    0  0.31363665462E+02 -0.38886447358E+02  0.35996694234E+03  0.37426330489E+03  0.89448233695E+02 0.  0.
        -24    2    1    2    0    0 -0.83701950416E+02  0.50916289333E+02  0.24805052631E+03  0.27981762904E+03  0.84677959919E+02 0.  0.
         11    1    4    4    0    0 -0.25413432898E+01  0.28978112121E+02  0.13958509403E+03  0.14258396783E+03  0.00000000000E+00 0. -1.
        -12    1    4    4    0    0 -0.81160607126E+02  0.21938177212E+02  0.10846543228E+03  0.13723366121E+03  0.00000000000E+00 0.  1.
        -11    1    3    3    0    0  0.51314276549E+02  0.58015778538E+01  0.14903189836E+03  0.15772545772E+03  0.00000000000E+00 0.  1.
         11    1    3    3    0    0 -0.19950611086E+02 -0.44688025212E+02  0.21093504398E+03  0.21653784717E+03  0.00000000000E+00 0. -1.
         21    1    1    2  503  502  0.39176351989E+02  0.23842920191E+02 -0.10191091440E+01  0.45872758603E+02  0.00000000000E+00 0.  1.
          2    1    1    2  501    0  0.13161932964E+02 -0.35872762166E+02  0.16607649389E+03  0.17041564884E+03  0.00000000000E+00 0. -1.
<scales pt_clust_5="13000.00000" pt_clust_6="13000.00000" pt_clust_7="13000.00000" pt_clust_8="13000.00000" pt_clust_9="46.17496" pt_clust_10="38.21116"></scales>
<clustering>
<clus scale="   38.211">  2 10  1 -1</clus>
<clus scale="   46.175">  2  9  1 -1</clus>
<clus scale="   84.678">  5  6 -1 -1</clus>
<clus scale="   89.448">  7  8 -1 -1</clus>
<clus scale="  106.082">  2  5  1 -1</clus>
<clus scale="   38.211">  2  5  1 -1</clus>
</clustering>
</event>
<event>
10    3  0.7209067E-005  0.9776961E+02  0.7546771E-02  0.1291346E+00
         21   -1    0    0  501  502  0.00000000000E+00  0.00000000000E+00  0.63611082830E+03  0.63611082830E+03  0.00000000000E+00 0.  1.
          1   -1    0    0  503    0 -0.00000000000E+00 -0.00000000000E+00 -0.67878901434E+02  0.67878901434E+02  0.00000000000E+00 0. -1.
         23    2    1    2    0    0  0.39560271854E+02 -0.19597115930E+02  0.90459841739E+02  0.13655781461E+03  0.92282130996E+02 0.  0.
        -24    2    1    2    0    0  0.34732148534E+02  0.30240081275E+02  0.41547249907E+03  0.42572630752E+03  0.80651762384E+02 0.  0.
         11    1    4    4    0    0  0.23561864847E+02 -0.16656958866E+02  0.55624629758E+02  0.62663507638E+02  0.00000000000E+00 0. -1.
        -12    1    4    4    0    0  0.11170283688E+02  0.46897040141E+02  0.35984786931E+03  0.36306279989E+03  0.00000000000E+00 0.  1.
        -11    1    3    3    0    0  0.18694173401E+00 -0.49373570368E+02  0.27377971512E+02  0.56456511778E+02  0.00000000000E+00 0.  1.
         11    1    3    3    0    0  0.39373330120E+02  0.29776454438E+02  0.63081870227E+02  0.80101302830E+02  0.00000000000E+00 0. -1.
         21    1    1    2  503  502  0.33439971528E+01 -0.21133300337E+02  0.59592200732E+02  0.63316894177E+02  0.00000000000E+00 0.  1.
          2    1    1    2  501    0 -0.77636417542E+02  0.10490334992E+02  0.27073853219E+01  0.78388713424E+02  0.00000000000E+00 0. -1.
<scales pt_clust_5="13000.00000" pt_clust_6="13000.00000" pt_clust_7="13000.00000" pt_clust_8="13000.00000" pt_clust_9="21.39623" pt_clust_10="77.92190"></scales>
<clustering>
<clus scale="   21.396">  1  9  2 -1</clus>
<clus scale="   77.922">  1 10  2 -1</clus>
<clus scale="   80.652">  5  6 -1 -1</clus>
<clus scale="   86.877">  1  5  2 -1</clus>
<clus scale="   92.282">  7  8 -1 -1</clus>
<clus scale="   21.396">  1  5  2 -1</clus>
</clustering>
</event>
<event>
10    3  0.7209067E-005  0.1642288E+03  0.7546771E-02  0.1185140E+00
          1   -1    0    0  503    0 -0.00000000000E+00  0.00000000000E+00  0.47386713072E+03  0.47386713072E+03  0.00000000000E+00 0. -1.
         21   -1    0    0  501  502  0.00000000000E+00 -0.00000000000E+00 -0.12797449442E+03  0.12797449442E+03  0.00000000000E+00 0. -1.
         23    2    1    2    0    0  0.62676341624E+02 -0.76557138435E+02  0.88479828637E+02  0.16112232559E+03  0.91336764136E+02 0.  0.
        -24    2    1    2    0    0 -0.15268173763E+03  0.10122764755E+03  0.20377040249E+03  0.28651494115E+03  0.83723861213E+02 0.  0.
         13    1    4    4    0    0 -0.96542123458E+02  0.83829524421E+02  0.18487000797E+03  0.22477697973E+03  0.00000000000E+00 0. -1.
        -14    1    4    4    0    0 -0.56139614175E+02  0.17398123132E+02  0.18900394518E+02  0.61737961427E+02  0.00000000000E+00 0.  1.
        -11    1    3    3    0    0  0.44487136645E+02 -0.93388244819E+02  0.48886858164E+02  0.11441326190E+03  0.00000000000E+00 0.  1.
         11    1    3    3    0    0  0.18189204979E+02  0.16831106384E+02  0.39592970473E+02  0.46709063690E+02  0.00000000000E+00 0. -1.
         21    1    1    2  503  502  0.93628471166E+01  0.38536840866E+02  0.28108516083E+02  0.48609049430E+02  0.00000000000E+00 0.  1.
          2    1    1    2  501    0  0.80642548893E+02 -0.63207349984E+02  0.25533889086E+02  0.10559530897E+03  0.00000000000E+00 0. -1.
<scales pt_clust_5="13000.00000" pt_clust_6="13000.00000" pt_clust_7="13000.00000" pt_clust_8="13000.00000" pt_clust_9="39.65792" pt_clust_10="100.13973"></scales>
<clustering>
<clus scale="   39.658">  1  9  2 -1</clus>
<clus scale="   83.724">  5  6 -1 -1</clus>
<clus scale="   91.337">  7  8 -1 -1</clus>
<clus scale="  100.140">  2 10  1 -1</clus>
<clus scale="  160.120">  2  5  1 -1</clus>
<clus scale="  100.140">  2  5  1 -1</clus>
</clustering>
</event>
<event>
10    3  0.7209067E-005  0.1570646E+03  0.7546771E-02  0.1210155E+00
         21   -1    0    0  503  502  0.00000000000E+00  0.00000000000E+00  0.27501469112E+03  0.27501469112E+03  0.00000000000E+00 0. -1.
          1   -1    0    0  502    0 -0.00000000000E+00 -0.00000000000E+00 -0.25634105524E+03  0.25634105524E+03  0.00000000000E+00 0. -1.
         23    2    1    2    0    0 -0.56952227671E+02  0.16369435115E+02 -0.14672696880E+03  0.18105611523E+03  0.87982946335E+02 0.  0.
        -24    2    1    2    0    0  0.11337227928E+03  0.99753253293E+02  0.73521816249E+02  0.18614063612E+03  0.80242717408E+02 0.  0.
         13    1    4    4    0    0  0.12061051235E+03  0.77004053664E+02  0.76196079008E+02  0.16211835931E+03  0.00000000000E+00 0. -1.
        -14    1    4    4    0    0 -0.72382330643E+01  0.22749199629E+02 -0.26742627592E+01  0.24022276807E+02  0.00000000000E+00 0.  1.
        -11    1    3    3    0    0 -0.75822850539E+01 -0.28967976279E+02 -0.15537742772E+02  0.33735087769E+02  0.00000000000E+00 0.  1.
         11    1    3    3    0    0 -0.49369942617E+02  0.45337411394E+02 -0.13118922603E+03  0.14732102746E+03  0.00000000000E+00 0. -1.
         21    1    1    2  503  501 -0.90986750165E+01 -0.23714858560E+02  0.41752247898E+02  0.48871572597E+02  0.00000000000E+00 0. -1.
          2    1    1    2  501    0 -0.47321376594E+02 -0.92407829848E+02  0.50126540533E+02  0.11528742241E+03  0.00000000000E+00 0. -1.
<scales pt_clust_5="13000.00000" pt_clust_6="13000.00000" pt_clust_7="13000.00000" pt_clust_8="13000.00000" pt_clust_9="21.21013" pt_clust_10="141.66562"></scales>
<clustering>
<clus scale="   21.210">  9 10 -1 -1</clus>
<clus scale="   80.243">  5  6 -1 -1</clus>
<clus scale="   87.983">  7  8 -1 -1</clus>
<clus scale="  106.078">  2  7  1 -1</clus>
<clus scale="  141.666">  1  9  2 -1</clus>
<clus scale="  141.666">  1  5  2 -1</clus>
</clustering>
</event>
<event>
10    3  0.7209067E-005  0.1998297E+03  0.7546771E-02  0.1180436E+00
         21   -1    0    0  501  502  0.00000000000E+00  0.00000000000E+00  0.12062603144E+04  0.12062603144E+04  0.00000000000E+00 0.  1.
          1   -1    0    0  503    0 -0.00000000000E+00 -0.00000000000E+00 -0.71228306250E+02  0.71228306250E+02  0.00000000000E+00 0. -1.
         23    2    1    2    0    0 -0.56780044695E+01 -0.39041896198E+02  0.87785184202E+02  0.13241030621E+03  0.90938117596E+02 0.  0.
        -24    2    1    2    0    0  0.16845875680E+03  0.29429319057E+02  0.74169676860E+03  0.76550167104E+03  0.81451054318E+02 0.  0.
         13    1    4    4    0    0  0.24590434399E+02 -0.12807180283E+02  0.45022050954E+02  0.52874364326E+02  0.00000000000E+00 0. -1.
        -14    1    4    4    0    0  0.14386832240E+03  0.42236499340E+02  0.69667471764E+03  0.71262730671E+03  0.00000000000E+00 0.  1.
        -11    1    3    3    0    0 -0.11763989353E+02  0.26114937719E+02  0.47789213878E+02  0.55715261649E+02  0.00000000000E+00 0. -1.
         11    1    3    3    0    0  0.60859848840E+01 -0.65156833917E+02  0.39995970324E+02  0.76695044561E+02  0.00000000000E+00 0.  1.
         21    1    1    2  503  502  0.19775143921E+02  0.73308305736E+01  0.11017598762E+03  0.11217640412E+03  0.00000000000E+00 0.  1.
          2    1    1    2  501    0 -0.18255589625E+03  0.22817465677E+01  0.19537406773E+03  0.26740023928E+03  0.00000000000E+00 0. -1.
<scales pt_clust_5="13000.00000" pt_clust_6="13000.00000" pt_clust_7="13000.00000" pt_clust_8="13000.00000" pt_clust_9="21.09022" pt_clust_10="182.47649"></scales>
<clustering>
<clus scale="   21.090">  1  9  2 -1</clus>
<clus scale="   81.451">  5  6 -1 -1</clus>
<clus scale="   90.938">  7  8 -1 -1</clus>
<clus scale="   98.745">  2  7  1 -1</clus>
<clus scale="  182.476">  1 10  2 -1</clus>
<clus scale="   21.090">  1  5  2 -1</clus>
</clustering>
</event>
<event>
10    3  0.7209067E-005  0.3450504E+03  0.7546771E-02  0.1064665E+00
         21   -1    0    0  501  502  0.00000000000E+00  0.00000000000E+00  0.10134567883E+04  0.10134567883E+04  0.00000000000E+00 0. -1.
          1   -1    0    0  503    0 -0.00000000000E+00 -0.00000000000E+00 -0.15218394059E+03  0.15218394059E+03  0.00000000000E+00 0. -1.
        -24    2    1    2    0    0  0.28848066876E+02  0.69237845157E+02  0.12302518498E+03  0.16202176864E+03  0.74092963283E+02 0.  0.
         23    2    1    2    0    0  0.16832782300E+03  0.10087777066E+03  0.14570384374E+03  0.26100655817E+03  0.91565455936E+02 0.  0.
         13    1    3    3    0    0  0.35841251102E+02  0.14834822764E+02  0.89982429426E+02  0.97987268828E+02  0.00000000000E+00 0. -1.
        -14    1    3    3    0    0 -0.69931842255E+01  0.54403022393E+02  0.33042755557E+02  0.64034499810E+02  0.00000000000E+00 0.  1.
        -11    1    4    4    0    0  0.14506444276E+03  0.11783998840E+03  0.11786169224E+03  0.22095550212E+03  0.00000000000E+00 0. -1.
         11    1    4    4    0    0  0.23263380238E+02 -0.16962217743E+02  0.27842151497E+02  0.40051056052E+02  0.00000000000E+00 0.  1.
         21    1    1    2  503  502  0.45715550885E+02  0.12707031595E+02  0.35137024591E+03  0.35455948719E+03  0.00000000000E+00 0. -1.
          2    1    1    2  501    0 -0.24289144076E+03 -0.18282264741E+03  0.24117357308E+03  0.38805291489E+03  0.00000000000E+00 0. -1.
<scales pt_clust_5="13000.00000" pt_clust_6="13000.00000" pt_clust_7="13000.00000" pt_clust_8="13000.00000" pt_clust_9="47.44871" pt_clust_10="283.08962"></scales>
<clustering>
<clus scale="   47.449">  1  9  2 -1</clus>
<clus scale="   74.093">  5  6 -1 -1</clus>
<clus scale="   91.565">  7  8 -1 -1</clus>
<clus scale="  108.870">  5  7 -1 -1</clus>
<clus scale="  283.090">  1 10  2 -1</clus>
<clus scale="   47.449">  1  5  2 -1</clus>
</clustering>
</event>
<event>
10    3  0.7209067E-005  0.2665482E+03  0.7546771E-02  0.1149944E+00
          1   -1    0    0  503    0 -0.00000000000E+00  0.00000000000E+00  0.66648320618E+03  0.66648320618E+03  0.00000000000E+00 0. -1.
         21   -1    0    0  501  502  0.00000000000E+00 -0.00000000000E+00 -0.93879735091E+03  0.93879735091E+03  0.00000000000E+00 0. -1.
        -24    2    1    2    0    0  0.18650722055E+02 -0.14250902066E+02  0.46692441340E+02  0.96172879989E+02  0.80734757845E+02 0.  0.
         23    2    1    2    0    0 -0.95416750268E+02 -0.28609855468E+03 -0.29674847320E+03  0.43251487464E+03  0.89736955711E+02 0.  0.
         11    1    3    3    0    0  0.50432911144E+02 -0.53894568216E+01  0.23883219734E+02  0.56061867220E+02  0.00000000000E+00 0. -1.
        -12    1    3    3    0    0 -0.31782189089E+02 -0.88614452441E+01  0.22809221606E+02  0.40111012769E+02  0.00000000000E+00 0.  1.
        -13    1    4    4    0    0 -0.46206429378E+02 -0.58700500666E+02 -0.35586637837E+02  0.82747759407E+02  0.00000000000E+00 0.  1.
         13    1    4    4    0    0 -0.49210320890E+02 -0.22739805401E+03 -0.26116183536E+03  0.34976711523E+03  0.00000000000E+00 0. -1.
         21    1    1    2  503  502 -0.26392905783E+02  0.18803029072E+03 -0.52128235831E+03  0.55478579000E+03  0.00000000000E+00 0. -1.
          2    1    1    2  501    0  0.10315893400E+03  0.11231916602E+03  0.49902424543E+03  0.52180701246E+03  0.00000000000E+00 0. -1.
<scales pt_clust_5="13000.00000" pt_clust_6="13000.00000" pt_clust_7="13000.00000" pt_clust_8="13000.00000" pt_clust_9="250.98845" pt_clust_10="155.61956"></scales>
<clustering>
<clus scale="   80.735">  5  6 -1 -1</clus>
<clus scale="   84.078">  1  5  2 -1</clus>
<clus scale="   89.737">  7  8 -1 -1</clus>
<clus scale="  155.620">  2 10  1 -1</clus>
<clus scale="  250.988">  2  9  1 -1</clus>
<clus scale="  155.620">  2  5  1 -1</clus>
</clustering>
</event>
<event>
10    3  0.7209067E-005  0.3976799E+03  0.7546771E-02  0.1095249E+00
         21   -1    0    0  501  502  0.00000000000E+00  0.00000000000E+00  0.56506716167E+03  0.56506716167E+03  0.00000000000E+00 0. -1.
          1   -1    0    0  503    0 -0.00000000000E+00 -0.00000000000E+00 -0.84357821079E+03  0.84357821079E+03  0.00000000000E+00 0. -1.
        -24    2    1    2    0    0  0.16627588811E+02  0.55728496974E+02  0.68578993940E+02  0.12032018435E+03  0.79948272449E+02 0.  0.
         23    2    1    2    0    0  0.33732996341E+03 -0.67475293090E+02 -0.24401446652E+03  0.43236791362E+03  0.95155312333E+02 0.  0.
         11    1    3    3    0    0  0.24674835320E+02  0.26171729704E+02  0.79931235218E+02  0.87651636022E+02  0.00000000000E+00 0. -1.
        -12    1    3    3    0    0 -0.80472465089E+01  0.29556767269E+02 -0.11352241279E+02  0.32668548328E+02  0.00000000000E+00 0.  1.
        -11    1    4    4    0    0  0.13971058049E+02  0.15177830399E+02 -0.33656443873E+01  0.20901783674E+02  0.00000000000E+00 0.  1.
         11    1    4    4    0    0  0.32335890536E+03 -0.82653123489E+02 -0.24064882214E+03  0.41146612994E+03  0.00000000000E+00 0. -1.
         21    1    1    2  503  502 -0.44971979507E+03  0.21730780372E+03  0.14476331619E+03  0.52002595449E+03  0.00000000000E+00 0. -1.
          2    1    1    2  501    0  0.95762242853E+02 -0.20556100760E+03 -0.24783889274E+03  0.33593132000E+03  0.00000000000E+00 0. -1.
<scales pt_clust_5="13000.00000" pt_clust_6="13000.00000" pt_clust_7="13000.00000" pt_clust_8="13000.00000" pt_clust_9="386.12789" pt_clust_10="211.69601"></scales>
<clustering>
<clus scale="   79.948">  5  6 -1 -1</clus>
<clus scale="   95.155">  7  8 -1 -1</clus>
<clus scale="   98.863">  2  5  1 -1</clus>
<clus scale="  211.696">  1 10  2 -1</clus>
<clus scale="  386.128">  1  9  2 -1</clus>
<clus scale="  211.696">  1  5  2 -1</clus>
</clustering>
</event>
<event>
10    3  0.7209067E-005  0.1354700E+03  0.7546771E-02  0.1222514E+00
         21   -1    0    0  501  502  0.00000000000E+00  0.00000000000E+00  0.92495784091E+02  0.92495784091E+02  0.00000000000E+00 0. -1.
          1   -1    0    0  503    0 -0.00000000000E+00 -0.00000000000E+00 -0.41455686610E+03  0.41455686610E+03  0.00000000000E+00 0. -1.
         23    2    1    2    0    0 -0.10321090259E+03  0.14295382533E+02 -0.16877964710E+03  0.21913234186E+03  0.93142716278E+02 0.  0.
        -24    2    1    2    0    0  0.89580027900E+02  0.46451473589E+01 -0.44671120398E+02  0.12875498758E+03  0.80846638996E+02 0.  0.
         11    1    4    4    0    0  0.44100306035E+02 -0.37569480213E+02 -0.28839949762E+02  0.64715110586E+02  0.00000000000E+00 0. -1.
        -12    1    4    4    0    0  0.45479721865E+02  0.42214627571E+02 -0.15831170636E+02  0.64039876995E+02  0.00000000000E+00 0.  1.
        -11    1    3    3    0    0 -0.80239640164E+02  0.10685871519E+02 -0.43859706742E+02  0.92066614901E+02  0.00000000000E+00 0. -1.
         11    1    3    3    0    0 -0.22971262430E+02  0.36095110144E+01 -0.12491994036E+03  0.12706572695E+03  0.00000000000E+00 0.  1.
         21    1    1    2  503  502 -0.11994377547E+02 -0.62694991198E+02 -0.46434127098E+02  0.78934499260E+02  0.00000000000E+00 0.  1.
          2    1    1    2  501    0  0.25625252243E+02  0.43754461306E+02 -0.62176187414E+02  0.80230821497E+02  0.00000000000E+00 0. -1.
<scales pt_clust_5="13000.00000" pt_clust_6="13000.00000" pt_clust_7="13000.00000" pt_clust_8="13000.00000" pt_clust_9="54.62764" pt_clust_10="50.70610"></scales>
<clustering>
<clus scale="   50.706">  1 10  2 -1</clus>
<clus scale="   54.628">  1  9  2 -1</clus>
<clus scale="   80.847">  5  6 -1 -1</clus>
<clus scale="   93.143">  7  8 -1 -1</clus>
<clus scale="  127.329">  1  5  2 -1</clus>
<clus scale="   50.706">  1  5  2 -1</clus>
</clustering>
</event>
<event>
10    3  0.7209067E-005  0.1225973E+03  0.7546771E-02  0.1240792E+00
         21   -1    0    0  501  502  0.00000000000E+00  0.00000000000E+00  0.81864214182E+02  0.81864214182E+02  0.00000000000E+00 0. -1.
          3   -1    0    0  503    0 -0.00000000000E+00 -0.00000000000E+00 -0.57130727545E+03  0.57130727545E+03  0.00000000000E+00 0. -1.
        -24    2    1    2    0    0 -0.58998984958E+02 -0.39614038967E+02 -0.19780198358E+03  0.22723528804E+03  0.86371865304E+02 0.  0.
         23    2    1    2    0    0  0.15719222061E+02  0.12435389351E+03 -0.15608636279E+03  0.22059378920E+03  0.92669749158E+02 0.  0.
         13    1    3    3    0    0 -0.64883466191E+02 -0.83763393007E+01 -0.17834587431E+03  0.18996651844E+03  0.00000000000E+00 0. -1.
        -14    1    3    3    0    0  0.58844812334E+01 -0.31237699666E+02 -0.19456109263E+02  0.37268769600E+02  0.00000000000E+00 0.  1.
        -13    1    4    4    0    0  0.35817045461E+02  0.91417525439E+01 -0.53478208137E+02  0.65010392483E+02  0.00000000000E+00 0.  1.
         13    1    4    4    0    0 -0.20097823401E+02  0.11521214096E+03 -0.10260815466E+03  0.15558339671E+03  0.00000000000E+00 0. -1.
         21    1    1    2  503  502  0.47398272368E+02 -0.41011553882E+02  0.17997821330E+00  0.62678354856E+02  0.00000000000E+00 0. -1.
          4    1    1    2  501    0 -0.41185094710E+01 -0.43728300659E+02 -0.13573469311E+03  0.14266405753E+03  0.00000000000E+00 0. -1.
<scales pt_clust_5="13000.00000" pt_clust_6="13000.00000" pt_clust_7="13000.00000" pt_clust_8="13000.00000" pt_clust_9="74.29618" pt_clust_10="43.92184"></scales>
<clustering>
<clus scale="   43.922">  1 10  2 -1</clus>
<clus scale="   74.296">  1  9  2 -1</clus>
<clus scale="   86.372">  5  6 -1 -1</clus>
<clus scale="   92.670">  7  8 -1 -1</clus>
<clus scale="  117.909">  2  5  1 -1</clus>
<clus scale="   43.922">  1  5  2 -1</clus>
</clustering>
</event>
<event>
10    3  0.7209067E-005  0.1968650E+03  0.7546771E-02  0.1163670E+00
          1   -1    0    0  503    0 -0.00000000000E+00  0.00000000000E+00  0.14467239868E+04  0.14467239868E+04  0.00000000000E+00 0. -1.
         21   -1    0    0  501  502  0.00000000000E+00 -0.00000000000E+00 -0.11867338110E+03  0.11867338110E+03  0.00000000000E+00 0.  1.
        -24    2    1    2    0    0  0.68848154571E+01  0.14597288621E+03  0.45694069961E+03  0.48617632327E+03  0.78848780335E+02 0.  0.
         23    2    1    2    0    0 -0.11448398622E+03  0.12616308971E+03  0.29938897984E+03  0.35653357636E+03  0.91971308138E+02 0.  0.
         11    1    3    3    0    0  0.33141082486E+02  0.98139125645E+02  0.22191969392E+03  0.24490400136E+03  0.00000000000E+00 0. -1.
        -12    1    3    3    0    0 -0.26256267029E+02  0.47833760561E+02  0.23502100569E+03  0.24127232192E+03  0.00000000000E+00 0.  1.
        -13    1    4    4    0    0 -0.58839072024E+02  0.12473226988E+03  0.21059472882E+03  0.25173461294E+03  0.00000000000E+00 0.  1.
         13    1    4    4    0    0 -0.55644914194E+02  0.14308198369E+01  0.88794251017E+02  0.10479896342E+03  0.00000000000E+00 0. -1.
         21    1    1    2  503  502 -0.66506321131E+01 -0.74245080130E+02 -0.28992388192E+02  0.79982006752E+02  0.00000000000E+00 0.  1.
          2    1    1    2  501    0  0.11424980287E+03 -0.19789089579E+03  0.60071331443E+03  0.64270546149E+03  0.00000000000E+00 0. -1.
<scales pt_clust_5="13000.00000" pt_clust_6="13000.00000" pt_clust_7="13000.00000" pt_clust_8="13000.00000" pt_clust_9="74.54236" pt_clust_10="174.06076"></scales>
<clustering>
<clus scale="   74.542">  2  9  1 -1</clus>
<clus scale="   78.849">  5  6 -1 -1</clus>
<clus scale="   91.971">  7  8 -1 -1</clus>
<clus scale="  151.339">  1  5  2 -1</clus>
<clus scale="  174.061">  2 10  1 -1</clus>
<clus scale="   74.542">  2  5  1 -1</clus>
</clustering>
</event>
<event>
10    3  0.7209067E-005  0.3178203E+03  0.7546771E-02  0.1127893E+00
          1   -1    0    0  503    0 -0.00000000000E+00  0.00000000000E+00  0.43734695357E+03  0.43734695357E+03  0.00000000000E+00 0. -1.
         21   -1    0    0  501  502  0.00000000000E+00 -0.00000000000E+00 -0.84599631104E+03  0.84599631104E+03  0.00000000000E+00 0. -1.
        -24    2    1    2    0    0 -0.86579625490E+01 -0.70921689430E+01  0.53263375905E+02  0.99898583879E+02  0.83770404513E+02 0.  0.
         23    2    1    2    0    0  0.13473049896E+03  0.18973456162E+03 -0.54472549150E+02  0.25504691158E+03  0.89051430498E+02 0.  0.
         13    1    3    3    0    0 -0.99723015891E+00 -0.35277338286E+02 -0.40986310570E+01  0.35528634101E+02  0.00000000000E+00 0. -1.
        -14    1    3    3    0    0 -0.76607323901E+01  0.28185169343E+02  0.57362006962E+02  0.64369949778E+02  0.00000000000E+00 0.  1.
        -13    1    4    4    0    0  0.15297318631E+02  0.91203089209E+02 -0.54391367349E+01  0.92636902188E+02  0.00000000000E+00 0.  1.
         13    1    4    4    0    0  0.11943318033E+03  0.98531472415E+02 -0.49033412415E+02  0.16241000940E+03  0.00000000000E+00 0. -1.
         21    1    1    2  503  502 -0.57495235401E+02  0.20977374978E+03 -0.47677391654E+03  0.52404589081E+03  0.00000000000E+00 0. -1.
          2    1    1    2  501    0 -0.68577301007E+02 -0.39241614246E+03  0.69333732302E+02  0.40435187833E+03  0.00000000000E+00 0. -1.
<scales pt_clust_5="13000.00000" pt_clust_6="13000.00000" pt_clust_7="13000.00000" pt_clust_8="13000.00000" pt_clust_9="217.21314" pt_clust_10="305.08949"></scales>
<clustering>
<clus scale="   83.770">  5  6 -1 -1</clus>
<clus scale="   84.515">  1  5  2 -1</clus>
<clus scale="   89.051">  7  8 -1 -1</clus>
<clus scale="  217.213">  2  9  1 -1</clus>
<clus scale="  305.089">  2 10  1 -1</clus>
<clus scale="  217.213">  2  5  1 -1</clus>
</clustering>
</event>
<event>
10    3  0.7209067E-005  0.1240097E+03  0.7546771E-02  0.1241666E+00
         21   -1    0    0  501  502  0.00000000000E+00  0.00000000000E+00  0.39843180490E+02  0.39843180490E+02  0.00000000000E+00 0. -1.
         -4   -1    0    0    0  501 -0.00000000000E+00 -0.00000000000E+00 -0.78175783023E+03  0.78175783023E+03  0.00000000000E+00 0.  1.
         23    2    1    2    0    0  0.34204754068E+01 -0.64739711755E+02 -0.16897092447E+03  0.20267906897E+03  0.91239803556E+02 0.  0.
        -24    2    1    2    0    0 -0.76525568911E+02 -0.18256222053E+02 -0.34358155604E+03  0.36175362612E+03  0.81412210495E+02 0.  0.
         13    1    4    4    0    0 -0.56998929710E+02 -0.48923849343E+02 -0.25939289276E+03  0.27005016911E+03  0.00000000000E+00 0. -1.
        -14    1    4    4    0    0 -0.19526639201E+02  0.30667627289E+02 -0.84188663276E+02  0.91703457003E+02  0.00000000000E+00 0.  1.
        -13    1    3    3    0    0  0.26617019082E+02 -0.44391206343E+02 -0.16329864038E+03  0.17130525636E+03  0.00000000000E+00 0.  1.
         13    1    3    3    0    0 -0.23196543675E+02 -0.20348505412E+02 -0.56722840842E+01  0.31373812610E+02  0.00000000000E+00 0. -1.
         21    1    1    2  503  502  0.16987198496E+02  0.26942166125E+02 -0.35423707148E+02  0.47637005115E+02  0.00000000000E+00 0. -1.
         -3    1    1    2    0  503  0.56117895008E+02  0.56053767684E+02 -0.19393846208E+03  0.20953131052E+03  0.00000000000E+00 0.  1.
<scales pt_clust_5="13000.00000" pt_clust_6="13000.00000" pt_clust_7="13000.00000" pt_clust_8="13000.00000" pt_clust_9="22.81139" pt_clust_10="100.23132"></scales>
<clustering>
<clus scale="   22.811">  9 10 -1 -1</clus>
<clus scale="   81.412">  5  6 -1 -1</clus>
<clus scale="   91.240">  7  8 -1 -1</clus>
<clus scale="  111.927">  2  7  1 -1</clus>
<clus scale="  100.231">  1  9  2 -1</clus>
<clus scale="  100.231">  1  5  2 -1</clus>
</clustering>
</event>
<event>
10    3  0.7209067E-005  0.2593452E+03  0.7546771E-02  0.1107537E+00
         21   -1    0    0  503  502  0.00000000000E+00  0.00000000000E+00  0.25686169400E+03  0.25686169400E+03  0.00000000000E+00 0. -1.
          3   -1    0    0  502    0 -0.00000000000E+00 -0.00000000000E+00 -0.54419516930E+03  0.54419516930E+03  0.00000000000E+00 0. -1.
        -24    2    1    2    0    0  0.10053861449E+03  0.14546329050E+02 -0.28683420214E+01  0.13013056979E+03  0.81278097395E+02 0.  0.
         23    2    1    2    0    0  0.88544992682E+02 -0.45705965663E+02  0.38346015422E+02  0.14077578684E+03  0.91750499926E+02 0.  0.
         13    1    3    3    0    0  0.79295822241E+02  0.13893901107E+02 -0.38038154552E+02  0.89038020612E+02  0.00000000000E+00 0. -1.
        -14    1    3    3    0    0  0.21242792251E+02  0.65242794330E+00  0.35169812531E+02  0.41092549182E+02  0.00000000000E+00 0.  1.
        -13    1    4    4    0    0  0.34452972841E+02 -0.54345182098E+01 -0.29081472550E+02  0.45412260145E+02  0.00000000000E+00 0.  1.
         13    1    4    4    0    0  0.54092019840E+02 -0.40271447453E+02  0.67427487972E+02  0.95363526700E+02  0.00000000000E+00 0. -1.
         21    1    1    2  503  501 -0.12029290032E+02  0.27572852885E+02  0.82514482798E+02  0.87827136503E+02  0.00000000000E+00 0. -1.
          4    1    1    2  501    0 -0.17705431714E+03  0.35867837275E+01 -0.40532563151E+03  0.44232337016E+03  0.00000000000E+00 0. -1.
<scales pt_clust_5="13000.00000" pt_clust_6="13000.00000" pt_clust_7="13000.00000" pt_clust_8="13000.00000" pt_clust_9="30.08265" pt_clust_10="178.47102"></scales>
<clustering>
<clus scale="   30.083">  1  9  2 -1</clus>
<clus scale="   81.278">  5  6 -1 -1</clus>
<clus scale="   91.750">  7  8 -1 -1</clus>
<clus scale="  114.882">  5  7 -1 -1</clus>
<clus scale="  178.471">  1 10  2 -1</clus>
<clus scale="   30.083">  1  5  2 -1</clus>
</clustering>
</event>
<event>
10    3  0.7209067E-005  0.1510878E+03  0.7546771E-02  0.1200886E+00
          1   -1    0    0  502    0 -0.00000000000E+00  0.00000000000E+00  0.41376793054E+03  0.41376793054E+03  0.00000000000E+00 0. -1.
         21   -1    0    0  503  502  0.00000000000E+00 -0.00000000000E+00 -0.14561852153E+03  0.14561852153E+03  0.00000000000E+00 0. -1.
         23    2    1    2    0    0 -0.12661890927E+03  0.26670203661E+02  0.33305683304E+02  0.16125740666E+03  0.90283080995E+02 0.  0.
        -24    2    1    2    0    0  0.90575041925E+02 -0.79475568908E+02  0.15810439242E+01  0.14494389726E+03  0.80535888772E+02 0.  0.
         11    1    4    4    0    0  0.60176084637E+02 -0.79082529833E+02  0.29507766751E+02  0.10366251003E+03  0.00000000000E+00 0. -1.
        -12    1    4    4    0    0  0.30398957288E+02 -0.39303907507E+00 -0.27926722827E+02  0.41281387231E+02  0.00000000000E+00 0.  1.
        -11    1    3    3    0    0 -0.42827897175E+02 -0.23026563747E+02  0.40903003370E+02  0.63541380998E+02  0.00000000000E+00 0.  1.
         11    1    3    3    0    0 -0.83791012097E+02  0.49696767408E+02 -0.75973200661E+01  0.97716025662E+02  0.00000000000E+00 0. -1.
         21    1    1    2  503  501  0.13278500097E+02  0.15668747446E+02  0.54551943648E+01  0.21250584860E+02  0.00000000000E+00 0. -1.
          2    1    1    2  501    0  0.22765367250E+02  0.37136617802E+02  0.22780748741E+03  0.23193456329E+03  0.00000000000E+00 0. -1.
<scales pt_clust_5="13000.00000" pt_clust_6="13000.00000" pt_clust_7="13000.00000" pt_clust_8="13000.00000" pt_clust_9="20.53846" pt_clust_10="43.86323"></scales>
<clustering>
<clus scale="   20.538">  2  9  1 -1</clus>
<clus scale="   43.863">  2 10  1 -1</clus>
<clus scale="   80.536">  5  6 -1 -1</clus>
<clus scale="   90.283">  7  8 -1 -1</clus>
<clus scale="  145.473">  2  5  1 -1</clus>
<clus scale="   20.538">  2  5  1 -1</clus>
</clustering>
</event>
<event>
10    3  0.7209067E-005  0.9296560E+02  0.7546771E-02  0.1302812E+00
         -4   -1    0    0    0  501 -0.00000000000E+00  0.00000000000E+00  0.49812745185E+03  0.49812745185E+03  0.00000000000E+00 0.  1.
         21   -1    0    0  501  502  0.00000000000E+00 -0.00000000000E+00 -0.10629028131E+03  0.10629028131E+03  0.00000000000E+00 0.  1.
         23    2    1    2    0    0 -0.98608604568E+01  0.20985763843E+01  0.26978253570E+03  0.28535300510E+03  0.92423375607E+02 0.  0.
        -24    2    1    2    0    0 -0.30063877355E+01 -0.33329102119E+02 -0.45392902623E+02  0.98781270307E+02  0.81100902213E+02 0.  0.
         11    1    4    4    0    0  0.30074885033E+02  0.91393749401E+01 -0.58169242116E+01  0.31966599621E+02  0.00000000000E+00 0. -1.
        -12    1    4    4    0    0 -0.33081272769E+02 -0.42468477059E+02 -0.39575978411E+02  0.66814670686E+02  0.00000000000E+00 0.  1.
        -13    1    3    3    0    0  0.25161138503E+02 -0.29538636261E+02  0.69633259025E+02  0.79714519916E+02  0.00000000000E+00 0.  1.
         13    1    3    3    0    0 -0.35021998959E+02  0.31637212645E+02  0.20014927668E+03  0.20563848519E+03  0.00000000000E+00 0. -1.
         21    1    1    2  503  502  0.20486001036E+02  0.79082055729E+01 -0.20917342481E+02  0.30327399663E+02  0.00000000000E+00 0.  1.
         -3    1    1    2    0  503 -0.76187528437E+01  0.23322320162E+02  0.18836487993E+03  0.18995605809E+03  0.00000000000E+00 0.  1.
<scales pt_clust_5="13000.00000" pt_clust_6="13000.00000" pt_clust_7="13000.00000" pt_clust_8="13000.00000" pt_clust_9="21.95942" pt_clust_10="24.54756"></scales>
<clustering>
<clus scale="   21.959">  2  9  1 -1</clus>
<clus scale="   24.548">  2 10  1 -1</clus>
<clus scale="   81.101">  5  6 -1 -1</clus>
<clus scale="   81.718">  2  5  1 -1</clus>
<clus scale="   92.423">  7  8 -1 -1</clus>
<clus scale="   21.959">  2  5  1 -1</clus>
</clustering>
</event>
<event>
10    3  0.7209067E-005  0.1186405E+03  0.7546771E-02  0.1257305E+00
         21   -1    0    0  501  502  0.00000000000E+00  0.00000000000E+00  0.20585709756E+03  0.20585709756E+03  0.00000000000E+00 0.  1.
          1   -1    0    0  503    0 -0.00000000000E+00 -0.00000000000E+00 -0.22287148614E+03  0.22287148614E+03  0.00000000000E+00 0. -1.
         23    2    1    2    0    0 -0.23079095155E+02 -0.89369814569E+01 -0.78998549761E+02  0.12342617158E+03  0.91546352715E+02 0.  0.
        -24    2    1    2    0    0 -0.96946792085E+02 -0.24142085783E+01  0.76703717997E+02  0.14667522206E+03  0.78902797881E+02 0.  0.
         13    1    4    4    0    0 -0.47511204122E+02  0.12680690200E+02 -0.55941645662E+01  0.49491505314E+02  0.00000000000E+00 0. -1.
        -14    1    4    4    0    0 -0.49435587963E+02 -0.15094898778E+02  0.82297882563E+02  0.97183716747E+02  0.00000000000E+00 0.  1.
        -11    1    3    3    0    0 -0.50715569824E+02 -0.12110131240E+02 -0.80111989847E+02  0.95585852606E+02  0.00000000000E+00 0.  1.
         11    1    3    3    0    0  0.27636474669E+02  0.31731497834E+01  0.11134400857E+01  0.27840318973E+02  0.00000000000E+00 0. -1.
         21    1    1    2  503  502  0.32900615400E+02  0.50604054019E+02  0.65986850808E+01  0.60718723815E+02  0.00000000000E+00 0. -1.
          2    1    1    2  501    0  0.87125271840E+02 -0.39252863984E+02 -0.21318241894E+02  0.97908466240E+02  0.00000000000E+00 0. -1.
<scales pt_clust_5="13000.00000" pt_clust_6="13000.00000" pt_clust_7="13000.00000" pt_clust_8="13000.00000" pt_clust_9="60.35910" pt_clust_10="88.59978"></scales>
<clustering>
<clus scale="   60.359">  1  9  2 -1</clus>
<clus scale="   78.903">  5  6 -1 -1</clus>
<clus scale="   91.546">  7  8 -1 -1</clus>
<clus scale="   93.495">  2  7  1 -1</clus>
<clus scale="   88.600">  1 10  2 -1</clus>
<clus scale="   60.359">  1  5  2 -1</clus>
</clustering>
</event>
<event>
10    3  0.7209067E-005  0.1384029E+03  0.7546771E-02  0.1230157E+00
          1   -1    0    0  503    0 -0.00000000000E+00  0.00000000000E+00  0.46901499996E+03  0.46901499996E+03  0.00000000000E+00 0. -1.
         21   -1    0    0  501  502  0.00000000000E+00 -0.00000000000E+00 -0.11713997793E+03  0.11713997793E+03  0.00000000000E+00 0. -1.
        -24    2    1    2    0    0 -0.42041693544E+02  0.36916765183E+02  0.11483697928E+03  0.15606666325E+03  0.89660024647E+02 0.  0.
         23    2    1    2    0    0  0.20243960551E+02  0.87600714736E+02  0.23192686004E+03  0.26574787736E+03  0.93531613657E+02 0.  0.
         13    1    3    3    0    0  0.88891158328E+01  0.48312628500E+02  0.78021699004E+02  0.92198221070E+02  0.00000000000E+00 0. -1.
        -14    1    3    3    0    0 -0.50930809376E+02 -0.11395863317E+02  0.36815280272E+02  0.63868442176E+02  0.00000000000E+00 0.  1.
        -13    1    4    4    0    0  0.89021383735E+01  0.56967762874E+02  0.37921322385E+02  0.69011598778E+02  0.00000000000E+00 0.  1.
         13    1    4    4    0    0  0.11341822178E+02  0.30632951861E+02  0.19400553766E+03  0.19673627858E+03  0.00000000000E+00 0. -1.
         21    1    1    2  503  502  0.13393797653E+02 -0.20575091570E+02  0.46150354632E+02  0.52274118274E+02  0.00000000000E+00 0. -1.
          2    1    1    2  501    0  0.84039353390E+01 -0.10394238835E+03 -0.41039171922E+02  0.11206631901E+03  0.00000000000E+00 0. -1.
<scales pt_clust_5="13000.00000" pt_clust_6="13000.00000" pt_clust_7="13000.00000" pt_clust_8="13000.00000" pt_clust_9="24.55052" pt_clust_10="102.01563"></scales>
<clustering>
<clus scale="   24.551">  1  9  2 -1</clus>
<clus scale="   89.660">  5  6 -1 -1</clus>
<clus scale="   93.532">  7  8 -1 -1</clus>
<clus scale="  101.875">  1  5  2 -1</clus>
<clus scale="  102.016">  2 10  1 -1</clus>
<clus scale="  102.016">  2  5  1 -1</clus>
</clustering>
</event>
<event>
10    3  0.1283012E-004  0.1540800E+03  0.7546771E-02  0.1222545E+00
         21   -1    0    0  503  502  0.00000000000E+00  0.00000000000E+00  0.24650229191E+03  0.24650229191E+03  0.00000000000E+00 0. -1.
         -2   -1    0    0    0  501 -0.00000000000E+00 -0.00000000000E+00 -0.12071419968E+04  0.12071419968E+04  0.00000000000E+00 0.  1.
        -24    2    1    2    0    0  0.13729443488E+02 -0.14271140692E+02 -0.28211030911E+03  0.29502597571E+03  0.84035330415E+02 0.  0.
         23    2    1    2    0    0  0.13829786900E+02  0.12918016831E+03 -0.59227369405E+03  0.61334371046E+03  0.92323342690E+02 0.  0.
         11    1    3    3    0    0 -0.29569142699E+02 -0.29256557385E+01 -0.46365608172E+02  0.55069622140E+02  0.00000000000E+00 0. -1.
        -12    1    3    3    0    0  0.43298586187E+02 -0.11345484953E+02 -0.23574470094E+03  0.23995635357E+03  0.00000000000E+00 0.  1.
        -11    1    4    4    0    0 -0.37064638468E+02  0.75309550765E+02 -0.27470915530E+03  0.28724629827E+03  0.00000000000E+00 0.  1.
         11    1    4    4    0    0  0.50894425367E+02  0.53870617544E+02 -0.31756453875E+03  0.32609741219E+03  0.00000000000E+00 0. -1.
         21    1    1    2  503  501 -0.78282560720E+02 -0.13251710832E+03  0.20093475103E+03  0.25310811422E+03  0.00000000000E+00 0. -1.
         -1    1    1    2    0  502  0.50723330333E+02  0.17608080708E+02 -0.28719045274E+03  0.29216648831E+03  0.00000000000E+00 0.  1.
<scales pt_clust_5="13000.00000" pt_clust_6="13000.00000" pt_clust_7="13000.00000" pt_clust_8="13000.00000" pt_clust_9="123.35746" pt_clust_10="53.69268"></scales>
<clustering>
<clus scale="   53.693">  1 10  2 -1</clus>
<clus scale="   84.035">  5  6 -1 -1</clus>
<clus scale="   86.485">  2  5  1 -1</clus>
<clus scale="   92.323">  7  8 -1 -1</clus>
<clus scale="  123.357">  1  9  2 -1</clus>
<clus scale="   53.693">  1  5  2 -1</clus>
</clustering>
</event>
<event>
10    3  0.7209067E-005  0.1383579E+03  0.7546771E-02  0.1237907E+00
         21   -1    0    0  501  502  0.00000000000E+00  0.00000000000E+00  0.36754435927E+03  0.36754435927E+03  0.00000000000E+00 0. -1.
          1   -1    0    0  503    0 -0.00000000000E+00 -0.00000000000E+00 -0.67272072734E+03  0.67272072734E+03  0.00000000000E+00 0. -1.
        -24    2    1    2    0    0  0.26124384771E+02  0.98690091384E+01 -0.52079950750E+03  0.52799395737E+03  0.82253335396E+02 0.  0.
         23    2    1    2    0    0 -0.12604067166E+03 -0.35929459271E+02 -0.87328779622E+02  0.18364460894E+03  0.94455543437E+02 0.  0.
         13    1    3    3    0    0 -0.25258720285E+02 -0.21673672973E+01 -0.76961764634E+02  0.81029708422E+02  0.00000000000E+00 0. -1.
        -14    1    3    3    0    0  0.51383105057E+02  0.12036376436E+02 -0.44383774287E+03  0.44696424895E+03  0.00000000000E+00 0.  1.
        -13    1    4    4    0    0 -0.16481732426E+02  0.21109404566E+02  0.76265223457E+01  0.27846333834E+02  0.00000000000E+00 0.  1.
         13    1    4    4    0    0 -0.10955893923E+03 -0.57038863837E+02 -0.94955301968E+02  0.15579827510E+03  0.00000000000E+00 0. -1.
         21    1    1    2  503  502  0.67593532038E+02  0.12785845681E+02  0.27614812652E+03  0.28458768632E+03  0.00000000000E+00 0. -1.
          2    1    1    2  501    0  0.32322754847E+02  0.13274604452E+02  0.26803792538E+02  0.44038833985E+02  0.00000000000E+00 0. -1.
<scales pt_clust_5="13000.00000" pt_clust_6="13000.00000" pt_clust_7="13000.00000" pt_clust_8="13000.00000" pt_clust_9="101.09919" pt_clust_10="34.94246"></scales>
<clustering>
<clus scale="   34.942">  1 10  2 -1</clus>
<clus scale="   82.253">  5  6 -1 -1</clus>
<clus scale="   86.987">  2  5  1 -1</clus>
<clus scale="   94.456">  7  8 -1 -1</clus>
<clus scale="  101.099">  1  9  2 -1</clus>
<clus scale="   34.942">  1  5  2 -1</clus>
</clustering>
</event>
<event>
10    3  0.7209067E-005  0.1876768E+03  0.7546771E-02  0.1181346E+00
          1   -1    0    0  503    0 -0.00000000000E+00  0.00000000000E+00  0.15042322274E+04  0.15042322274E+04  0.00000000000E+00 0. -1.
         21   -1    0    0  501  502  0.00000000000E+00 -0.00000000000E+00 -0.54318230463E+02  0.54318230463E+02  0.00000000000E+00 0. -1.
        -24    2    1    2    0    0 -0.75593544899E+02 -0.28183108084E+02  0.21189066698E+03  0.24094097304E+03  0.81524389776E+02 0.  0.
         23    2    1    2    0    0  0.33520852002E+02  0.16537403201E+03  0.48935964230E+03  0.52570134343E+03  0.91743255793E+02 0.  0.
         11    1    3    3    0    0 -0.25558359709E+02 -0.22061238764E+01  0.45263655299E+01  0.26049658702E+02  0.00000000000E+00 0. -1.
        -12    1    3    3    0    0 -0.50035185190E+02 -0.25976984208E+02  0.20736430145E+03  0.21489131434E+03  0.00000000000E+00 0.  1.
        -13    1    4    4    0    0  0.53765591546E+02  0.14405215012E+03  0.45604456419E+03  0.48126749871E+03  0.00000000000E+00 0. -1.
         13    1    4    4    0    0 -0.20244739545E+02  0.21321881891E+02  0.33315078117E+02  0.44433844720E+02  0.00000000000E+00 0.  1.
         21    1    1    2  503  502 -0.14520136920E+02  0.17540654758E+02 -0.24822169938E+01  0.22905683721E+02  0.00000000000E+00 0.  1.
          2    1    1    2  501    0  0.56592829818E+02 -0.15473157869E+03  0.75114590465E+03  0.76900245767E+03  0.00000000000E+00 0. -1.
<scales pt_clust_5="13000.00000" pt_clust_6="13000.00000" pt_clust_7="13000.00000" pt_clust_8="13000.00000" pt_clust_9="22.77079" pt_clust_10="163.72466"></scales>
<clustering>
<clus scale="   22.771">  2  9  1 -1</clus>
<clus scale="   81.524">  5  6 -1 -1</clus>
<clus scale="   91.743">  7  8 -1 -1</clus>
<clus scale="  116.787">  1  5  2 -1</clus>
<clus scale="  163.725">  2 10  1 -1</clus>
<clus scale="   22.771">  2  5  1 -1</clus>
</clustering>
</event>
<event>
10    3  0.7209067E-005  0.2272340E+03  0.7546771E-02  0.1153104E+00
          1   -1    0    0  502    0 -0.00000000000E+00  0.00000000000E+00  0.19896206871E+04  0.19896206871E+04  0.00000000000E+00 0. -1.
         21   -1    0    0  503  502  0.00000000000E+00 -0.00000000000E+00 -0.70613574534E+02  0.70613574534E+02  0.00000000000E+00 0. -1.
         23    2    1    2    0    0  0.77825038609E+02 -0.51100894917E+02  0.16253512307E+03  0.20897592570E+03  0.92656533471E+02 0.  0.
        -24    2    1    2    0    0  0.45364578638E+02  0.22800396955E+03  0.14302816566E+04  0.14512917819E+04  0.80613050515E+02 0.  0.
         13    1    4    4    0    0  0.54592701814E+02  0.13056227801E+03  0.67352031336E+03  0.68822705849E+03  0.00000000000E+00 0. -1.
        -14    1    4    4    0    0 -0.92281231759E+01  0.97441691542E+02  0.75676134323E+03  0.76306472341E+03  0.00000000000E+00 0.  1.
        -11    1    3    3    0    0 -0.80901674360E+01 -0.30433990320E+02  0.10626969907E+02  0.33235689633E+02  0.00000000000E+00 0.  1.
         11    1    3    3    0    0  0.85915206045E+02 -0.20666904597E+02  0.15190815317E+03  0.17574023607E+03  0.00000000000E+00 0. -1.
         21    1    1    2  503  501 -0.23929615507E+02  0.42169957442E+01  0.25978667267E+02  0.35571065550E+02  0.00000000000E+00 0. -1.
          2    1    1    2  501    0 -0.99260001740E+02 -0.18112007038E+03  0.30021166563E+03  0.36439548847E+03  0.00000000000E+00 0. -1.
<scales pt_clust_5="13000.00000" pt_clust_6="13000.00000" pt_clust_7="13000.00000" pt_clust_8="13000.00000" pt_clust_9="24.29834" pt_clust_10="212.45425"></scales>
<clustering>
<clus scale="   24.298">  2  9  1 -1</clus>
<clus scale="   80.613">  5  6 -1 -1</clus>
<clus scale="   92.657">  7  8 -1 -1</clus>
<clus scale="  125.939">  1  7  2 -1</clus>
<clus scale="  212.454">  2 10  1 -1</clus>
<clus scale="   24.298">  2  5  1 -1</clus>
</clustering>
</event>
<event>
10    3  0.7209067E-005  0.1422956E+03  0.7546771E-02  0.1229552E+00
         21   -1    0    0  501  502  0.00000000000E+00  0.00000000000E+00  0.49365670201E+02  0.49365670201E+02  0.00000000000E+00 0. -1.
          1   -1    0    0  503    0 -0.00000000000E+00 -0.00000000000E+00 -0.94658135863E+03  0.94658135863E+03  0.00000000000E+00 0. -1.
         23    2    1    2    0    0 -0.30422744126E+02 -0.14270927538E+02 -0.17369753914E+03  0.19581732740E+03  0.83930851752E+02 0.  0.
        -24    2    1    2    0    0  0.12711324763E+03 -0.60366804369E+02 -0.39519402608E+03  0.42720683086E+03  0.80780129339E+02 0.  0.
         13    1    4    4    0    0  0.93989230256E+02 -0.53428261714E+02 -0.36870773661E+03  0.38423163533E+03  0.00000000000E+00 0. -1.
        -14    1    4    4    0    0  0.33124017377E+02 -0.69385426548E+01 -0.26486289471E+02  0.42975195536E+02  0.00000000000E+00 0.  1.
        -11    1    3    3    0    0 -0.10345092326E+02 -0.46289324212E+02 -0.12806804183E+03  0.13656919788E+03  0.00000000000E+00 0.  1.
         11    1    3    3    0    0 -0.20077651801E+02  0.32018396675E+02 -0.45629497304E+02  0.59248129520E+02  0.00000000000E+00 0. -1.
         21    1    1    2  503  502 -0.33399197030E+02 -0.96786556242E+01 -0.79815571887E+01  0.35677555859E+02  0.00000000000E+00 0. -1.
          2    1    1    2  501    0 -0.63291306477E+02  0.84316387531E+02 -0.32034256602E+03  0.33724531470E+03  0.00000000000E+00 0. -1.
<scales pt_clust_5="13000.00000" pt_clust_6="13000.00000" pt_clust_7="13000.00000" pt_clust_8="13000.00000" pt_clust_9="34.77330" pt_clust_10="117.14364"></scales>
<clustering>
<clus scale="   34.773">  1  9  2 -1</clus>
<clus scale="   80.780">  5  6 -1 -1</clus>
<clus scale="   83.931">  7  8 -1 -1</clus>
<clus scale="   94.919">  2  7  1 -1</clus>
<clus scale="  117.144">  1 10  2 -1</clus>
<clus scale="   34.773">  1  5  2 -1</clus>
</clustering>
</event>
<event>
10    3  0.7209067E-005  0.3729722E+03  0.7546771E-02  0.1053882E+00
         21   -1    0    0  501  502  0.00000000000E+00  0.00000000000E+00  0.23387919107E+03  0.23387919107E+03  0.00000000000E+00 0.  1.
          1   -1    0    0  503    0 -0.00000000000E+00 -0.00000000000E+00 -0.19541136726E+04  0.19541136726E+04  0.00000000000E+00 0. -1.
        -24    2    1    2    0    0  0.53808152860E+02  0.35322575189E+03 -0.65358433417E+03  0.74894560256E+03  0.77995414038E+02 0.  0.
         23    2    1    2    0    0  0.14405500797E+03 -0.37641380931E+03 -0.36306123415E+03  0.55030511518E+03  0.92644799608E+02 0.  0.
         13    1    3    3    0    0  0.49050663012E+02  0.11548232255E+03 -0.26832667700E+03  0.29621164723E+03  0.00000000000E+00 0. -1.
        -14    1    3    3    0    0  0.47574898481E+01  0.23774342934E+03 -0.38525765717E+03  0.45273395533E+03  0.00000000000E+00 0.  1.
        -11    1    4    4    0    0  0.30730848981E+02 -0.14147967259E+02 -0.25887234233E+02  0.42599283479E+02  0.00000000000E+00 0.  1.
         11    1    4    4    0    0  0.11332415899E+03 -0.36226584205E+03 -0.33717399991E+03  0.50770583170E+03  0.00000000000E+00 0. -1.
         21    1    1    2  503  502 -0.28391566081E+03  0.12180284455E+03 -0.19906883600E+03  0.36752202228E+03  0.00000000000E+00 0.  1.
          2    1    1    2  501    0  0.86052499986E+02 -0.98614787130E+02 -0.50452007720E+03  0.52122012364E+03  0.00000000000E+00 0. -1.
<scales pt_clust_5="13000.00000" pt_clust_6="13000.00000" pt_clust_7="13000.00000" pt_clust_8="13000.00000" pt_clust_9="265.73087" pt_clust_10="130.88134"></scales>
<clustering>
<clus scale="   77.995">  5  6 -1 -1</clus>
<clus scale="   92.645">  7  8 -1 -1</clus>
<clus scale="  130.881">  1 10  2 -1</clus>
<clus scale="  265.731">  1  9  2 -1</clus>
<clus scale="  369.606">  2  5  1 -1</clus>
<clus scale="  130.881">  1  5  2 -1</clus>
</clustering>
</event>
<event>
10    3  0.7209067E-005  0.1454665E+03  0.7546771E-02  0.1222246E+00
          3   -1    0    0  503    0 -0.00000000000E+00  0.00000000000E+00  0.15487958911E+04  0.15487958911E+04  0.00000000000E+00 0. -1.
         21   -1    0    0  501  502  0.00000000000E+00 -0.00000000000E+00 -0.54954696074E+02  0.54954696074E+02  0.00000000000E+00 0. -1.
         23    2    1    2    0    0 -0.42541276302E+02 -0.17105392012E+02  0.16721918460E+03  0.19661609227E+03  0.92699932114E+02 0.  0.
        -24    2    1    2    0    0 -0.64487750209E+02  0.26511977025E+01  0.61946097748E+03  0.62816830818E+03  0.81840222455E+02 0.  0.
         11    1    4    4    0    0 -0.82939262382E+02 -0.62858314041E+01  0.46927069588E+03  0.47658516441E+03  0.00000000000E+00 0. -1.
        -12    1    4    4    0    0  0.18451512172E+02  0.89370291067E+01  0.15019028160E+03  0.15158314378E+03  0.00000000000E+00 0.  1.
        -11    1    3    3    0    0  0.84026528154E+01  0.31516313622E+02  0.60992838948E+02  0.69166530935E+02  0.00000000000E+00 0.  1.
         11    1    3    3    0    0 -0.50943929117E+02 -0.48621705634E+02  0.10622634565E+03  0.12744956133E+03  0.00000000000E+00 0. -1.
         21    1    1    2  503  502  0.13184648117E+02 -0.12376935283E+03  0.48662835967E+03  0.50229458297E+03  0.00000000000E+00 0. -1.
          4    1    1    2  501    0  0.93844378394E+02  0.13822354714E+03  0.22053267328E+03  0.27667160376E+03  0.00000000000E+00 0. -1.
<scales pt_clust_5="13000.00000" pt_clust_6="13000.00000" pt_clust_7="13000.00000" pt_clust_8="13000.00000" pt_clust_9="145.46648" pt_clust_10="13000.00000"></scales>
<clustering>
<clus scale="   81.840">  5  6 -1 -1</clus>
<clus scale="   92.700">  7  8 -1 -1</clus>
<clus scale="  103.420">  1  7  2 -1</clus>
<clus scale="  117.320">  1  5  2 -1</clus>
<clus scale="  145.466">  1  9  2 -1</clus>
<clus scale="  145.466">  2  5  1 -1</clus>
</clustering>
</event>
<event>
10    3  0.7209067E-005  0.9648713E+02  0.7546771E-02  0.1296292E+00
         -4   -1    0    0    0  501 -0.00000000000E+00  0.00000000000E+00  0.10280055409E+03  0.10280055409E+03  0.00000000000E+00 0.  1.
         21   -1    0    0  503  502  0.00000000000E+00 -0.00000000000E+00 -0.22443312617E+03  0.22443312617E+03  0.00000000000E+00 0.  1.
        -24    2    1    2    0    0  0.20255302757E+02 -0.26243107356E+02  0.46421844575E+02  0.96187498545E+02  0.77447202979E+02 0.  0.
         23    2    1    2    0    0 -0.23148515222E+02 -0.20706583286E+02 -0.12492681862E+03  0.15837738260E+03  0.92260874474E+02 0.  0.
         11    1    3    3    0    0 -0.38652070437E+01  0.21393765138E+02  0.35589677939E+02  0.41704414491E+02  0.00000000000E+00 0. -1.
        -12    1    3    3    0    0  0.24120509800E+02 -0.47636872493E+02  0.10832166636E+02  0.54483084054E+02  0.00000000000E+00 0.  1.
        -11    1    4    4    0    0  0.14744965423E+02  0.22358942046E+02 -0.76999228995E+01  0.27867994320E+02  0.00000000000E+00 0. -1.
         11    1    4    4    0    0 -0.37893480645E+02 -0.43065525333E+02 -0.11722689572E+03  0.13050938828E+03  0.00000000000E+00 0.  1.
         21    1    1    2  503  501  0.18794477362E+02  0.27330718591E+02 -0.26165724480E+02  0.42247434189E+02  0.00000000000E+00 0.  1.
         -3    1    1    2    0  502 -0.15901264897E+02  0.19618972051E+02 -0.16961873559E+02  0.30421364932E+02  0.00000000000E+00 0.  1.
<scales pt_clust_5="13000.00000" pt_clust_6="13000.00000" pt_clust_7="13000.00000" pt_clust_8="13000.00000" pt_clust_9="34.63533" pt_clust_10="25.25380"></scales>
<clustering>
<clus scale="   25.254">  2 10  1 -1</clus>
<clus scale="   34.635">  2  9  1 -1</clus>
<clus scale="   77.447">  5  6 -1 -1</clus>
<clus scale="   82.436">  1  5  2 -1</clus>
<clus scale="   92.261">  7  8 -1 -1</clus>
<clus scale="   25.254">  2  5  1 -1</clus>
</clustering>
</event>
<event>
10    3  0.7209067E-005  0.2036808E+03  0.7546771E-02  0.1147896E+00
         -4   -1    0    0    0  501 -0.00000000000E+00  0.00000000000E+00  0.24724857145E+03  0.24724857145E+03  0.00000000000E+00 0.  1.
         21   -1    0    0  503  502  0.00000000000E+00 -0.00000000000E+00 -0.56327177841E+03  0.56327177841E+03  0.00000000000E+00 0.  1.
         23    2    1    2    0    0  0.12280614113E+03  0.10024735686E+03  0.22787832668E+02  0.18447553793E+03  0.91548118052E+02 0.  0.
        -24    2    1    2    0    0 -0.28071894610E+03 -0.67015248287E+01 -0.11692671439E+03  0.31392459580E+03  0.77645078265E+02 0.  0.
         13    1    4    4    0    0 -0.18269478761E+03 -0.10832009103E+02 -0.11430490708E+03  0.21577842715E+03  0.00000000000E+00 0. -1.
        -14    1    4    4    0    0 -0.98024158485E+02  0.41304842745E+01 -0.26218073091E+01  0.98146168650E+02  0.00000000000E+00 0.  1.
        -11    1    3    3    0    0  0.62570662285E+02  0.25719837091E+02 -0.31187914110E+02  0.74493515055E+02  0.00000000000E+00 0.  1.
         11    1    3    3    0    0  0.60235478845E+02  0.74527519772E+02  0.53975746777E+02  0.10998202287E+03  0.00000000000E+00 0. -1.
         21    1    1    2  503  501  0.20741858357E+02  0.51732126189E+01 -0.10373564091E+03  0.10591539082E+03  0.00000000000E+00 0. -1.
         -3    1    1    2    0  502  0.13717094661E+03 -0.98719044653E+02 -0.11814868432E+03  0.20620482530E+03  0.00000000000E+00 0.  1.
<scales pt_clust_5="13000.00000" pt_clust_6="13000.00000" pt_clust_7="13000.00000" pt_clust_8="13000.00000" pt_clust_9="21.37725" pt_clust_10="173.98324"></scales>
<clustering>
<clus scale="   21.377">  2  9  1 -1</clus>
<clus scale="   77.645">  5  6 -1 -1</clus>
<clus scale="   91.548">  7  8 -1 -1</clus>
<clus scale="  173.983">  2 10  1 -1</clus>
<clus scale="  197.822">  2  5  1 -1</clus>
<clus scale="   21.377">  2  5  1 -1</clus>
</clustering>
</event>
<event>
10    3  0.7209067E-005  0.2359745E+03  0.7546771E-02  0.1144331E+00
         -2   -1    0    0    0  501 -0.00000000000E+00  0.00000000000E+00  0.10417815957E+04  0.10417815957E+04  0.00000000000E+00 0.  1.
         21   -1    0    0  501  502  0.00000000000E+00 -0.00000000000E+00 -0.11404925237E+03  0.11404925237E+03  0.00000000000E+00 0.  1.
         23    2    1    2    0    0  0.79784850280E+02 -0.66929049468E+02  0.70120216035E+02  0.15524423706E+03  0.91317076421E+02 0.  0.
        -24    2    1    2    0    0  0.11558122539E+03 -0.95104939256E+02  0.63753535540E+03  0.65961280536E+03  0.78954128943E+02 0.  0.
         11    1    4    4    0    0  0.44428147883E+02 -0.74418900617E+00  0.10311787888E+03  0.11228406426E+03  0.00000000000E+00 0. -1.
        -12    1    4    4    0    0  0.71153077502E+02 -0.94360750250E+02  0.53441747652E+03  0.54732874110E+03  0.00000000000E+00 0.  1.
        -13    1    3    3    0    0 -0.77282138651E+01 -0.28508676619E+02  0.49231680032E+02  0.57412788218E+02  0.00000000000E+00 0. -1.
         13    1    3    3    0    0  0.87513064145E+02 -0.38420372849E+02  0.20888536003E+02  0.97831448841E+02  0.00000000000E+00 0.  1.
         21    1    1    2  503  502 -0.43916918230E+02  0.53873240171E+02  0.32467570764E+02  0.76714828193E+02  0.00000000000E+00 0.  1.
         -1    1    1    2    0  503 -0.15144915744E+03  0.10816074855E+03  0.18760920114E+03  0.26425897746E+03  0.00000000000E+00 0.  1.
<scales pt_clust_5="13000.00000" pt_clust_6="13000.00000" pt_clust_7="13000.00000" pt_clust_8="13000.00000" pt_clust_9="35.66802" pt_clust_10="229.90573"></scales>
<clustering>
<clus scale="   35.668">  9 10 -1 -1</clus>
<clus scale="   78.954">  5  6 -1 -1</clus>
<clus scale="   91.317">  7  8 -1 -1</clus>
<clus scale="  138.506">  1  7  2 -1</clus>
<clus scale="  229.906">  2  9  1 -1</clus>
<clus scale="  229.906">  2  5  1 -1</clus>
</clustering>
</event>
<event>
10    3  0.7209067E-005  0.2749306E+03  0.7546771E-02  0.1098861E+00
          1   -1    0    0  503    0 -0.00000000000E+00  0.00000000000E+00  0.74678867659E+02  0.74678867659E+02  0.00000000000E+00 0. -1.
         21   -1    0    0  501  502  0.00000000000E+00 -0.00000000000E+00 -0.24173495861E+04  0.24173495861E+04  0.00000000000E+00 0. -1.
         23    2    1    2    0    0 -0.14480024862E+03  0.15647044940E+03 -0.30389855236E+03  0.38214664004E+03  0.90728225108E+02 0.  0.
        -24    2    1    2    0    0  0.11724189889E+03 -0.27252141648E+03 -0.10485262093E+04  0.10927981120E+04  0.82382745745E+02 0.  0.
         13    1    4    4    0    0  0.11394686053E+03 -0.22663971727E+03 -0.77580613575E+03  0.81622583195E+03  0.00000000000E+00 0. -1.
        -14    1    4    4    0    0  0.32950383645E+01 -0.45881699212E+02 -0.27272007356E+03  0.27657228010E+03  0.00000000000E+00 0.  1.
        -11    1    3    3    0    0 -0.85655925064E+02  0.52824929554E+02 -0.80489744927E+02  0.12886430739E+03  0.00000000000E+00 0.  1.
         11    1    3    3    0    0 -0.59144323553E+02  0.10364551984E+03 -0.22340880743E+03  0.25328233265E+03  0.00000000000E+00 0. -1.
         21    1    1    2  503  502 -0.67931475723E+02  0.44259709256E+02 -0.17187152802E+03  0.19003533724E+03  0.00000000000E+00 0. -1.
          2    1    1    2  501    0  0.95489825447E+02  0.71791257828E+02 -0.81837442872E+03  0.82704836440E+03  0.00000000000E+00 0. -1.
<scales pt_clust_5="13000.00000" pt_clust_6="13000.00000" pt_clust_7="13000.00000" pt_clust_8="13000.00000" pt_clust_9="81.07779" pt_clust_10="117.74309"></scales>
<clustering>
<clus scale="   81.078">  1  9  2 -1</clus>
<clus scale="   82.383">  5  6 -1 -1</clus>
<clus scale="   90.728">  7  8 -1 -1</clus>
<clus scale="  117.743">  2 10  1 -1</clus>
<clus scale="  272.291">  2  5  1 -1</clus>
<clus scale="  117.743">  2  5  1 -1</clus>
</clustering>
</event>
<event>
10    3  0.7209067E-005  0.1600994E+03  0.7546771E-02  0.1193622E+00
          1   -1    0    0  502    0 -0.00000000000E+00  0.00000000000E+00  0.76722433353E+02  0.76722433353E+02  0.00000000000E+00 0. -1.
         21   -1    0    0  503  502  0.00000000000E+00 -0.00000000000E+00 -0.10273380897E+04  0.10273380897E+04  0.00000000000E+00 0. -1.
         23    2    1    2    0    0  0.93603745246E+02  0.32775034299E+02 -0.28106010437E+03  0.31120397026E+03  0.89539180477E+02 0.  0.
        -24    2    1    2    0    0  0.45204481910E+00 -0.14130273457E+03 -0.34420802216E+03  0.38072126047E+03  0.80640241283E+02 0.  0.
         11    1    4    4    0    0  0.30004771440E+02 -0.12152857405E+03 -0.24118729008E+03  0.27173661791E+03  0.00000000000E+00 0. -1.
        -12    1    4    4    0    0 -0.29552726621E+02 -0.19774160524E+02 -0.10302073208E+03  0.10898464256E+03  0.00000000000E+00 0.  1.
        -13    1    3    3    0    0  0.87513134167E+02 -0.12078801524E+02 -0.18428788493E+03  0.20436846780E+03  0.00000000000E+00 0.  1.
         13    1    3    3    0    0  0.60906110797E+01  0.44853835823E+02 -0.96772219440E+02  0.10683550246E+03  0.00000000000E+00 0. -1.
         21    1    1    2  503  501  0.35999999326E+02  0.36633344550E+01 -0.20006977553E+03  0.20331585047E+03  0.00000000000E+00 0. -1.
          2    1    1    2  501    0 -0.13005578939E+03  0.10486436582E+03 -0.12527775427E+03  0.20881944183E+03  0.00000000000E+00 0. -1.
<scales pt_clust_5="13000.00000" pt_clust_6="13000.00000" pt_clust_7="13000.00000" pt_clust_8="13000.00000" pt_clust_9="36.18591" pt_clust_10="138.30761"></scales>
<clustering>
<clus scale="   36.186">  2  9  1 -1</clus>
<clus scale="   80.640">  5  6 -1 -1</clus>
<clus scale="   89.539">  7  8 -1 -1</clus>
<clus scale="  143.265">  1  7  2 -1</clus>
<clus scale="  138.308">  2 10  1 -1</clus>
<clus scale="   36.186">  2  5  1 -1</clus>
</clustering>
</event>
<event>
10    3  0.7209067E-005  0.9488970E+02  0.7546771E-02  0.1294554E+00
         21   -1    0    0  501  502  0.00000000000E+00  0.00000000000E+00  0.25352705126E+03  0.25352705126E+03  0.00000000000E+00 0. -1.
          1   -1    0    0  503    0 -0.00000000000E+00 -0.00000000000E+00 -0.86295286765E+03  0.86295286765E+03  0.00000000000E+00 0. -1.
        -24    2    1    2    0    0 -0.57800491598E+01  0.18498498111E+02 -0.40253655495E+03  0.41167731625E+03  0.84065041766E+02 0.  0.
         23    2    1    2    0    0  0.56451802022E+02 -0.16288186060E+02 -0.38323033758E+03  0.39796485262E+03  0.89768710140E+02 0.  0.
         11    1    3    3    0    0 -0.28001784911E+02 -0.24525735479E+02 -0.15085732142E+03  0.15538192651E+03  0.00000000000E+00 0. -1.
        -12    1    3    3    0    0  0.22221735751E+02  0.43024233590E+02 -0.25167923353E+03  0.25629538975E+03  0.00000000000E+00 0.  1.
        -13    1    4    4    0    0 -0.10416101187E+02 -0.36071120576E+02 -0.13163248794E+03  0.13688218578E+03  0.00000000000E+00 0. -1.
         13    1    4    4    0    0  0.66867903208E+02  0.19782934516E+02 -0.25159784965E+03  0.26108266684E+03  0.00000000000E+00 0.  1.
         21    1    1    2  503  502 -0.59746499605E+02  0.57596752630E+02  0.21808480725E+03  0.23334098072E+03  0.00000000000E+00 0. -1.
          2    1    1    2  501    0  0.90747467432E+01 -0.59807064680E+02 -0.41743731112E+02  0.73496769326E+02  0.00000000000E+00 0. -1.
<scales pt_clust_5="13000.00000" pt_clust_6="13000.00000" pt_clust_7="13000.00000" pt_clust_8="13000.00000" pt_clust_9="51.13376" pt_clust_10="60.49165"></scales>
<clustering>
<clus scale="   60.492">  1 10  2 -1</clus>
<clus scale="   51.134">  1  9  2 -1</clus>
<clus scale="   84.065">  5  6 -1 -1</clus>
<clus scale="   89.513">  2  5  1 -1</clus>
<clus scale="   89.769">  7  8 -1 -1</clus>
<clus scale="   60.492">  1  5  2 -1</clus>
</clustering>
</event>
<event>
10    3  0.7209067E-005  0.3038597E+03  0.7546771E-02  0.1117237E+00
         21   -1    0    0  503  502  0.00000000000E+00  0.00000000000E+00  0.36296561596E+03  0.36296561596E+03  0.00000000000E+00 0. -1.
          3   -1    0    0  502    0 -0.00000000000E+00 -0.00000000000E+00 -0.46648772317E+03  0.46648772317E+03  0.00000000000E+00 0. -1.
        -24    2    1    2    0    0 -0.98917357371E+01 -0.97353586057E+02 -0.10048323774E+03  0.16088308977E+03  0.78809392543E+02 0.  0.
         23    2    1    2    0    0 -0.24847166515E+03  0.66152515380E+02 -0.12973025499E+02  0.27932022826E+03  0.10833820585E+03 0.  0.
         11    1    3    3    0    0 -0.27369682437E+02 -0.84667710446E+00 -0.25619063377E+02  0.37498703806E+02  0.00000000000E+00 0. -1.
        -12    1    3    3    0    0  0.17477946700E+02 -0.96506908952E+02 -0.74864174362E+02  0.12338438596E+03  0.00000000000E+00 0.  1.
        -13    1    4    4    0    0 -0.18572781842E+03  0.94442653410E+02 -0.23542519917E+02  0.20968664136E+03  0.00000000000E+00 0. -1.
         13    1    4    4    0    0 -0.62743846729E+02 -0.28290138030E+02  0.10569494418E+02  0.69633586898E+02  0.00000000000E+00 0.  1.
         21    1    1    2  503  501 -0.64669630984E+02  0.23820221057E+01  0.48361487151E+01  0.64893940667E+02  0.00000000000E+00 0. -1.
          4    1    1    2  501    0  0.32303303187E+03  0.28819048571E+02  0.50980073166E+01  0.32435608044E+03  0.00000000000E+00 0. -1.
<scales pt_clust_5="13000.00000" pt_clust_6="13000.00000" pt_clust_7="13000.00000" pt_clust_8="13000.00000" pt_clust_9="64.71349" pt_clust_10="283.88998"></scales>
<clustering>
<clus scale="   64.713">  1  9  2 -1</clus>
<clus scale="   78.809">  5  6 -1 -1</clus>
<clus scale="  108.338">  7  8 -1 -1</clus>
<clus scale="  126.083">  2  5  1 -1</clus>
<clus scale="  283.890">  1 10  2 -1</clus>
<clus scale="   64.713">  1  5  2 -1</clus>
</clustering>
</event>
<event>
10    3  0.7209067E-005  0.2857355E+03  0.7546771E-02  0.1093111E+00
         21   -1    0    0  503  502  0.00000000000E+00  0.00000000000E+00  0.89677239495E+02  0.89677239495E+02  0.00000000000E+00 0.  1.
          1   -1    0    0  502    0 -0.00000000000E+00 -0.00000000000E+00 -0.18078243261E+04  0.18078243261E+04  0.00000000000E+00 0. -1.
        -24    2    1    2    0    0  0.17708519605E+03 -0.24648369135E+03 -0.12577143379E+04  0.12962457035E+04  0.79335939385E+02 0.  0.
         23    2    1    2    0    0 -0.47195630281E+02  0.20341841265E+03 -0.25782416114E+03  0.34431566892E+03  0.92051635891E+02 0.  0.
         13    1    3    3    0    0  0.11287430328E+03 -0.12682806936E+03 -0.54956056462E+03  0.57518934422E+03  0.00000000000E+00 0. -1.
        -14    1    3    3    0    0  0.64210892766E+02 -0.11965562199E+03 -0.70815377325E+03  0.72105635923E+03  0.00000000000E+00 0.  1.
        -11    1    4    4    0    0 -0.14174412455E+02  0.98230767968E+02 -0.19140247236E+03  0.21560404489E+03  0.00000000000E+00 0.  1.
         11    1    4    4    0    0 -0.33021217826E+02  0.10518764468E+03 -0.66421688778E+02  0.12871162403E+03  0.00000000000E+00 0. -1.
         21    1    1    2  503  501 -0.38573852669E+02  0.18593513259E+02 -0.12476729975E+02  0.44601901708E+02  0.00000000000E+00 0. -1.
          2    1    1    2  501    0 -0.91315713097E+02  0.24471765436E+02 -0.19013185760E+03  0.21233829150E+03  0.00000000000E+00 0. -1.
<scales pt_clust_5="13000.00000" pt_clust_6="13000.00000" pt_clust_7="13000.00000" pt_clust_8="13000.00000" pt_clust_9="42.82127" pt_clust_10="100.89083"></scales>
<clustering>
<clus scale="   42.821">  1  9  2 -1</clus>
<clus scale="   79.336">  5  6 -1 -1</clus>
<clus scale="   92.052">  7  8 -1 -1</clus>
<clus scale="  100.891">  1 10  2 -1</clus>
<clus scale="  281.896">  2  5  1 -1</clus>
<clus scale="   42.821">  1  5  2 -1</clus>
</clustering>
</event>
<event>
10    3  0.7209067E-005  0.1310451E+03  0.7546771E-02  0.1229794E+00
         -4   -1    0    0    0  501 -0.00000000000E+00  0.00000000000E+00  0.28554415071E+03  0.28554415071E+03  0.00000000000E+00 0.  1.
         21   -1    0    0  503  502  0.00000000000E+00 -0.00000000000E+00 -0.10167938478E+03  0.10167938478E+03  0.00000000000E+00 0.  1.
         23    2    1    2    0    0 -0.11102446370E+02  0.10494913984E+03  0.16691949071E+03  0.21781395349E+03  0.91886972356E+02 0.  0.
        -24    2    1    2    0    0  0.22959117170E+02 -0.65400526475E+02 -0.39115177946E+01  0.10349746068E+03  0.76759849341E+02 0.  0.
         13    1    4    4    0    0  0.19758199409E+02 -0.34932583471E+02 -0.39656239755E+02  0.56420645010E+02  0.00000000000E+00 0. -1.
        -14    1    4    4    0    0  0.32009177610E+01 -0.30467943004E+02  0.35744721960E+02  0.47076815667E+02  0.00000000000E+00 0.  1.
        -11    1    3    3    0    0  0.35591191024E+02  0.51667101324E+02  0.46474505173E+02  0.78077537543E+02  0.00000000000E+00 0.  1.
         11    1    3    3    0    0 -0.46693637394E+02  0.53282038515E+02  0.12044498553E+03  0.13973641595E+03  0.00000000000E+00 0. -1.
         21    1    1    2  503  501  0.12109824687E+02 -0.32141126057E+02  0.17720770409E+01  0.34392442414E+02  0.00000000000E+00 0.  1.
         -3    1    1    2    0  502 -0.23966495488E+02 -0.74074873069E+01  0.19084715980E+02  0.31519678904E+02  0.00000000000E+00 0.  1.
<scales pt_clust_5="13000.00000" pt_clust_6="13000.00000" pt_clust_7="13000.00000" pt_clust_8="13000.00000" pt_clust_9="34.35477" pt_clust_10="25.08514"></scales>
<clustering>
<clus scale="   25.085">  2 10  1 -1</clus>
<clus scale="   34.355">  2  9  1 -1</clus>
<clus scale="   76.760">  5  6 -1 -1</clus>
<clus scale="   91.887">  7  8 -1 -1</clus>
<clus scale="  120.920">  2  5  1 -1</clus>
<clus scale="   25.085">  2  5  1 -1</clus>
</clustering>
</event>
<event>
10    3  0.7209067E-005  0.1127792E+03  0.7546771E-02  0.1262348E+00
         -2   -1    0    0    0  501 -0.00000000000E+00  0.00000000000E+00  0.63692818785E+03  0.63692818785E+03  0.00000000000E+00 0.  1.
         21   -1    0    0  503  502  0.00000000000E+00 -0.00000000000E+00 -0.95144034101E+02  0.95144034101E+02  0.00000000000E+00 0. -1.
        -24    2    1    2    0    0 -0.45565487006E+01 -0.53908231658E+02  0.46639922802E+03  0.47612249822E+03  0.78978059178E+02 0.  0.
         23    2    1    2    0    0  0.29539545381E+02  0.91250084223E+02  0.97586076414E+02  0.16722141620E+03  0.96129064885E+02 0.  0.
         11    1    3    3    0    0  0.19484887462E+02 -0.85731868551E+01  0.30390843966E+02  0.37104767473E+02  0.00000000000E+00 0. -1.
        -12    1    3    3    0    0 -0.24041436162E+02 -0.45335044803E+02  0.43600838406E+03  0.43901773074E+03  0.00000000000E+00 0.  1.
        -11    1    4    4    0    0  0.41541198909E+02  0.11373906892E+02  0.69387320497E+02  0.81667846859E+02  0.00000000000E+00 0.  1.
         11    1    4    4    0    0 -0.12001653528E+02  0.79876177332E+02  0.28198755916E+02  0.85553569346E+02  0.00000000000E+00 0. -1.
         21    1    1    2  503  501  0.19073677745E+02 -0.85690328471E+01 -0.28913111117E+02  0.35681949234E+02  0.00000000000E+00 0.  1.
         -1    1    1    2    0  502 -0.44056674425E+02 -0.28772819718E+02  0.67119604323E+01  0.53046358299E+02  0.00000000000E+00 0.  1.
<scales pt_clust_5="13000.00000" pt_clust_6="13000.00000" pt_clust_7="13000.00000" pt_clust_8="13000.00000" pt_clust_9="20.91013" pt_clust_10="48.89293"></scales>
<clustering>
<clus scale="   20.910">  2  9  1 -1</clus>
<clus scale="   48.893">  2 10  1 -1</clus>
<clus scale="   78.978">  5  6 -1 -1</clus>
<clus scale="   96.129">  7  8 -1 -1</clus>
<clus scale="   98.569">  1  5  2 -1</clus>
<clus scale="   20.910">  2  5  1 -1</clus>
</clustering>
</event>
<event>
10    3  0.7209067E-005  0.2653304E+03  0.7546771E-02  0.1116496E+00
         21   -1    0    0  503  502  0.00000000000E+00  0.00000000000E+00  0.77213653136E+03  0.77213653136E+03  0.00000000000E+00 0. -1.
         -4   -1    0    0    0  501 -0.00000000000E+00 -0.00000000000E+00 -0.20522661404E+03  0.20522661404E+03  0.00000000000E+00 0.  1.
        -24    2    1    2    0    0 -0.17992095411E+03 -0.14772063254E+02  0.96662518699E+02  0.21991075571E+03  0.80170657804E+02 0.  0.
         23    2    1    2    0    0 -0.13080523491E+02 -0.20844185951E+03  0.52216683858E+02  0.23440962131E+03  0.92747935821E+02 0.  0.
         11    1    3    3    0    0 -0.18492155437E+03 -0.21559378803E+02  0.82957501566E+02  0.20382035018E+03  0.00000000000E+00 0. -1.
        -12    1    3    3    0    0  0.50006002528E+01  0.67873155487E+01  0.13705017133E+02  0.16090405522E+02  0.00000000000E+00 0.  1.
        -11    1    4    4    0    0 -0.36216706791E+02 -0.43472089367E+02 -0.82724493404E+01  0.57183090357E+02  0.00000000000E+00 0.  1.
         11    1    4    4    0    0  0.23136183300E+02 -0.16496977014E+03  0.60489133198E+02  0.17722653095E+03  0.00000000000E+00 0. -1.
         21    1    1    2  503  501  0.22374847937E+02 -0.23495036127E+01  0.75795035724E+02  0.79063527798E+02  0.00000000000E+00 0.  1.
         -3    1    1    2    0  502  0.17062662967E+03  0.22556342637E+03  0.34223567903E+03  0.44397924059E+03  0.00000000000E+00 0.  1.
<scales pt_clust_5="13000.00000" pt_clust_6="13000.00000" pt_clust_7="13000.00000" pt_clust_8="13000.00000" pt_clust_9="22.49787" pt_clust_10="248.59214"></scales>
<clustering>
<clus scale="   22.498">  1  9  2 -1</clus>
<clus scale="   80.171">  5  6 -1 -1</clus>
<clus scale="   92.748">  7  8 -1 -1</clus>
<clus scale="  192.937">  2  5  1 -1</clus>
<clus scale="  248.592">  1 10  2 -1</clus>
<clus scale="   22.498">  1  5  2 -1</clus>
</clustering>
</event>
<event>
10    3  0.7209067E-005  0.1441252E+03  0.7546771E-02  0.1224316E+00
         21   -1    0    0  503  502  0.00000000000E+00  0.00000000000E+00  0.16139335262E+03  0.16139335262E+03  0.00000000000E+00 0. -1.
          1   -1    0    0  502    0 -0.00000000000E+00 -0.00000000000E+00 -0.60714238703E+03  0.60714238703E+03  0.00000000000E+00 0. -1.
        -24    2    1    2    0    0  0.59186604085E+02  0.13479939848E+02 -0.37181106362E+03  0.38526004920E+03  0.80604439104E+02 0.  0.
         23    2    1    2    0    0 -0.66412235643E+02  0.78337236726E+02 -0.76760586871E+02  0.15726872398E+03  0.91071159786E+02 0.  0.
         13    1    3    3    0    0  0.77846283559E+02  0.74362227631E+01 -0.25202073630E+03  0.26387457778E+03  0.00000000000E+00 0. -1.
        -14    1    3    3    0    0 -0.18659679474E+02  0.60437170852E+01 -0.11979032732E+03  0.12138547143E+03  0.00000000000E+00 0.  1.
        -13    1    4    4    0    0 -0.26300825703E+02 -0.15246266800E+02 -0.11055472617E+01  0.30420458885E+02  0.00000000000E+00 0.  1.
         13    1    4    4    0    0 -0.40111409940E+02  0.93583503526E+02 -0.75655039609E+02  0.12684826510E+03  0.00000000000E+00 0. -1.
         21    1    1    2  503  501  0.14632392536E+02  0.65515333762E+02 -0.10466815605E+02  0.67940562981E+02  0.00000000000E+00 0. -1.
          2    1    1    2  501    0 -0.74067609786E+01 -0.15733251034E+03  0.13289431681E+02  0.15806640349E+03  0.00000000000E+00 0. -1.
<scales pt_clust_5="13000.00000" pt_clust_6="13000.00000" pt_clust_7="13000.00000" pt_clust_8="13000.00000" pt_clust_9="67.12947" pt_clust_10="111.70553"></scales>
<clustering>
<clus scale="   67.129">  1  9  2 -1</clus>
<clus scale="   80.604">  5  6 -1 -1</clus>
<clus scale="   91.071">  7  8 -1 -1</clus>
<clus scale="  101.837">  2  5  1 -1</clus>
<clus scale="  111.706">  1 10  2 -1</clus>
<clus scale="   67.129">  1  5  2 -1</clus>
</clustering>
</event>
<event>
10    3  0.7209067E-005  0.1031500E+03  0.7546771E-02  0.1278562E+00
         21   -1    0    0  501  502  0.00000000000E+00  0.00000000000E+00  0.11010313104E+03  0.11010313104E+03  0.00000000000E+00 0.  1.
          1   -1    0    0  503    0 -0.00000000000E+00 -0.00000000000E+00 -0.85577822472E+03  0.85577822472E+03  0.00000000000E+00 0. -1.
        -24    2    1    2    0    0 -0.38791687972E+02  0.65333607983E+02 -0.24412433307E+03  0.26799088990E+03  0.80306610475E+02 0.  0.
         23    2    1    2    0    0 -0.34840124324E+02  0.43635887667E+02 -0.14483148388E+02  0.10746139126E+03  0.90665671948E+02 0.  0.
         11    1    3    3    0    0 -0.45187832913E+02  0.76959630995E+02 -0.16340220216E+03  0.18618540415E+03  0.00000000000E+00 0. -1.
        -12    1    3    3    0    0  0.63961449412E+01 -0.11626023012E+02 -0.80722130911E+02  0.81805485757E+02  0.00000000000E+00 0.  1.
        -13    1    4    4    0    0  0.29929126178E+02  0.68907257929E+01 -0.11940009655E+02  0.32951457119E+02  0.00000000000E+00 0. -1.
         13    1    4    4    0    0 -0.64769250502E+02  0.36745161874E+02 -0.25431387333E+01  0.74509934145E+02  0.00000000000E+00 0.  1.
         21    1    1    2  503  502  0.17686531858E+02 -0.42649547933E+02  0.37037219730E+02  0.59190818489E+02  0.00000000000E+00 0. -1.
          2    1    1    2  501    0  0.55945280438E+02 -0.66319947717E+02 -0.52410483196E+03  0.53123825610E+03  0.00000000000E+00 0. -1.
<scales pt_clust_5="13000.00000" pt_clust_6="13000.00000" pt_clust_7="13000.00000" pt_clust_8="13000.00000" pt_clust_9="46.17139" pt_clust_10="89.30080"></scales>
<clustering>
<clus scale="   46.171">  1  9  2 -1</clus>
<clus scale="   80.307">  5  6 -1 -1</clus>
<clus scale="   89.301">  1 10  2 -1</clus>
<clus scale="   90.666">  7  8 -1 -1</clus>
<clus scale="   94.174">  2  5  1 -1</clus>
<clus scale="   46.171">  1  5  2 -1</clus>
</clustering>
</event>
<event>
10    3  0.7209067E-005  0.5066246E+03  0.7546771E-02  0.1056349E+00
         21   -1    0    0  501  502  0.00000000000E+00  0.00000000000E+00  0.68944312023E+03  0.68944312023E+03  0.00000000000E+00 0.  1.
          1   -1    0    0  503    0 -0.00000000000E+00 -0.00000000000E+00 -0.61301816387E+03  0.61301816387E+03  0.00000000000E+00 0. -1.
        -24    2    1    2    0    0 -0.65610047602E+02 -0.87917872991E+02  0.80355699689E+02  0.15918044108E+03  0.82747468912E+02 0.  0.
         23    2    1    2    0    0  0.17022671808E+02  0.54543418418E+03  0.29730340188E+02  0.55484720909E+03  0.95829597060E+02 0.  0.
         11    1    3    3    0    0 -0.26369980373E+02  0.56621075042E+01  0.43574040541E+02  0.51245803100E+02  0.00000000000E+00 0. -1.
        -12    1    3    3    0    0 -0.39240067230E+02 -0.93579980495E+02  0.36781659148E+02  0.10793463798E+03  0.00000000000E+00 0.  1.
        -11    1    4    4    0    0  0.37219923058E+02  0.51934825920E+03  0.23072983207E+02  0.52119123128E+03  0.00000000000E+00 0.  1.
         11    1    4    4    0    0 -0.20197251250E+02  0.26085924979E+02  0.66573569804E+01  0.33655977805E+02  0.00000000000E+00 0. -1.
         21    1    1    2  503  502  0.18483601271E+02 -0.14152956922E+02  0.11693153002E+03  0.11922639145E+03  0.00000000000E+00 0. -1.
          2    1    1    2  501    0  0.30103774523E+02 -0.44336335427E+03 -0.15059261354E+03  0.46920724249E+03  0.00000000000E+00 0. -1.
<scales pt_clust_5="13000.00000" pt_clust_6="13000.00000" pt_clust_7="13000.00000" pt_clust_8="13000.00000" pt_clust_9="23.27981" pt_clust_10="497.47911"></scales>
<clustering>
<clus scale="   23.280">  1  9  2 -1</clus>
<clus scale="   82.747">  5  6 -1 -1</clus>
<clus scale="   95.830">  7  8 -1 -1</clus>
<clus scale="  137.544">  2  5  1 -1</clus>
<clus scale="  497.479">  1 10  2 -1</clus>
<clus scale="   23.280">  1  5  2 -1</clus>
</clustering>
</event>
<event>
10    3  0.7209067E-005  0.1306845E+03  0.7546771E-02  0.1242446E+00
         21   -1    0    0  503  502  0.00000000000E+00  0.00000000000E+00  0.10288777818E+04  0.10288777818E+04  0.00000000000E+00 0.  1.
         -4   -1    0    0    0  501 -0.00000000000E+00 -0.00000000000E+00 -0.66225561683E+02  0.66225561683E+02  0.00000000000E+00 0.  1.
        -24    2    1    2    0    0  0.45413903508E+02  0.24725746337E+02  0.54142418602E+03  0.54972630201E+03  0.79906650253E+02 0.  0.
         23    2    1    2    0    0 -0.99501067165E+02 -0.65521792452E+02  0.54622741673E+02  0.15509871950E+03  0.82936127412E+02 0.  0.
         11    1    3    3    0    0  0.13469087220E+02  0.51563872861E+02  0.31946404080E+03  0.32387887035E+03  0.00000000000E+00 0. -1.
        -12    1    3    3    0    0  0.31944816288E+02 -0.26838126524E+02  0.22196014522E+03  0.22584743166E+03  0.00000000000E+00 0.  1.
        -11    1    4    4    0    0 -0.94878784848E+02 -0.22582449208E+02  0.54881833228E+02  0.11191052875E+03  0.00000000000E+00 0.  1.
         11    1    4    4    0    0 -0.46222823172E+01 -0.42939343244E+02 -0.25909155488E+00  0.43188190753E+02  0.00000000000E+00 0. -1.
         21    1    1    2  503  501 -0.19928615992E+02 -0.24074351816E+02  0.52324827067E+02  0.60947614213E+02  0.00000000000E+00 0.  1.
         -3    1    1    2    0  502  0.74015779649E+02  0.64870397931E+02  0.31428046536E+03  0.32933070776E+03  0.00000000000E+00 0.  1.
<scales pt_clust_5="13000.00000" pt_clust_6="13000.00000" pt_clust_7="13000.00000" pt_clust_8="13000.00000" pt_clust_9="31.25259" pt_clust_10="100.99518"></scales>
<clustering>
<clus scale="   31.253">  2  9  1 -1</clus>
<clus scale="   79.907">  5  6 -1 -1</clus>
<clus scale="   82.936">  7  8 -1 -1</clus>
<clus scale="   94.139">  2  5  1 -1</clus>
<clus scale="  100.995">  1 10  2 -1</clus>
<clus scale="  100.995">  1  5  2 -1</clus>
</clustering>
</event>
<event>
10    3  0.7209067E-005  0.1507643E+03  0.7546771E-02  0.1215375E+00
         -4   -1    0    0    0  501 -0.00000000000E+00  0.00000000000E+00  0.47564481547E+03  0.47564481547E+03  0.00000000000E+00 0.  1.
         21   -1    0    0  503  502  0.00000000000E+00 -0.00000000000E+00 -0.99711488248E+02  0.99711488248E+02  0.00000000000E+00 0.  1.
         23    2    1    2    0    0  0.19068263085E+02 -0.52838542512E+02  0.17968807656E+03  0.20860779514E+03  0.89854866906E+02 0.  0.
        -24    2    1    2    0    0  0.11975097558E+03  0.53476164196E+02  0.11217878979E+03  0.18968251438E+03  0.78710730489E+02 0.  0.
         13    1    4    4    0    0  0.82130814952E+02 -0.36383800731E+01  0.44575683214E+02  0.93518447957E+02  0.00000000000E+00 0. -1.
        -14    1    4    4    0    0  0.37620160626E+02  0.57114544269E+02  0.67603106572E+02  0.96164066422E+02  0.00000000000E+00 0.  1.
        -13    1    3    3    0    0  0.40693864794E+02 -0.38374862166E+02  0.46023151276E+02  0.72434460939E+02  0.00000000000E+00 0.  1.
         13    1    3    3    0    0 -0.21625601709E+02 -0.14463680345E+02  0.13366492528E+03  0.13617333420E+03  0.00000000000E+00 0. -1.
         21    1    1    2  503  501 -0.53104028097E+01 -0.19560652918E+02  0.17056008850E+02  0.26490129454E+02  0.00000000000E+00 0.  1.
         -3    1    1    2    0  502 -0.13350883585E+03  0.18923031234E+02  0.67010452031E+02  0.15057586474E+03  0.00000000000E+00 0.  1.
<scales pt_clust_5="13000.00000" pt_clust_6="13000.00000" pt_clust_7="13000.00000" pt_clust_8="13000.00000" pt_clust_9="20.26868" pt_clust_10="128.58657"></scales>
<clustering>
<clus scale="   20.269">  2  9  1 -1</clus>
<clus scale="   78.711">  5  6 -1 -1</clus>
<clus scale="   89.855">  7  8 -1 -1</clus>
<clus scale="  107.344">  1  7  2 -1</clus>
<clus scale="  128.587">  2 10  1 -1</clus>
<clus scale="   20.269">  2  5  1 -1</clus>
</clustering>
</event>
<event>
10    3  0.7209067E-005  0.1315509E+03  0.7546771E-02  0.1227297E+00
         -2   -1    0    0    0  501 -0.00000000000E+00  0.00000000000E+00  0.34138772500E+03  0.34138772500E+03  0.00000000000E+00 0.  1.
         21   -1    0    0  503  502  0.00000000000E+00 -0.00000000000E+00 -0.42555027880E+03  0.42555027880E+03  0.00000000000E+00 0. -1.
         23    2    1    2    0    0  0.90325849860E+02 -0.35913114897E+02 -0.61606857459E+01  0.13222831911E+03  0.89430774069E+02 0.  0.
        -24    2    1    2    0    0 -0.57291807172E+02  0.89094666847E+02 -0.20116166152E+02  0.13475959368E+03  0.80841060850E+02 0.  0.
         13    1    4    4    0    0 -0.70983136722E+02  0.91603009655E+02 -0.77581954150E+01  0.11614605750E+03  0.00000000000E+00 0. -1.
        -14    1    4    4    0    0  0.13691329550E+02 -0.25083428079E+01 -0.12357970737E+02  0.18613536183E+02  0.00000000000E+00 0.  1.
        -11    1    3    3    0    0  0.59453356202E+02 -0.34875172167E+02 -0.45215300446E+02  0.82434231917E+02  0.00000000000E+00 0. -1.
         11    1    3    3    0    0  0.30872493657E+02 -0.10379427304E+01  0.39054614700E+02  0.49794087190E+02  0.00000000000E+00 0.  1.
         21    1    1    2  503  501 -0.58694603861E+02  0.18666101154E+02 -0.26874538023E+03  0.27571282025E+03  0.00000000000E+00 0. -1.
         -1    1    1    2    0  502  0.25660561173E+02 -0.71847653103E+02  0.21085967832E+03  0.22423727076E+03  0.00000000000E+00 0.  1.
<scales pt_clust_5="13000.00000" pt_clust_6="13000.00000" pt_clust_7="13000.00000" pt_clust_8="13000.00000" pt_clust_9="61.59123" pt_clust_10="74.69502"></scales>
<clustering>
<clus scale="   61.591">  2  9  1 -1</clus>
<clus scale="   74.695">  2 10  1 -1</clus>
<clus scale="   80.841">  5  6 -1 -1</clus>
<clus scale="   89.431">  7  8 -1 -1</clus>
<clus scale="  125.869">  2  5  1 -1</clus>
<clus scale="   61.591">  2  5  1 -1</clus>
</clustering>
</event>
<event>
10    3  0.7209067E-005  0.1845750E+03  0.7546771E-02  0.1190722E+00
         21   -1    0    0  501  502  0.00000000000E+00  0.00000000000E+00  0.36562534705E+02  0.36562534705E+02  0.00000000000E+00 0. -1.
          1   -1    0    0  503    0 -0.00000000000E+00 -0.00000000000E+00 -0.19272766752E+04  0.19272766752E+04  0.00000000000E+00 0. -1.
         23    2    1    2    0    0 -0.50602663261E+02 -0.60371397875E+01 -0.24637587965E+03  0.26645653247E+03  0.87754960165E+02 0.  0.
        -24    2    1    2    0    0  0.17593052033E+03 -0.77441413660E+02 -0.10482654852E+04  0.10689710915E+04  0.83005700867E+02 0.  0.
         11    1    4    4    0    0  0.17525511799E+03 -0.66903904393E+02 -0.10357294197E+04  0.10525806001E+04  0.00000000000E+00 0. -1.
        -12    1    4    4    0    0  0.67540234165E+00 -0.10537509267E+02 -0.12536065509E+02  0.16390491400E+02  0.00000000000E+00 0.  1.
        -13    1    3    3    0    0 -0.72341063379E+02 -0.18371923028E+02 -0.20442567985E+03  0.21762494248E+03  0.00000000000E+00 0. -1.
         13    1    3    3    0    0  0.21738400118E+02  0.12334783241E+02 -0.41950199799E+02  0.48831589985E+02  0.00000000000E+00 0.  1.
         21    1    1    2  503  502  0.10008475849E+02  0.19818557609E+02 -0.11488617961E+02  0.24998663108E+02  0.00000000000E+00 0.  1.
          2    1    1    2  501    0 -0.13533633292E+03  0.63659995839E+02 -0.58458415764E+03  0.60341292283E+03  0.00000000000E+00 0. -1.
<scales pt_clust_5="13000.00000" pt_clust_6="13000.00000" pt_clust_7="13000.00000" pt_clust_8="13000.00000" pt_clust_9="22.20236" pt_clust_10="164.85746"></scales>
<clustering>
<clus scale="   22.202">  1  9  2 -1</clus>
<clus scale="   83.006">  5  6 -1 -1</clus>
<clus scale="   87.755">  7  8 -1 -1</clus>
<clus scale="   99.660">  2  7  1 -1</clus>
<clus scale="  164.857">  1 10  2 -1</clus>
<clus scale="   22.202">  1  5  2 -1</clus>
</clustering>
</event>
<event>
10    3  0.7209067E-005  0.2111606E+03  0.7546771E-02  0.1180470E+00
         21   -1    0    0  501  502  0.00000000000E+00  0.00000000000E+00  0.53411979621E+03  0.53411979621E+03  0.00000000000E+00 0. -1.
          1   -1    0    0  503    0 -0.00000000000E+00 -0.00000000000E+00 -0.20022320643E+03  0.20022320643E+03  0.00000000000E+00 0. -1.
        -24    2    1    2    0    0  0.51974481595E+01  0.16017665468E+02  0.62829137030E+01  0.82647970596E+02  0.80669901231E+02 0.  0.
         23    2    1    2    0    0 -0.61769248996E+02 -0.21057994929E+03  0.21977463300E+02  0.23765886723E+03  0.88540234456E+02 0.  0.
         13    1    3    3    0    0  0.21432783462E+02  0.36958721025E+02  0.25645674125E+02  0.49829829099E+02  0.00000000000E+00 0. -1.
        -14    1    3    3    0    0 -0.16235335302E+02 -0.20941055557E+02 -0.19362760422E+02  0.32818141498E+02  0.00000000000E+00 0.  1.
        -13    1    4    4    0    0 -0.40166967618E+02 -0.19492515913E+03 -0.58531254941E+01  0.19910665993E+03  0.00000000000E+00 0. -1.
         13    1    4    4    0    0 -0.21602281378E+02 -0.15654790162E+02  0.27830588794E+02  0.38552207309E+02  0.00000000000E+00 0.  1.
         21    1    1    2  503  502  0.24125357701E+02  0.29387443472E+02  0.22354309620E+03  0.22675354589E+03  0.00000000000E+00 0. -1.
          2    1    1    2  501    0  0.32446443136E+02  0.16517484035E+03  0.82093116578E+02  0.18728261891E+03  0.00000000000E+00 0. -1.
<scales pt_clust_5="13000.00000" pt_clust_6="13000.00000" pt_clust_7="13000.00000" pt_clust_8="13000.00000" pt_clust_9="38.02177" pt_clust_10="191.70136"></scales>
<clustering>
<clus scale="   38.022">  1  9  2 -1</clus>
<clus scale="   80.670">  5  6 -1 -1</clus>
<clus scale="   83.623">  2  5  1 -1</clus>
<clus scale="   88.540">  7  8 -1 -1</clus>
<clus scale="  191.701">  1 10  2 -1</clus>
<clus scale="   38.022">  1  5  2 -1</clus>
</clustering>
</event>
<event>
10    3  0.7209067E-005  0.2428595E+03  0.7546771E-02  0.1135544E+00
         21   -1    0    0  503  502  0.00000000000E+00  0.00000000000E+00  0.13022575287E+03  0.13022575287E+03  0.00000000000E+00 0. -1.
          1   -1    0    0  502    0 -0.00000000000E+00 -0.00000000000E+00 -0.12373589670E+04  0.12373589670E+04  0.00000000000E+00 0. -1.
         23    2    1    2    0    0 -0.64621386689E+02  0.12096848566E+03 -0.24115505055E+03  0.29220597892E+03  0.91756621419E+02 0.  0.
        -24    2    1    2    0    0  0.18926770597E+03  0.14190113240E+03 -0.23917787885E+03  0.34562314242E+03  0.79316473362E+02 0.  0.
         11    1    4    4    0    0  0.19121282882E+03  0.11626155898E+03 -0.21486004564E+03  0.31023206671E+03  0.00000000000E+00 0. -1.
        -12    1    4    4    0    0 -0.19451228547E+01  0.25639573412E+02 -0.24317833215E+02  0.35391075711E+02  0.00000000000E+00 0.  1.
        -11    1    3    3    0    0 -0.31040722899E+02  0.12122652144E+03 -0.21817323744E+03  0.25151333467E+03  0.00000000000E+00 0.  1.
         11    1    3    3    0    0 -0.33580663790E+02 -0.25803578601E+00 -0.22981813109E+02  0.40692644260E+02  0.00000000000E+00 0. -1.
         21    1    1    2  503  501  0.32877046536E+01 -0.42947808583E+02  0.98184848576E+01  0.44178342079E+02  0.00000000000E+00 0.  1.
          2    1    1    2  501    0 -0.12793402393E+03 -0.21992180947E+03 -0.63661876958E+03  0.68557725644E+03  0.00000000000E+00 0. -1.
<scales pt_clust_5="13000.00000" pt_clust_6="13000.00000" pt_clust_7="13000.00000" pt_clust_8="13000.00000" pt_clust_9="43.07346" pt_clust_10="229.54237"></scales>
<clustering>
<clus scale="   43.073">  1  9  2 -1</clus>
<clus scale="   79.316">  5  6 -1 -1</clus>
<clus scale="   91.757">  7  8 -1 -1</clus>
<clus scale="  157.059">  2  7  1 -1</clus>
<clus scale="  229.542">  1 10  2 -1</clus>
<clus scale="   43.073">  1  5  2 -1</clus>
</clustering>
</event>
<event>
10    3  0.7209067E-005  0.4145545E+03  0.7546771E-02  0.1039072E+00
          3   -1    0    0  503    0 -0.00000000000E+00  0.00000000000E+00  0.36788906058E+03  0.36788906058E+03  0.00000000000E+00 0. -1.
         21   -1    0    0  501  502  0.00000000000E+00 -0.00000000000E+00 -0.66065220398E+03  0.66065220398E+03  0.00000000000E+00 0. -1.
         23    2    1    2    0    0 -0.38438691111E+03  0.96256985056E+02  0.18676804763E+02  0.40737007569E+03  0.92643677209E+02 0.  0.
        -24    2    1    2    0    0  0.41864799447E+03 -0.56195757944E+02 -0.30005903177E+03  0.52427993330E+03  0.80061972428E+02 0.  0.
         13    1    4    4    0    0  0.29808741199E+03 -0.37482109574E+01 -0.21770907251E+03  0.36914413787E+03  0.00000000000E+00 0. -1.
        -14    1    4    4    0    0  0.12056058248E+03 -0.52447546986E+02 -0.82349959263E+02  0.15513579543E+03  0.00000000000E+00 0.  1.
        -11    1    3    3    0    0 -0.15330903870E+02  0.22089467153E+02 -0.12489284999E+02  0.29647317119E+02  0.00000000000E+00 0.  1.
         11    1    3    3    0    0 -0.36905600724E+03  0.74167517904E+02  0.31166089762E+02  0.37772275857E+03  0.00000000000E+00 0. -1.
         21    1    1    2  503  502 -0.62612349806E+01 -0.23190171437E+02 -0.44366229866E+02  0.50451456543E+02  0.00000000000E+00 0. -1.
          4    1    1    2  501    0 -0.27999848383E+02 -0.16871055676E+02  0.32985313479E+02  0.46439799034E+02  0.00000000000E+00 0. -1.
<scales pt_clust_5="13000.00000" pt_clust_6="13000.00000" pt_clust_7="13000.00000" pt_clust_8="13000.00000" pt_clust_9="24.02056" pt_clust_10="32.88046"></scales>
<clustering>
<clus scale="   24.021">  2  9  1 -1</clus>
<clus scale="   32.880">  2 10  1 -1</clus>
<clus scale="   80.062">  5  6 -1 -1</clus>
<clus scale="   92.644">  7  8 -1 -1</clus>
<clus scale="  411.925">  2  5  1 -1</clus>
<clus scale="   24.021">  2  5  1 -1</clus>
</clustering>
</event>
<event>
10    3  0.7209067E-005  0.1518284E+03  0.7546771E-02  0.1215934E+00
          1   -1    0    0  503    0 -0.00000000000E+00  0.00000000000E+00  0.92260709133E+03  0.92260709133E+03  0.00000000000E+00 0. -1.
         21   -1    0    0  501  502  0.00000000000E+00 -0.00000000000E+00 -0.10145233654E+03  0.10145233654E+03  0.00000000000E+00 0.  1.
        -24    2    1    2    0    0  0.68489018401E+02 -0.24816209739E+02 -0.12721737450E+02  0.10966314054E+03  0.80978836009E+02 0.  0.
         23    2    1    2    0    0  0.13770828913E+02  0.10839639777E+03  0.63351237756E+03  0.64938129986E+03  0.91753611997E+02 0.  0.
         11    1    3    3    0    0  0.37596895188E+02  0.26577887956E+02  0.69300142437E+01  0.46561096995E+02  0.00000000000E+00 0. -1.
        -12    1    3    3    0    0  0.30892123213E+02 -0.51394097696E+02 -0.19651751693E+02  0.63102043542E+02  0.00000000000E+00 0.  1.
        -13    1    4    4    0    0  0.37666666982E+02  0.11172774166E+03  0.54731146714E+03  0.55986758088E+03  0.00000000000E+00 0. -1.
         13    1    4    4    0    0 -0.23895838069E+02 -0.33313438940E+01  0.86200910418E+02  0.89513718982E+02  0.00000000000E+00 0.  1.
         21    1    1    2  503  502 -0.58328182411E+01  0.23331366757E+02 -0.15497254320E+01  0.24099296511E+02  0.00000000000E+00 0.  1.
          2    1    1    2  501    0 -0.76427029073E+02 -0.10691155478E+03  0.20191384012E+03  0.24091569096E+03  0.00000000000E+00 0. -1.
<scales pt_clust_5="13000.00000" pt_clust_6="13000.00000" pt_clust_7="13000.00000" pt_clust_8="13000.00000" pt_clust_9="24.04942" pt_clust_10="120.96746"></scales>
<clustering>
<clus scale="   24.049">  2  9  1 -1</clus>
<clus scale="   80.979">  5  6 -1 -1</clus>
<clus scale="   91.754">  7  8 -1 -1</clus>
<clus scale="  103.869">  1  5  2 -1</clus>
<clus scale="  120.967">  2 10  1 -1</clus>
<clus scale="   24.049">  2  5  1 -1</clus>
</clustering>
</event>
<event>
10    3  0.7209067E-005  0.2256935E+03  0.7546771E-02  0.1149381E+00
         21   -1    0    0  501  502  0.00000000000E+00  0.00000000000E+00  0.81951184451E+03  0.81951184451E+03  0.00000000000E+00 0. -1.
          1   -1    0    0  503    0 -0.00000000000E+00 -0.00000000000E+00 -0.92270080437E+03  0.92270080437E+03  0.00000000000E+00 0. -1.
        -24    2    1    2    0    0  0.95321338468E+02 -0.63578990487E+02 -0.63977288343E+02  0.15425584550E+03  0.81076055947E+02 0.  0.
         23    2    1    2    0    0  0.17747490121E+03 -0.15444067486E+02 -0.35213214579E+03  0.40826922254E+03  0.10464631002E+03 0.  0.
         13    1    3    3    0    0  0.23141695315E+02 -0.13064986846E+02  0.19442687037E+02  0.32927951995E+02  0.00000000000E+00 0. -1.
        -14    1    3    3    0    0  0.72179643153E+02 -0.50514003641E+02 -0.83419975380E+02  0.12132789350E+03  0.00000000000E+00 0.  1.
        -11    1    4    4    0    0 -0.19628012508E+01 -0.20970388681E+02 -0.76363484666E+02  0.79214844446E+02  0.00000000000E+00 0.  1.
         11    1    4    4    0    0  0.17943770246E+03  0.55263211943E+01 -0.27576866112E+03  0.32905437810E+03  0.00000000000E+00 0. -1.
         21    1    1    2  503  502 -0.48523577766E+02  0.15555764769E+03  0.70389163424E+03  0.72250685264E+03  0.00000000000E+00 0. -1.
          2    1    1    2  501    0 -0.22427266191E+03 -0.76534589715E+02 -0.39097115997E+03  0.45718072820E+03  0.00000000000E+00 0. -1.
<scales pt_clust_5="13000.00000" pt_clust_6="13000.00000" pt_clust_7="13000.00000" pt_clust_8="13000.00000" pt_clust_9="161.93306" pt_clust_10="199.96691"></scales>
<clustering>
<clus scale="   81.076">  5  6 -1 -1</clus>
<clus scale="  104.646">  7  8 -1 -1</clus>
<clus scale="  140.363">  2  5  1 -1</clus>
<clus scale="  161.933">  1  9  2 -1</clus>
<clus scale="  199.967">  1 10  2 -1</clus>
<clus scale="  161.933">  1  5  2 -1</clus>
</clustering>
</event>
<event>
10    3  0.7209067E-005  0.4755349E+03  0.7546771E-02  0.1020514E+00
          1   -1    0    0  502    0 -0.00000000000E+00  0.00000000000E+00  0.31656080628E+04  0.31656080628E+04  0.00000000000E+00 0. -1.
         21   -1    0    0  503  502  0.00000000000E+00 -0.00000000000E+00 -0.12026030795E+03  0.12026030795E+03  0.00000000000E+00 0. -1.
         23    2    1    2    0    0 -0.47649777348E+03  0.11321551887E+03  0.16919069021E+04  0.17638080299E+04  0.92746531342E+02 0.  0.
        -24    2    1    2    0    0  0.38322920654E+03 -0.23931271790E+03  0.11776284299E+04  0.12639540132E+04  0.81460584536E+02 0.  0.
         11    1    4    4    0    0  0.22331850083E+03 -0.18127894068E+03  0.69230288973E+03  0.74967759622E+03  0.00000000000E+00 0. -1.
        -12    1    4    4    0    0  0.15991070571E+03 -0.58033777219E+02  0.48532554021E+03  0.51427641700E+03  0.00000000000E+00 0.  1.
        -13    1    3    3    0    0 -0.33198173998E+03  0.78350735016E+02  0.13182004544E+04  0.13616178434E+04  0.00000000000E+00 0. -1.
         13    1    3    3    0    0 -0.14451603350E+03  0.34864783856E+02  0.37370644772E+03  0.40219018655E+03  0.00000000000E+00 0.  1.
         21    1    1    2  503  501 -0.22888142127E+02  0.23170714488E+02  0.42277380290E+02  0.53367836232E+02  0.00000000000E+00 0.  1.
          2    1    1    2  501    0  0.11615670907E+03  0.10292648454E+03  0.13353504247E+03  0.20473849137E+03  0.00000000000E+00 0. -1.
<scales pt_clust_5="13000.00000" pt_clust_6="13000.00000" pt_clust_7="13000.00000" pt_clust_8="13000.00000" pt_clust_9="32.56914" pt_clust_10="154.97905"></scales>
<clustering>
<clus scale="   32.569">  2  9  1 -1</clus>
<clus scale="   81.461">  5  6 -1 -1</clus>
<clus scale="   92.747">  7  8 -1 -1</clus>
<clus scale="  154.979">  2 10  1 -1</clus>
<clus scale="  473.463">  2  5  1 -1</clus>
<clus scale="   32.569">  2  5  1 -1</clus>
</clustering>
</event>
<event>
10    3  0.7209067E-005  0.2275388E+03  0.7546771E-02  0.1129172E+00
         21   -1    0    0  501  502  0.00000000000E+00  0.00000000000E+00  0.16839845697E+03  0.16839845697E+03  0.00000000000E+00 0. -1.
          1   -1    0    0  503    0 -0.00000000000E+00 -0.00000000000E+00 -0.75651586179E+03  0.75651586179E+03  0.00000000000E+00 0. -1.
         23    2    1    2    0    0 -0.17220584680E+03 -0.96929416444E+02 -0.27710557290E+03  0.35221227025E+03  0.90641156987E+02 0.  0.
        -24    2    1    2    0    0  0.13357560314E+03  0.21047687592E+03 -0.15306170093E+03  0.30301398422E+03  0.79035645695E+02 0.  0.
         13    1    4    4    0    0  0.99515162015E+02  0.10652910389E+03 -0.54064980765E+02  0.15548228064E+03  0.00000000000E+00 0. -1.
        -14    1    4    4    0    0  0.34060441129E+02  0.10394777203E+03 -0.98996720164E+02  0.14753170359E+03  0.00000000000E+00 0.  1.
        -13    1    3    3    0    0 -0.10646481111E+03 -0.54824571006E+02 -0.91027957573E+02  0.15042133708E+03  0.00000000000E+00 0. -1.
         13    1    3    3    0    0 -0.65741035690E+02 -0.42104845438E+02 -0.18607761532E+03  0.20179093317E+03  0.00000000000E+00 0.  1.
         21    1    1    2  503  502  0.68738465810E+02 -0.17051071128E+02  0.12113795532E+02  0.71850259226E+02  0.00000000000E+00 0. -1.
          2    1    1    2  501    0 -0.30108222157E+02 -0.96496388348E+02 -0.17006392653E+03  0.19783780506E+03  0.00000000000E+00 0. -1.
<scales pt_clust_5="13000.00000" pt_clust_6="13000.00000" pt_clust_7="13000.00000" pt_clust_8="13000.00000" pt_clust_9="70.82172" pt_clust_10="100.92270"></scales>
<clustering>
<clus scale="   70.822">  1  9  2 -1</clus>
<clus scale="   79.036">  5  6 -1 -1</clus>
<clus scale="   90.641">  7  8 -1 -1</clus>
<clus scale="  100.923">  1 10  2 -1</clus>
<clus scale="  223.170">  1  5  2 -1</clus>
<clus scale="   70.822">  1  5  2 -1</clus>
</clustering>
</event>
<event>
10    3  0.7209067E-005  0.2030887E+03  0.7546771E-02  0.1184576E+00
          1   -1    0    0  503    0 -0.00000000000E+00  0.00000000000E+00  0.42573634521E+03  0.42573634521E+03  0.00000000000E+00 0. -1.
         21   -1    0    0  501  502  0.00000000000E+00 -0.00000000000E+00 -0.60574061521E+03  0.60574061521E+03  0.00000000000E+00 0. -1.
        -24    2    1    2    0    0  0.25118310405E+02 -0.25249753589E+01  0.14844595299E+02  0.87017677883E+02  0.81941498866E+02 0.  0.
         23    2    1    2    0    0 -0.76325075236E+02 -0.49372841578E+01  0.28519935118E+03  0.30946371452E+03  0.92624115673E+02 0.  0.
         13    1    3    3    0    0  0.29964974924E+02  0.35225300000E+02  0.22661113607E+00  0.46246868379E+02  0.00000000000E+00 0. -1.
        -14    1    3    3    0    0 -0.48466645195E+01 -0.37750275358E+02  0.14617984163E+02  0.40770809504E+02  0.00000000000E+00 0.  1.
        -11    1    4    4    0    0 -0.16001981367E+02  0.12611755552E+02  0.32892984792E+01  0.20638296206E+02  0.00000000000E+00 0.  1.
         11    1    4    4    0    0 -0.60323093869E+02 -0.17549039710E+02  0.28191005270E+03  0.28882541831E+03  0.00000000000E+00 0. -1.
         21    1    1    2  503  502 -0.13052680538E+03  0.13812148999E+03 -0.24995753608E+03  0.31399611902E+03  0.00000000000E+00 0. -1.
          2    1    1    2  501    0  0.18173357021E+03 -0.13065923047E+03 -0.23009068039E+03  0.32099944899E+03  0.00000000000E+00 0. -1.
<scales pt_clust_5="13000.00000" pt_clust_6="13000.00000" pt_clust_7="13000.00000" pt_clust_8="13000.00000" pt_clust_9="13000.00000" pt_clust_10="203.08867"></scales>
<clustering>
<clus scale="   81.941">  5  6 -1 -1</clus>
<clus scale="   85.742">  1  5  2 -1</clus>
<clus scale="   92.624">  7  8 -1 -1</clus>
<clus scale="  108.666">  1  7  2 -1</clus>
<clus scale="  203.089">  1 10  2 -1</clus>
<clus scale="  203.089">  2  5  1 -1</clus>
</clustering>
</event>
<event>
10    3  0.7209067E-005  0.1959234E+03  0.7546771E-02  0.1190360E+00
         21   -1    0    0  503  502  0.00000000000E+00  0.00000000000E+00  0.30591044101E+03  0.30591044101E+03  0.00000000000E+00 0. -1.
         -2   -1    0    0    0  501 -0.00000000000E+00 -0.00000000000E+00 -0.10059808789E+04  0.10059808789E+04  0.00000000000E+00 0.  1.
        -24    2    1    2    0    0 -0.94810395606E+01 -0.12733139105E+02 -0.53070493688E+03  0.53731377846E+03  0.82500566999E+02 0.  0.
         23    2    1    2    0    0  0.11891402172E+03  0.13620085426E+03 -0.39025116720E+03  0.44181273409E+03  0.10105098336E+03 0.  0.
         11    1    3    3    0    0 -0.38905343728E+02 -0.22610284250E+02 -0.19258088915E+03  0.19776817133E+03  0.00000000000E+00 0. -1.
        -12    1    3    3    0    0  0.29424304167E+02  0.98771451446E+01 -0.33812404773E+03  0.33954560714E+03  0.00000000000E+00 0.  1.
        -13    1    4    4    0    0  0.12666001750E+03  0.80569970803E+02 -0.30105663823E+03  0.33640656898E+03  0.00000000000E+00 0.  1.
         13    1    4    4    0    0 -0.77459957819E+01  0.55630883461E+02 -0.89194528964E+02  0.10540616511E+03  0.00000000000E+00 0. -1.
         21    1    1    2  503  501 -0.13849049790E+03 -0.11384319562E+03  0.23778902043E+03  0.29779776600E+03  0.00000000000E+00 0. -1.
         -1    1    1    2    0  502  0.29057515740E+02 -0.96245195387E+01 -0.16903354273E+02  0.34967041382E+02  0.00000000000E+00 0.  1.
<scales pt_clust_5="13000.00000" pt_clust_6="13000.00000" pt_clust_7="13000.00000" pt_clust_8="13000.00000" pt_clust_9="167.85313" pt_clust_10="30.60998"></scales>
<clustering>
<clus scale="   30.610">  1 10  2 -1</clus>
<clus scale="   82.501">  5  6 -1 -1</clus>
<clus scale="   83.995">  2  5  1 -1</clus>
<clus scale="  101.051">  7  8 -1 -1</clus>
<clus scale="  167.853">  1  9  2 -1</clus>
<clus scale="   30.610">  1  5  2 -1</clus>
</clustering>
</event>
<event>
10    3  0.7209067E-005  0.1586228E+03  0.7546771E-02  0.1211814E+00
          1   -1    0    0  502    0 -0.00000000000E+00  0.00000000000E+00  0.22931979294E+03  0.22931979294E+03  0.00000000000E+00 0. -1.
         21   -1    0    0  503  502  0.00000000000E+00 -0.00000000000E+00 -0.29870507903E+03  0.29870507903E+03  0.00000000000E+00 0. -1.
         23    2    1    2    0    0  0.75113224463E+01 -0.43754531563E+02  0.66890710290E+02  0.12072172334E+03  0.90158129781E+02 0.  0.
        -24    2    1    2    0    0 -0.91176777601E+02 -0.10276583044E+03 -0.15238951057E+03  0.22052091230E+03  0.80826289986E+02 0.  0.
         13    1    4    4    0    0 -0.80063733039E+02 -0.11349436031E+03 -0.11590393022E+03  0.18090022723E+03  0.00000000000E+00 0. -1.
        -14    1    4    4    0    0 -0.11113044562E+02  0.10728529873E+02 -0.36485580344E+02  0.39620685074E+02  0.00000000000E+00 0.  1.
        -13    1    3    3    0    0  0.42935769814E+02 -0.45279361001E+02  0.55414838053E+02  0.83453610699E+02  0.00000000000E+00 0. -1.
         13    1    3    3    0    0 -0.35424447368E+02  0.15248294379E+01  0.11475872237E+02  0.37268112640E+02  0.00000000000E+00 0.  1.
         21    1    1    2  503  501 -0.93168447050E+01  0.24764768177E+02 -0.15057215697E+02  0.30443670650E+02  0.00000000000E+00 0. -1.
          2    1    1    2  501    0  0.92982299860E+02  0.12175559383E+03  0.31170729892E+02  0.15633856567E+03  0.00000000000E+00 0. -1.
<scales pt_clust_5="13000.00000" pt_clust_6="13000.00000" pt_clust_7="13000.00000" pt_clust_8="13000.00000" pt_clust_9="26.45935" pt_clust_10="136.48562"></scales>
<clustering>
<clus scale="   26.459">  2  9  1 -1</clus>
<clus scale="   80.826">  5  6 -1 -1</clus>
<clus scale="   90.158">  7  8 -1 -1</clus>
<clus scale="   99.403">  1  7  2 -1</clus>
<clus scale="  136.486">  2 10  1 -1</clus>
<clus scale="   26.459">  2  5  1 -1</clus>
</clustering>
</event>
<event>
10    3  0.7209067E-005  0.2933619E+03  0.7546771E-02  0.1133608E+00
          1   -1    0    0  503    0 -0.00000000000E+00  0.00000000000E+00  0.40654955470E+03  0.40654955470E+03  0.00000000000E+00 0. -1.
         21   -1    0    0  501  502  0.00000000000E+00 -0.00000000000E+00 -0.51393781679E+03  0.51393781679E+03  0.00000000000E+00 0. -1.
         23    2    1    2    0    0  0.11461738379E+01  0.19763167935E+02  0.97471449125E+02  0.13422794109E+03  0.90136342578E+02 0.  0.
        -24    2    1    2    0    0  0.24612068422E+03  0.82709176192E+02  0.26586894445E+02  0.27310339525E+03  0.80389069600E+02 0.  0.
         11    1    4    4    0    0  0.16750389467E+03  0.84764848083E+02 -0.63583005201E+01  0.18783786143E+03  0.00000000000E+00 0. -1.
        -12    1    4    4    0    0  0.78616789551E+02 -0.20556718904E+01  0.32945194965E+02  0.85265533820E+02  0.00000000000E+00 0.  1.
        -13    1    3    3    0    0  0.31565851299E+02  0.41835655848E+02  0.71043187086E+02  0.88282271719E+02  0.00000000000E+00 0.  1.
         13    1    3    3    0    0 -0.30419677461E+02 -0.22072487914E+02  0.26428262040E+02  0.45945669371E+02  0.00000000000E+00 0. -1.
         21    1    1    2  503  502  0.10499834321E+02  0.86121974092E+02 -0.16574025946E+03  0.18707505058E+03  0.00000000000E+00 0.  1.
          2    1    1    2  501    0 -0.25776669238E+03 -0.18859431822E+03 -0.65706346195E+02  0.32608098457E+03  0.00000000000E+00 0. -1.
<scales pt_clust_5="13000.00000" pt_clust_6="13000.00000" pt_clust_7="13000.00000" pt_clust_8="13000.00000" pt_clust_9="86.75967" pt_clust_10="282.13262"></scales>
<clustering>
<clus scale="   80.389">  5  6 -1 -1</clus>
<clus scale="   86.760">  2  9  1 -1</clus>
<clus scale="   90.136">  7  8 -1 -1</clus>
<clus scale="   93.410">  1  7  2 -1</clus>
<clus scale="  282.133">  2 10  1 -1</clus>
<clus scale="   86.760">  2  5  1 -1</clus>
</clustering>
</event>
<event>
10    3  0.7209067E-005  0.1936997E+03  0.7546771E-02  0.1156067E+00
         21   -1    0    0  503  502  0.00000000000E+00  0.00000000000E+00  0.10313323958E+03  0.10313323958E+03  0.00000000000E+00 0. -1.
          1   -1    0    0  502    0 -0.00000000000E+00 -0.00000000000E+00 -0.10242904888E+04  0.10242904888E+04  0.00000000000E+00 0. -1.
         23    2    1    2    0    0 -0.17798358329E+03  0.36213242290E+02 -0.65036754875E+03  0.68132350440E+03  0.90742571782E+02 0.  0.
        -24    2    1    2    0    0  0.99116097895E+02 -0.12723537672E+03 -0.69185711218E+02  0.19360198151E+03  0.81744863175E+02 0.  0.
         13    1    4    4    0    0  0.80377784781E+02 -0.11338612843E+03 -0.21648738891E+02  0.14066154522E+03  0.00000000000E+00 0. -1.
        -14    1    4    4    0    0  0.18738313114E+02 -0.13849248286E+02 -0.47536972327E+02  0.52940436289E+02  0.00000000000E+00 0.  1.
        -13    1    3    3    0    0 -0.93107104648E+02  0.42531079715E+02 -0.48102530734E+03  0.49179586413E+03  0.00000000000E+00 0. -1.
         13    1    3    3    0    0 -0.84876478645E+02 -0.63178374243E+01 -0.16934224141E+03  0.18952764026E+03  0.00000000000E+00 0.  1.
         21    1    1    2  503  501  0.19076956573E+02  0.97760293611E+01  0.55028006944E+01  0.22131015287E+02  0.00000000000E+00 0. -1.
          2    1    1    2  501    0  0.59790528825E+02  0.81246105067E+02 -0.20710678998E+03  0.23036722723E+03  0.00000000000E+00 0. -1.
<scales pt_clust_5="13000.00000" pt_clust_6="13000.00000" pt_clust_7="13000.00000" pt_clust_8="13000.00000" pt_clust_9="21.43597" pt_clust_10="103.38054"></scales>
<clustering>
<clus scale="   21.436">  1  9  2 -1</clus>
<clus scale="   81.745">  5  6 -1 -1</clus>
<clus scale="   90.743">  7  8 -1 -1</clus>
<clus scale="  103.381">  1 10  2 -1</clus>
<clus scale="  189.651">  1  5  2 -1</clus>
<clus scale="   21.436">  1  5  2 -1</clus>
</clustering>
</event>
<event>
10    3  0.7209067E-005  0.1841897E+03  0.7546771E-02  0.1174714E+00
         21   -1    0    0  501  502  0.00000000000E+00  0.00000000000E+00  0.24853493477E+03  0.24853493477E+03  0.00000000000E+00 0. -1.
          1   -1    0    0  503    0 -0.00000000000E+00 -0.00000000000E+00 -0.37912897335E+03  0.37912897335E+03  0.00000000000E+00 0. -1.
         23    2    1    2    0    0 -0.10272542214E+03  0.50114007062E+02  0.13413484673E+02  0.14643611878E+03  0.90552135553E+02 0.  0.
        -24    2    1    2    0    0 -0.19666074829E+02  0.11551164398E+03 -0.98557795119E+02  0.17352046276E+03  0.81645683433E+02 0.  0.
         11    1    4    4    0    0 -0.49036373175E+02  0.95008250745E+02 -0.71311058201E+02  0.12851614928E+03  0.00000000000E+00 0. -1.
        -12    1    4    4    0    0  0.29370298346E+02  0.20503393233E+02 -0.27246736918E+02  0.45004313479E+02  0.00000000000E+00 0.  1.
        -11    1    3    3    0    0 -0.15461333045E+02  0.54007451719E+02 -0.73376897273E+01  0.56654208592E+02  0.00000000000E+00 0.  1.
         11    1    3    3    0    0 -0.87264089099E+02 -0.38934446570E+01  0.20751174401E+02  0.89781910186E+02  0.00000000000E+00 0. -1.
         21    1    1    2  503  502  0.30881432953E+02  0.37331303869E+02  0.46201672138E+02  0.66946871907E+02  0.00000000000E+00 0. -1.
          2    1    1    2  501    0  0.91510064020E+02 -0.20295695491E+03 -0.91651400278E+02  0.24076045468E+03  0.00000000000E+00 0. -1.
<scales pt_clust_5="13000.00000" pt_clust_6="13000.00000" pt_clust_7="13000.00000" pt_clust_8="13000.00000" pt_clust_9="48.44883" pt_clust_10="165.10554"></scales>
<clustering>
<clus scale="   48.449">  1  9  2 -1</clus>
<clus scale="   81.646">  5  6 -1 -1</clus>
<clus scale="   90.552">  7  8 -1 -1</clus>
<clus scale="  143.481">  2  7  1 -1</clus>
<clus scale="  165.106">  1 10  2 -1</clus>
<clus scale="   48.449">  1  5  2 -1</clus>
</clustering>
</event>
<event>
10    3  0.7209067E-005  0.3650558E+03  0.7546771E-02  0.1062245E+00
          1   -1    0    0  502    0 -0.00000000000E+00  0.00000000000E+00  0.17555814946E+04  0.17555814946E+04  0.00000000000E+00 0. -1.
         21   -1    0    0  503  502  0.00000000000E+00 -0.00000000000E+00 -0.39187867700E+03  0.39187867700E+03  0.00000000000E+00 0. -1.
        -24    2    1    2    0    0  0.22556667110E+02  0.29638907787E+03  0.61908386868E+03  0.69178533793E+03  0.83347637099E+02 0.  0.
         23    2    1    2    0    0 -0.10137793843E+02  0.29364939116E+03 -0.10460084073E+03  0.32482720061E+03  0.90766924518E+02 0.  0.
         11    1    3    3    0    0  0.27255708237E+02  0.27155134037E+03  0.49594010123E+03  0.56607383626E+03  0.00000000000E+00 0. -1.
        -12    1    3    3    0    0 -0.46990411270E+01  0.24837737493E+02  0.12314376744E+03  0.12571150167E+03  0.00000000000E+00 0.  1.
        -13    1    4    4    0    0 -0.35709606714E+02  0.59857484736E+02 -0.65047021731E+01  0.70002897375E+02  0.00000000000E+00 0.  1.
         13    1    4    4    0    0  0.25571812871E+02  0.23379190642E+03 -0.98096138553E+02  0.25482430324E+03  0.00000000000E+00 0. -1.
         21    1    1    2  503  501 -0.41577028476E+02  0.32385005220E+02 -0.24160551989E+02  0.57975599457E+02  0.00000000000E+00 0. -1.
          2    1    1    2  501    0  0.29158155209E+02 -0.62242347424E+03  0.87338034159E+03  0.10728720335E+04  0.00000000000E+00 0. -1.
<scales pt_clust_5="13000.00000" pt_clust_6="13000.00000" pt_clust_7="13000.00000" pt_clust_8="13000.00000" pt_clust_9="52.70140" pt_clust_10="353.59189"></scales>
<clustering>
<clus scale="   52.701">  2  9  1 -1</clus>
<clus scale="   83.348">  5  6 -1 -1</clus>
<clus scale="   90.767">  7  8 -1 -1</clus>
<clus scale="  311.652">  1  5  2 -1</clus>
<clus scale="  353.592">  2 10  1 -1</clus>
<clus scale="   52.701">  2  5  1 -1</clus>
</clustering>
</event>
<event>
10    3  0.7209067E-005  0.1713006E+03  0.7546771E-02  0.1178614E+00
          3   -1    0    0  503    0 -0.00000000000E+00  0.00000000000E+00  0.59226379826E+03  0.59226379826E+03  0.00000000000E+00 0. -1.
         21   -1    0    0  501  502  0.00000000000E+00 -0.00000000000E+00 -0.74828543543E+02  0.74828543543E+02  0.00000000000E+00 0. -1.
        -24    2    1    2    0    0 -0.14214426768E+03  0.35817113097E+02  0.28303575561E+03  0.32741694145E+03  0.74864919515E+02 0.  0.
         23    2    1    2    0    0  0.14435751173E+03 -0.75086304382E+01  0.17437386909E+03  0.24408973565E+03  0.90983966201E+02 0.  0.
         11    1    3    3    0    0 -0.11893626521E+03  0.56480697297E+02  0.20761090548E+03  0.24584180365E+03  0.00000000000E+00 0. -1.
        -12    1    3    3    0    0 -0.23208002476E+02 -0.20663584200E+02  0.75424850126E+02  0.81575137802E+02  0.00000000000E+00 0.  1.
        -13    1    4    4    0    0  0.65160411857E+02  0.20679381748E+01  0.14517272847E+03  0.15913917410E+03  0.00000000000E+00 0.  1.
         13    1    4    4    0    0  0.79197099869E+02 -0.95765686129E+01  0.29201140618E+02  0.84950561549E+02  0.00000000000E+00 0. -1.
         21    1    1    2  503  502  0.17248210914E+02 -0.13584239413E+02 -0.79592629059E+01  0.23353419582E+02  0.00000000000E+00 0. -1.
          4    1    1    2  501    0 -0.19461454958E+02 -0.14724243245E+02  0.67984892930E+02  0.72232245119E+02  0.00000000000E+00 0. -1.
<scales pt_clust_5="13000.00000" pt_clust_6="13000.00000" pt_clust_7="13000.00000" pt_clust_8="13000.00000" pt_clust_9="21.95523" pt_clust_10="24.21643"></scales>
<clustering>
<clus scale="   21.955">  2  9  1 -1</clus>
<clus scale="   24.216">  2 10  1 -1</clus>
<clus scale="   74.865">  5  6 -1 -1</clus>
<clus scale="   90.984">  7  8 -1 -1</clus>
<clus scale="  163.311">  1  5  2 -1</clus>
<clus scale="   21.955">  2  5  1 -1</clus>
</clustering>
</event>
<event>
10    3  0.7209067E-005  0.1300541E+03  0.7546771E-02  0.1230780E+00
         21   -1    0    0  503  502  0.00000000000E+00  0.00000000000E+00  0.30775578496E+03  0.30775578496E+03  0.00000000000E+00 0.  1.
          1   -1    0    0  502    0 -0.00000000000E+00 -0.00000000000E+00 -0.50653262564E+03  0.50653262564E+03  0.00000000000E+00 0. -1.
        -24    2    1    2    0    0 -0.10127066238E+03 -0.24344302927E+02 -0.27722423672E+03  0.30636884598E+03  0.78486942991E+02 0.  0.
         23    2    1    2    0    0  0.57721957610E+02  0.55182944180E+02 -0.12356917489E+03  0.17328568537E+03  0.91551111691E+02 0.  0.
         11    1    3    3    0    0 -0.10740508131E+03 -0.20617191569E+02 -0.19295088931E+03  0.22179036445E+03  0.00000000000E+00 0. -1.
        -12    1    3    3    0    0  0.61344189206E+01 -0.37271113576E+01 -0.84273347412E+02  0.84578481534E+02  0.00000000000E+00 0.  1.
        -13    1    4    4    0    0 -0.12777431180E+01  0.47733105422E+02 -0.15976307979E+02  0.50352004899E+02  0.00000000000E+00 0. -1.
         13    1    4    4    0    0  0.58999700728E+02  0.74498387575E+01 -0.10759286691E+03  0.12293368047E+03  0.00000000000E+00 0.  1.
         21    1    1    2  503  501 -0.36267951708E+01 -0.44546246175E+02  0.25702499644E+03  0.26088190908E+03  0.00000000000E+00 0.  1.
          2    1    1    2  501    0  0.47175499945E+02  0.13707604922E+02 -0.55008425505E+02  0.73751970173E+02  0.00000000000E+00 0. -1.
<scales pt_clust_5="13000.00000" pt_clust_6="13000.00000" pt_clust_7="13000.00000" pt_clust_8="13000.00000" pt_clust_9="44.69364" pt_clust_10="46.76382"></scales>
<clustering>
<clus scale="   44.694">  1  9  2 -1</clus>
<clus scale="   46.764">  1 10  2 -1</clus>
<clus scale="   78.487">  5  6 -1 -1</clus>
<clus scale="   91.551">  7  8 -1 -1</clus>
<clus scale="  121.213">  2  5  1 -1</clus>
<clus scale="   44.694">  1  5  2 -1</clus>
</clustering>
</event>
<event>
10    3  0.7209067E-005  0.1711800E+03  0.7546771E-02  0.1201311E+00
         21   -1    0    0  501  502  0.00000000000E+00  0.00000000000E+00  0.89182960148E+02  0.89182960148E+02  0.00000000000E+00 0.  1.
         -2   -1    0    0    0  501 -0.00000000000E+00 -0.00000000000E+00 -0.70112181900E+03  0.70112181900E+03  0.00000000000E+00 0.  1.
        -24    2    1    2    0    0  0.22492532863E+02 -0.62218014150E+02 -0.65986767283E+02  0.11674274408E+03  0.69982994506E+02 0.  0.
         23    2    1    2    0    0 -0.17950213886E+03 -0.54129678872E+01 -0.23101575855E+03  0.30625337767E+03  0.90402060605E+02 0.  0.
         11    1    3    3    0    0  0.72372026765E+01 -0.71435308779E+02 -0.67893268215E+02  0.98817388711E+02  0.00000000000E+00 0. -1.
        -12    1    3    3    0    0  0.15255330186E+02  0.92172946285E+01  0.19065009317E+01  0.17925355371E+02  0.00000000000E+00 0.  1.
        -13    1    4    4    0    0 -0.16019625996E+03 -0.33005754840E+02 -0.21137968159E+03  0.26727063315E+03  0.00000000000E+00 0.  1.
         13    1    4    4    0    0 -0.19305878907E+02  0.27592786953E+02 -0.19636076960E+02  0.38982744523E+02  0.00000000000E+00 0. -1.
         21    1    1    2  503  502  0.43582459941E+02  0.76728546473E+01 -0.26389254228E+02  0.51523744542E+02  0.00000000000E+00 0.  1.
         -1    1    1    2    0  503  0.11342714606E+03  0.59958127390E+02 -0.28854707879E+03  0.31578491285E+03  0.00000000000E+00 0.  1.
<scales pt_clust_5="13000.00000" pt_clust_6="13000.00000" pt_clust_7="13000.00000" pt_clust_8="13000.00000" pt_clust_9="44.25272" pt_clust_10="145.36191"></scales>
<clustering>
<clus scale="   44.253">  1  9  2 -1</clus>
<clus scale="   69.983">  5  6 -1 -1</clus>
<clus scale="   90.402">  7  8 -1 -1</clus>
<clus scale="   99.109">  2  5  1 -1</clus>
<clus scale="  145.362">  1 10  2 -1</clus>
<clus scale="   44.253">  1  5  2 -1</clus>
</clustering>
</event>
<event>
10    3  0.7209067E-005  0.2114868E+03  0.7546771E-02  0.1140908E+00
         21   -1    0    0  501  502  0.00000000000E+00  0.00000000000E+00  0.50560856814E+03  0.50560856814E+03  0.00000000000E+00 0. -1.
          1   -1    0    0  503    0 -0.00000000000E+00 -0.00000000000E+00 -0.50952496907E+03  0.50952496907E+03  0.00000000000E+00 0. -1.
         23    2    1    2    0    0 -0.18329460731E+03  0.27316900918E+02 -0.38241338845E+03  0.43406406068E+03  0.88478714752E+02 0.  0.
        -24    2    1    2    0    0  0.26388845668E+03  0.41112949503E+02  0.16634788040E+03  0.32516789227E+03  0.82067951505E+02 0.  0.
         11    1    4    4    0    0  0.11376905687E+03  0.58753867969E+02  0.70173384236E+02  0.14601273628E+03  0.00000000000E+00 0. -1.
        -12    1    4    4    0    0  0.15011939981E+03 -0.17640918466E+02  0.96174496168E+02  0.17915515598E+03  0.00000000000E+00 0.  1.
        -11    1    3    3    0    0 -0.14962459383E+03 -0.14718254176E+02 -0.26026893500E+03  0.30057289401E+03  0.00000000000E+00 0.  1.
         11    1    3    3    0    0 -0.33670013476E+02  0.42035155094E+02 -0.12214445345E+03  0.13349116667E+03  0.00000000000E+00 0. -1.
         21    1    1    2  503  502 -0.17434598956E+02 -0.58850528928E+02  0.42589730219E+02  0.74707664372E+02  0.00000000000E+00 0. -1.
          2    1    1    2  501    0 -0.63159250410E+02 -0.95793214934E+01  0.16955937690E+03  0.18119391990E+03  0.00000000000E+00 0. -1.
<scales pt_clust_5="13000.00000" pt_clust_6="13000.00000" pt_clust_7="13000.00000" pt_clust_8="13000.00000" pt_clust_9="61.37874" pt_clust_10="77.24903"></scales>
<clustering>
<clus scale="   61.379">  1  9  2 -1</clus>
<clus scale="   77.249">  1 10  2 -1</clus>
<clus scale="   82.068">  5  6 -1 -1</clus>
<clus scale="   88.479">  7  8 -1 -1</clus>
<clus scale="  208.886">  1  5  2 -1</clus>
<clus scale="   61.379">  1  5  2 -1</clus>
</clustering>
</event>
<event>
10    3  0.7209067E-005  0.1429929E+03  0.7546771E-02  0.1230709E+00
          1   -1    0    0  503    0 -0.00000000000E+00  0.00000000000E+00  0.43481389021E+03  0.43481389021E+03  0.00000000000E+00 0. -1.
         21   -1    0    0  501  502  0.00000000000E+00 -0.00000000000E+00 -0.62724677987E+03  0.62724677987E+03  0.00000000000E+00 0. -1.
        -24    2    1    2    0    0 -0.17020363181E+00 -0.48392783507E+02  0.38694080951E+03  0.39759388659E+03  0.77561705267E+02 0.  0.
         23    2    1    2    0    0  0.10800058029E+02 -0.83103566710E+02 -0.10851665747E+03  0.16412177447E+03  0.90206695178E+02 0.  0.
         13    1    3    3    0    0 -0.23406019707E+02 -0.58706591587E+02  0.31541729338E+03  0.32168676475E+03  0.00000000000E+00 0. -1.
        -14    1    3    3    0    0  0.23235816075E+02  0.10313808080E+02  0.71523516127E+02  0.75907121832E+02  0.00000000000E+00 0.  1.
        -11    1    4    4    0    0 -0.37435782479E+02 -0.21108780098E+02 -0.51408850678E+02  0.67006629038E+02  0.00000000000E+00 0.  1.
         11    1    4    4    0    0  0.48235840507E+02 -0.61994786611E+02 -0.57107806791E+02  0.97115145435E+02  0.00000000000E+00 0. -1.
         21    1    1    2  503  502 -0.34575673888E+02  0.18678663672E+02 -0.47963279072E+02  0.62006820920E+02  0.00000000000E+00 0. -1.
          2    1    1    2  501    0  0.23945819491E+02  0.11281768654E+03 -0.42289376263E+03  0.43833818809E+03  0.00000000000E+00 0. -1.
<scales pt_clust_5="13000.00000" pt_clust_6="13000.00000" pt_clust_7="13000.00000" pt_clust_8="13000.00000" pt_clust_9="39.29847" pt_clust_10="110.94912"></scales>
<clustering>
<clus scale="   39.298">  2  9  1 -1</clus>
<clus scale="   77.562">  5  6 -1 -1</clus>
<clus scale="   90.207">  7  8 -1 -1</clus>
<clus scale="   91.330">  1  5  2 -1</clus>
<clus scale="  110.949">  2 10  1 -1</clus>
<clus scale="   39.298">  2  5  1 -1</clus>
</clustering>
</event>
<event>
10    3  0.7209067E-005  0.3054400E+03  0.7546771E-02  0.1133964E+00
         21   -1    0    0  501  502  0.00000000000E+00  0.00000000000E+00  0.63820346615E+03  0.63820346615E+03  0.00000000000E+00 0.  1.
          1   -1    0    0  503    0 -0.00000000000E+00 -0.00000000000E+00 -0.41579842504E+03  0.41579842504E+03  0.00000000000E+00 0. -1.
        -24    2    1    2    0    0 -0.35884366865E+01 -0.37156433166E+01 -0.84055258810E+02  0.11746027623E+03  0.81883741214E+02 0.  0.
         23    2    1    2    0    0  0.15074448516E+03 -0.34511123850E+02  0.93672113921E+01  0.17974407824E+03  0.91133262531E+02 0.  0.
         13    1    3    3    0    0  0.47322216224E+01  0.36475215751E+02 -0.58529689918E+02  0.69127128448E+02  0.00000000000E+00 0. -1.
        -14    1    3    3    0    0 -0.83206583089E+01 -0.40190859067E+02 -0.25525568892E+02  0.48333147782E+02  0.00000000000E+00 0.  1.
        -11    1    4    4    0    0  0.70193288216E+02 -0.11876117764E+02 -0.40930791512E+02  0.82118631123E+02  0.00000000000E+00 0.  1.
         11    1    4    4    0    0  0.80551196939E+02 -0.22635006086E+02  0.50298002905E+02  0.97625447118E+02  0.00000000000E+00 0. -1.
         21    1    1    2  503  502 -0.15679711966E+03  0.32861337070E+03  0.35485369919E+02  0.36582959915E+03  0.00000000000E+00 0.  1.
          2    1    1    2  501    0  0.96410711944E+01 -0.29038660353E+03  0.26160771861E+03  0.39096793756E+03  0.00000000000E+00 0. -1.
<scales pt_clust_5="13000.00000" pt_clust_6="13000.00000" pt_clust_7="13000.00000" pt_clust_8="13000.00000" pt_clust_9="305.44003" pt_clust_10="13000.00000"></scales>
<clustering>
<clus scale="   81.884">  5  6 -1 -1</clus>
<clus scale="   82.047">  2  5  1 -1</clus>
<clus scale="   91.133">  7  8 -1 -1</clus>
<clus scale="  178.882">  2  7  1 -1</clus>
<clus scale="  305.440">  2  9  1 -1</clus>
<clus scale="  305.440">  1  5  2 -1</clus>
</clustering>
</event>
<event>
10    3  0.7209067E-005  0.9983196E+02  0.7546771E-02  0.1289538E+00
         21   -1    0    0  501  502  0.00000000000E+00  0.00000000000E+00  0.35195945468E+03  0.35195945468E+03  0.00000000000E+00 0.  1.
          1   -1    0    0  503    0 -0.00000000000E+00 -0.00000000000E+00 -0.71698150690E+02  0.71698150690E+02  0.00000000000E+00 0. -1.
         23    2    1    2    0    0 -0.34045581292E+02  0.26260424051E+02  0.42942833847E+02  0.11301396263E+03  0.95285661530E+02 0.  0.
        -24    2    1    2    0    0  0.25716389125E+02  0.27420809907E+02  0.47066062402E+02  0.99331321005E+02  0.78982679222E+02 0.  0.
         11    1    4    4    0    0  0.25257881851E+02  0.65624219170E-02 -0.16455272566E+02  0.30145258896E+02  0.00000000000E+00 0. -1.
        -12    1    4    4    0    0  0.45850727422E+00  0.27414247485E+02  0.63521334968E+02  0.69186062109E+02  0.00000000000E+00 0.  1.
        -11    1    3    3    0    0 -0.38139638719E+02  0.58675616465E+02  0.38969748692E+02  0.80100570049E+02  0.00000000000E+00 0.  1.
         11    1    3    3    0    0  0.40940574265E+01 -0.32415192413E+02  0.39730851557E+01  0.32913392579E+02  0.00000000000E+00 0. -1.
         21    1    1    2  503  502 -0.93017968494E+01 -0.65493998809E+02  0.16803693943E+03  0.18058903709E+03  0.00000000000E+00 0.  1.
          2    1    1    2  501    0  0.17630989016E+02  0.11812764851E+02  0.22215468311E+02  0.30723284645E+02  0.00000000000E+00 0. -1.
<scales pt_clust_5="13000.00000" pt_clust_6="13000.00000" pt_clust_7="13000.00000" pt_clust_8="13000.00000" pt_clust_9="59.16796" pt_clust_10="21.22247"></scales>
<clustering>
<clus scale="   21.222">  1 10  2 -1</clus>
<clus scale="   59.168">  1  9  2 -1</clus>
<clus scale="   78.983">  5  6 -1 -1</clus>
<clus scale="   84.412">  1  5  2 -1</clus>
<clus scale="   95.286">  7  8 -1 -1</clus>
<clus scale="   21.222">  1  5  2 -1</clus>
</clustering>
</event>
<event>
10    3  0.7209067E-005  0.2460786E+03  0.7546771E-02  0.1152631E+00
         21   -1    0    0  501  502  0.00000000000E+00  0.00000000000E+00  0.64707888599E+03  0.64707888599E+03  0.00000000000E+00 0.  1.
          1   -1    0    0  503    0 -0.00000000000E+00 -0.00000000000E+00 -0.16702007118E+04  0.16702007118E+04  0.00000000000E+00 0. -1.
        -24    2    1    2    0    0 -0.55015967458E+02  0.19683155108E+02 -0.69097652982E+02  0.12177890462E+03  0.81494985692E+02 0.  0.
         23    2    1    2    0    0  0.11569193789E+02 -0.22363192773E+03 -0.35550808152E+03  0.42939880535E+03  0.88612937357E+02 0.  0.
         11    1    3    3    0    0 -0.45309012780E+02  0.50484787005E+02 -0.43688790215E+02  0.80686620629E+02  0.00000000000E+00 0. -1.
        -12    1    3    3    0    0 -0.97069546783E+01 -0.30801631897E+02 -0.25408862767E+02  0.41092283993E+02  0.00000000000E+00 0.  1.
        -11    1    4    4    0    0  0.26487978629E+01 -0.45486790779E+02 -0.15250691702E+03  0.15916791136E+03  0.00000000000E+00 0.  1.
         11    1    4    4    0    0  0.89203959258E+01 -0.17814513695E+03 -0.20300116449E+03  0.27023089400E+03  0.00000000000E+00 0. -1.
         21    1    1    2  503  502 -0.46656625127E+02  0.37587334474E+03  0.51305137364E+03  0.63771413969E+03  0.00000000000E+00 0.  1.
          2    1    1    2  501    0  0.90103398797E+02 -0.17192457212E+03 -0.11115674649E+04  0.11283877481E+04  0.00000000000E+00 0. -1.
<scales pt_clust_5="13000.00000" pt_clust_6="13000.00000" pt_clust_7="13000.00000" pt_clust_8="13000.00000" pt_clust_9="229.57009" pt_clust_10="165.94918"></scales>
<clustering>
<clus scale="   81.495">  5  6 -1 -1</clus>
<clus scale="   88.613">  7  8 -1 -1</clus>
<clus scale="  100.278">  2  5  1 -1</clus>
<clus scale="  165.949">  1 10  2 -1</clus>
<clus scale="  229.570">  1  9  2 -1</clus>
<clus scale="  165.949">  1  5  2 -1</clus>
</clustering>
</event>
<event>
10    3  0.7209067E-005  0.1587626E+03  0.7546771E-02  0.1202341E+00
          1   -1    0    0  502    0 -0.00000000000E+00  0.00000000000E+00  0.85936131939E+03  0.85936131939E+03  0.00000000000E+00 0. -1.
         21   -1    0    0  503  502  0.00000000000E+00 -0.00000000000E+00 -0.26923362943E+03  0.26923362943E+03  0.00000000000E+00 0. -1.
        -24    2    1    2    0    0  0.26071093601E+01  0.86943970161E+02  0.15305766852E+03  0.19541325757E+03  0.84815331024E+02 0.  0.
         23    2    1    2    0    0 -0.12702519767E+03 -0.49078278914E+02  0.55042788958E+03  0.57393261395E+03  0.88790232721E+02 0.  0.
         11    1    3    3    0    0 -0.13198464282E+02  0.99051265102E+02  0.13833372152E+03  0.17065043535E+03  0.00000000000E+00 0. -1.
        -12    1    3    3    0    0  0.15805573642E+02 -0.12107294941E+02  0.14723946998E+02  0.24762822217E+02  0.00000000000E+00 0.  1.
        -13    1    4    4    0    0  0.73130574539E+01 -0.24981508147E+02  0.82859929614E+02  0.86852314271E+02  0.00000000000E+00 0.  1.
         13    1    4    4    0    0 -0.13433825512E+03 -0.24096770767E+02  0.46756795997E+03  0.48708029968E+03  0.00000000000E+00 0. -1.
         21    1    1    2  503  501 -0.42278454662E+02 -0.13667615137E+03 -0.21053305535E+02  0.14460663801E+03  0.00000000000E+00 0. -1.
          2    1    1    2  501    0  0.16669654297E+03  0.98810460125E+02 -0.92304562604E+02  0.21464243929E+03  0.00000000000E+00 0. -1.
<scales pt_clust_5="13000.00000" pt_clust_6="13000.00000" pt_clust_7="13000.00000" pt_clust_8="13000.00000" pt_clust_9="135.52308" pt_clust_10="131.61251"></scales>
<clustering>
<clus scale="   84.815">  5  6 -1 -1</clus>
<clus scale="   88.790">  7  8 -1 -1</clus>
<clus scale="  121.489">  1  5  2 -1</clus>
<clus scale="  135.523">  2  9  1 -1</clus>
<clus scale="  131.613">  2 10  1 -1</clus>
<clus scale="  135.523">  2  5  1 -1</clus>
</clustering>
</event>
<event>
10    3  0.7209067E-005  0.1986003E+03  0.7546771E-02  0.1183232E+00
         -4   -1    0    0    0  501 -0.00000000000E+00  0.00000000000E+00  0.11894572694E+04  0.11894572694E+04  0.00000000000E+00 0.  1.
         21   -1    0    0  501  502  0.00000000000E+00 -0.00000000000E+00 -0.17464235680E+03  0.17464235680E+03  0.00000000000E+00 0.  1.
        -24    2    1    2    0    0 -0.62006625296E+02 -0.30689967577E+00  0.99888872880E+02  0.14279276864E+03  0.81037473325E+02 0.  0.
         23    2    1    2    0    0  0.18239445410E+03 -0.32407993897E+02  0.71567796249E+03  0.74835989890E+03  0.11631671135E+03 0.  0.
         11    1    3    3    0    0 -0.15464010573E+02 -0.38707189131E+02  0.42140280216E+02  0.59272129455E+02  0.00000000000E+00 0. -1.
        -12    1    3    3    0    0 -0.46542614723E+02  0.38400289455E+02  0.57748592664E+02  0.83520639187E+02  0.00000000000E+00 0.  1.
        -11    1    4    4    0    0  0.18178879863E+03  0.23949859536E+01  0.55741300813E+03  0.58631234414E+03  0.00000000000E+00 0. -1.
         11    1    4    4    0    0  0.60565547426E+00 -0.34802979851E+02  0.15826495436E+03  0.16204755476E+03  0.00000000000E+00 0.  1.
         21    1    1    2  503  502  0.35923217374E+02 -0.48290790075E+01 -0.11466942964E+03  0.12026169650E+03  0.00000000000E+00 0.  1.
         -3    1    1    2    0  503 -0.15631104618E+03  0.37543972580E+02  0.31391750690E+03  0.35268526220E+03  0.00000000000E+00 0.  1.
<scales pt_clust_5="13000.00000" pt_clust_6="13000.00000" pt_clust_7="13000.00000" pt_clust_8="13000.00000" pt_clust_9="36.24635" pt_clust_10="160.97366"></scales>
<clustering>
<clus scale="   36.246">  2  9  1 -1</clus>
<clus scale="   81.037">  5  6 -1 -1</clus>
<clus scale="   94.481">  1  5  2 -1</clus>
<clus scale="  116.317">  7  8 -1 -1</clus>
<clus scale="  160.974">  2 10  1 -1</clus>
<clus scale="   36.246">  2  5  1 -1</clus>
</clustering>
</event>
<event>
10    3  0.7209067E-005  0.1824234E+03  0.7546771E-02  0.1193450E+00
         21   -1    0    0  503  502  0.00000000000E+00  0.00000000000E+00  0.13008332180E+03  0.13008332180E+03  0.00000000000E+00 0. -1.
          1   -1    0    0  502    0 -0.00000000000E+00 -0.00000000000E+00 -0.52485716636E+03  0.52485716636E+03  0.00000000000E+00 0. -1.
        -24    2    1    2    0    0  0.95403543791E+01 -0.59991741603E+02 -0.37000439205E+02  0.10723024291E+03  0.80245031437E+02 0.  0.
         23    2    1    2    0    0  0.70221645835E+02  0.17103966430E+03 -0.17904989434E+03  0.27352905702E+03  0.92593920207E+02 0.  0.
         13    1    3    3    0    0  0.24559213071E+02 -0.71256191867E+02 -0.43907113901E+02  0.87226340501E+02  0.00000000000E+00 0. -1.
        -14    1    3    3    0    0 -0.15018858692E+02  0.11264450264E+02  0.69066746956E+01  0.20003902407E+02  0.00000000000E+00 0.  1.
        -13    1    4    4    0    0  0.18472592888E+02  0.98789788205E+02 -0.39295351538E+02  0.10791099849E+03  0.00000000000E+00 0.  1.
         13    1    4    4    0    0  0.51749052946E+02  0.72249876099E+02 -0.13975454280E+03  0.16561805853E+03  0.00000000000E+00 0. -1.
         21    1    1    2  503  501 -0.42157115636E+02  0.15703032241E+02  0.76932801213E+01  0.45639831061E+02  0.00000000000E+00 0. -1.
          2    1    1    2  501    0 -0.37604884578E+02 -0.12675095494E+03 -0.18641679114E+03  0.22854135718E+03  0.00000000000E+00 0. -1.
<scales pt_clust_5="13000.00000" pt_clust_6="13000.00000" pt_clust_7="13000.00000" pt_clust_8="13000.00000" pt_clust_9="44.98675" pt_clust_10="157.17722"></scales>
<clustering>
<clus scale="   44.987">  1  9  2 -1</clus>
<clus scale="   80.245">  5  6 -1 -1</clus>
<clus scale="   92.594">  7  8 -1 -1</clus>
<clus scale="   97.210">  2  5  1 -1</clus>
<clus scale="  157.177">  1 10  2 -1</clus>
<clus scale="   44.987">  1  5  2 -1</clus>
</clustering>
</event>
<event>
10    3  0.7209067E-005  0.3112138E+03  0.7546771E-02  0.1112154E+00
          1   -1    0    0  503    0 -0.00000000000E+00  0.00000000000E+00  0.85704255208E+03  0.85704255208E+03  0.00000000000E+00 0. -1.
         21   -1    0    0  501  502  0.00000000000E+00 -0.00000000000E+00 -0.29073163822E+03  0.29073163822E+03  0.00000000000E+00 0. -1.
        -24    2    1    2    0    0  0.27403030995E+02 -0.98746551791E+02 -0.49403308713E+02  0.13906364949E+03  0.79976272106E+02 0.  0.
         23    2    1    2    0    0  0.23647771245E+03  0.23395402971E+03  0.33714569968E+03  0.48271857290E+03  0.93240556127E+02 0.  0.
         13    1    3    3    0    0  0.27864162603E+02 -0.96530892807E+02 -0.67361371147E+02  0.12096354470E+03  0.00000000000E+00 0. -1.
        -14    1    3    3    0    0 -0.46113160802E+00 -0.22156589838E+01  0.17958062434E+02  0.18100104792E+02  0.00000000000E+00 0.  1.
        -13    1    4    4    0    0  0.55895567931E+02  0.13568366014E+02  0.82602312101E+02  0.10065563588E+03  0.00000000000E+00 0.  1.
         13    1    4    4    0    0  0.18058214452E+03  0.22038566370E+03  0.25454338758E+03  0.38206293702E+03  0.00000000000E+00 0. -1.
         21    1    1    2  503  502 -0.21664352184E+02 -0.14819524911E+02 -0.75785267741E+02  0.80202052846E+02  0.00000000000E+00 0. -1.
          2    1    1    2  501    0 -0.24221639127E+03 -0.12038795301E+03  0.35435379064E+03  0.44578991506E+03  0.00000000000E+00 0. -1.
<scales pt_clust_5="13000.00000" pt_clust_6="13000.00000" pt_clust_7="13000.00000" pt_clust_8="13000.00000" pt_clust_9="26.24809" pt_clust_10="296.91801"></scales>
<clustering>
<clus scale="   26.248">  2  9  1 -1</clus>
<clus scale="   79.976">  5  6 -1 -1</clus>
<clus scale="   93.241">  7  8 -1 -1</clus>
<clus scale="  133.430">  1  5  2 -1</clus>
<clus scale="  296.918">  2 10  1 -1</clus>
<clus scale="   26.248">  2  5  1 -1</clus>
</clustering>
</event>
<event>
10    3  0.7209067E-005  0.3741843E+03  0.7546771E-02  0.1077023E+00
          1   -1    0    0  502    0 -0.00000000000E+00  0.00000000000E+00  0.18028935990E+04  0.18028935990E+04  0.00000000000E+00 0. -1.
         21   -1    0    0  503  502  0.00000000000E+00 -0.00000000000E+00 -0.13782200517E+03  0.13782200517E+03  0.00000000000E+00 0. -1.
        -24    2    1    2    0    0  0.43509475672E+02  0.15876026688E+03  0.30600378983E+03  0.35961668245E+03  0.92671150273E+02 0.  0.
         23    2    1    2    0    0  0.32989666498E+03 -0.55989036805E+02  0.47812376133E+03  0.59111157724E+03  0.94042457410E+02 0.  0.
         11    1    3    3    0    0  0.31450312220E+02  0.48192928196E+02  0.19161241979E+03  0.20006748832E+03  0.00000000000E+00 0. -1.
        -12    1    3    3    0    0  0.12059163452E+02  0.11056733868E+03  0.11439137004E+03  0.15954919413E+03  0.00000000000E+00 0.  1.
        -13    1    4    4    0    0  0.78574447770E+02  0.85699950994E+01  0.60901762263E+02  0.99781828532E+02  0.00000000000E+00 0. -1.
         13    1    4    4    0    0  0.25132221721E+03 -0.64559031905E+02  0.41722199906E+03  0.49132974871E+03  0.00000000000E+00 0.  1.
         21    1    1    2  503  501  0.27799470809E+02  0.15004874567E+02  0.41366978969E+02  0.52049820240E+02  0.00000000000E+00 0. -1.
          2    1    1    2  501    0 -0.40120561146E+03 -0.11777610464E+03  0.83957706374E+03  0.93793752428E+03  0.00000000000E+00 0. -1.
<scales pt_clust_5="13000.00000" pt_clust_6="13000.00000" pt_clust_7="13000.00000" pt_clust_8="13000.00000" pt_clust_9="31.59045" pt_clust_10="362.17400"></scales>
<clustering>
<clus scale="   31.590">  2  9  1 -1</clus>
<clus scale="   92.671">  5  6 -1 -1</clus>
<clus scale="   94.042">  7  8 -1 -1</clus>
<clus scale="  192.822">  1  5  2 -1</clus>
<clus scale="  362.174">  2 10  1 -1</clus>
<clus scale="   31.590">  2  5  1 -1</clus>
</clustering>
</event>
<event>
10    3  0.7209067E-005  0.1601462E+03  0.7546771E-02  0.1203026E+00
         21   -1    0    0  501  502  0.00000000000E+00  0.00000000000E+00  0.43240703675E+02  0.43240703675E+02  0.00000000000E+00 0. -1.
          1   -1    0    0  503    0 -0.00000000000E+00 -0.00000000000E+00 -0.16104186612E+04  0.16104186612E+04  0.00000000000E+00 0. -1.
        -24    2    1    2    0    0  0.10085607127E+01  0.79124129273E+02 -0.13866268113E+03  0.18000161421E+03  0.83136014760E+02 0.  0.
         23    2    1    2    0    0  0.98431456461E+02  0.20128874009E+02 -0.40053758160E+03  0.42975676479E+03  0.11902352466E+03 0.  0.
         13    1    3    3    0    0  0.30257184787E+02  0.72651345870E+02 -0.12345430285E+03  0.14640587482E+03  0.00000000000E+00 0. -1.
        -14    1    3    3    0    0 -0.29248624074E+02  0.64727834025E+01 -0.15208378277E+02  0.33595739388E+02  0.00000000000E+00 0.  1.
        -13    1    4    4    0    0  0.46135986281E+02  0.52116979704E+02 -0.32551339361E+03  0.33287186458E+03  0.00000000000E+00 0.  1.
         13    1    4    4    0    0  0.52295470180E+02 -0.31988105695E+02 -0.75024187985E+02  0.96884900217E+02  0.00000000000E+00 0. -1.
         21    1    1    2  503  502 -0.17324397495E+02  0.24942818164E+02 -0.11920659907E+03  0.12301419506E+03  0.00000000000E+00 0. -1.
          2    1    1    2  501    0 -0.82115619679E+02 -0.12419582145E+03 -0.90877109568E+03  0.92088679077E+03  0.00000000000E+00 0. -1.
<scales pt_clust_5="13000.00000" pt_clust_6="13000.00000" pt_clust_7="13000.00000" pt_clust_8="13000.00000" pt_clust_9="30.36905" pt_clust_10="107.14578"></scales>
<clustering>
<clus scale="   30.369">  2  9  1 -1</clus>
<clus scale="   83.136">  5  6 -1 -1</clus>
<clus scale="  116.629">  2  5  1 -1</clus>
<clus scale="  107.146">  1 10  2 -1</clus>
<clus scale="  119.024">  7  8 -1 -1</clus>
<clus scale="  107.146">  1  5  2 -1</clus>
</clustering>
</event>
<event>
10    3  0.7209067E-005  0.9138329E+02  0.7546771E-02  0.1306521E+00
          1   -1    0    0  502    0 -0.00000000000E+00  0.00000000000E+00  0.37302513670E+03  0.37302513670E+03  0.00000000000E+00 0. -1.
         21   -1    0    0  503  502  0.00000000000E+00 -0.00000000000E+00 -0.79240764435E+02  0.79240764435E+02  0.00000000000E+00 0.  1.
         23    2    1    2    0    0 -0.13966834977E+02  0.24336795792E+02  0.24097194982E+03  0.25863669335E+03  0.89655487489E+02 0.  0.
        -24    2    1    2    0    0 -0.39737844712E+02 -0.81570732572E+00  0.64991695931E+02  0.10933204793E+03  0.78420752896E+02 0.  0.
         13    1    4    4    0    0 -0.21841419348E+02  0.32549627892E+02  0.66159910406E+01  0.39752952249E+02  0.00000000000E+00 0. -1.
        -14    1    4    4    0    0 -0.17896425364E+02 -0.33365335218E+02  0.58375704890E+02  0.69579095686E+02  0.00000000000E+00 0.  1.
        -13    1    3    3    0    0  0.34647515110E+02  0.53858407885E+01  0.14727130974E+03  0.15138789997E+03  0.00000000000E+00 0. -1.
         13    1    3    3    0    0 -0.48614350087E+02  0.18950955004E+02  0.93700640085E+02  0.10724879338E+03  0.00000000000E+00 0.  1.
         21    1    1    2  503  501  0.68716715388E+01 -0.34578163859E+02 -0.64037100342E+01  0.35831226434E+02  0.00000000000E+00 0.  1.
          2    1    1    2  501    0  0.46833008150E+02  0.11057075392E+02 -0.57755634546E+01  0.48465933416E+02  0.00000000000E+00 0. -1.
<scales pt_clust_5="13000.00000" pt_clust_6="13000.00000" pt_clust_7="13000.00000" pt_clust_8="13000.00000" pt_clust_9="35.25435" pt_clust_10="50.29631"></scales>
<clustering>
<clus scale="   35.254">  2  9  1 -1</clus>
<clus scale="   50.296">  2 10  1 -1</clus>
<clus scale="   78.421">  5  6 -1 -1</clus>
<clus scale="   80.390">  2  5  1 -1</clus>
<clus scale="   89.655">  7  8 -1 -1</clus>
<clus scale="   35.254">  2  5  1 -1</clus>
</clustering>
</event>
<event>
10    3  0.7209067E-005  0.9499514E+02  0.7546771E-02  0.1294837E+00
         -2   -1    0    0    0  501 -0.00000000000E+00  0.00000000000E+00  0.26823796907E+03  0.26823796907E+03  0.00000000000E+00 0.  1.
         21   -1    0    0  503  502  0.00000000000E+00 -0.00000000000E+00 -0.31336736596E+03  0.31336736596E+03  0.00000000000E+00 0.  1.
        -24    2    1    2    0    0 -0.29074557628E+01  0.10562568642E+02  0.12118084747E+03  0.14800138640E+03  0.84259073266E+02 0.  0.
         23    2    1    2    0    0 -0.42878104988E+02 -0.52536610294E+02  0.97209616266E+02  0.14931868418E+03  0.90817028371E+02 0.  0.
         13    1    3    3    0    0  0.19541824661E+02  0.37836683699E+02  0.35915949459E+02  0.55708643584E+02  0.00000000000E+00 0. -1.
        -14    1    3    3    0    0 -0.22449280424E+02 -0.27274115057E+02  0.85264898015E+02  0.92292742820E+02  0.00000000000E+00 0.  1.
        -13    1    4    4    0    0  0.24512454362E+02 -0.70882204920E+01  0.47831695907E+02  0.54212308768E+02  0.00000000000E+00 0. -1.
         13    1    4    4    0    0 -0.67390559350E+02 -0.45448389802E+02  0.49377920359E+02  0.95106375412E+02  0.00000000000E+00 0.  1.
         21    1    1    2  503  501  0.15010496168E+02 -0.25553895009E+02 -0.48702929696E+02  0.57011331385E+02  0.00000000000E+00 0.  1.
         -1    1    1    2    0  502  0.30775064582E+02  0.67527936661E+02 -0.21481693094E+03  0.22727393306E+03  0.00000000000E+00 0.  1.
<scales pt_clust_5="13000.00000" pt_clust_6="13000.00000" pt_clust_7="13000.00000" pt_clust_8="13000.00000" pt_clust_9="29.63641" pt_clust_10="63.20636"></scales>
<clustering>
<clus scale="   29.636">  2  9  1 -1</clus>
<clus scale="   63.206">  2 10  1 -1</clus>
<clus scale="   84.259">  5  6 -1 -1</clus>
<clus scale="   88.746">  1  5  2 -1</clus>
<clus scale="   90.817">  7  8 -1 -1</clus>
<clus scale="   29.636">  2  5  1 -1</clus>
</clustering>
</event>
<event>
10    3  0.7209067E-005  0.1867464E+03  0.7546771E-02  0.1192355E+00
         21   -1    0    0  501  502  0.00000000000E+00  0.00000000000E+00  0.53143477739E+03  0.53143477739E+03  0.00000000000E+00 0.  1.
         -2   -1    0    0    0  501 -0.00000000000E+00 -0.00000000000E+00 -0.12548128363E+03  0.12548128363E+03  0.00000000000E+00 0.  1.
        -24    2    1    2    0    0 -0.28771663647E+02  0.34325943704E+02  0.28511024214E+02  0.94981703979E+02  0.78756374655E+02 0.  0.
         23    2    1    2    0    0  0.16823926243E+03 -0.94886631098E+02  0.26420836288E+03  0.34056937444E+03  0.94199350358E+02 0.  0.
         11    1    3    3    0    0 -0.33531077727E+02  0.92045244195E+01  0.50462950484E+02  0.61282671408E+02  0.00000000000E+00 0. -1.
        -12    1    3    3    0    0  0.47594140799E+01  0.25121419285E+02 -0.21951926270E+02  0.33699032571E+02  0.00000000000E+00 0.  1.
        -11    1    4    4    0    0  0.94650095233E+02 -0.10183520112E+03  0.19359668154E+03  0.23834580722E+03  0.00000000000E+00 0.  1.
         11    1    4    4    0    0  0.73589167199E+02  0.69485700241E+01  0.70611681339E+02  0.10222356722E+03  0.00000000000E+00 0. -1.
         21    1    1    2  503  502 -0.72830372286E+01  0.35081210871E+02  0.72250820217E+02  0.80646853686E+02  0.00000000000E+00 0.  1.
         -1    1    1    2    0  503 -0.13218456156E+03  0.25479476522E+02  0.40983286443E+02  0.14071812891E+03  0.00000000000E+00 0.  1.
<scales pt_clust_5="13000.00000" pt_clust_6="13000.00000" pt_clust_7="13000.00000" pt_clust_8="13000.00000" pt_clust_9="35.82923" pt_clust_10="161.24736"></scales>
<clustering>
<clus scale="   35.829">  1  9  2 -1</clus>
<clus scale="   78.756">  5  6 -1 -1</clus>
<clus scale="   92.822">  2  5  1 -1</clus>
<clus scale="   94.199">  7  8 -1 -1</clus>
<clus scale="  161.247">  1 10  2 -1</clus>
<clus scale="   35.829">  1  5  2 -1</clus>
</clustering>
</event>
<event>
10    3  0.7209067E-005  0.1750470E+03  0.7546771E-02  0.1173599E+00
         21   -1    0    0  503  502  0.00000000000E+00  0.00000000000E+00  0.83343580563E+03  0.83343580563E+03  0.00000000000E+00 0. -1.
          1   -1    0    0  502    0 -0.00000000000E+00 -0.00000000000E+00 -0.12665810161E+03  0.12665810161E+03  0.00000000000E+00 0. -1.
         23    2    1    2    0    0  0.26221278664E+02 -0.17700824772E+03  0.90765363685E+02  0.21950621906E+03  0.89023332593E+02 0.  0.
        -24    2    1    2    0    0 -0.73260362175E+02  0.53207040349E+02  0.45286068367E+03  0.46899552378E+03  0.81706381053E+02 0.  0.
         13    1    4    4    0    0 -0.70631573027E+02  0.42184001026E+02  0.44979379125E+03  0.45725568744E+03  0.00000000000E+00 0. -1.
        -14    1    4    4    0    0 -0.26287891485E+01  0.11023039323E+02  0.30668924270E+01  0.11739836347E+02  0.00000000000E+00 0.  1.
        -11    1    3    3    0    0 -0.18848383092E+02 -0.12022748107E+03  0.81400431547E+02  0.14641017384E+03  0.00000000000E+00 0.  1.
         11    1    3    3    0    0  0.45069661756E+02 -0.56780766654E+02  0.93649321379E+01  0.73096045218E+02  0.00000000000E+00 0. -1.
         21    1    1    2  503  501  0.26990628252E+02  0.14738532862E+02  0.15759019275E+03  0.16056272051E+03  0.00000000000E+00 0. -1.
          2    1    1    2  501    0  0.20048455259E+02  0.10906267451E+03  0.55614639094E+01  0.11102944389E+03  0.00000000000E+00 0. -1.
<scales pt_clust_5="13000.00000" pt_clust_6="13000.00000" pt_clust_7="13000.00000" pt_clust_8="13000.00000" pt_clust_9="30.75253" pt_clust_10="112.58398"></scales>
<clustering>
<clus scale="   30.753">  1  9  2 -1</clus>
<clus scale="   81.706">  5  6 -1 -1</clus>
<clus scale="   89.023">  7  8 -1 -1</clus>
<clus scale="  112.584">  1 10  2 -1</clus>
<clus scale="  171.442">  1  5  2 -1</clus>
<clus scale="   30.753">  1  5  2 -1</clus>
</clustering>
</event>
<event>
10    3  0.7209067E-005  0.1016901E+03  0.7546771E-02  0.1285631E+00
         21   -1    0    0  501  502  0.00000000000E+00  0.00000000000E+00  0.29371888105E+03  0.29371888105E+03  0.00000000000E+00 0. -1.
         -4   -1    0    0    0  501 -0.00000000000E+00 -0.00000000000E+00 -0.13947075346E+03  0.13947075346E+03  0.00000000000E+00 0.  1.
        -24    2    1    2    0    0  0.11731630293E+02 -0.56511579479E+02 -0.65669658565E+02  0.11610124694E+03  0.76392445445E+02 0.  0.
         23    2    1    2    0    0  0.19679114037E+01 -0.23829509573E+02  0.59985489275E+02  0.11383363281E+03  0.93744966980E+02 0.  0.
         13    1    3    3    0    0 -0.30821094900E+02 -0.10963539811E+02 -0.29408522935E+02  0.43988638502E+02  0.00000000000E+00 0. -1.
        -14    1    3    3    0    0  0.42552725193E+02 -0.45548039668E+02 -0.36261135630E+02  0.72112608441E+02  0.00000000000E+00 0.  1.
        -11    1    4    4    0    0  0.43318647959E+02  0.62080672827E+01  0.16637181662E+02  0.46817103435E+02  0.00000000000E+00 0.  1.
         11    1    4    4    0    0 -0.41350736555E+02 -0.30037576855E+02  0.43348307612E+02  0.67016529378E+02  0.00000000000E+00 0. -1.
         21    1    1    2  503  502 -0.22326160721E+02 -0.26417460307E+01  0.94750215394E+02  0.97380899523E+02  0.00000000000E+00 0.  1.
         -3    1    1    2    0  503  0.86266190237E+01  0.82982835082E+02  0.65182081491E+02  0.10587385523E+03  0.00000000000E+00 0.  1.
<scales pt_clust_5="13000.00000" pt_clust_6="13000.00000" pt_clust_7="13000.00000" pt_clust_8="13000.00000" pt_clust_9="22.48191" pt_clust_10="81.84624"></scales>
<clustering>
<clus scale="   22.482">  1  9  2 -1</clus>
<clus scale="   76.392">  5  6 -1 -1</clus>
<clus scale="   81.846">  1 10  2 -1</clus>
<clus scale="   85.957">  2  5  1 -1</clus>
<clus scale="   93.745">  7  8 -1 -1</clus>
<clus scale="   22.482">  1  5  2 -1</clus>
</clustering>
</event>
<event>
10    3  0.7209067E-005  0.1182934E+03  0.7546771E-02  0.1246882E+00
         21   -1    0    0  503  502  0.00000000000E+00  0.00000000000E+00  0.49506877466E+03  0.49506877466E+03  0.00000000000E+00 0. -1.
         -4   -1    0    0    0  501 -0.00000000000E+00 -0.00000000000E+00 -0.14852535565E+03  0.14852535565E+03  0.00000000000E+00 0.  1.
        -24    2    1    2    0    0 -0.23966634403E+02  0.73048774326E+02 -0.64693541544E+02  0.12952515717E+03  0.81737317219E+02 0.  0.
         23    2    1    2    0    0 -0.39659729079E+01 -0.14490985397E+03  0.30261215406E+03  0.34610719868E+03  0.84861548845E+02 0.  0.
         13    1    3    3    0    0  0.24617523328E+02  0.55153910646E+02 -0.36522374026E+02  0.70582293239E+02  0.00000000000E+00 0. -1.
        -14    1    3    3    0    0 -0.48584157731E+02  0.17894863680E+02 -0.28171167517E+02  0.58942863926E+02  0.00000000000E+00 0.  1.
        -13    1    4    4    0    0  0.77949599056E+01 -0.46341836862E+02  0.29428079879E+02  0.55446723339E+02  0.00000000000E+00 0.  1.
         13    1    4    4    0    0 -0.11760932814E+02 -0.98568017107E+02  0.27318407418E+03  0.29066047534E+03  0.00000000000E+00 0. -1.
         21    1    1    2  503  501 -0.14393624745E+02  0.29918028138E+02  0.10287193786E+03  0.10809671799E+03  0.00000000000E+00 0.  1.
         -3    1    1    2    0  502  0.42326232056E+02  0.41943051505E+02  0.57528686278E+01  0.59865056477E+02  0.00000000000E+00 0.  1.
<scales pt_clust_5="13000.00000" pt_clust_6="13000.00000" pt_clust_7="13000.00000" pt_clust_8="13000.00000" pt_clust_9="33.20037" pt_clust_10="60.55818"></scales>
<clustering>
<clus scale="   33.200">  1  9  2 -1</clus>
<clus scale="   60.558">  1 10  2 -1</clus>
<clus scale="   81.737">  5  6 -1 -1</clus>
<clus scale="   84.862">  7  8 -1 -1</clus>
<clus scale="  116.072">  2  5  1 -1</clus>
<clus scale="   33.200">  1  5  2 -1</clus>
</clustering>
</event>
<event>
10    3  0.7209067E-005  0.1121314E+03  0.7546771E-02  0.1264513E+00
         21   -1    0    0  501  502  0.00000000000E+00  0.00000000000E+00  0.12098202575E+03  0.12098202575E+03  0.00000000000E+00 0.  1.
         -2   -1    0    0    0  501 -0.00000000000E+00 -0.00000000000E+00 -0.56637127079E+03  0.56637127079E+03  0.00000000000E+00 0.  1.
         23    2    1    2    0    0 -0.45391119139E+02  0.44796255658E+02 -0.94192278036E+01  0.11112170539E+03  0.90511067491E+02 0.  0.
        -24    2    1    2    0    0 -0.16699011376E+02  0.76982976459E+02 -0.74189633863E+02  0.13490898097E+03  0.80567336614E+02 0.  0.
         11    1    4    4    0    0 -0.35768890044E+02  0.13792008737E+02 -0.53342965847E+02  0.65689458861E+02  0.00000000000E+00 0. -1.
        -12    1    4    4    0    0  0.19069878668E+02  0.63190967722E+02 -0.20846668015E+02  0.69219522112E+02  0.00000000000E+00 0.  1.
        -11    1    3    3    0    0 -0.56957832211E+02  0.61615812177E+02 -0.22505088186E+02  0.86874518443E+02  0.00000000000E+00 0.  1.
         11    1    3    3    0    0  0.11566713073E+02 -0.16819556519E+02  0.13085860382E+02  0.24247186945E+02  0.00000000000E+00 0. -1.
         21    1    1    2  503  502  0.75935546291E+02 -0.21653067962E+02 -0.15341186093E+02  0.80438886948E+02  0.00000000000E+00 0.  1.
         -1    1    1    2    0  503 -0.13845415776E+02 -0.10012616416E+03 -0.34643919727E+03  0.36088372323E+03  0.00000000000E+00 0.  1.
<scales pt_clust_5="13000.00000" pt_clust_6="13000.00000" pt_clust_7="13000.00000" pt_clust_8="13000.00000" pt_clust_9="78.96241" pt_clust_10="77.98951"></scales>
<clustering>
<clus scale="   78.962">  1  9  2 -1</clus>
<clus scale="   80.567">  5  6 -1 -1</clus>
<clus scale="   90.511">  7  8 -1 -1</clus>
<clus scale="   96.132">  2  7  1 -1</clus>
<clus scale="   77.990">  1 10  2 -1</clus>
<clus scale="   78.962">  1  5  2 -1</clus>
</clustering>
</event>
<event>
10    3  0.7209067E-005  0.9856390E+02  0.7546771E-02  0.1289409E+00
         21   -1    0    0  503  502  0.00000000000E+00  0.00000000000E+00  0.14272990547E+03  0.14272990547E+03  0.00000000000E+00 0.  1.
          3   -1    0    0  502    0 -0.00000000000E+00 -0.00000000000E+00 -0.48315993840E+03  0.48315993840E+03  0.00000000000E+00 0. -1.
         23    2    1    2    0    0 -0.28777047354E+02 -0.26224920239E+01 -0.37737092555E+03  0.38956252221E+03  0.92277556000E+02 0.  0.
        -24    2    1    2    0    0  0.91797187222E+02 -0.39142867402E+01 -0.21188163388E+01  0.12238275183E+03  0.80814623308E+02 0.  0.
         11    1    4    4    0    0 -0.47696719265E+01  0.21894474057E+02 -0.30637842417E+00  0.22410078810E+02  0.00000000000E+00 0. -1.
        -12    1    4    4    0    0  0.96566859148E+02 -0.25808760797E+02 -0.18124379147E+01  0.99972673021E+02  0.00000000000E+00 0.  1.
        -13    1    3    3    0    0 -0.24995018089E+02  0.38928451315E+02 -0.27745264820E+03  0.28128303760E+03  0.00000000000E+00 0. -1.
         13    1    3    3    0    0 -0.37820292644E+01 -0.41550943339E+02 -0.99918277347E+02  0.10827948460E+03  0.00000000000E+00 0.  1.
         21    1    1    2  503  501 -0.15353165510E+02  0.21411079821E+02  0.55448820618E+02  0.61389948185E+02  0.00000000000E+00 0.  1.
          4    1    1    2  501    0 -0.47666974358E+02 -0.14874301057E+02 -0.16389111660E+02  0.52554621655E+02  0.00000000000E+00 0. -1.
<scales pt_clust_5="13000.00000" pt_clust_6="13000.00000" pt_clust_7="13000.00000" pt_clust_8="13000.00000" pt_clust_9="26.34680" pt_clust_10="51.98684"></scales>
<clustering>
<clus scale="   26.347">  1  9  2 -1</clus>
<clus scale="   51.987">  1 10  2 -1</clus>
<clus scale="   80.815">  5  6 -1 -1</clus>
<clus scale="   87.924">  1  5  2 -1</clus>
<clus scale="   92.278">  7  8 -1 -1</clus>
<clus scale="   26.347">  1  5  2 -1</clus>
</clustering>
</event>
<event>
10    3  0.7209067E-005  0.2503689E+03  0.7546771E-02  0.1146618E+00
          1   -1    0    0  503    0 -0.00000000000E+00  0.00000000000E+00  0.91431725829E+03  0.91431725829E+03  0.00000000000E+00 0. -1.
         21   -1    0    0  501  502  0.00000000000E+00 -0.00000000000E+00 -0.69037029225E+03  0.69037029225E+03  0.00000000000E+00 0. -1.
        -24    2    1    2    0    0 -0.70448298976E+02 -0.27308812426E+02  0.67139136927E+03  0.68031022596E+03  0.79667425891E+02 0.  0.
         23    2    1    2    0    0 -0.13353678046E+03  0.14447101104E+03 -0.11101671128E+02  0.21803450473E+03  0.93337309721E+02 0.  0.
         11    1    3    3    0    0 -0.61094566220E+02 -0.21668597916E+02  0.23484613791E+03  0.24362836996E+03  0.00000000000E+00 0. -1.
        -12    1    3    3    0    0 -0.93537327555E+01 -0.56402145101E+01  0.43654523136E+03  0.43668185600E+03  0.00000000000E+00 0.  1.
        -13    1    4    4    0    0 -0.11309351417E+03  0.15251184952E+03 -0.25785156480E+02  0.19161127704E+03  0.00000000000E+00 0.  1.
         13    1    4    4    0    0 -0.20443266288E+02 -0.80408384799E+01  0.14683485351E+02  0.26423227699E+02  0.00000000000E+00 0. -1.
         21    1    1    2  503  502 -0.14615687930E+03 -0.13651021653E+03 -0.20400444734E+03  0.28568284359E+03  0.00000000000E+00 0. -1.
          2    1    1    2  501    0  0.35014195873E+03  0.19348017913E+02 -0.23233828476E+03  0.42065997626E+03  0.00000000000E+00 0. -1.
<scales pt_clust_5="13000.00000" pt_clust_6="13000.00000" pt_clust_7="13000.00000" pt_clust_8="13000.00000" pt_clust_9="212.05633" pt_clust_10="232.32028"></scales>
<clustering>
<clus scale="   79.667">  5  6 -1 -1</clus>
<clus scale="   93.337">  7  8 -1 -1</clus>
<clus scale="  109.798">  1  5  2 -1</clus>
<clus scale="  212.056">  2  9  1 -1</clus>
<clus scale="  232.320">  2 10  1 -1</clus>
<clus scale="  212.056">  2  5  1 -1</clus>
</clustering>
</event>
<event>
10    3  0.7209067E-005  0.1233764E+03  0.7546771E-02  0.1240955E+00
          1   -1    0    0  503    0 -0.00000000000E+00  0.00000000000E+00  0.30629344006E+03  0.30629344006E+03  0.00000000000E+00 0. -1.
         21   -1    0    0  501  502  0.00000000000E+00 -0.00000000000E+00 -0.62690122221E+03  0.62690122221E+03  0.00000000000E+00 0.  1.
         23    2    1    2    0    0 -0.32639199748E+02 -0.75234258942E+02  0.28428197896E+03  0.31013701282E+03  0.92968876946E+02 0.  0.
        -24    2    1    2    0    0  0.23350477546E+02  0.43253520678E+02 -0.45601811053E+03  0.46592480377E+03  0.81959098235E+02 0.  0.
         11    1    4    4    0    0  0.22692376293E+02 -0.37311845776E+01 -0.32531420272E+02  0.39839163961E+02  0.00000000000E+00 0. -1.
        -12    1    4    4    0    0  0.65810125256E+00  0.46984705255E+02 -0.42348669026E+03  0.42608563981E+03  0.00000000000E+00 0.  1.
        -13    1    3    3    0    0  0.15540586495E+02 -0.44008129643E+02  0.21571746820E+03  0.22070852134E+03  0.00000000000E+00 0. -1.
         13    1    3    3    0    0 -0.48179786242E+02 -0.31226129300E+02  0.68564510756E+02  0.89428491481E+02  0.00000000000E+00 0.  1.
         21    1    1    2  503  502 -0.12032276837E+02  0.17183034819E+02 -0.95615304309E+02  0.97889319078E+02  0.00000000000E+00 0.  1.
          2    1    1    2  501    0  0.21320999038E+02  0.14797703446E+02 -0.53256346270E+02  0.59243526611E+02  0.00000000000E+00 0. -1.
<scales pt_clust_5="13000.00000" pt_clust_6="13000.00000" pt_clust_7="13000.00000" pt_clust_8="13000.00000" pt_clust_9="20.97695" pt_clust_10="26.03899"></scales>
<clustering>
<clus scale="   20.977">  2  9  1 -1</clus>
<clus scale="   26.039">  2 10  1 -1</clus>
<clus scale="   81.959">  5  6 -1 -1</clus>
<clus scale="   92.969">  7  8 -1 -1</clus>
<clus scale="  115.308">  2  5  1 -1</clus>
<clus scale="   20.977">  2  5  1 -1</clus>
</clustering>
</event>
<event>
10    3  0.7209067E-005  0.2949460E+03  0.7546771E-02  0.1088605E+00
         21   -1    0    0  503  502  0.00000000000E+00  0.00000000000E+00  0.97760586859E+03  0.97760586859E+03  0.00000000000E+00 0. -1.
          1   -1    0    0  502    0 -0.00000000000E+00 -0.00000000000E+00 -0.15077362730E+03  0.15077362730E+03  0.00000000000E+00 0. -1.
        -24    2    1    2    0    0  0.28373931184E+03  0.13447988728E+03  0.23766270356E+03  0.39967714714E+03  0.68303909949E+02 0.  0.
         23    2    1    2    0    0 -0.18225761832E+03 -0.13189399541E+03  0.52670115918E+03  0.57995843833E+03  0.91234936586E+02 0.  0.
         11    1    3    3    0    0  0.26681353349E+03  0.12935699130E+03  0.19883697183E+03  0.35701377315E+03  0.00000000000E+00 0. -1.
        -12    1    3    3    0    0  0.16925778347E+02  0.51228959862E+01  0.38825731722E+02  0.42663373984E+02  0.00000000000E+00 0.  1.
        -11    1    4    4    0    0 -0.57624153033E+02 -0.79307443795E+02  0.30376253920E+03  0.31918943259E+03  0.00000000000E+00 0.  1.
         11    1    4    4    0    0 -0.12463346529E+03 -0.52586551617E+02  0.22293861998E+03  0.26076900575E+03  0.00000000000E+00 0. -1.
         21    1    1    2  503  501 -0.31469123307E+02  0.11367093466E+02  0.69374075873E+02  0.77021288867E+02  0.00000000000E+00 0.  1.
          2    1    1    2  501    0 -0.70012570208E+02 -0.13952985338E+02 -0.69056973092E+01  0.71722621552E+02  0.00000000000E+00 0. -1.
<scales pt_clust_5="13000.00000" pt_clust_6="13000.00000" pt_clust_7="13000.00000" pt_clust_8="13000.00000" pt_clust_9="33.45918" pt_clust_10="72.41839"></scales>
<clustering>
<clus scale="   33.459">  1  9  2 -1</clus>
<clus scale="   68.304">  5  6 -1 -1</clus>
<clus scale="   72.418">  1 10  2 -1</clus>
<clus scale="   91.235">  7  8 -1 -1</clus>
<clus scale="  288.678">  2  5  1 -1</clus>
<clus scale="   33.459">  1  5  2 -1</clus>
</clustering>
</event>
<event>
10    3  0.7209067E-005  0.1079429E+03  0.7546771E-02  0.1267168E+00
         21   -1    0    0  501  502  0.00000000000E+00  0.00000000000E+00  0.46047670978E+03  0.46047670978E+03  0.00000000000E+00 0. -1.
          1   -1    0    0  503    0 -0.00000000000E+00 -0.00000000000E+00 -0.10977227165E+03  0.10977227165E+03  0.00000000000E+00 0. -1.
        -24    2    1    2    0    0 -0.56523562456E+01  0.40055572246E+02  0.78058005363E+01  0.90225189080E+02  0.80269896122E+02 0.  0.
         23    2    1    2    0    0  0.81988132428E+02 -0.61930165310E+02  0.18406726071E+02  0.13608363754E+03  0.87307213953E+02 0.  0.
         13    1    3    3    0    0  0.29405169820E+02  0.27091287495E+02 -0.18961994255E+02  0.44251091471E+02  0.00000000000E+00 0. -1.
        -14    1    3    3    0    0 -0.35057526065E+02  0.12964284751E+02  0.26767794792E+02  0.45974097608E+02  0.00000000000E+00 0.  1.
        -11    1    4    4    0    0  0.53081562948E+02 -0.66872286554E+02 -0.20069125993E+02  0.87705899756E+02  0.00000000000E+00 0.  1.
         11    1    4    4    0    0  0.28906569479E+02  0.49421212433E+01  0.38475852063E+02  0.48377737788E+02  0.00000000000E+00 0. -1.
         21    1    1    2  503  502 -0.23602086180E+02  0.17999013850E+02  0.22218173458E+02  0.37076545193E+02  0.00000000000E+00 0.  1.
          2    1    1    2  501    0 -0.52733690002E+02  0.38755792141E+01  0.30227373807E+03  0.30686360961E+03  0.00000000000E+00 0. -1.
<scales pt_clust_5="13000.00000" pt_clust_6="13000.00000" pt_clust_7="13000.00000" pt_clust_8="13000.00000" pt_clust_9="29.68203" pt_clust_10="53.43456"></scales>
<clustering>
<clus scale="   29.682">  2  9  1 -1</clus>
<clus scale="   53.435">  1 10  2 -1</clus>
<clus scale="   80.270">  5  6 -1 -1</clus>
<clus scale="   87.307">  7  8 -1 -1</clus>
<clus scale="  102.335">  2  5  1 -1</clus>
<clus scale="   53.435">  1  5  2 -1</clus>
</clustering>
</event>
<event>
10    3  0.7209067E-005  0.2508580E+03  0.7546771E-02  0.1126703E+00
         -2   -1    0    0    0  501 -0.00000000000E+00  0.00000000000E+00  0.10848935696E+03  0.10848935696E+03  0.00000000000E+00 0.  1.
         21   -1    0    0  501  502  0.00000000000E+00 -0.00000000000E+00 -0.13755490751E+04  0.13755490751E+04  0.00000000000E+00 0.  1.
        -24    2    1    2    0    0  0.12850842875E+03 -0.76435123343E+02 -0.36258323920E+03  0.40031280493E+03  0.80168523139E+02 0.  0.
         23    2    1    2    0    0  0.15559867961E+03  0.74294927104E+02 -0.12813029835E+03  0.23412746519E+03  0.93100007039E+02 0.  0.
         13    1    3    3    0    0  0.13505244414E+03 -0.52914104920E+02 -0.31679267925E+03  0.34842024452E+03  0.00000000000E+00 0. -1.
        -14    1    3    3    0    0 -0.65440153893E+01 -0.23521018423E+02 -0.45790559958E+02  0.51892560414E+02  0.00000000000E+00 0.  1.
        -13    1    4    4    0    0  0.12260268092E+03  0.95976842673E+02 -0.11026555649E+03  0.19079167866E+03  0.00000000000E+00 0.  1.
         13    1    4    4    0    0  0.32995998686E+02 -0.21681915569E+02 -0.17864741863E+02  0.43335786526E+02  0.00000000000E+00 0. -1.
         21    1    1    2  503  502 -0.15729498090E+01 -0.48780560633E+02 -0.19788791052E+03  0.20381766949E+03  0.00000000000E+00 0. -1.
         -1    1    1    2    0  503 -0.28253415854E+03  0.50920756873E+02 -0.57845827008E+03  0.64578049247E+03  0.00000000000E+00 0.  1.
<scales pt_clust_5="13000.00000" pt_clust_6="13000.00000" pt_clust_7="13000.00000" pt_clust_8="13000.00000" pt_clust_9="48.80591" pt_clust_10="232.94235"></scales>
<clustering>
<clus scale="   48.806">  2  9  1 -1</clus>
<clus scale="   80.169">  5  6 -1 -1</clus>
<clus scale="   93.100">  7  8 -1 -1</clus>
<clus scale="  176.989">  1  5  2 -1</clus>
<clus scale="  232.942">  2 10  1 -1</clus>
<clus scale="   48.806">  2  5  1 -1</clus>
</clustering>
</event>
<event>
10    3  0.7209067E-005  0.2549488E+03  0.7546771E-02  0.1134110E+00
          1   -1    0    0  503    0 -0.00000000000E+00  0.00000000000E+00  0.10315369613E+04  0.10315369613E+04  0.00000000000E+00 0. -1.
         21   -1    0    0  501  502  0.00000000000E+00 -0.00000000000E+00 -0.26082326921E+03  0.26082326921E+03  0.00000000000E+00 0. -1.
        -24    2    1    2    0    0 -0.35458846357E+02  0.10856396664E+03  0.20398389275E+03  0.24773427170E+03  0.81971801451E+02 0.  0.
         23    2    1    2    0    0 -0.33590275557E+02 -0.18042638345E+03  0.26474015895E+02  0.20736034191E+03  0.92819456066E+02 0.  0.
         11    1    3    3    0    0 -0.59554243023E+02  0.53888976610E+02  0.12733738424E+03  0.15055078574E+03  0.00000000000E+00 0. -1.
        -12    1    3    3    0    0  0.24095396666E+02  0.54674990034E+02  0.76646508513E+02  0.97183485958E+02  0.00000000000E+00 0.  1.
        -11    1    4    4    0    0  0.45959938145E+01 -0.13548429455E+03  0.49120540219E+02  0.14418718632E+03  0.00000000000E+00 0. -1.
         11    1    4    4    0    0 -0.38186269371E+02 -0.44942088901E+02 -0.22646524325E+02  0.63173155590E+02  0.00000000000E+00 0.  1.
         21    1    1    2  503  502  0.16417997409E+03 -0.19140833816E+03  0.28276412014E+02  0.25375533745E+03  0.00000000000E+00 0. -1.
          2    1    1    2  501    0 -0.95130852178E+02  0.26327075496E+03  0.51197937145E+03  0.58351027947E+03  0.00000000000E+00 0. -1.
<scales pt_clust_5="13000.00000" pt_clust_6="13000.00000" pt_clust_7="13000.00000" pt_clust_8="13000.00000" pt_clust_9="254.94881" pt_clust_10="13000.00000"></scales>
<clustering>
<clus scale="   81.972">  5  6 -1 -1</clus>
<clus scale="   92.819">  7  8 -1 -1</clus>
<clus scale="  140.580">  1  5  2 -1</clus>
<clus scale="  192.958">  1  7  2 -1</clus>
<clus scale="  254.949">  2  9  1 -1</clus>
<clus scale="  254.949">  2  5  1 -1</clus>
</clustering>
</event>
<event>
10    3  0.7209067E-005  0.1721905E+03  0.7546771E-02  0.1195706E+00
         21   -1    0    0  501  502  0.00000000000E+00  0.00000000000E+00  0.23394536181E+03  0.23394536181E+03  0.00000000000E+00 0. -1.
          1   -1    0    0  503    0 -0.00000000000E+00 -0.00000000000E+00 -0.12293795012E+04  0.12293795012E+04  0.00000000000E+00 0. -1.
        -24    2    1    2    0    0  0.69465884839E+02 -0.18616903683E+02 -0.35584548903E+03  0.37200614902E+03  0.81181676441E+02 0.  0.
         23    2    1    2    0    0 -0.88283689687E+02 -0.12139649699E+03 -0.42424814673E+03  0.45851748712E+03  0.87867381029E+02 0.  0.
         11    1    3    3    0    0  0.42393786420E+02  0.14094770062E+02 -0.70119052978E+02  0.83141910374E+02  0.00000000000E+00 0. -1.
        -12    1    3    3    0    0  0.27072098419E+02 -0.32711673745E+02 -0.28572643605E+03  0.28886423865E+03  0.00000000000E+00 0.  1.
        -11    1    4    4    0    0 -0.12915040172E+02 -0.36265760047E+02 -0.23192973741E+03  0.23510297044E+03  0.00000000000E+00 0.  1.
         11    1    4    4    0    0 -0.75368649515E+02 -0.85130736938E+02 -0.19231840932E+03  0.22341451668E+03  0.00000000000E+00 0. -1.
         21    1    1    2  503  502 -0.21656818429E+02  0.23518823013E+03  0.13187760316E+03  0.27050734480E+03  0.00000000000E+00 0. -1.
          2    1    1    2  501    0  0.40474623277E+02 -0.95174829458E+02 -0.34721810680E+03  0.36229388206E+03  0.00000000000E+00 0. -1.
<scales pt_clust_5="13000.00000" pt_clust_6="13000.00000" pt_clust_7="13000.00000" pt_clust_8="13000.00000" pt_clust_9="148.08406" pt_clust_10="103.42366"></scales>
<clustering>
<clus scale="   81.182">  5  6 -1 -1</clus>
<clus scale="   87.867">  7  8 -1 -1</clus>
<clus scale="  103.424">  1 10  2 -1</clus>
<clus scale="  110.015">  2  5  1 -1</clus>
<clus scale="  148.084">  1  9  2 -1</clus>
<clus scale="  103.424">  1  5  2 -1</clus>
</clustering>
</event>
<event>
10    3  0.7209067E-005  0.1191397E+03  0.7546771E-02  0.1248408E+00
         21   -1    0    0  501  502  0.00000000000E+00  0.00000000000E+00  0.88517869918E+02  0.88517869918E+02  0.00000000000E+00 0. -1.
          3   -1    0    0  503    0 -0.00000000000E+00 -0.00000000000E+00 -0.38215466320E+03  0.38215466320E+03  0.00000000000E+00 0. -1.
        -24    2    1    2    0    0  0.64469784373E+02 -0.14130720211E+02 -0.14120042071E+03  0.17563554452E+03  0.80958355586E+02 0.  0.
         23    2    1    2    0    0 -0.95291513242E+02  0.33457508881E+02 -0.42191256865E+02  0.14347871557E+03  0.92769403738E+02 0.  0.
         11    1    3    3    0    0  0.27085884183E+02 -0.43971050130E+02 -0.46290970783E+02  0.69353819993E+02  0.00000000000E+00 0. -1.
        -12    1    3    3    0    0  0.37383900190E+02  0.29840329919E+02 -0.94909449922E+02  0.10628172452E+03  0.00000000000E+00 0.  1.
        -11    1    4    4    0    0 -0.48179244183E+02 -0.30509155648E+02 -0.24623771686E+02  0.62115845647E+02  0.00000000000E+00 0.  1.
         11    1    4    4    0    0 -0.47112269059E+02  0.63966664529E+02 -0.17567485179E+02  0.81362869925E+02  0.00000000000E+00 0. -1.
         21    1    1    2  503  502  0.28851060760E+02  0.17557853514E+02  0.15599283067E+01  0.33809692446E+02  0.00000000000E+00 0.  1.
          4    1    1    2  501    0  0.19706681094E+01 -0.36884642184E+02 -0.11180504402E+03  0.11774858058E+03  0.00000000000E+00 0. -1.
<scales pt_clust_5="13000.00000" pt_clust_6="13000.00000" pt_clust_7="13000.00000" pt_clust_8="13000.00000" pt_clust_9="33.77369" pt_clust_10="36.28773"></scales>
<clustering>
<clus scale="   33.774">  1  9  2 -1</clus>
<clus scale="   36.288">  1 10  2 -1</clus>
<clus scale="   80.958">  5  6 -1 -1</clus>
<clus scale="   92.769">  7  8 -1 -1</clus>
<clus scale="  110.192">  2  5  1 -1</clus>
<clus scale="   33.774">  1  5  2 -1</clus>
</clustering>
</event>
<event>
10    3  0.7209067E-005  0.1698543E+03  0.7546771E-02  0.1179690E+00
          1   -1    0    0  503    0 -0.00000000000E+00  0.00000000000E+00  0.15065219925E+04  0.15065219925E+04  0.00000000000E+00 0. -1.
         21   -1    0    0  501  502  0.00000000000E+00 -0.00000000000E+00 -0.26013778065E+02  0.26013778065E+02  0.00000000000E+00 0. -1.
         23    2    1    2    0    0  0.11478273003E+03  0.61959785539E+02  0.63611563763E+03  0.65585443681E+03  0.92129515892E+02 0.  0.
        -24    2    1    2    0    0 -0.13727775933E+03 -0.77855572146E+02  0.63100643820E+03  0.65532358058E+03  0.79832304820E+02 0.  0.
         13    1    4    4    0    0 -0.12508309311E+03 -0.38377312432E+02  0.40620595444E+03  0.42675739678E+03  0.00000000000E+00 0. -1.
        -14    1    4    4    0    0 -0.12194666225E+02 -0.39478259714E+02  0.22480048376E+03  0.22856618379E+03  0.00000000000E+00 0.  1.
        -11    1    3    3    0    0  0.10131452906E+03  0.12126490545E+02  0.49940431736E+03  0.50972184353E+03  0.00000000000E+00 0. -1.
         11    1    3    3    0    0  0.13468200975E+02  0.49833294993E+02  0.13671132027E+03  0.14613259328E+03  0.00000000000E+00 0.  1.
         21    1    1    2  503  502  0.80916715045E+01  0.30373092841E+02  0.72797128499E+02  0.79293264747E+02  0.00000000000E+00 0.  1.
          2    1    1    2  501    0  0.14403357797E+02 -0.14477306234E+02  0.14058901015E+03  0.14206448848E+03  0.00000000000E+00 0. -1.
<scales pt_clust_5="13000.00000" pt_clust_6="13000.00000" pt_clust_7="13000.00000" pt_clust_8="13000.00000" pt_clust_9="30.19650" pt_clust_10="20.42179"></scales>
<clustering>
<clus scale="   20.422">  2 10  1 -1</clus>
<clus scale="   30.197">  2  9  1 -1</clus>
<clus scale="   79.832">  5  6 -1 -1</clus>
<clus scale="   92.130">  7  8 -1 -1</clus>
<clus scale="  163.511">  2  5  1 -1</clus>
<clus scale="   20.422">  2  5  1 -1</clus>
</clustering>
</event>
<event>
10    3  0.7209067E-005  0.1589752E+03  0.7546771E-02  0.1205165E+00
          1   -1    0    0  503    0 -0.00000000000E+00  0.00000000000E+00  0.17293133695E+03  0.17293133695E+03  0.00000000000E+00 0. -1.
         21   -1    0    0  501  502  0.00000000000E+00 -0.00000000000E+00 -0.14262234655E+04  0.14262234655E+04  0.00000000000E+00 0. -1.
         23    2    1    2    0    0  0.53337325916E+02  0.43042952398E+02  0.93982257261E+02  0.14762994016E+03  0.90908572017E+02 0.  0.
        -24    2    1    2    0    0 -0.11084470665E+02 -0.11201467726E+03 -0.40622630351E+03  0.42866199545E+03  0.77853344631E+02 0.  0.
         11    1    4    4    0    0 -0.15498018603E+02 -0.10488753071E+03 -0.24182598153E+03  0.26404807900E+03  0.00000000000E+00 0. -1.
        -12    1    4    4    0    0  0.44135479377E+01 -0.71271465463E+01 -0.16440032198E+03  0.16461391645E+03  0.00000000000E+00 0.  1.
        -13    1    3    3    0    0 -0.24759170404E+02  0.62352095385E+01  0.33927030167E+02  0.42461014273E+02  0.00000000000E+00 0. -1.
         13    1    3    3    0    0  0.78096496321E+02  0.36807742859E+02  0.60055227093E+02  0.10516892589E+03  0.00000000000E+00 0.  1.
         21    1    1    2  503  502 -0.11401141985E+03 -0.29925503427E+02 -0.87703796545E+03  0.88492357436E+03  0.00000000000E+00 0. -1.
          2    1    1    2  501    0  0.71758564598E+02  0.98897228286E+02 -0.64010116901E+02  0.13793929252E+03  0.00000000000E+00 0. -1.
<scales pt_clust_5="13000.00000" pt_clust_6="13000.00000" pt_clust_7="13000.00000" pt_clust_8="13000.00000" pt_clust_9="113.16447" pt_clust_10="138.60732"></scales>
<clustering>
<clus scale="   77.853">  5  6 -1 -1</clus>
<clus scale="   90.909">  7  8 -1 -1</clus>
<clus scale="  113.850">  1  7  2 -1</clus>
<clus scale="  113.164">  2  9  1 -1</clus>
<clus scale="  138.607">  2 10  1 -1</clus>
<clus scale="  113.164">  2  5  1 -1</clus>
</clustering>
</event>
<event>
10    3  0.7209067E-005  0.2042212E+03  0.7546771E-02  0.1184960E+00
          1   -1    0    0  502    0 -0.00000000000E+00  0.00000000000E+00  0.88186842038E+03  0.88186842038E+03  0.00000000000E+00 0. -1.
         21   -1    0    0  503  502  0.00000000000E+00 -0.00000000000E+00 -0.96976979679E+02  0.96976979679E+02  0.00000000000E+00 0. -1.
        -24    2    1    2    0    0  0.36095144392E+02 -0.11844630579E+02  0.51425472532E+02  0.99923364175E+02  0.76791566990E+02 0.  0.
         23    2    1    2    0    0  0.16546046489E+03  0.59390601924E+02  0.55958136141E+03  0.59310901597E+03  0.87992020944E+02 0.  0.
         11    1    3    3    0    0  0.52391100360E+02  0.13546687998E+02  0.24177731656E+02  0.59269746589E+02  0.00000000000E+00 0. -1.
        -12    1    3    3    0    0 -0.16295955969E+02 -0.25391318577E+02  0.27247740876E+02  0.40653617587E+02  0.00000000000E+00 0.  1.
        -11    1    4    4    0    0  0.62417436880E+02 -0.66478345606E+01  0.10492287291E+03  0.12226585538E+03  0.00000000000E+00 0.  1.
         11    1    4    4    0    0  0.10304302801E+03  0.66038436485E+02  0.45465848850E+03  0.47084316060E+03  0.00000000000E+00 0. -1.
         21    1    1    2  503  501 -0.25589601642E+02 -0.17814239230E+02 -0.67370580055E+01  0.31899259899E+02  0.00000000000E+00 0. -1.
          2    1    1    2  501    0 -0.17596600764E+03 -0.29731732115E+02  0.18062166476E+03  0.25391376001E+03  0.00000000000E+00 0. -1.
<scales pt_clust_5="13000.00000" pt_clust_6="13000.00000" pt_clust_7="13000.00000" pt_clust_8="13000.00000" pt_clust_9="31.17972" pt_clust_10="184.29245"></scales>
<clustering>
<clus scale="   31.180">  2  9  1 -1</clus>
<clus scale="   76.792">  5  6 -1 -1</clus>
<clus scale="   83.605">  1  5  2 -1</clus>
<clus scale="   87.992">  7  8 -1 -1</clus>
<clus scale="  184.292">  2 10  1 -1</clus>
<clus scale="   31.180">  2  5  1 -1</clus>
</clustering>
</event>
<event>
10    3  0.7209067E-005  0.2029681E+03  0.7546771E-02  0.1164972E+00
         -2   -1    0    0    0  501 -0.00000000000E+00  0.00000000000E+00  0.11614301052E+04  0.11614301052E+04  0.00000000000E+00 0.  1.
         21   -1    0    0  503  502  0.00000000000E+00 -0.00000000000E+00 -0.12581037525E+03  0.12581037525E+03  0.00000000000E+00 0. -1.
         23    2    1    2    0    0  0.67166549350E+02  0.74897426944E+02  0.62106840800E+03  0.63572224884E+03  0.91081503863E+02 0.  0.
        -24    2    1    2    0    0  0.81693667311E+02 -0.15785576939E+03  0.22585500722E+03  0.30206313260E+03  0.92948117690E+02 0.  0.
         13    1    4    4    0    0  0.38997075249E+02 -0.15086211694E+03  0.16060748411E+03  0.22377424820E+03  0.00000000000E+00 0. -1.
        -14    1    4    4    0    0  0.42696592062E+02 -0.69936524454E+01  0.65247523110E+02  0.78288884398E+02  0.00000000000E+00 0.  1.
        -13    1    3    3    0    0  0.85485710869E+02  0.64634930051E+02  0.57747408036E+03  0.58733448259E+03  0.00000000000E+00 0. -1.
         13    1    3    3    0    0 -0.18319161518E+02  0.10262496893E+02  0.43594327637E+02  0.48387766257E+02  0.00000000000E+00 0.  1.
         21    1    1    2  503  501  0.14158046900E+01 -0.35809440827E+02 -0.38294204077E+02  0.52447751345E+02  0.00000000000E+00 0. -1.
         -1    1    1    2    0  502 -0.15027602135E+03  0.11876778327E+03  0.22699051878E+03  0.29700734764E+03  0.00000000000E+00 0.  1.
<scales pt_clust_5="13000.00000" pt_clust_6="13000.00000" pt_clust_7="13000.00000" pt_clust_8="13000.00000" pt_clust_9="35.83742" pt_clust_10="180.43472"></scales>
<clustering>
<clus scale="   35.837">  2  9  1 -1</clus>
<clus scale="   91.082">  7  8 -1 -1</clus>
<clus scale="   92.948">  5  6 -1 -1</clus>
<clus scale="  134.001">  1  7  2 -1</clus>
<clus scale="  180.435">  2 10  1 -1</clus>
<clus scale="   35.837">  2  5  1 -1</clus>
</clustering>
</event>
<event>
10    3  0.7209067E-005  0.1081100E+03  0.7546771E-02  0.1267983E+00
          1   -1    0    0  503    0 -0.00000000000E+00  0.00000000000E+00  0.42670604032E+03  0.42670604032E+03  0.00000000000E+00 0. -1.
         21   -1    0    0  501  502  0.00000000000E+00 -0.00000000000E+00 -0.12335226615E+03  0.12335226615E+03  0.00000000000E+00 0.  1.
         23    2    1    2    0    0 -0.57838722910E+02  0.33930580554E+02  0.29354267176E+03  0.31478774153E+03  0.91800979894E+02 0.  0.
        -24    2    1    2    0    0  0.45355229435E+02  0.39958210672E+02  0.45575055412E+02  0.11190522520E+03  0.82413216871E+02 0.  0.
         11    1    4    4    0    0  0.39024599530E+02  0.24446964342E+02  0.69091506002E+02  0.83031377417E+02  0.00000000000E+00 0. -1.
        -12    1    4    4    0    0  0.63306299051E+01  0.15511246329E+02 -0.23516450591E+02  0.28873847788E+02  0.00000000000E+00 0.  1.
        -11    1    3    3    0    0 -0.78357553075E+02  0.37147149186E+02  0.18551884296E+03  0.20478539477E+03  0.00000000000E+00 0. -1.
         11    1    3    3    0    0  0.20518830165E+02 -0.32165686316E+01  0.10802382880E+03  0.11000234676E+03  0.00000000000E+00 0.  1.
         21    1    1    2  503  502 -0.19240890189E+02  0.67171469150E+01 -0.30368959320E+02  0.36573290912E+02  0.00000000000E+00 0.  1.
          2    1    1    2  501    0  0.31724383664E+02 -0.80605938141E+02 -0.53949936754E+01  0.86792048825E+02  0.00000000000E+00 0. -1.
<scales pt_clust_5="13000.00000" pt_clust_6="13000.00000" pt_clust_7="13000.00000" pt_clust_8="13000.00000" pt_clust_9="20.37969" pt_clust_10="80.19716"></scales>
<clustering>
<clus scale="   20.380">  2  9  1 -1</clus>
<clus scale="   80.197">  2 10  1 -1</clus>
<clus scale="   82.413">  5  6 -1 -1</clus>
<clus scale="   91.801">  7  8 -1 -1</clus>
<clus scale="  100.261">  2  5  1 -1</clus>
<clus scale="   20.380">  2  5  1 -1</clus>
</clustering>
</event>
<event>
10    3  0.7209067E-005  0.1301583E+03  0.7546771E-02  0.1234194E+00
         21   -1    0    0  501  502  0.00000000000E+00  0.00000000000E+00  0.71703323621E+02  0.71703323621E+02  0.00000000000E+00 0.  1.
          1   -1    0    0  503    0 -0.00000000000E+00 -0.00000000000E+00 -0.61878137470E+03  0.61878137470E+03  0.00000000000E+00 0. -1.
         23    2    1    2    0    0  0.32175764166E+02  0.32199516320E+02 -0.41724122547E+03  0.43631760630E+03  0.11920874417E+03 0.  0.
        -24    2    1    2    0    0 -0.66887890832E+02 -0.30407706957E+02 -0.12272382851E+03  0.17445854875E+03  0.99880070914E+02 0.  0.
         11    1    4    4    0    0 -0.15322810144E+02 -0.13355006167E+02 -0.11822650866E+03  0.11996104389E+03  0.00000000000E+00 0. -1.
        -12    1    4    4    0    0 -0.51565080688E+02 -0.17052700790E+02 -0.44973198498E+01  0.54497504864E+02  0.00000000000E+00 0.  1.
        -13    1    3    3    0    0  0.48677247692E+02 -0.31047020023E+02 -0.13923734391E+03  0.15073297527E+03  0.00000000000E+00 0.  1.
         13    1    3    3    0    0 -0.16501483527E+02  0.63246536343E+02 -0.27800388155E+03  0.28558463102E+03  0.00000000000E+00 0. -1.
         21    1    1    2  503  502  0.39038153896E+02 -0.28336463324E+02  0.79404495553E+01  0.48887455982E+02  0.00000000000E+00 0.  1.
          2    1    1    2  501    0 -0.43260272293E+01  0.26544653962E+02 -0.15053446660E+02  0.30821087292E+02  0.00000000000E+00 0. -1.
<scales pt_clust_5="13000.00000" pt_clust_6="13000.00000" pt_clust_7="13000.00000" pt_clust_8="13000.00000" pt_clust_9="40.62213" pt_clust_10="26.89485"></scales>
<clustering>
<clus scale="   26.895">  1 10  2 -1</clus>
<clus scale="   40.622">  1  9  2 -1</clus>
<clus scale="   99.880">  5  6 -1 -1</clus>
<clus scale="  112.723">  1  5  2 -1</clus>
<clus scale="  119.209">  7  8 -1 -1</clus>
<clus scale="   26.895">  1  5  2 -1</clus>
</clustering>
</event>
<event>
10    3  0.7209067E-005  0.1608968E+03  0.7546771E-02  0.1189474E+00
          1   -1    0    0  503    0 -0.00000000000E+00  0.00000000000E+00  0.19825072786E+03  0.19825072786E+03  0.00000000000E+00 0. -1.
         21   -1    0    0  501  502  0.00000000000E+00 -0.00000000000E+00 -0.22219161770E+03  0.22219161770E+03  0.00000000000E+00 0.  1.
         23    2    1    2    0    0 -0.10390182256E+03  0.92270532382E+02  0.33330340711E+02  0.16997002507E+03  0.92029657912E+02 0.  0.
        -24    2    1    2    0    0  0.94006652436E+02 -0.75374960191E+02 -0.67062072772E+02  0.15973824271E+03  0.80624743426E+02 0.  0.
         13    1    4    4    0    0  0.53653679319E+02 -0.74327453651E+02 -0.13484248048E+02  0.92655882793E+02  0.00000000000E+00 0. -1.
        -14    1    4    4    0    0  0.40352973117E+02 -0.10475065394E+01 -0.53577824725E+02  0.67082359914E+02  0.00000000000E+00 0.  1.
        -11    1    3    3    0    0 -0.29724382589E+02 -0.12474171948E+02 -0.11182611184E+02  0.34120297170E+02  0.00000000000E+00 0. -1.
         11    1    3    3    0    0 -0.74177439968E+02  0.10474470433E+03  0.44512951895E+02  0.13584972790E+03  0.00000000000E+00 0.  1.
         21    1    1    2  503  502 -0.51446025899E+01  0.20341518643E+02 -0.28402895835E+02  0.35312445516E+02  0.00000000000E+00 0.  1.
          2    1    1    2  501    0  0.15039772710E+02 -0.37237090834E+02  0.38193738053E+02  0.55421632270E+02  0.00000000000E+00 0. -1.
<scales pt_clust_5="13000.00000" pt_clust_6="13000.00000" pt_clust_7="13000.00000" pt_clust_8="13000.00000" pt_clust_9="20.98200" pt_clust_10="39.21906"></scales>
<clustering>
<clus scale="   20.982">  2  9  1 -1</clus>
<clus scale="   39.219">  2 10  1 -1</clus>
<clus scale="   80.625">  5  6 -1 -1</clus>
<clus scale="   92.030">  7  8 -1 -1</clus>
<clus scale="  154.657">  2  5  1 -1</clus>
<clus scale="   20.982">  2  5  1 -1</clus>
</clustering>
</event>
<event>
10    3  0.7209067E-005  0.3131906E+03  0.7546771E-02  0.1116521E+00
         21   -1    0    0  501  502  0.00000000000E+00  0.00000000000E+00  0.20485145130E+03  0.20485145130E+03  0.00000000000E+00 0. -1.
          1   -1    0    0  503    0 -0.00000000000E+00 -0.00000000000E+00 -0.80990760189E+03  0.80990760189E+03  0.00000000000E+00 0. -1.
         23    2    1    2    0    0  0.73029027137E+02  0.47740629970E+01 -0.22540985139E+03  0.25389923642E+03  0.91099893902E+02 0.  0.
        -24    2    1    2    0    0  0.91465085569E+02 -0.26203828695E+03 -0.11624207558E+03  0.31123971101E+03  0.79548801804E+02 0.  0.
         11    1    4    4    0    0  0.27024539534E+02 -0.11510488276E+03 -0.96751727230E+01  0.11862996560E+03  0.00000000000E+00 0. -1.
        -12    1    4    4    0    0  0.64440546035E+02 -0.14693340419E+03 -0.10656690286E+03  0.19260974541E+03  0.00000000000E+00 0.  1.
        -11    1    3    3    0    0  0.67834903175E+02  0.41481638818E+02 -0.16157015242E+03  0.18007558025E+03  0.00000000000E+00 0. -1.
         11    1    3    3    0    0  0.51941239626E+01 -0.36707575821E+02 -0.63839698970E+02  0.73823656174E+02  0.00000000000E+00 0.  1.
         21    1    1    2  503  502  0.97365124337E+01 -0.27026653201E+02 -0.86394063168E+01  0.29997983251E+02  0.00000000000E+00 0.  1.
          2    1    1    2  501    0 -0.17423062514E+03  0.28429087715E+03 -0.25476481730E+03  0.41962212251E+03  0.00000000000E+00 0. -1.
<scales pt_clust_5="13000.00000" pt_clust_6="13000.00000" pt_clust_7="13000.00000" pt_clust_8="13000.00000" pt_clust_9="28.72698" pt_clust_10="302.91989"></scales>
<clustering>
<clus scale="   28.727">  1  9  2 -1</clus>
<clus scale="   79.549">  5  6 -1 -1</clus>
<clus scale="   91.100">  7  8 -1 -1</clus>
<clus scale="  117.239">  2  7  1 -1</clus>
<clus scale="  302.920">  1 10  2 -1</clus>
<clus scale="   28.727">  1  5  2 -1</clus>
</clustering>
</event>
<event>
10    3  0.7209067E-005  0.1101993E+03  0.7546771E-02  0.1265114E+00
         21   -1    0    0  503  502  0.00000000000E+00  0.00000000000E+00  0.16327180858E+03  0.16327180858E+03  0.00000000000E+00 0.  1.
         -4   -1    0    0    0  501 -0.00000000000E+00 -0.00000000000E+00 -0.91921775877E+03  0.91921775877E+03  0.00000000000E+00 0.  1.
        -24    2    1    2    0    0 -0.26077117278E+02 -0.58605320667E+02 -0.52497916610E+03  0.53471570799E+03  0.78760166797E+02 0.  0.
         23    2    1    2    0    0  0.68859150846E+02  0.23200483551E+02 -0.28999655880E+03  0.31257836630E+03  0.91254511502E+02 0.  0.
         11    1    3    3    0    0  0.22748330202E+02 -0.40374056987E+02 -0.18240748398E+03  0.18820212861E+03  0.00000000000E+00 0. -1.
        -12    1    3    3    0    0 -0.48825447479E+02 -0.18231263680E+02 -0.34257168213E+03  0.34651357938E+03  0.00000000000E+00 0.  1.
        -13    1    4    4    0    0  0.11886354254E+02 -0.30179155871E+02 -0.45200988152E+02  0.55634487473E+02  0.00000000000E+00 0. -1.
         13    1    4    4    0    0  0.56972796592E+02  0.53379639422E+02 -0.24479557065E+03  0.25694387882E+03  0.00000000000E+00 0.  1.
         21    1    1    2  503  501 -0.28616843062E+02  0.10611277685E+02  0.14314656896E+03  0.14636414563E+03  0.00000000000E+00 0.  1.
         -3    1    1    2    0  502 -0.14165190506E+02  0.24793559431E+02 -0.84116794247E+02  0.88831347427E+02  0.00000000000E+00 0.  1.
<scales pt_clust_5="13000.00000" pt_clust_6="13000.00000" pt_clust_7="13000.00000" pt_clust_8="13000.00000" pt_clust_9="52.85842" pt_clust_10="28.55475"></scales>
<clustering>
<clus scale="   28.555">  1 10  2 -1</clus>
<clus scale="   52.858">  1  9  2 -1</clus>
<clus scale="   78.760">  5  6 -1 -1</clus>
<clus scale="   91.255">  7  8 -1 -1</clus>
<clus scale="  100.098">  2  5  1 -1</clus>
<clus scale="   28.555">  1  5  2 -1</clus>
</clustering>
</event>
<event>
10    3  0.7209067E-005  0.2603903E+03  0.7546771E-02  0.1106909E+00
         21   -1    0    0  501  502  0.00000000000E+00  0.00000000000E+00  0.64638286838E+02  0.64638286838E+02  0.00000000000E+00 0. -1.
          1   -1    0    0  503    0 -0.00000000000E+00 -0.00000000000E+00 -0.11734913037E+04  0.11734913037E+04  0.00000000000E+00 0. -1.
        -24    2    1    2    0    0  0.86407600574E+02 -0.85021215259E+02 -0.28902268303E+03  0.32373997231E+03  0.81108432880E+02 0.  0.
         23    2    1    2    0    0  0.13209831488E+02 -0.14872118413E+02 -0.24032466601E+03  0.25898090743E+03  0.94443029222E+02 0.  0.
         11    1    3    3    0    0  0.71641916559E+02 -0.55354434683E+02 -0.11384617025E+03  0.14545661940E+03  0.00000000000E+00 0. -1.
        -12    1    3    3    0    0  0.14765684015E+02 -0.29666780577E+02 -0.17517651278E+03  0.17828335291E+03  0.00000000000E+00 0.  1.
        -13    1    4    4    0    0  0.26993192292E+02 -0.42082394871E+02 -0.21037173092E+03  0.21623095421E+03  0.00000000000E+00 0. -1.
         13    1    4    4    0    0 -0.13783360804E+02  0.27210276458E+02 -0.29952935081E+02  0.42749953216E+02  0.00000000000E+00 0.  1.
         21    1    1    2  503  502  0.42757875037E+02 -0.15173457671E+02  0.23544619633E+01  0.45431411893E+02  0.00000000000E+00 0.  1.
          2    1    1    2  501    0 -0.14237530710E+03  0.11506679134E+03 -0.58186012979E+03  0.60997729891E+03  0.00000000000E+00 0. -1.
<scales pt_clust_5="13000.00000" pt_clust_6="13000.00000" pt_clust_7="13000.00000" pt_clust_8="13000.00000" pt_clust_9="45.37036" pt_clust_10="168.37585"></scales>
<clustering>
<clus scale="   45.370">  1  9  2 -1</clus>
<clus scale="   81.108">  5  6 -1 -1</clus>
<clus scale="   94.443">  7  8 -1 -1</clus>
<clus scale="   94.572">  5  7 -1 -1</clus>
<clus scale="  168.376">  1 10  2 -1</clus>
<clus scale="   45.370">  1  5  2 -1</clus>
</clustering>
</event>
<event>
10    3  0.7209067E-005  0.1528149E+03  0.7546771E-02  0.1212481E+00
         21   -1    0    0  503  502  0.00000000000E+00  0.00000000000E+00  0.30966619003E+03  0.30966619003E+03  0.00000000000E+00 0. -1.
          1   -1    0    0  502    0 -0.00000000000E+00 -0.00000000000E+00 -0.18434081680E+03  0.18434081680E+03  0.00000000000E+00 0. -1.
        -24    2    1    2    0    0  0.25894421628E+02  0.74955860588E+02 -0.62090823997E+02  0.12597210018E+03  0.75662391529E+02 0.  0.
         23    2    1    2    0    0 -0.76965473962E+01  0.93715836453E+02  0.99869544224E+02  0.16583685540E+03  0.93198937231E+02 0.  0.
         13    1    3    3    0    0  0.31886075150E+02  0.70698648404E+02 -0.77038021836E+02  0.10931549516E+03  0.00000000000E+00 0. -1.
        -14    1    3    3    0    0 -0.59916535214E+01  0.42572121840E+01  0.14947197839E+02  0.16656605018E+02  0.00000000000E+00 0.  1.
        -13    1    4    4    0    0  0.23616232166E+02  0.54201193711E+01  0.58703743133E+02  0.63507744201E+02  0.00000000000E+00 0. -1.
         13    1    4    4    0    0 -0.31312779562E+02  0.88295717082E+02  0.41165801091E+02  0.10232911120E+03  0.00000000000E+00 0.  1.
         21    1    1    2  503  501 -0.27787215791E+02 -0.22498371235E+02  0.18418344117E+02  0.40218670660E+02  0.00000000000E+00 0.  1.
          2    1    1    2  501    0  0.95893415585E+01 -0.14617332581E+03  0.69128308882E+02  0.16197938059E+03  0.00000000000E+00 0. -1.
<scales pt_clust_5="13000.00000" pt_clust_6="13000.00000" pt_clust_7="13000.00000" pt_clust_8="13000.00000" pt_clust_9="32.91306" pt_clust_10="138.21979"></scales>
<clustering>
<clus scale="   32.913">  9 10 -1 -1</clus>
<clus scale="   75.662">  5  6 -1 -1</clus>
<clus scale="   93.199">  7  8 -1 -1</clus>
<clus scale="  109.607">  2  5  1 -1</clus>
<clus scale="  138.220">  1  9  2 -1</clus>
<clus scale="  138.220">  1  5  2 -1</clus>
</clustering>
</event>
<event>
10    3  0.7209067E-005  0.1214140E+03  0.7546771E-02  0.1242273E+00
          1   -1    0    0  503    0 -0.00000000000E+00  0.00000000000E+00  0.60015333402E+03  0.60015333402E+03  0.00000000000E+00 0. -1.
         21   -1    0    0  501  502  0.00000000000E+00 -0.00000000000E+00 -0.20288974653E+03  0.20288974653E+03  0.00000000000E+00 0. -1.
         23    2    1    2    0    0 -0.49329581077E+02 -0.43104192413E+02  0.30677160584E+03  0.32686958811E+03  0.91888685412E+02 0.  0.
        -24    2    1    2    0    0  0.88789317470E+02  0.66051997455E+02  0.19702105125E+03  0.24216396876E+03  0.87061379862E+02 0.  0.
         11    1    4    4    0    0  0.27218778783E+02  0.55814919374E+02  0.15484960740E+03  0.16683695051E+03  0.00000000000E+00 0. -1.
        -12    1    4    4    0    0  0.61570538687E+02  0.10237078082E+02  0.42171443854E+02  0.75327018251E+02  0.00000000000E+00 0.  1.
        -13    1    3    3    0    0 -0.14714246845E+02 -0.68193426133E+02  0.17777809968E+03  0.19097619001E+03  0.00000000000E+00 0.  1.
         13    1    3    3    0    0 -0.34615334232E+02  0.25089233720E+02  0.12899350616E+03  0.13589339809E+03  0.00000000000E+00 0. -1.
         21    1    1    2  503  502 -0.86495842708E+01 -0.64863673284E+02 -0.15163761149E+03  0.16515470516E+03  0.00000000000E+00 0. -1.
          2    1    1    2  501    0 -0.30810152122E+02  0.41915868242E+02  0.45108541881E+02  0.68854818531E+02  0.00000000000E+00 0. -1.
<scales pt_clust_5="13000.00000" pt_clust_6="13000.00000" pt_clust_7="13000.00000" pt_clust_8="13000.00000" pt_clust_9="45.56185" pt_clust_10="52.02123"></scales>
<clustering>
<clus scale="   52.021">  2 10  1 -1</clus>
<clus scale="   45.562">  2  9  1 -1</clus>
<clus scale="   87.061">  5  6 -1 -1</clus>
<clus scale="   91.889">  7  8 -1 -1</clus>
<clus scale="  117.803">  2  5  1 -1</clus>
<clus scale="   52.021">  2  5  1 -1</clus>
</clustering>
</event>
<event>
10    3  0.7209067E-005  0.1430878E+03  0.7546771E-02  0.1234524E+00
         21   -1    0    0  501  502  0.00000000000E+00  0.00000000000E+00  0.47710089655E+03  0.47710089655E+03  0.00000000000E+00 0. -1.
          1   -1    0    0  503    0 -0.00000000000E+00 -0.00000000000E+00 -0.10031273901E+03  0.10031273901E+03  0.00000000000E+00 0. -1.
        -24    2    1    2    0    0 -0.25454697079E+02  0.12671152453E+02  0.20861244856E+02  0.87305218066E+02  0.79865573665E+02 0.  0.
         23    2    1    2    0    0 -0.60268146796E+02  0.71239964806E+02  0.89021050499E+02  0.15758353280E+03  0.90556282349E+02 0.  0.
         13    1    3    3    0    0 -0.35702878181E+02  0.33544565462E+02 -0.86359522396E+01  0.49744477618E+02  0.00000000000E+00 0. -1.
        -14    1    3    3    0    0  0.10248181102E+02 -0.20873413009E+02  0.29497197095E+02  0.37560740448E+02  0.00000000000E+00 0.  1.
        -13    1    4    4    0    0 -0.59894100975E+01  0.54675604849E+02  0.84274493501E+02  0.10063540656E+03  0.00000000000E+00 0. -1.
         13    1    4    4    0    0 -0.54278736699E+02  0.16564359957E+02  0.47465569985E+01  0.56948126236E+02  0.00000000000E+00 0.  1.
         21    1    1    2  503  502  0.57673879938E+02  0.35599187732E+02  0.53566099753E+02  0.86388110507E+02  0.00000000000E+00 0. -1.
          2    1    1    2  501    0  0.28048963937E+02 -0.11951030499E+03  0.21333976243E+03  0.24613677420E+03  0.00000000000E+00 0. -1.
<scales pt_clust_5="13000.00000" pt_clust_6="13000.00000" pt_clust_7="13000.00000" pt_clust_8="13000.00000" pt_clust_9="67.77594" pt_clust_10="110.78667"></scales>
<clustering>
<clus scale="   67.776">  2  9  1 -1</clus>
<clus scale="   79.866">  5  6 -1 -1</clus>
<clus scale="   84.272">  2  5  1 -1</clus>
<clus scale="   90.556">  7  8 -1 -1</clus>
<clus scale="  110.787">  1 10  2 -1</clus>
<clus scale="  110.787">  1  5  2 -1</clus>
</clustering>
</event>
<event>
10    3  0.7209067E-005  0.1179426E+03  0.7546771E-02  0.1252794E+00
         21   -1    0    0  503  502  0.00000000000E+00  0.00000000000E+00  0.60528693721E+03  0.60528693721E+03  0.00000000000E+00 0. -1.
          1   -1    0    0  502    0 -0.00000000000E+00 -0.00000000000E+00 -0.11414670339E+03  0.11414670339E+03  0.00000000000E+00 0. -1.
        -24    2    1    2    0    0  0.52421072564E+02  0.44150674042E+02 -0.21228934109E+02  0.10236488336E+03  0.73011306210E+02 0.  0.
         23    2    1    2    0    0 -0.29837304423E+02 -0.12823165323E+03  0.24209771313E+03  0.29044288679E+03  0.91717752691E+02 0.  0.
         13    1    3    3    0    0  0.50456280883E+02  0.14200495415E+02 -0.40894217091E+02  0.66481782031E+02  0.00000000000E+00 0. -1.
        -14    1    3    3    0    0  0.19647916808E+01  0.29950178626E+02  0.19665282982E+02  0.35883101327E+02  0.00000000000E+00 0.  1.
        -11    1    4    4    0    0  0.28069203721E+02 -0.11995792356E+02  0.49474862165E+02  0.58133821636E+02  0.00000000000E+00 0. -1.
         11    1    4    4    0    0 -0.57906508144E+02 -0.11623586088E+03  0.19262285096E+03  0.23230906515E+03  0.00000000000E+00 0.  1.
         21    1    1    2  503  501 -0.71046282919E+02  0.12877626117E+02  0.20846099708E+03  0.22061141148E+03  0.00000000000E+00 0. -1.
          2    1    1    2  501    0  0.48462514778E+02  0.71203353075E+02  0.61810457725E+02  0.10601445898E+03  0.00000000000E+00 0. -1.
<scales pt_clust_5="13000.00000" pt_clust_6="13000.00000" pt_clust_7="13000.00000" pt_clust_8="13000.00000" pt_clust_9="72.20393" pt_clust_10="81.08014"></scales>
<clustering>
<clus scale="   72.204">  1  9  2 -1</clus>
<clus scale="   73.011">  5  6 -1 -1</clus>
<clus scale="   81.080">  1 10  2 -1</clus>
<clus scale="   91.718">  7  8 -1 -1</clus>
<clus scale="  104.062">  2  5  1 -1</clus>
<clus scale="   72.204">  1  5  2 -1</clus>
</clustering>
</event>
<event>
10    3  0.7209067E-005  0.9109997E+02  0.7546771E-02  0.1305758E+00
          1   -1    0    0  503    0 -0.00000000000E+00  0.00000000000E+00  0.14156114806E+03  0.14156114806E+03  0.00000000000E+00 0. -1.
         21   -1    0    0  501  502  0.00000000000E+00 -0.00000000000E+00 -0.28812267205E+03  0.28812267205E+03  0.00000000000E+00 0. -1.
        -24    2    1    2    0    0  0.13103198971E+02 -0.24047495916E+02  0.92120107628E+01  0.85519454648E+02  0.80490621179E+02 0.  0.
         23    2    1    2    0    0  0.24128134969E+02  0.52854915709E+01 -0.30728529733E+02  0.97785481289E+02  0.89485498787E+02 0.  0.
         11    1    3    3    0    0 -0.31454341993E+02 -0.14590455850E+02 -0.99950776967E+01  0.36085434877E+02  0.00000000000E+00 0. -1.
        -12    1    3    3    0    0  0.44557540964E+02 -0.94570400661E+01  0.19207088460E+02  0.49434019770E+02  0.00000000000E+00 0.  1.
        -11    1    4    4    0    0 -0.30598577237E+02 -0.26549890183E+01  0.61413989072E+01  0.31321536937E+02  0.00000000000E+00 0.  1.
         11    1    4    4    0    0  0.54726712206E+02  0.79404805892E+01 -0.36869928640E+02  0.66463944352E+02  0.00000000000E+00 0. -1.
         21    1    1    2  503  502  0.75778766550E+02 -0.76468441789E+01 -0.10323885339E+03  0.12829324431E+03  0.00000000000E+00 0. -1.
          2    1    1    2  501    0 -0.11301010049E+03  0.26408848524E+02 -0.21806151627E+02  0.11808563986E+03  0.00000000000E+00 0. -1.
<scales pt_clust_5="13000.00000" pt_clust_6="13000.00000" pt_clust_7="13000.00000" pt_clust_8="13000.00000" pt_clust_9="76.16361" pt_clust_10="85.49531"></scales>
<clustering>
<clus scale="   76.164">  2  9  1 -1</clus>
<clus scale="   80.491">  5  6 -1 -1</clus>
<clus scale="   85.495">  2 10  1 -1</clus>
<clus scale="   82.282">  1  5  2 -1</clus>
<clus scale="   89.485">  7  8 -1 -1</clus>
<clus scale="   76.164">  2  5  1 -1</clus>
</clustering>
</event>
<event>
10    3  0.7209067E-005  0.9587368E+02  0.7546771E-02  0.1294556E+00
         21   -1    0    0  503  502  0.00000000000E+00  0.00000000000E+00  0.13175741825E+03  0.13175741825E+03  0.00000000000E+00 0. -1.
          1   -1    0    0  502    0 -0.00000000000E+00 -0.00000000000E+00 -0.39832753988E+03  0.39832753988E+03  0.00000000000E+00 0. -1.
         23    2    1    2    0    0  0.22293084747E+02  0.24997567811E+02 -0.25910348757E+03  0.27621731727E+03  0.89663420991E+02 0.  0.
        -24    2    1    2    0    0 -0.76155674053E+02  0.30901065086E+02  0.20916251454E+02  0.11649370098E+03  0.79866953613E+02 0.  0.
         11    1    4    4    0    0 -0.68801936878E+02  0.32921792545E+02 -0.16727170446E+02  0.78085524739E+02  0.00000000000E+00 0. -1.
        -12    1    4    4    0    0 -0.73537371751E+01 -0.20207274595E+01  0.37643421900E+02  0.38408176242E+02  0.00000000000E+00 0.  1.
        -11    1    3    3    0    0 -0.27666239313E+02  0.35132480469E+02 -0.12390246346E+03  0.13172521563E+03  0.00000000000E+00 0.  1.
         11    1    3    3    0    0  0.49959324060E+02 -0.10134912657E+02 -0.13520102411E+03  0.14449210164E+03  0.00000000000E+00 0. -1.
         21    1    1    2  503  501  0.26514184977E+02  0.33973348386E+01  0.36552604602E+02  0.45283957338E+02  0.00000000000E+00 0.  1.
          2    1    1    2  501    0  0.27348404329E+02 -0.59295967736E+02 -0.64935490118E+02  0.92089982549E+02  0.00000000000E+00 0. -1.
<scales pt_clust_5="13000.00000" pt_clust_6="13000.00000" pt_clust_7="13000.00000" pt_clust_8="13000.00000" pt_clust_9="26.73095" pt_clust_10="66.60672"></scales>
<clustering>
<clus scale="   26.731">  1  9  2 -1</clus>
<clus scale="   66.607">  1 10  2 -1</clus>
<clus scale="   79.867">  5  6 -1 -1</clus>
<clus scale="   86.781">  1  5  2 -1</clus>
<clus scale="   89.663">  7  8 -1 -1</clus>
<clus scale="   26.731">  1  5  2 -1</clus>
</clustering>
</event>
<event>
10    3  0.7209067E-005  0.1155326E+03  0.7546771E-02  0.1253533E+00
         21   -1    0    0  501  502  0.00000000000E+00  0.00000000000E+00  0.38217951988E+03  0.38217951988E+03  0.00000000000E+00 0.  1.
          1   -1    0    0  503    0 -0.00000000000E+00 -0.00000000000E+00 -0.44259800500E+03  0.44259800500E+03  0.00000000000E+00 0. -1.
         23    2    1    2    0    0  0.14905193403E+02  0.61319625860E+02 -0.20426206293E+03  0.23103074116E+03  0.87578260449E+02 0.  0.
        -24    2    1    2    0    0 -0.10260598917E+02 -0.17605236305E+03  0.21716958946E+02  0.19441142049E+03  0.78895245002E+02 0.  0.
         13    1    4    4    0    0  0.18731410696E+02 -0.12943737600E+03 -0.97295022046E+01  0.13114710544E+03  0.00000000000E+00 0. -1.
        -14    1    4    4    0    0 -0.28992009613E+02 -0.46614987047E+02  0.31446461151E+02  0.63264315042E+02  0.00000000000E+00 0.  1.
        -13    1    3    3    0    0  0.24207341350E+02  0.81756887063E+02 -0.16750219059E+03  0.18795522820E+03  0.00000000000E+00 0.  1.
         13    1    3    3    0    0 -0.93021479471E+01 -0.20437261204E+02 -0.36759872343E+02  0.43075512958E+02  0.00000000000E+00 0. -1.
         21    1    1    2  503  502  0.23822940495E+02  0.62800459490E+02  0.24975860204E+03  0.25863253759E+03  0.00000000000E+00 0.  1.
          2    1    1    2  501    0 -0.28467534981E+02  0.51932277701E+02 -0.12763198317E+03  0.14070282564E+03  0.00000000000E+00 0. -1.
<scales pt_clust_5="13000.00000" pt_clust_6="13000.00000" pt_clust_7="13000.00000" pt_clust_8="13000.00000" pt_clust_9="98.04870" pt_clust_10="59.22302"></scales>
<clustering>
<clus scale="   59.223">  1 10  2 -1</clus>
<clus scale="   78.895">  5  6 -1 -1</clus>
<clus scale="   87.578">  7  8 -1 -1</clus>
<clus scale="   98.049">  1  9  2 -1</clus>
<clus scale="  109.098">  1  5  2 -1</clus>
<clus scale="   59.223">  1  5  2 -1</clus>
</clustering>
</event>
<event>
10    3  0.7209067E-005  0.8988444E+02  0.7546771E-02  0.1307099E+00
          1   -1    0    0  502    0 -0.00000000000E+00  0.00000000000E+00  0.33889011380E+03  0.33889011380E+03  0.00000000000E+00 0. -1.
         21   -1    0    0  503  502  0.00000000000E+00 -0.00000000000E+00 -0.12933021252E+03  0.12933021252E+03  0.00000000000E+00 0. -1.
         23    2    1    2    0    0  0.40585889025E+01 -0.25508103051E+02  0.16806878231E+03  0.19136817767E+03  0.87792530271E+02 0.  0.
        -24    2    1    2    0    0 -0.49666713571E+02 -0.54784767012E+02  0.10605144115E+03  0.15274599104E+03  0.81340497137E+02 0.  0.
         13    1    4    4    0    0 -0.69304516569E+02 -0.32948136124E+02  0.93098397552E+02  0.12064827938E+03  0.00000000000E+00 0. -1.
        -14    1    4    4    0    0  0.19637802999E+02 -0.21836630889E+02  0.12953043603E+02  0.32097711659E+02  0.00000000000E+00 0.  1.
        -11    1    3    3    0    0 -0.28366785882E+02  0.12371409227E+02  0.11263157081E+03  0.11680580915E+03  0.00000000000E+00 0. -1.
         11    1    3    3    0    0  0.32425374784E+02 -0.37879512278E+02  0.55437211500E+02  0.74562368520E+02  0.00000000000E+00 0.  1.
         21    1    1    2  503  501 -0.10458491872E+02  0.24680516122E+02 -0.19883729072E+02  0.33374700150E+02  0.00000000000E+00 0. -1.
          2    1    1    2  501    0  0.56066616540E+02  0.55612353942E+02 -0.44676593109E+02  0.90731457461E+02  0.00000000000E+00 0. -1.
<scales pt_clust_5="13000.00000" pt_clust_6="13000.00000" pt_clust_7="13000.00000" pt_clust_8="13000.00000" pt_clust_9="26.80500" pt_clust_10="87.09188"></scales>
<clustering>
<clus scale="   26.805">  2  9  1 -1</clus>
<clus scale="   81.340">  5  6 -1 -1</clus>
<clus scale="   87.092">  2 10  1 -1</clus>
<clus scale="   83.594">  2  5  1 -1</clus>
<clus scale="   87.793">  7  8 -1 -1</clus>
<clus scale="   26.805">  2  5  1 -1</clus>
</clustering>
</event>
<event>
10    3  0.7209067E-005  0.1040515E+03  0.7546771E-02  0.1276779E+00
          1   -1    0    0  503    0 -0.00000000000E+00  0.00000000000E+00  0.75039486756E+02  0.75039486756E+02  0.00000000000E+00 0. -1.
         21   -1    0    0  501  502  0.00000000000E+00 -0.00000000000E+00 -0.54527744841E+03  0.54527744841E+03  0.00000000000E+00 0. -1.
         23    2    1    2    0    0  0.35014805669E+02  0.40234191492E+02 -0.32347528337E+02  0.11110232193E+03  0.91937677628E+02 0.  0.
        -24    2    1    2    0    0 -0.55598264225E+02  0.12126362134E+02 -0.22924212510E+03  0.24985432485E+03  0.81467883736E+02 0.  0.
         13    1    4    4    0    0 -0.37374317323E+02  0.46493167380E+02 -0.12268179680E+03  0.13641582560E+03  0.00000000000E+00 0. -1.
        -14    1    4    4    0    0 -0.18223946902E+02 -0.34366805245E+02 -0.10656032830E+03  0.11343849925E+03  0.00000000000E+00 0.  1.
        -13    1    3    3    0    0 -0.16902490453E+02 -0.17559839850E+02 -0.21801639814E+02  0.32700973344E+02  0.00000000000E+00 0.  1.
         13    1    3    3    0    0  0.51917296122E+02  0.57794031342E+02 -0.10545888523E+02  0.78401348586E+02  0.00000000000E+00 0. -1.
         21    1    1    2  503  502  0.94051698332E+00 -0.28818175210E+02 -0.22345767198E+03  0.22531023714E+03  0.00000000000E+00 0. -1.
          2    1    1    2  501    0  0.19642941573E+02 -0.23542378417E+02  0.14809363760E+02  0.34050051250E+02  0.00000000000E+00 0. -1.
<scales pt_clust_5="13000.00000" pt_clust_6="13000.00000" pt_clust_7="13000.00000" pt_clust_8="13000.00000" pt_clust_9="28.83352" pt_clust_10="31.34684"></scales>
<clustering>
<clus scale="   28.834">  2  9  1 -1</clus>
<clus scale="   31.347">  2 10  1 -1</clus>
<clus scale="   81.468">  5  6 -1 -1</clus>
<clus scale="   91.938">  7  8 -1 -1</clus>
<clus scale="   94.927">  2  5  1 -1</clus>
<clus scale="   28.834">  2  5  1 -1</clus>
</clustering>
</event>
<event>
10    3  0.7209067E-005  0.1015406E+03  0.7546771E-02  0.1280124E+00
         21   -1    0    0  501  502  0.00000000000E+00  0.00000000000E+00  0.11085880849E+03  0.11085880849E+03  0.00000000000E+00 0.  1.
          1   -1    0    0  503    0 -0.00000000000E+00 -0.00000000000E+00 -0.30039348251E+03  0.30039348251E+03  0.00000000000E+00 0. -1.
         23    2    1    2    0    0 -0.41575935111E+02  0.32569807022E+02 -0.23040205974E+02  0.10224236434E+03  0.84458861378E+02 0.  0.
        -24    2    1    2    0    0  0.50962115773E+02 -0.33664355268E+02  0.39253794105E+01  0.98752249261E+02  0.77499497230E+02 0.  0.
         11    1    4    4    0    0  0.20585001700E+02 -0.51483060728E+02 -0.16741790638E+02  0.57918351070E+02  0.00000000000E+00 0. -1.
        -12    1    4    4    0    0  0.30377114072E+02  0.17818705460E+02  0.20667170049E+02  0.40833898191E+02  0.00000000000E+00 0.  1.
        -13    1    3    3    0    0  0.26054340176E+02  0.47716101392E+01 -0.57018675652E+01  0.27094431144E+02  0.00000000000E+00 0. -1.
         13    1    3    3    0    0 -0.67630275286E+02  0.27798196883E+02 -0.17338338409E+02  0.75147933199E+02  0.00000000000E+00 0.  1.
         21    1    1    2  503  502 -0.55771442512E+01  0.29721219259E+02  0.65548309619E+01  0.30942223921E+02  0.00000000000E+00 0.  1.
          2    1    1    2  501    0 -0.38090364105E+01 -0.28626671013E+02 -0.17697467842E+03  0.17931545347E+03  0.00000000000E+00 0. -1.
<scales pt_clust_5="13000.00000" pt_clust_6="13000.00000" pt_clust_7="13000.00000" pt_clust_8="13000.00000" pt_clust_9="25.59746" pt_clust_10="28.87899"></scales>
<clustering>
<clus scale="   28.879">  1 10  2 -1</clus>
<clus scale="   25.597">  1  9  2 -1</clus>
<clus scale="   77.499">  5  6 -1 -1</clus>
<clus scale="   84.459">  7  8 -1 -1</clus>
<clus scale="   95.830">  1  5  2 -1</clus>
<clus scale="   28.879">  1  5  2 -1</clus>
</clustering>
</event>
<event>
10    3  0.7209067E-005  0.1426943E+03  0.7546771E-02  0.1236777E+00
         21   -1    0    0  501  502  0.00000000000E+00  0.00000000000E+00  0.62736877706E+02  0.62736877706E+02  0.00000000000E+00 0. -1.
          1   -1    0    0  503    0 -0.00000000000E+00 -0.00000000000E+00 -0.10729546313E+04  0.10729546313E+04  0.00000000000E+00 0. -1.
        -24    2    1    2    0    0 -0.17049566408E+02  0.12949168479E+02 -0.32344624497E+03  0.33375585863E+03  0.79480381896E+02 0.  0.
         23    2    1    2    0    0 -0.82410440591E+02  0.90798517835E+02 -0.23114982824E+03  0.27738837347E+03  0.92077223460E+02 0.  0.
         13    1    3    3    0    0  0.17395378845E+02  0.33674094872E+02 -0.10476003113E+03  0.11140560126E+03  0.00000000000E+00 0. -1.
        -14    1    3    3    0    0 -0.34444945254E+02 -0.20724926393E+02 -0.21868621384E+03  0.22235025737E+03  0.00000000000E+00 0.  1.
        -13    1    4    4    0    0 -0.84668969560E+01  0.77710131819E+02 -0.12237090723E+03  0.14520740982E+03  0.00000000000E+00 0.  1.
         13    1    4    4    0    0 -0.73943543635E+02  0.13088386016E+02 -0.10877892102E+03  0.13218096365E+03  0.00000000000E+00 0. -1.
         21    1    1    2  503  502  0.50875864757E+02 -0.69082765922E+02 -0.24375227183E+02  0.89190435936E+02  0.00000000000E+00 0. -1.
          2    1    1    2  501    0  0.48584142242E+02 -0.34664920391E+02 -0.43124645323E+03  0.43535684100E+03  0.00000000000E+00 0. -1.
<scales pt_clust_5="13000.00000" pt_clust_6="13000.00000" pt_clust_7="13000.00000" pt_clust_8="13000.00000" pt_clust_9="109.01125" pt_clust_10="59.68316"></scales>
<clustering>
<clus scale="   59.683">  1 10  2 -1</clus>
<clus scale="   79.480">  5  6 -1 -1</clus>
<clus scale="   81.143">  2  5  1 -1</clus>
<clus scale="   92.077">  7  8 -1 -1</clus>
<clus scale="  109.011">  1  9  2 -1</clus>
<clus scale="   59.683">  1  5  2 -1</clus>
</clustering>
</event>
<event>
10    3  0.7209067E-005  0.3492302E+03  0.7546771E-02  0.1098689E+00
          1   -1    0    0  502    0 -0.00000000000E+00  0.00000000000E+00  0.17878581775E+04  0.17878581775E+04  0.00000000000E+00 0. -1.
         21   -1    0    0  503  502  0.00000000000E+00 -0.00000000000E+00 -0.13108909913E+03  0.13108909913E+03  0.00000000000E+00 0. -1.
        -24    2    1    2    0    0  0.10009959190E+02  0.96060331693E+02  0.41873277406E+03  0.43896781776E+03  0.89598115768E+02 0.  0.
         23    2    1    2    0    0 -0.24298039147E+03  0.16537674116E+03  0.69046996747E+03  0.75599668425E+03  0.91614810342E+02 0.  0.
         11    1    3    3    0    0  0.33986871005E+02  0.10159770287E+03  0.33985873536E+03  0.35634416037E+03  0.00000000000E+00 0. -1.
        -12    1    3    3    0    0 -0.23976911815E+02 -0.55373711765E+01  0.78874038695E+02  0.82623657386E+02  0.00000000000E+00 0.  1.
        -13    1    4    4    0    0 -0.11506200449E+03  0.86752533396E+02  0.22760285099E+03  0.26938508627E+03  0.00000000000E+00 0. -1.
         13    1    4    4    0    0 -0.12791838698E+03  0.78624207760E+02  0.46286711647E+03  0.48661159798E+03  0.00000000000E+00 0.  1.
         21    1    1    2  503  501 -0.22831292533E+02  0.25528910594E+02 -0.19106885568E+02  0.39218188012E+02  0.00000000000E+00 0.  1.
          2    1    1    2  501    0  0.25580172481E+03 -0.28696598344E+03  0.56667322244E+03  0.68476458663E+03  0.00000000000E+00 0. -1.
<scales pt_clust_5="13000.00000" pt_clust_6="13000.00000" pt_clust_7="13000.00000" pt_clust_8="13000.00000" pt_clust_9="34.24899" pt_clust_10="336.99922"></scales>
<clustering>
<clus scale="   34.249">  2  9  1 -1</clus>
<clus scale="   89.598">  5  6 -1 -1</clus>
<clus scale="   91.615">  7  8 -1 -1</clus>
<clus scale="  133.449">  1  5  2 -1</clus>
<clus scale="  336.999">  2 10  1 -1</clus>
<clus scale="   34.249">  2  5  1 -1</clus>
</clustering>
</event>
<event>
10    3  0.7209067E-005  0.2752514E+03  0.7546771E-02  0.1139229E+00
          1   -1    0    0  502    0 -0.00000000000E+00  0.00000000000E+00  0.18734068463E+03  0.18734068463E+03  0.00000000000E+00 0. -1.
         21   -1    0    0  503  502  0.00000000000E+00 -0.00000000000E+00 -0.98951433797E+03  0.98951433797E+03  0.00000000000E+00 0. -1.
        -24    2    1    2    0    0  0.36031748087E+02  0.42162817955E+02  0.27074218034E+02  0.10104934026E+03  0.80012285288E+02 0.  0.
         23    2    1    2    0    0 -0.29653041373E+03 -0.11431517481E+03 -0.32772266700E+03  0.46522224085E+03  0.89617751891E+02 0.  0.
         11    1    3    3    0    0  0.19079572117E+02 -0.13261505595E+02  0.35554081026E+02  0.42473406744E+02  0.00000000000E+00 0. -1.
        -12    1    3    3    0    0  0.16952175970E+02  0.55424323550E+02 -0.84798629922E+01  0.58575933518E+02  0.00000000000E+00 0.  1.
        -11    1    4    4    0    0 -0.60047233440E+02 -0.21444928721E+02 -0.12450209041E+03  0.13987968305E+03  0.00000000000E+00 0.  1.
         11    1    4    4    0    0 -0.23648318029E+03 -0.92870246090E+02 -0.20322057659E+03  0.32534255780E+03  0.00000000000E+00 0. -1.
         21    1    1    2  503  501  0.56565776192E+02  0.33893323568E+01 -0.33150589192E+03  0.33631433360E+03  0.00000000000E+00 0.  1.
          2    1    1    2  501    0  0.20393288945E+03  0.68763024499E+02 -0.17001931245E+03  0.27426910789E+03  0.00000000000E+00 0. -1.
<scales pt_clust_5="13000.00000" pt_clust_6="13000.00000" pt_clust_7="13000.00000" pt_clust_8="13000.00000" pt_clust_9="56.66723" pt_clust_10="260.25386"></scales>
<clustering>
<clus scale="   56.667">  2  9  1 -1</clus>
<clus scale="   80.012">  5  6 -1 -1</clus>
<clus scale="   89.618">  7  8 -1 -1</clus>
<clus scale="   98.662">  1  5  2 -1</clus>
<clus scale="  260.254">  2 10  1 -1</clus>
<clus scale="   56.667">  2  5  1 -1</clus>
</clustering>
</event>
<event>
10    3  0.7209067E-005  0.1776735E+03  0.7546771E-02  0.1171716E+00
         21   -1    0    0  501  502  0.00000000000E+00  0.00000000000E+00  0.53647514130E+03  0.53647514130E+03  0.00000000000E+00 0. -1.
          1   -1    0    0  503    0 -0.00000000000E+00 -0.00000000000E+00 -0.37289793834E+03  0.37289793834E+03  0.00000000000E+00 0. -1.
         23    2    1    2    0    0  0.11408288809E+03  0.11507727491E+03 -0.29504769221E+03  0.34878150816E+03  0.91311090262E+02 0.  0.
        -24    2    1    2    0    0 -0.12609699740E+03 -0.15027873554E+02  0.98476153485E+02  0.17855067706E+03  0.77823529440E+02 0.  0.
         13    1    4    4    0    0 -0.87958442794E+02  0.26652412113E+02  0.53558641564E+02  0.10637465307E+03  0.00000000000E+00 0. -1.
        -14    1    4    4    0    0 -0.38138554608E+02 -0.41680285666E+02  0.44917511921E+02  0.72176023983E+02  0.00000000000E+00 0.  1.
        -13    1    3    3    0    0  0.14523059606E+02  0.42076758991E+02 -0.23158737153E+02  0.50176687954E+02  0.00000000000E+00 0.  1.
         13    1    3    3    0    0  0.99559828481E+02  0.73000515918E+02 -0.27188895505E+03  0.29860482021E+03  0.00000000000E+00 0. -1.
         21    1    1    2  503  502  0.34444480582E+02 -0.12177010846E+02  0.11442095689E+03  0.12011185292E+03  0.00000000000E+00 0. -1.
          2    1    1    2  501    0 -0.22430371267E+02 -0.87872390510E+02  0.24572778479E+03  0.26192904151E+03  0.00000000000E+00 0. -1.
<scales pt_clust_5="13000.00000" pt_clust_6="13000.00000" pt_clust_7="13000.00000" pt_clust_8="13000.00000" pt_clust_9="36.53357" pt_clust_10="95.25851"></scales>
<clustering>
<clus scale="   36.534">  1  9  2 -1</clus>
<clus scale="   77.824">  5  6 -1 -1</clus>
<clus scale="   91.311">  7  8 -1 -1</clus>
<clus scale="   95.259">  1 10  2 -1</clus>
<clus scale="  171.133">  1  5  2 -1</clus>
<clus scale="   36.534">  1  5  2 -1</clus>
</clustering>
</event>
<event>
10    3  0.7209067E-005  0.2879027E+03  0.7546771E-02  0.1091807E+00
         -2   -1    0    0    0  501 -0.00000000000E+00  0.00000000000E+00  0.13886810249E+04  0.13886810249E+04  0.00000000000E+00 0.  1.
         21   -1    0    0  503  502  0.00000000000E+00 -0.00000000000E+00 -0.20250942833E+03  0.20250942833E+03  0.00000000000E+00 0.  1.
        -24    2    1    2    0    0 -0.19952842879E+03  0.12698242769E+03  0.60447133711E+03  0.65423003264E+03  0.81824246911E+02 0.  0.
         23    2    1    2    0    0  0.33850993371E+03 -0.23303986243E+03  0.38158981544E+03  0.56811246366E+03  0.90798851384E+02 0.  0.
         11    1    3    3    0    0 -0.10814010058E+03  0.59635989908E+02  0.41856877679E+03  0.43640640869E+03  0.00000000000E+00 0. -1.
        -12    1    3    3    0    0 -0.91388328220E+02  0.67346437780E+02  0.18590256033E+03  0.21782362395E+03  0.00000000000E+00 0.  1.
        -13    1    4    4    0    0  0.24928764629E+03 -0.16606381674E+03  0.32850295714E+03  0.44456238558E+03  0.00000000000E+00 0.  1.
         13    1    4    4    0    0  0.89222287417E+02 -0.66976045688E+02  0.53086858301E+02  0.12355007807E+03  0.00000000000E+00 0. -1.
         21    1    1    2  503  501 -0.14199800264E+03  0.80597444641E+02 -0.38106853056E+01  0.16332146876E+03  0.00000000000E+00 0.  1.
         -1    1    1    2    0  502  0.30164977238E+01  0.25459990099E+02  0.20392112928E+03  0.20552648812E+03  0.00000000000E+00 0.  1.
<scales pt_clust_5="13000.00000" pt_clust_6="13000.00000" pt_clust_7="13000.00000" pt_clust_8="13000.00000" pt_clust_9="167.68292" pt_clust_10="25.63808"></scales>
<clustering>
<clus scale="   25.638">  2 10  1 -1</clus>
<clus scale="   81.824">  5  6 -1 -1</clus>
<clus scale="   90.799">  7  8 -1 -1</clus>
<clus scale="  167.683">  2  9  1 -1</clus>
<clus scale="  285.199">  1  5  2 -1</clus>
<clus scale="   25.638">  2  5  1 -1</clus>
</clustering>
</event>
<event>
10    3  0.7209067E-005  0.1024608E+03  0.7546771E-02  0.1281107E+00
          1   -1    0    0  503    0 -0.00000000000E+00  0.00000000000E+00  0.89886441972E+03  0.89886441972E+03  0.00000000000E+00 0. -1.
         21   -1    0    0  501  502  0.00000000000E+00 -0.00000000000E+00 -0.34106853223E+03  0.34106853223E+03  0.00000000000E+00 0. -1.
        -24    2    1    2    0    0  0.25215069554E+02  0.35308782055E+02  0.79024782403E+03  0.79556902237E+03  0.80968735676E+02 0.  0.
         23    2    1    2    0    0 -0.70734939016E+02  0.14438557807E+02  0.45791653214E+02  0.12642161752E+03  0.93132412855E+02 0.  0.
         11    1    3    3    0    0 -0.20233029688E+02  0.63056788634E+01  0.66040684538E+02  0.69357833664E+02  0.00000000000E+00 0. -1.
        -12    1    3    3    0    0  0.45448099242E+02  0.29003103191E+02  0.72420713949E+03  0.72621118871E+03  0.00000000000E+00 0.  1.
        -13    1    4    4    0    0 -0.66910146065E+02 -0.28210599541E+02  0.40853366320E+02  0.83317483835E+02  0.00000000000E+00 0.  1.
         13    1    4    4    0    0 -0.38247929507E+01  0.42649157348E+02  0.49382868941E+01  0.43104133689E+02  0.00000000000E+00 0. -1.
         21    1    1    2  503  502  0.31067709645E+01 -0.39846313722E+02 -0.27082909923E+03  0.27376227230E+03  0.00000000000E+00 0. -1.
          2    1    1    2  501    0  0.42413098497E+02 -0.99010261390E+01 -0.74144905209E+01  0.44180039751E+02  0.00000000000E+00 0. -1.
<scales pt_clust_5="13000.00000" pt_clust_6="13000.00000" pt_clust_7="13000.00000" pt_clust_8="13000.00000" pt_clust_9="39.96725" pt_clust_10="50.16465"></scales>
<clustering>
<clus scale="   39.967">  2  9  1 -1</clus>
<clus scale="   50.165">  2 10  1 -1</clus>
<clus scale="   80.969">  5  6 -1 -1</clus>
<clus scale="   91.545">  1  5  2 -1</clus>
<clus scale="   93.132">  7  8 -1 -1</clus>
<clus scale="   39.967">  2  5  1 -1</clus>
</clustering>
</event>
<event>
10    3  0.7209067E-005  0.1985254E+03  0.7546771E-02  0.1176123E+00
          1   -1    0    0  502    0 -0.00000000000E+00  0.00000000000E+00  0.16681830602E+04  0.16681830602E+04  0.00000000000E+00 0. -1.
         21   -1    0    0  503  502  0.00000000000E+00 -0.00000000000E+00 -0.66292294116E+02  0.66292294116E+02  0.00000000000E+00 0.  1.
         23    2    1    2    0    0 -0.34010786579E+02 -0.56511122593E+02  0.58058168580E+03  0.59134102173E+03  0.90878322550E+02 0.  0.
        -24    2    1    2    0    0  0.79812729457E+02  0.15635895868E+03  0.13859116488E+03  0.23751943780E+03  0.79936078253E+02 0.  0.
         11    1    4    4    0    0 -0.10830028646E+02  0.22445194348E+02  0.42921602836E+02  0.49632048717E+02  0.00000000000E+00 0. -1.
        -12    1    4    4    0    0  0.90642758103E+02  0.13391376433E+03  0.95669562039E+02  0.18788738908E+03  0.00000000000E+00 0.  1.
        -13    1    3    3    0    0  0.24069186414E+02  0.43835148510E+01  0.77501129812E+02  0.81270942281E+02  0.00000000000E+00 0.  1.
         13    1    3    3    0    0 -0.58079972993E+02 -0.60894637444E+02  0.50308055599E+03  0.51007007945E+03  0.00000000000E+00 0. -1.
         21    1    1    2  503  501  0.13258030609E+02  0.21224337362E+02  0.18909726055E+02  0.31365994509E+02  0.00000000000E+00 0. -1.
          2    1    1    2  501    0 -0.59059973486E+02 -0.12107217345E+03  0.86380818933E+03  0.87424890026E+03  0.00000000000E+00 0. -1.
<scales pt_clust_5="13000.00000" pt_clust_6="13000.00000" pt_clust_7="13000.00000" pt_clust_8="13000.00000" pt_clust_9="25.02494" pt_clust_10="181.72121"></scales>
<clustering>
<clus scale="   25.025">  2  9  1 -1</clus>
<clus scale="   79.936">  5  6 -1 -1</clus>
<clus scale="   90.878">  7  8 -1 -1</clus>
<clus scale="  110.989">  1  7  2 -1</clus>
<clus scale="  181.721">  2 10  1 -1</clus>
<clus scale="   25.025">  2  5  1 -1</clus>
</clustering>
</event>
<event>
10    3  0.9803704E-005  0.3273037E+03  0.7546771E-02  0.1122246E+00
         21   -1    0    0  501  502  0.00000000000E+00  0.00000000000E+00  0.98594880571E+03  0.98594880571E+03  0.00000000000E+00 0.  1.
         -2   -1    0    0    0  501 -0.00000000000E+00 -0.00000000000E+00 -0.18033686478E+03  0.18033686478E+03  0.00000000000E+00 0.  1.
        -24    2    1    2    0    0 -0.35416695219E+02 -0.12436719280E+02 -0.20311932416E+02  0.91452865145E+02  0.80882863810E+02 0.  0.
         23    2    1    2    0    0 -0.29935270859E+03 -0.51816754750E+02  0.46546069448E+03  0.56326708309E+03  0.91209257020E+02 0.  0.
         11    1    3    3    0    0  0.22484103676E+02 -0.35084232326E+01  0.10722022954E+02  0.25155630143E+02  0.00000000000E+00 0. -1.
        -12    1    3    3    0    0 -0.57900798895E+02 -0.89282960476E+01 -0.31033955370E+02  0.66297235002E+02  0.00000000000E+00 0.  1.
        -13    1    4    4    0    0 -0.15586388568E+03 -0.48592157636E+02  0.17530730966E+03  0.23955667694E+03  0.00000000000E+00 0.  1.
         13    1    4    4    0    0 -0.14348882291E+03 -0.32245971139E+01  0.29015338482E+03  0.32371040615E+03  0.00000000000E+00 0. -1.
         21    1    1    2  503  502  0.37744772283E+01  0.21319887964E+02  0.55039298144E+02  0.59144810773E+02  0.00000000000E+00 0. -1.
         -1    1    1    2    0  503  0.33099492658E+03  0.42933586066E+02  0.30542388072E+03  0.45242091148E+03  0.00000000000E+00 0.  1.
<scales pt_clust_5="13000.00000" pt_clust_6="13000.00000" pt_clust_7="13000.00000" pt_clust_8="13000.00000" pt_clust_9="21.65143" pt_clust_10="314.33853"></scales>
<clustering>
<clus scale="   21.651">  1  9  2 -1</clus>
<clus scale="   80.883">  5  6 -1 -1</clus>
<clus scale="   89.001">  2  5  1 -1</clus>
<clus scale="   91.209">  7  8 -1 -1</clus>
<clus scale="  314.339">  1 10  2 -1</clus>
<clus scale="   21.651">  1  5  2 -1</clus>
</clustering>
</event>
<event>
10    3  0.7209067E-005  0.1102786E+03  0.7546771E-02  0.1265511E+00
          1   -1    0    0  502    0 -0.00000000000E+00  0.00000000000E+00  0.12726117210E+04  0.12726117210E+04  0.00000000000E+00 0. -1.
         21   -1    0    0  503  502  0.00000000000E+00 -0.00000000000E+00 -0.36097457631E+02  0.36097457631E+02  0.00000000000E+00 0.  1.
        -24    2    1    2    0    0 -0.73808657013E+02 -0.79016595969E+02  0.59892496251E+03  0.61345183312E+03  0.76946088605E+02 0.  0.
         23    2    1    2    0    0 -0.16615086646E+01  0.16616375366E+02  0.25566276610E+03  0.27184734620E+03  0.90877198044E+02 0.  0.
         11    1    3    3    0    0 -0.84825921537E+02 -0.76462627755E+02  0.45610504502E+03  0.47018483865E+03  0.00000000000E+00 0. -1.
        -12    1    3    3    0    0  0.11017264524E+02 -0.25539682139E+01  0.14281991749E+03  0.14326699447E+03  0.00000000000E+00 0.  1.
        -13    1    4    4    0    0 -0.15146516639E+01 -0.28526316853E+02  0.28903060312E+02  0.40637812666E+02  0.00000000000E+00 0.  1.
         13    1    4    4    0    0 -0.14685700071E+00  0.45142692219E+02  0.22675970579E+03  0.23120953353E+03  0.00000000000E+00 0. -1.
         21    1    1    2  503  501  0.39072193236E+02 -0.16102064259E+02  0.12623489790E+02  0.44105161287E+02  0.00000000000E+00 0.  1.
          2    1    1    2  501    0  0.36397972441E+02  0.78502284862E+02  0.36930304500E+03  0.37930483806E+03  0.00000000000E+00 0. -1.
<scales pt_clust_5="13000.00000" pt_clust_6="13000.00000" pt_clust_7="13000.00000" pt_clust_8="13000.00000" pt_clust_9="42.26006" pt_clust_10="87.59503"></scales>
<clustering>
<clus scale="   42.260">  2  9  1 -1</clus>
<clus scale="   76.946">  5  6 -1 -1</clus>
<clus scale="   87.595">  2 10  1 -1</clus>
<clus scale="   90.877">  7  8 -1 -1</clus>
<clus scale="   99.113">  1  5  2 -1</clus>
<clus scale="   42.260">  2  5  1 -1</clus>
</clustering>
</event>
<event>
10    3  0.7209067E-005  0.1374651E+03  0.7546771E-02  0.1222881E+00
          1   -1    0    0  503    0 -0.00000000000E+00  0.00000000000E+00  0.42387516484E+03  0.42387516484E+03  0.00000000000E+00 0. -1.
         21   -1    0    0  501  502  0.00000000000E+00 -0.00000000000E+00 -0.73208028623E+02  0.73208028623E+02  0.00000000000E+00 0.  1.
         23    2    1    2    0    0  0.92680609422E+02  0.22225236699E+02  0.29013222586E+03  0.32287867267E+03  0.10483449944E+03 0.  0.
        -24    2    1    2    0    0 -0.70961008794E+02 -0.21700363142E+02  0.42539882883E+02  0.11846960768E+03  0.81969724769E+02 0.  0.
         13    1    4    4    0    0 -0.81059189523E+02 -0.19008619774E+02  0.56801657230E+02  0.10078863079E+03  0.00000000000E+00 0. -1.
        -14    1    4    4    0    0  0.10098180730E+02 -0.26917433686E+01 -0.14261774346E+02  0.17680976894E+02  0.00000000000E+00 0.  1.
        -13    1    3    3    0    0  0.32867797711E+02 -0.39121528373E+02  0.15172811683E+03  0.16010061694E+03  0.00000000000E+00 0. -1.
         13    1    3    3    0    0  0.59812811712E+02  0.61346765073E+02  0.13840410904E+03  0.16277805573E+03  0.00000000000E+00 0.  1.
         21    1    1    2  503  502  0.19398246889E+01  0.20429784421E+02  0.11305919848E+02  0.23429955931E+02  0.00000000000E+00 0. -1.
          2    1    1    2  501    0 -0.23659425318E+02 -0.20954657978E+02  0.66891076168E+01  0.32304957175E+02  0.00000000000E+00 0. -1.
<scales pt_clust_5="13000.00000" pt_clust_6="13000.00000" pt_clust_7="13000.00000" pt_clust_8="13000.00000" pt_clust_9="20.52167" pt_clust_10="28.86802"></scales>
<clustering>
<clus scale="   20.522">  2  9  1 -1</clus>
<clus scale="   28.868">  2 10  1 -1</clus>
<clus scale="   81.970">  5  6 -1 -1</clus>
<clus scale="  104.834">  7  8 -1 -1</clus>
<clus scale="  120.936">  2  5  1 -1</clus>
<clus scale="   20.522">  2  5  1 -1</clus>
</clustering>
</event>
<event>
10    3  0.7209067E-005  0.1598492E+03  0.7546771E-02  0.1190097E+00
         21   -1    0    0  501  502  0.00000000000E+00  0.00000000000E+00  0.72322840395E+02  0.72322840395E+02  0.00000000000E+00 0. -1.
          1   -1    0    0  503    0 -0.00000000000E+00 -0.00000000000E+00 -0.91494126618E+03  0.91494126618E+03  0.00000000000E+00 0. -1.
         23    2    1    2    0    0 -0.16230306857E+03  0.56005744256E+02 -0.46349547101E+03  0.50224944312E+03  0.89148875579E+02 0.  0.
        -24    2    1    2    0    0  0.37990580263E+02 -0.10951289537E+03 -0.15129649248E+03  0.20717627024E+03  0.81209727717E+02 0.  0.
         13    1    4    4    0    0  0.59689907255E+02 -0.95036295128E+02 -0.13807697663E+03  0.17793266674E+03  0.00000000000E+00 0. -1.
        -14    1    4    4    0    0 -0.21699326993E+02 -0.14476600239E+02 -0.13219515851E+02  0.29243603501E+02  0.00000000000E+00 0.  1.
        -13    1    3    3    0    0 -0.12117252629E+03  0.79385698756E+02 -0.32285993984E+03  0.35386920048E+03  0.00000000000E+00 0. -1.
         13    1    3    3    0    0 -0.41130542287E+02 -0.23379954499E+02 -0.14063553117E+03  0.14838024265E+03  0.00000000000E+00 0.  1.
         21    1    1    2  503  502  0.92477169217E+01 -0.19474762598E+02 -0.44219734735E+02  0.49195239470E+02  0.00000000000E+00 0. -1.
          2    1    1    2  501    0  0.11506477139E+03  0.72981913709E+02 -0.18360672757E+03  0.22864315374E+03  0.00000000000E+00 0. -1.
<scales pt_clust_5="13000.00000" pt_clust_6="13000.00000" pt_clust_7="13000.00000" pt_clust_8="13000.00000" pt_clust_9="21.55891" pt_clust_10="135.73078"></scales>
<clustering>
<clus scale="   21.559">  2  9  1 -1</clus>
<clus scale="   81.210">  5  6 -1 -1</clus>
<clus scale="   89.149">  7  8 -1 -1</clus>
<clus scale="  135.731">  1 10  2 -1</clus>
<clus scale="  155.561">  1  5  2 -1</clus>
<clus scale="  135.731">  1  5  2 -1</clus>
</clustering>
</event>
<event>
10    3  0.7209067E-005  0.1438683E+03  0.7546771E-02  0.1236843E+00
         21   -1    0    0  501  502  0.00000000000E+00  0.00000000000E+00  0.58867014460E+02  0.58867014460E+02  0.00000000000E+00 0.  1.
          1   -1    0    0  503    0 -0.00000000000E+00 -0.00000000000E+00 -0.58473491985E+03  0.58473491985E+03  0.00000000000E+00 0. -1.
        -24    2    1    2    0    0 -0.16003924055E+01 -0.23724382545E+01 -0.95076684289E+02  0.12341050084E+03  0.78628150825E+02 0.  0.
         23    2    1    2    0    0 -0.52166238532E+02  0.10974655251E+03 -0.26174669919E+03  0.30325960037E+03  0.93217103853E+02 0.  0.
         13    1    3    3    0    0 -0.22180309356E+02 -0.33717021062E+02 -0.40343320196E+02  0.57064762480E+02  0.00000000000E+00 0. -1.
        -14    1    3    3    0    0  0.20579916951E+02  0.31344582808E+02 -0.54733364094E+02  0.66345738357E+02  0.00000000000E+00 0.  1.
        -13    1    4    4    0    0 -0.26743961516E+02  0.83754308115E+02 -0.83192604419E+02  0.12104145172E+03  0.00000000000E+00 0.  1.
         13    1    4    4    0    0 -0.25422277016E+02  0.25992244393E+02 -0.17855409477E+03  0.18221814864E+03  0.00000000000E+00 0. -1.
         21    1    1    2  503  502  0.30569732296E+02 -0.82660058521E+01 -0.23994129890E+02  0.39731016279E+02  0.00000000000E+00 0. -1.
          2    1    1    2  501    0  0.23196898641E+02 -0.99108108402E+02 -0.14505039202E+03  0.17720081683E+03  0.00000000000E+00 0. -1.
<scales pt_clust_5="13000.00000" pt_clust_6="13000.00000" pt_clust_7="13000.00000" pt_clust_8="13000.00000" pt_clust_9="31.66758" pt_clust_10="109.58401"></scales>
<clustering>
<clus scale="   31.668">  1  9  2 -1</clus>
<clus scale="   78.628">  5  6 -1 -1</clus>
<clus scale="   79.068">  2  5  1 -1</clus>
<clus scale="   93.217">  7  8 -1 -1</clus>
<clus scale="  109.584">  1 10  2 -1</clus>
<clus scale="   31.668">  1  5  2 -1</clus>
</clustering>
</event>
<event>
10    3  0.7209067E-005  0.1493002E+03  0.7546771E-02  0.1224354E+00
         21   -1    0    0  501  502  0.00000000000E+00  0.00000000000E+00  0.19547415383E+03  0.19547415383E+03  0.00000000000E+00 0.  1.
         -2   -1    0    0    0  501 -0.00000000000E+00 -0.00000000000E+00 -0.64772679648E+03  0.64772679648E+03  0.00000000000E+00 0.  1.
        -24    2    1    2    0    0  0.20910267799E+02  0.28197540748E+02 -0.22585179685E+02  0.91592799171E+02  0.81527970139E+02 0.  0.
         23    2    1    2    0    0 -0.13372086204E+03  0.45738804015E+02 -0.52924895835E+03  0.55524304500E+03  0.90648066588E+02 0.  0.
         11    1    3    3    0    0  0.15155621405E+01  0.53637716738E+02 -0.25615391204E+02  0.59459648939E+02  0.00000000000E+00 0. -1.
        -12    1    3    3    0    0  0.19394705659E+02 -0.25440175990E+02  0.30302115193E+01  0.32133150232E+02  0.00000000000E+00 0.  1.
        -11    1    4    4    0    0 -0.75009916017E+02 -0.29091298611E+01 -0.14263474568E+03  0.16118195064E+03  0.00000000000E+00 0. -1.
         11    1    4    4    0    0 -0.58710946020E+02  0.48647933876E+02 -0.38661421267E+03  0.39406109436E+03  0.00000000000E+00 0.  1.
         21    1    1    2  503  502  0.38015609071E+02 -0.11860829780E+02  0.90339850531E+02  0.98727678035E+02  0.00000000000E+00 0.  1.
         -1    1    1    2    0  503  0.74794985166E+02 -0.62075514983E+02  0.92416448447E+01  0.97637428099E+02  0.00000000000E+00 0.  1.
<scales pt_clust_5="13000.00000" pt_clust_6="13000.00000" pt_clust_7="13000.00000" pt_clust_8="13000.00000" pt_clust_9="39.82293" pt_clust_10="118.63167"></scales>
<clustering>
<clus scale="   39.823">  1  9  2 -1</clus>
<clus scale="   81.528">  5  6 -1 -1</clus>
<clus scale="   90.648">  7  8 -1 -1</clus>
<clus scale="   91.538">  2  5  1 -1</clus>
<clus scale="  118.632">  1 10  2 -1</clus>
<clus scale="   39.823">  1  5  2 -1</clus>
</clustering>
</event>
<event>
10    3  0.7209067E-005  0.2749554E+03  0.7546771E-02  0.1124082E+00
         -4   -1    0    0    0  501 -0.00000000000E+00  0.00000000000E+00  0.29509943976E+03  0.29509943976E+03  0.00000000000E+00 0.  1.
         21   -1    0    0  503  502  0.00000000000E+00 -0.00000000000E+00 -0.10752573079E+04  0.10752573079E+04  0.00000000000E+00 0.  1.
        -24    2    1    2    0    0 -0.76210971777E+02  0.92157530145E+02  0.73460832954E+02  0.16114728547E+03  0.79188579064E+02 0.  0.
         23    2    1    2    0    0  0.67094663697E+02 -0.94488879277E+02 -0.13873760467E+02  0.14975832863E+03  0.93836206018E+02 0.  0.
         11    1    3    3    0    0 -0.33168143467E+02  0.82798598257E+02  0.75776871401E+02  0.11703789068E+03  0.00000000000E+00 0. -1.
        -12    1    3    3    0    0 -0.43042828310E+02  0.93589318878E+01 -0.23160384469E+01  0.44109394794E+02  0.00000000000E+00 0.  1.
        -11    1    4    4    0    0  0.64286586372E+02 -0.10979623011E+02 -0.10675143070E+01  0.65226197924E+02  0.00000000000E+00 0.  1.
         11    1    4    4    0    0  0.28080773250E+01 -0.83509256266E+02 -0.12806246160E+02  0.84532130703E+02  0.00000000000E+00 0. -1.
         21    1    1    2  503  501 -0.24977864566E+03  0.11066187332E+03 -0.68833356837E+03  0.74056635313E+03  0.00000000000E+00 0.  1.
         -3    1    1    2    0  502  0.25889495374E+03 -0.10833052419E+03 -0.15141137225E+03  0.31888478043E+03  0.00000000000E+00 0.  1.
<scales pt_clust_5="13000.00000" pt_clust_6="13000.00000" pt_clust_7="13000.00000" pt_clust_8="13000.00000" pt_clust_9="274.95536" pt_clust_10="13000.00000"></scales>
<clustering>
<clus scale="   79.189">  5  6 -1 -1</clus>
<clus scale="   93.836">  7  8 -1 -1</clus>
<clus scale="  143.429">  1  5  2 -1</clus>
<clus scale="  117.304">  1  7  2 -1</clus>
<clus scale="  274.955">  2  9  1 -1</clus>
<clus scale="  274.955">  2  5  1 -1</clus>
</clustering>
</event>
<event>
10    3  0.7209067E-005  0.1102170E+03  0.7546771E-02  0.1264151E+00
         -4   -1    0    0    0  501 -0.00000000000E+00  0.00000000000E+00  0.21419662054E+03  0.21419662054E+03  0.00000000000E+00 0.  1.
         21   -1    0    0  503  502  0.00000000000E+00 -0.00000000000E+00 -0.11796148831E+03  0.11796148831E+03  0.00000000000E+00 0.  1.
         23    2    1    2    0    0 -0.47420392709E+02 -0.14461401783E+02  0.38790531087E+02  0.11091429423E+03  0.91320586811E+02 0.  0.
        -24    2    1    2    0    0  0.90827815523E+02 -0.98212053275E+01 -0.38990489698E+01  0.12225395770E+03  0.81146037753E+02 0.  0.
         11    1    4    4    0    0  0.32024880849E+02  0.30104019033E+02  0.18564544625E+02  0.47712548376E+02  0.00000000000E+00 0. -1.
        -12    1    4    4    0    0  0.58802934674E+02 -0.39925224360E+02 -0.22463593595E+02  0.74541409322E+02  0.00000000000E+00 0.  1.
        -11    1    3    3    0    0 -0.15666752583E+01  0.23781834635E+02 -0.16938275766E+02  0.29239276938E+02  0.00000000000E+00 0.  1.
         11    1    3    3    0    0 -0.45853717451E+02 -0.38243236418E+02  0.55728806853E+02  0.81675017288E+02  0.00000000000E+00 0. -1.
         21    1    1    2  503  501  0.10302471322E+02  0.21168614551E+02  0.14465544129E+02  0.27631560294E+02  0.00000000000E+00 0. -1.
         -3    1    1    2    0  502 -0.53709894136E+02  0.31139925595E+01  0.46878105979E+02  0.71358296630E+02  0.00000000000E+00 0.  1.
<scales pt_clust_5="13000.00000" pt_clust_6="13000.00000" pt_clust_7="13000.00000" pt_clust_8="13000.00000" pt_clust_9="23.54254" pt_clust_10="51.45869"></scales>
<clustering>
<clus scale="   23.543">  1  9  2 -1</clus>
<clus scale="   51.459">  2 10  1 -1</clus>
<clus scale="   81.146">  5  6 -1 -1</clus>
<clus scale="   91.321">  7  8 -1 -1</clus>
<clus scale="  101.946">  2  5  1 -1</clus>
<clus scale="   51.459">  2  5  1 -1</clus>
</clustering>
</event>
<event>
10    3  0.7209067E-005  0.1183690E+03  0.7546771E-02  0.1250289E+00
         21   -1    0    0  503  502  0.00000000000E+00  0.00000000000E+00  0.18849849783E+03  0.18849849783E+03  0.00000000000E+00 0.  1.
         -2   -1    0    0    0  501 -0.00000000000E+00 -0.00000000000E+00 -0.22195020862E+03  0.22195020862E+03  0.00000000000E+00 0.  1.
        -24    2    1    2    0    0 -0.39985278318E+02  0.78712667407E+02 -0.69856938058E+02  0.13747159470E+03  0.78891958165E+02 0.  0.
         23    2    1    2    0    0 -0.55663656804E+02 -0.65182836157E+02 -0.55187263094E+01  0.12610788477E+03  0.92333620322E+02 0.  0.
         11    1    3    3    0    0  0.23261023968E+02  0.14755131964E+02 -0.23870100134E+02  0.36449565645E+02  0.00000000000E+00 0. -1.
        -12    1    3    3    0    0 -0.63246302286E+02  0.63957535444E+02 -0.45986837925E+02  0.10102202906E+03  0.00000000000E+00 0.  1.
        -11    1    4    4    0    0 -0.16368821980E+02 -0.51017342514E+02 -0.43987427304E+02  0.69322444641E+02  0.00000000000E+00 0. -1.
         11    1    4    4    0    0 -0.39294834824E+02 -0.14165493643E+02  0.38468700994E+02  0.56785440125E+02  0.00000000000E+00 0.  1.
         21    1    1    2  503  501  0.40563848503E+02  0.40759422192E+02  0.38981909916E+02  0.69471905138E+02  0.00000000000E+00 0.  1.
         -1    1    1    2    0  502  0.55085086619E+02 -0.54289253442E+02  0.29420436692E+01  0.77397321840E+02  0.00000000000E+00 0.  1.
<scales pt_clust_5="13000.00000" pt_clust_6="13000.00000" pt_clust_7="13000.00000" pt_clust_8="13000.00000" pt_clust_9="57.50440" pt_clust_10="79.31337"></scales>
<clustering>
<clus scale="   57.504">  1  9  2 -1</clus>
<clus scale="   78.892">  5  6 -1 -1</clus>
<clus scale="   79.313">  1 10  2 -1</clus>
<clus scale="   92.334">  7  8 -1 -1</clus>
<clus scale="  108.211">  2  5  1 -1</clus>
<clus scale="   57.504">  1  5  2 -1</clus>
</clustering>
</event>
<event>
10    3  0.7209067E-005  0.1032780E+03  0.7546771E-02  0.1274930E+00
         21   -1    0    0  501  502  0.00000000000E+00  0.00000000000E+00  0.72338001659E+02  0.72338001659E+02  0.00000000000E+00 0.  1.
         -2   -1    0    0    0  501 -0.00000000000E+00 -0.00000000000E+00 -0.49858394443E+03  0.49858394443E+03  0.00000000000E+00 0.  1.
         23    2    1    2    0    0  0.59415925011E+01  0.45887024205E+02 -0.20345127703E+03  0.22808935821E+03  0.92148856152E+02 0.  0.
        -24    2    1    2    0    0 -0.54033385296E+02 -0.25869267414E+02 -0.21378389764E+03  0.23923449909E+03  0.89110969803E+02 0.  0.
         13    1    4    4    0    0  0.19210681222E+02  0.13898679678E+02 -0.40020643169E+02  0.46517474668E+02  0.00000000000E+00 0. -1.
        -14    1    4    4    0    0 -0.73244066518E+02 -0.39767947092E+02 -0.17376325448E+03  0.19271702442E+03  0.00000000000E+00 0.  1.
        -11    1    3    3    0    0 -0.32147873425E+02  0.50625464067E+02 -0.15553037839E+03  0.16669169740E+03  0.00000000000E+00 0.  1.
         11    1    3    3    0    0  0.38089465926E+02 -0.47384398622E+01 -0.47920898641E+02  0.61397660814E+02  0.00000000000E+00 0. -1.
         21    1    1    2  503  502 -0.19173589732E+02  0.71403297078E+01  0.16932159955E+02  0.26557652236E+02  0.00000000000E+00 0.  1.
         -1    1    1    2    0  503  0.67265382528E+02 -0.27158086498E+02 -0.25942928046E+02  0.77040436554E+02  0.00000000000E+00 0.  1.
<scales pt_clust_5="13000.00000" pt_clust_6="13000.00000" pt_clust_7="13000.00000" pt_clust_8="13000.00000" pt_clust_9="20.45998" pt_clust_10="62.21346"></scales>
<clustering>
<clus scale="   20.460">  1  9  2 -1</clus>
<clus scale="   62.213">  1 10  2 -1</clus>
<clus scale="   89.111">  5  6 -1 -1</clus>
<clus scale="   92.149">  7  8 -1 -1</clus>
<clus scale="  100.577">  1  5  2 -1</clus>
<clus scale="   20.460">  1  5  2 -1</clus>
</clustering>
</event>
<event>
10    3  0.7209067E-005  0.1039512E+03  0.7546771E-02  0.1277061E+00
         21   -1    0    0  501  502  0.00000000000E+00  0.00000000000E+00  0.13033168928E+03  0.13033168928E+03  0.00000000000E+00 0. -1.
          3   -1    0    0  503    0 -0.00000000000E+00 -0.00000000000E+00 -0.27175268839E+03  0.27175268839E+03  0.00000000000E+00 0. -1.
        -24    2    1    2    0    0  0.26064531851E+02  0.48415830269E+02 -0.24967574478E+02  0.99703593677E+02  0.79334572386E+02 0.  0.
         23    2    1    2    0    0 -0.25191587399E+02 -0.35457132535E+02  0.50779412894E+02  0.11226745916E+03  0.90186524987E+02 0.  0.
         11    1    3    3    0    0  0.44415303767E+02  0.22239145067E+02 -0.40566861482E+02  0.64132433546E+02  0.00000000000E+00 0. -1.
        -12    1    3    3    0    0 -0.18350771916E+02  0.26176685202E+02  0.15599287004E+02  0.35571160132E+02  0.00000000000E+00 0.  1.
        -11    1    4    4    0    0 -0.30688827059E+02 -0.56650154067E+02  0.89403335087E+01  0.65045934733E+02  0.00000000000E+00 0. -1.
         11    1    4    4    0    0  0.54972396596E+01  0.21193021531E+02  0.41839079385E+02  0.47221524428E+02  0.00000000000E+00 0.  1.
         21    1    1    2  503  502  0.22974174101E+02 -0.89387806591E+01 -0.38503652795E+01  0.24950747245E+02  0.00000000000E+00 0.  1.
          4    1    1    2  501    0 -0.23847118553E+02 -0.40199170744E+01 -0.16338247225E+03  0.16516257758E+03  0.00000000000E+00 0. -1.
<scales pt_clust_5="13000.00000" pt_clust_6="13000.00000" pt_clust_7="13000.00000" pt_clust_8="13000.00000" pt_clust_9="22.98149" pt_clust_10="24.18358"></scales>
<clustering>
<clus scale="   24.184">  1 10  2 -1</clus>
<clus scale="   22.981">  2  9  1 -1</clus>
<clus scale="   79.335">  5  6 -1 -1</clus>
<clus scale="   90.187">  7  8 -1 -1</clus>
<clus scale="   94.690">  2  5  1 -1</clus>
<clus scale="   24.184">  1  5  2 -1</clus>
</clustering>
</event>
<event>
10    3  0.7209067E-005  0.1279427E+03  0.7546771E-02  0.1245518E+00
         21   -1    0    0  503  502  0.00000000000E+00  0.00000000000E+00  0.12612950616E+03  0.12612950616E+03  0.00000000000E+00 0.  1.
         -2   -1    0    0    0  501 -0.00000000000E+00 -0.00000000000E+00 -0.25324508527E+03  0.25324508527E+03  0.00000000000E+00 0.  1.
        -24    2    1    2    0    0 -0.42613315402E+02  0.21701545516E+02 -0.77705770119E+02  0.12086037359E+03  0.79260276728E+02 0.  0.
         23    2    1    2    0    0  0.27793915604E+02  0.62692770730E+02 -0.33126788683E+02  0.12001922908E+03  0.92759613915E+02 0.  0.
         13    1    3    3    0    0 -0.98050304172E+01 -0.27243510208E+02 -0.89411066491E+01  0.30303314308E+02  0.00000000000E+00 0. -1.
        -14    1    3    3    0    0 -0.32808284985E+02  0.48945055724E+02 -0.68764663470E+02  0.90557059281E+02  0.00000000000E+00 0.  1.
        -13    1    4    4    0    0  0.12228911484E+02  0.84634054285E+02 -0.13164779909E+02  0.86520407135E+02  0.00000000000E+00 0.  1.
         13    1    4    4    0    0  0.15565004120E+02 -0.21941283555E+02 -0.19962008774E+02  0.33498821943E+02  0.00000000000E+00 0. -1.
         21    1    1    2  503  501 -0.54942448141E+01  0.24339849134E+02  0.59861197130E+01  0.25660253529E+02  0.00000000000E+00 0.  1.
         -1    1    1    2    0  502  0.20313644612E+02 -0.10873416538E+03 -0.22269140024E+02  0.11283473524E+03  0.00000000000E+00 0.  1.
<scales pt_clust_5="13000.00000" pt_clust_6="13000.00000" pt_clust_7="13000.00000" pt_clust_8="13000.00000" pt_clust_9="24.95225" pt_clust_10="88.11914"></scales>
<clustering>
<clus scale="   24.952">  1  9  2 -1</clus>
<clus scale="   79.260">  5  6 -1 -1</clus>
<clus scale="   92.760">  7  8 -1 -1</clus>
<clus scale="   94.293">  2  5  1 -1</clus>
<clus scale="   88.119">  1 10  2 -1</clus>
<clus scale="   24.952">  1  5  2 -1</clus>
</clustering>
</event>
<event>
10    3  0.7209067E-005  0.1829743E+03  0.7546771E-02  0.1192830E+00
         21   -1    0    0  501  502  0.00000000000E+00  0.00000000000E+00  0.14294829097E+03  0.14294829097E+03  0.00000000000E+00 0. -1.
          1   -1    0    0  503    0 -0.00000000000E+00 -0.00000000000E+00 -0.85916983415E+03  0.85916983415E+03  0.00000000000E+00 0. -1.
         23    2    1    2    0    0  0.51698352230E+02  0.48302336221E+01 -0.56870704735E+02  0.11825758678E+03  0.89747027765E+02 0.  0.
        -24    2    1    2    0    0  0.58363245708E+02  0.16437728063E+03 -0.56160797340E+03  0.59375259971E+03  0.81929695704E+02 0.  0.
         11    1    4    4    0    0  0.70506088150E+02  0.15865050743E+03 -0.54710084190E+03  0.57398643119E+03  0.00000000000E+00 0. -1.
        -12    1    4    4    0    0 -0.12142842442E+02  0.57267731979E+01 -0.14507131497E+02  0.19766168524E+02  0.00000000000E+00 0.  1.
        -11    1    3    3    0    0 -0.19854535644E+02  0.64460143778E+01 -0.39394923068E+02  0.44583782371E+02  0.00000000000E+00 0.  1.
         11    1    3    3    0    0  0.71552887874E+02 -0.16157807557E+01 -0.17475781668E+02  0.73673804405E+02  0.00000000000E+00 0. -1.
         21    1    1    2  503  502 -0.38334409998E+02 -0.44933691387E+02  0.54881054963E+02  0.80625639875E+02  0.00000000000E+00 0. -1.
          2    1    1    2  501    0 -0.71727187941E+02 -0.12427382286E+03 -0.15262392001E+03  0.20948229877E+03  0.00000000000E+00 0. -1.
<scales pt_clust_5="13000.00000" pt_clust_6="13000.00000" pt_clust_7="13000.00000" pt_clust_8="13000.00000" pt_clust_9="59.06406" pt_clust_10="163.60662"></scales>
<clustering>
<clus scale="   59.064">  1  9  2 -1</clus>
<clus scale="   81.930">  5  6 -1 -1</clus>
<clus scale="   89.747">  7  8 -1 -1</clus>
<clus scale="   97.656">  2  7  1 -1</clus>
<clus scale="  163.607">  1 10  2 -1</clus>
<clus scale="   59.064">  1  5  2 -1</clus>
</clustering>
</event>
<event>
10    3  0.7209067E-005  0.1011125E+03  0.7546771E-02  0.1282823E+00
         21   -1    0    0  501  502  0.00000000000E+00  0.00000000000E+00  0.35242609710E+03  0.35242609710E+03  0.00000000000E+00 0.  1.
         -2   -1    0    0    0  501 -0.00000000000E+00 -0.00000000000E+00 -0.10702701229E+03  0.10702701229E+03  0.00000000000E+00 0.  1.
         23    2    1    2    0    0 -0.23609184596E+02 -0.24955109466E+02  0.11520969360E+03  0.15047275699E+03  0.90491027231E+02 0.  0.
        -24    2    1    2    0    0  0.61779268699E+02 -0.52187050217E+02  0.10524621086E+03  0.15518805455E+03  0.80413936119E+02 0.  0.
         11    1    4    4    0    0  0.81463728053E+02 -0.45158361615E+02  0.85631728148E+02  0.12652434342E+03  0.00000000000E+00 0. -1.
        -12    1    4    4    0    0 -0.19684459354E+02 -0.70286886014E+01  0.19614482715E+02  0.28663711129E+02  0.00000000000E+00 0.  1.
        -11    1    3    3    0    0 -0.35117854944E+01 -0.57844181320E+02  0.74901787674E+02  0.94702480151E+02  0.00000000000E+00 0.  1.
         11    1    3    3    0    0 -0.20097399102E+02  0.32889071853E+02  0.40307905930E+02  0.55770276837E+02  0.00000000000E+00 0. -1.
         21    1    1    2  503  502  0.20842615060E+00  0.44093295272E+02  0.72149560064E+02  0.84556615039E+02  0.00000000000E+00 0.  1.
         -1    1    1    2    0  503 -0.38378510254E+02  0.33048864411E+02 -0.47206379719E+02  0.69235682811E+02  0.00000000000E+00 0.  1.
<scales pt_clust_5="13000.00000" pt_clust_6="13000.00000" pt_clust_7="13000.00000" pt_clust_8="13000.00000" pt_clust_9="44.09379" pt_clust_10="51.81473"></scales>
<clustering>
<clus scale="   44.094">  1  9  2 -1</clus>
<clus scale="   51.815">  1 10  2 -1</clus>
<clus scale="   80.414">  5  6 -1 -1</clus>
<clus scale="   90.491">  7  8 -1 -1</clus>
<clus scale="   92.204">  1  5  2 -1</clus>
<clus scale="   44.094">  1  5  2 -1</clus>
</clustering>
</event>
<event>
10    3  0.7209067E-005  0.2146117E+03  0.7546771E-02  0.1154947E+00
         21   -1    0    0  501  502  0.00000000000E+00  0.00000000000E+00  0.97048241890E+02  0.97048241890E+02  0.00000000000E+00 0. -1.
          1   -1    0    0  503    0 -0.00000000000E+00 -0.00000000000E+00 -0.11557336266E+04  0.11557336266E+04  0.00000000000E+00 0. -1.
         23    2    1    2    0    0  0.57081473647E+02 -0.97353973412E+02 -0.39173184744E+03  0.41754319082E+03  0.90290559446E+02 0.  0.
        -24    2    1    2    0    0 -0.21582331524E+03  0.13807972914E+03 -0.47622274775E+03  0.54673384425E+03  0.80523760286E+02 0.  0.
         11    1    4    4    0    0 -0.22079950070E+03  0.12321501052E+03 -0.44609113725E+03  0.51276862332E+03  0.00000000000E+00 0. -1.
        -12    1    4    4    0    0  0.49761854626E+01  0.14864718617E+02 -0.30131610500E+02  0.33965220927E+02  0.00000000000E+00 0.  1.
        -13    1    3    3    0    0 -0.46271129441E+01 -0.41407858170E+02 -0.24754204983E+03  0.25102407718E+03  0.00000000000E+00 0.  1.
         13    1    3    3    0    0  0.61708586591E+02 -0.55946115242E+02 -0.14418979761E+03  0.16651911363E+03  0.00000000000E+00 0. -1.
         21    1    1    2  503  502 -0.25618249400E+02 -0.55637941215E+00 -0.10890002504E+02  0.27842349306E+02  0.00000000000E+00 0.  1.
          2    1    1    2  501    0  0.18436009100E+03 -0.40169376317E+02 -0.17984078697E+03  0.26066248408E+03  0.00000000000E+00 0. -1.
<scales pt_clust_5="13000.00000" pt_clust_6="13000.00000" pt_clust_7="13000.00000" pt_clust_8="13000.00000" pt_clust_9="25.62429" pt_clust_10="198.93239"></scales>
<clustering>
<clus scale="   25.624">  1  9  2 -1</clus>
<clus scale="   80.524">  5  6 -1 -1</clus>
<clus scale="   90.291">  7  8 -1 -1</clus>
<clus scale="  143.150">  2  7  1 -1</clus>
<clus scale="  198.932">  1 10  2 -1</clus>
<clus scale="   25.624">  1  5  2 -1</clus>
</clustering>
</event>
<event>
10    3  0.7209067E-005  0.1429719E+03  0.7546771E-02  0.1222583E+00
         21   -1    0    0  501  502  0.00000000000E+00  0.00000000000E+00  0.11967573650E+03  0.11967573650E+03  0.00000000000E+00 0.  1.
          1   -1    0    0  503    0 -0.00000000000E+00 -0.00000000000E+00 -0.66538273522E+03  0.66538273522E+03  0.00000000000E+00 0. -1.
         23    2    1    2    0    0  0.59064171349E+02  0.32386159073E+01 -0.21466905359E+03  0.24037941330E+03  0.90556031265E+02 0.  0.
        -24    2    1    2    0    0 -0.79036572500E+02  0.23350411730E+02 -0.18263529022E+03  0.21560740137E+03  0.79617088458E+02 0.  0.
         11    1    4    4    0    0 -0.57267616546E+02  0.26641429882E+02 -0.18299460869E+03  0.19358815176E+03  0.00000000000E+00 0. -1.
        -12    1    4    4    0    0 -0.21768955954E+02 -0.32910181520E+01  0.35931847742E+00  0.22019249614E+02  0.00000000000E+00 0.  1.
        -13    1    3    3    0    0  0.40950869305E+02 -0.21583985983E+02 -0.34821599940E+02  0.57925693523E+02  0.00000000000E+00 0.  1.
         13    1    3    3    0    0  0.18113302044E+02  0.24822601890E+02 -0.17984745365E+03  0.18245371978E+03  0.00000000000E+00 0. -1.
         21    1    1    2  503  502  0.12008843743E+03 -0.99383477977E+02 -0.31949028926E+02  0.15911960579E+03  0.00000000000E+00 0.  1.
          2    1    1    2  501    0 -0.10011603627E+03  0.72794450340E+02 -0.11645362599E+03  0.16995205126E+03  0.00000000000E+00 0. -1.
<scales pt_clust_5="13000.00000" pt_clust_6="13000.00000" pt_clust_7="13000.00000" pt_clust_8="13000.00000" pt_clust_9="13000.00000" pt_clust_10="142.97187"></scales>
<clustering>
<clus scale="   79.617">  5  6 -1 -1</clus>
<clus scale="   90.556">  7  8 -1 -1</clus>
<clus scale="  108.164">  2  7  1 -1</clus>
<clus scale="   98.374">  2  5  1 -1</clus>
<clus scale="  142.972">  2 10  1 -1</clus>
<clus scale="  142.972">  1  5  2 -1</clus>
</clustering>
</event>
<event>
10    3  0.7209067E-005  0.1464589E+03  0.7546771E-02  0.1206496E+00
          1   -1    0    0  503    0 -0.00000000000E+00  0.00000000000E+00  0.13842517807E+03  0.13842517807E+03  0.00000000000E+00 0. -1.
         21   -1    0    0  501  502  0.00000000000E+00 -0.00000000000E+00 -0.70050963798E+03  0.70050963798E+03  0.00000000000E+00 0. -1.
         23    2    1    2    0    0  0.10563765928E+03  0.48683403280E+02  0.52099271703E+02  0.15559252470E+03  0.89248590009E+02 0.  0.
        -24    2    1    2    0    0 -0.75245349110E+02 -0.10575315231E+03 -0.40418545498E+03  0.43214323510E+03  0.80847398471E+02 0.  0.
         11    1    4    4    0    0 -0.19562443837E+02 -0.89192496663E+02 -0.20008838306E+03  0.21993942735E+03  0.00000000000E+00 0. -1.
        -12    1    4    4    0    0 -0.55682905273E+02 -0.16560655647E+02 -0.20409707192E+03  0.21220380775E+03  0.00000000000E+00 0.  1.
        -13    1    3    3    0    0  0.10587097177E+03  0.68820719436E+02  0.42088607144E+02  0.13310298621E+03  0.00000000000E+00 0. -1.
         13    1    3    3    0    0 -0.23331248852E+00 -0.20137316156E+02  0.10010664559E+02  0.22489538492E+02  0.00000000000E+00 0.  1.
         21    1    1    2  503  502  0.12627784037E+02  0.78232237196E+02 -0.17416008434E+03  0.19134126278E+03  0.00000000000E+00 0. -1.
          2    1    1    2  501    0 -0.43020094208E+02 -0.21162488166E+02 -0.35838192295E+02  0.59857793461E+02  0.00000000000E+00 0. -1.
<scales pt_clust_5="13000.00000" pt_clust_6="13000.00000" pt_clust_7="13000.00000" pt_clust_8="13000.00000" pt_clust_9="72.30891" pt_clust_10="47.94353"></scales>
<clustering>
<clus scale="   47.944">  2 10  1 -1</clus>
<clus scale="   72.309">  2  9  1 -1</clus>
<clus scale="   80.847">  5  6 -1 -1</clus>
<clus scale="   89.249">  7  8 -1 -1</clus>
<clus scale="  141.496">  2  5  1 -1</clus>
<clus scale="   47.944">  2  5  1 -1</clus>
</clustering>
</event>
<event>
10    3  0.7209067E-005  0.1193530E+03  0.7546771E-02  0.1256070E+00
         21   -1    0    0  501  502  0.00000000000E+00  0.00000000000E+00  0.17054006304E+03  0.17054006304E+03  0.00000000000E+00 0. -1.
         -2   -1    0    0    0  501 -0.00000000000E+00 -0.00000000000E+00 -0.36162915771E+03  0.36162915771E+03  0.00000000000E+00 0.  1.
         23    2    1    2    0    0  0.13302284279E+02 -0.13669811880E+02 -0.20544168713E+03  0.22574203097E+03  0.91593467059E+02 0.  0.
        -24    2    1    2    0    0  0.47852235006E+02 -0.66433411090E+00  0.18028508851E+02  0.94873754208E+02  0.79910727511E+02 0.  0.
         11    1    4    4    0    0  0.45170599408E+02  0.12199940106E+02  0.44971325060E+02  0.64897162242E+02  0.00000000000E+00 0. -1.
        -12    1    4    4    0    0  0.26816355972E+01 -0.12864274217E+02 -0.26942816209E+02  0.29976591965E+02  0.00000000000E+00 0.  1.
        -13    1    3    3    0    0  0.32303004080E+02 -0.35359758925E+02 -0.18311138971E+03  0.18927117495E+03  0.00000000000E+00 0.  1.
         13    1    3    3    0    0 -0.19000719801E+02  0.21689947044E+02 -0.22330297423E+02  0.36470856019E+02  0.00000000000E+00 0. -1.
         21    1    1    2  503  502  0.57242205135E+02  0.32025650307E+02  0.47884042131E+02  0.81210798649E+02  0.00000000000E+00 0. -1.
         -1    1    1    2    0  503 -0.11839672442E+03 -0.17691504316E+02 -0.51559958521E+02  0.13034263693E+03  0.00000000000E+00 0.  1.
<scales pt_clust_5="13000.00000" pt_clust_6="13000.00000" pt_clust_7="13000.00000" pt_clust_8="13000.00000" pt_clust_9="65.59201" pt_clust_10="88.65334"></scales>
<clustering>
<clus scale="   65.592">  1  9  2 -1</clus>
<clus scale="   79.911">  5  6 -1 -1</clus>
<clus scale="   91.593">  7  8 -1 -1</clus>
<clus scale="   94.099">  2  7  1 -1</clus>
<clus scale="   88.653">  1 10  2 -1</clus>
<clus scale="   65.592">  1  5  2 -1</clus>
</clustering>
</event>
<event>
10    3  0.7209067E-005  0.1673628E+03  0.7546771E-02  0.1198731E+00
         21   -1    0    0  501  502  0.00000000000E+00  0.00000000000E+00  0.35056448294E+03  0.35056448294E+03  0.00000000000E+00 0.  1.
         -2   -1    0    0    0  501 -0.00000000000E+00 -0.00000000000E+00 -0.17849097153E+03  0.17849097153E+03  0.00000000000E+00 0.  1.
        -24    2    1    2    0    0 -0.44395283469E+02  0.65739542655E+02  0.55056879483E+02  0.13071659313E+03  0.88107542682E+02 0.  0.
         23    2    1    2    0    0 -0.70754354197E+02  0.77514401935E+02 -0.36946316428E+02  0.14370604583E+03  0.90949085568E+02 0.  0.
         11    1    3    3    0    0  0.17145157202E+02  0.36704933224E+02  0.47226377383E+02  0.62221694442E+02  0.00000000000E+00 0. -1.
        -12    1    3    3    0    0 -0.61540440671E+02  0.29034609431E+02  0.78305020996E+01  0.68494898685E+02  0.00000000000E+00 0.  1.
        -13    1    4    4    0    0 -0.68343042163E+02  0.76349655326E+01 -0.22040001054E+02  0.72213750472E+02  0.00000000000E+00 0. -1.
         13    1    4    4    0    0 -0.24113120334E+01  0.69879436402E+02 -0.14906315375E+02  0.71492295359E+02  0.00000000000E+00 0.  1.
         21    1    1    2  503  502  0.17614735804E+02 -0.23168275303E+02  0.76023620554E+02  0.81404169304E+02  0.00000000000E+00 0. -1.
         -1    1    1    2    0  503  0.97534901862E+02 -0.12008566929E+03  0.77939327800E+02  0.17322864621E+03  0.00000000000E+00 0.  1.
<scales pt_clust_5="13000.00000" pt_clust_6="13000.00000" pt_clust_7="13000.00000" pt_clust_8="13000.00000" pt_clust_9="29.10409" pt_clust_10="140.49406"></scales>
<clustering>
<clus scale="   29.104">  1  9  2 -1</clus>
<clus scale="   88.108">  5  6 -1 -1</clus>
<clus scale="   90.949">  7  8 -1 -1</clus>
<clus scale="  112.157">  2  5  1 -1</clus>
<clus scale="  140.494">  1 10  2 -1</clus>
<clus scale="   29.104">  1  5  2 -1</clus>
</clustering>
</event>
<event>
10    3  0.7209067E-005  0.1042981E+03  0.7546771E-02  0.1275437E+00
          1   -1    0    0  503    0 -0.00000000000E+00  0.00000000000E+00  0.34726128379E+03  0.34726128379E+03  0.00000000000E+00 0. -1.
         21   -1    0    0  501  502  0.00000000000E+00 -0.00000000000E+00 -0.79993492237E+02  0.79993492237E+02  0.00000000000E+00 0. -1.
         23    2    1    2    0    0 -0.21899390217E+02  0.36647025940E+02  0.20321978005E+03  0.22615141860E+03  0.89574535040E+02 0.  0.
        -24    2    1    2    0    0  0.34766883327E+02 -0.82498129753E+02  0.57548785693E+02  0.13350910449E+03  0.80611045506E+02 0.  0.
         13    1    4    4    0    0 -0.10490656900E+02 -0.73583361203E+02  0.36517845018E+02  0.82813754491E+02  0.00000000000E+00 0. -1.
        -14    1    4    4    0    0  0.45257540227E+02 -0.89147685494E+01  0.21030940675E+02  0.50695349997E+02  0.00000000000E+00 0.  1.
        -11    1    3    3    0    0 -0.39318138678E+02  0.58792659569E+02  0.13678825044E+03  0.15399194234E+03  0.00000000000E+00 0. -1.
         11    1    3    3    0    0  0.17418748461E+02 -0.22145633630E+02  0.66431529614E+02  0.72159476257E+02  0.00000000000E+00 0.  1.
         21    1    1    2  503  502  0.61790274963E+01  0.20525347498E+02 -0.17638681982E+02  0.27759563628E+02  0.00000000000E+00 0. -1.
          2    1    1    2  501    0 -0.19046520606E+02  0.25325756315E+02  0.24137907789E+02  0.39834689311E+02  0.00000000000E+00 0. -1.
<scales pt_clust_5="13000.00000" pt_clust_6="13000.00000" pt_clust_7="13000.00000" pt_clust_8="13000.00000" pt_clust_9="21.43526" pt_clust_10="33.51054"></scales>
<clustering>
<clus scale="   21.435">  2  9  1 -1</clus>
<clus scale="   33.511">  2 10  1 -1</clus>
<clus scale="   80.611">  5  6 -1 -1</clus>
<clus scale="   89.575">  7  8 -1 -1</clus>
<clus scale="   96.709">  2  5  1 -1</clus>
<clus scale="   21.435">  2  5  1 -1</clus>
</clustering>
</event>
<event>
10    3  0.9150237E-005  0.3483719E+03  0.7546771E-02  0.1075319E+00
         21   -1    0    0  501  502  0.00000000000E+00  0.00000000000E+00  0.30131963580E+03  0.30131963580E+03  0.00000000000E+00 0.  1.
         -4   -1    0    0    0  501 -0.00000000000E+00 -0.00000000000E+00 -0.97370724421E+03  0.97370724421E+03  0.00000000000E+00 0.  1.
        -24    2    1    2    0    0  0.22042069624E+03  0.93584925694E+02 -0.36128363988E+03  0.44103012311E+03  0.81475636862E+02 0.  0.
         23    2    1    2    0    0  0.13556840769E+03 -0.29942645059E+03 -0.83497085656E+02  0.35250881807E+03  0.96206605950E+02 0.  0.
         11    1    3    3    0    0  0.60467750936E+01  0.25580908988E+02 -0.55860009947E+02  0.61735622658E+02  0.00000000000E+00 0. -1.
        -12    1    3    3    0    0  0.21437392114E+03  0.68004016706E+02 -0.30542362993E+03  0.37929450045E+03  0.00000000000E+00 0.  1.
        -11    1    4    4    0    0  0.57549904133E+02 -0.12667580276E+03  0.13122265256E+02  0.13975315495E+03  0.00000000000E+00 0. -1.
         11    1    4    4    0    0  0.78018503554E+02 -0.17275064782E+03 -0.96619350912E+02  0.21275566312E+03  0.00000000000E+00 0.  1.
         21    1    1    2  503  502 -0.22618747174E+02  0.10396949995E+01  0.88742698842E+01  0.24319567335E+02  0.00000000000E+00 0. -1.
         -3    1    1    2    0  503 -0.33337035675E+03  0.20480182989E+03 -0.23648115276E+03  0.45716837150E+03  0.00000000000E+00 0.  1.
<scales pt_clust_5="13000.00000" pt_clust_6="13000.00000" pt_clust_7="13000.00000" pt_clust_8="13000.00000" pt_clust_9="22.64263" pt_clust_10="334.82438"></scales>
<clustering>
<clus scale="   22.643">  1  9  2 -1</clus>
<clus scale="   81.476">  5  6 -1 -1</clus>
<clus scale="   96.207">  7  8 -1 -1</clus>
<clus scale="  250.245">  2  5  1 -1</clus>
<clus scale="  334.824">  1 10  2 -1</clus>
<clus scale="   22.643">  1  5  2 -1</clus>
</clustering>
</event>
<event>
10    3  0.7209067E-005  0.2260982E+03  0.7546771E-02  0.1165097E+00
         21   -1    0    0  501  502  0.00000000000E+00  0.00000000000E+00  0.66501541081E+03  0.66501541081E+03  0.00000000000E+00 0. -1.
          1   -1    0    0  503    0 -0.00000000000E+00 -0.00000000000E+00 -0.31868370489E+03  0.31868370489E+03  0.00000000000E+00 0. -1.
         23    2    1    2    0    0 -0.28901256245E+02  0.20840580557E+02 -0.86952861354E+02  0.13147498035E+03  0.91952476578E+02 0.  0.
        -24    2    1    2    0    0  0.81993897072E+02  0.22610236274E+03  0.11027416451E+02  0.25401026572E+03  0.80958838833E+02 0.  0.
         13    1    4    4    0    0  0.77048948159E+02  0.16988329109E+03 -0.23246261814E+02  0.18798207812E+03  0.00000000000E+00 0. -1.
        -14    1    4    4    0    0  0.49449489128E+01  0.56219071651E+02  0.34273678265E+02  0.66028187608E+02  0.00000000000E+00 0.  1.
        -13    1    3    3    0    0  0.23512795299E+02  0.17925741328E+02  0.39163242203E+00  0.29569192090E+02  0.00000000000E+00 0.  1.
         13    1    3    3    0    0 -0.52414051544E+02  0.29148392291E+01 -0.87344493776E+02  0.10190578826E+03  0.00000000000E+00 0. -1.
         21    1    1    2  503  502  0.31393548908E+02 -0.78422135680E+02  0.39949901573E+03  0.40833203383E+03  0.00000000000E+00 0. -1.
          2    1    1    2  501    0 -0.84486189734E+02 -0.16852080762E+03  0.22758135098E+02  0.18988183581E+03  0.00000000000E+00 0. -1.
<scales pt_clust_5="13000.00000" pt_clust_6="13000.00000" pt_clust_7="13000.00000" pt_clust_8="13000.00000" pt_clust_9="84.47240" pt_clust_10="211.10686"></scales>
<clustering>
<clus scale="   80.959">  5  6 -1 -1</clus>
<clus scale="   84.472">  1  9  2 -1</clus>
<clus scale="   91.952">  7  8 -1 -1</clus>
<clus scale="   96.661">  2  7  1 -1</clus>
<clus scale="  211.107">  1 10  2 -1</clus>
<clus scale="   84.472">  1  5  2 -1</clus>
</clustering>
</event>
<event>
10    3  0.7209067E-005  0.1233953E+03  0.7546771E-02  0.1241660E+00
         21   -1    0    0  501  502  0.00000000000E+00  0.00000000000E+00  0.14637563902E+03  0.14637563902E+03  0.00000000000E+00 0.  1.
          1   -1    0    0  503    0 -0.00000000000E+00 -0.00000000000E+00 -0.98772555043E+03  0.98772555043E+03  0.00000000000E+00 0. -1.
         23    2    1    2    0    0 -0.10535169474E+03 -0.31604288478E+02 -0.51738144617E+03  0.53703689756E+03  0.92883033248E+02 0.  0.
        -24    2    1    2    0    0  0.45776090839E+02 -0.58392641268E+02 -0.19239667166E+03  0.22098011894E+03  0.79439175794E+02 0.  0.
         11    1    4    4    0    0  0.67039842451E+02 -0.51021974097E+02 -0.16699912028E+03  0.18704622020E+03  0.00000000000E+00 0. -1.
        -12    1    4    4    0    0 -0.21263751612E+02 -0.73706671708E+01 -0.25397551386E+02  0.33933898739E+02  0.00000000000E+00 0.  1.
        -13    1    3    3    0    0 -0.10106487520E+03  0.74285240037E-01 -0.46346243761E+03  0.47435381900E+03  0.00000000000E+00 0. -1.
         13    1    3    3    0    0 -0.42868195391E+01 -0.31678573718E+02 -0.53919008556E+02  0.62683078564E+02  0.00000000000E+00 0.  1.
         21    1    1    2  503  502  0.75589764762E+01  0.43972757598E+02  0.11318595363E+03  0.12166265506E+03  0.00000000000E+00 0.  1.
          2    1    1    2  501    0  0.52016627422E+02  0.46024172148E+02 -0.24475774720E+03  0.25442151789E+03  0.00000000000E+00 0. -1.
<scales pt_clust_5="13000.00000" pt_clust_6="13000.00000" pt_clust_7="13000.00000" pt_clust_8="13000.00000" pt_clust_9="44.61773" pt_clust_10="75.40683"></scales>
<clustering>
<clus scale="   44.618">  1  9  2 -1</clus>
<clus scale="   75.407">  1 10  2 -1</clus>
<clus scale="   79.439">  5  6 -1 -1</clus>
<clus scale="   92.883">  7  8 -1 -1</clus>
<clus scale="  113.621">  1  5  2 -1</clus>
<clus scale="   44.618">  1  5  2 -1</clus>
</clustering>
</event>
<event>
10    3  0.7209067E-005  0.1215973E+03  0.7546771E-02  0.1243606E+00
          3   -1    0    0  503    0 -0.00000000000E+00  0.00000000000E+00  0.49355833723E+03  0.49355833723E+03  0.00000000000E+00 0. -1.
         21   -1    0    0  501  502  0.00000000000E+00 -0.00000000000E+00 -0.45279851379E+02  0.45279851379E+02  0.00000000000E+00 0.  1.
         23    2    1    2    0    0  0.72491894853E+02 -0.29048609635E+02  0.20018132399E+03  0.23251724075E+03  0.88841478088E+02 0.  0.
        -24    2    1    2    0    0 -0.63329995086E+02  0.69406344141E+02  0.16629285005E+03  0.20644371875E+03  0.78343909453E+02 0.  0.
         11    1    4    4    0    0 -0.72218529431E+02  0.29860982977E+02  0.13177554275E+03  0.15320570474E+03  0.00000000000E+00 0. -1.
        -12    1    4    4    0    0  0.88885343455E+01  0.39545361163E+02  0.34517307299E+02  0.53238014008E+02  0.00000000000E+00 0.  1.
        -11    1    3    3    0    0  0.15310821580E+02 -0.20531739624E+02  0.15667077337E+01  0.25659855076E+02  0.00000000000E+00 0.  1.
         11    1    3    3    0    0  0.57181073273E+02 -0.85168700116E+01  0.19861461626E+03  0.20685738567E+03  0.00000000000E+00 0. -1.
         21    1    1    2  503  502 -0.23887713589E+02 -0.17490764320E+02  0.36048575188E+02  0.46648145409E+02  0.00000000000E+00 0. -1.
          4    1    1    2  501    0  0.14725813822E+02 -0.22866970185E+02  0.45755736615E+02  0.53229083699E+02  0.00000000000E+00 0. -1.
<scales pt_clust_5="13000.00000" pt_clust_6="13000.00000" pt_clust_7="13000.00000" pt_clust_8="13000.00000" pt_clust_9="30.01476" pt_clust_10="27.19832"></scales>
<clustering>
<clus scale="   27.198">  2 10  1 -1</clus>
<clus scale="   30.015">  2  9  1 -1</clus>
<clus scale="   78.344">  5  6 -1 -1</clus>
<clus scale="   88.841">  7  8 -1 -1</clus>
<clus scale="  114.153">  2  5  1 -1</clus>
<clus scale="   27.198">  2  5  1 -1</clus>
</clustering>
</event>
<event>
10    3  0.7209067E-005  0.9905522E+02  0.7546771E-02  0.1303568E+00
         21   -1    0    0  503  502  0.00000000000E+00  0.00000000000E+00  0.17686014181E+03  0.17686014181E+03  0.00000000000E+00 0.  1.
          3   -1    0    0  502    0 -0.00000000000E+00 -0.00000000000E+00 -0.15626682944E+03  0.15626682944E+03  0.00000000000E+00 0. -1.
        -24    2    1    2    0    0  0.22964679077E+02  0.34745032104E+02 -0.10365063107E+03  0.12326612556E+03  0.52119964016E+02 0.  0.
         23    2    1    2    0    0 -0.90048505899E+01 -0.41113907504E+02  0.11798983610E+03  0.15421630800E+03  0.89942356570E+02 0.  0.
         13    1    3    3    0    0 -0.99825526550E+01  0.31362360585E+02 -0.60463825712E+02  0.68841290217E+02  0.00000000000E+00 0. -1.
        -14    1    3    3    0    0  0.32947231732E+02  0.33826715193E+01 -0.43186805353E+02  0.54424835342E+02  0.00000000000E+00 0.  1.
        -11    1    4    4    0    0 -0.45140903965E+02 -0.13147328382E+02  0.87352420848E+02  0.99201808866E+02  0.00000000000E+00 0.  1.
         11    1    4    4    0    0  0.36136053375E+02 -0.27966579122E+02  0.30637415248E+02  0.55014499129E+02  0.00000000000E+00 0. -1.
         21    1    1    2  503  501  0.16212737786E+02  0.12416861215E+02  0.12910455417E+02  0.24160115232E+02  0.00000000000E+00 0.  1.
          4    1    1    2  501    0 -0.30172566273E+02 -0.60479858154E+01 -0.66563480780E+01  0.31484422460E+02  0.00000000000E+00 0. -1.
<scales pt_clust_5="13000.00000" pt_clust_6="13000.00000" pt_clust_7="13000.00000" pt_clust_8="13000.00000" pt_clust_9="20.42134" pt_clust_10="29.34345"></scales>
<clustering>
<clus scale="   20.421">  1  9  2 -1</clus>
<clus scale="   29.343">  1 10  2 -1</clus>
<clus scale="   52.120">  5  6 -1 -1</clus>
<clus scale="   66.624">  2  5  1 -1</clus>
<clus scale="   89.942">  7  8 -1 -1</clus>
<clus scale="   20.421">  1  5  2 -1</clus>
</clustering>
</event>
<event>
10    3  0.7209067E-005  0.1286266E+03  0.7546771E-02  0.1231028E+00
          1   -1    0    0  503    0 -0.00000000000E+00  0.00000000000E+00  0.46201630592E+03  0.46201630592E+03  0.00000000000E+00 0. -1.
         21   -1    0    0  501  502  0.00000000000E+00 -0.00000000000E+00 -0.95157736144E+02  0.95157736144E+02  0.00000000000E+00 0. -1.
         23    2    1    2    0    0 -0.92531991131E+02 -0.79662781748E+02  0.15739564931E+03  0.21712634183E+03  0.86383619480E+02 0.  0.
        -24    2    1    2    0    0  0.67510019033E+02  0.12203217976E+02  0.37979620305E+02  0.11227163198E+03  0.80348905339E+02 0.  0.
         11    1    4    4    0    0  0.65093220162E+02 -0.10268887706E+02 -0.24604460416E+01  0.65944151830E+02  0.00000000000E+00 0. -1.
        -12    1    4    4    0    0  0.24167988709E+01  0.22472105682E+02  0.40440066347E+02  0.46327480146E+02  0.00000000000E+00 0.  1.
        -13    1    3    3    0    0 -0.10586412593E+03 -0.50081534193E+02  0.12231260051E+03  0.16933914335E+03  0.00000000000E+00 0. -1.
         13    1    3    3    0    0  0.13332134801E+02 -0.29581247555E+02  0.35083048800E+02  0.47787198478E+02  0.00000000000E+00 0.  1.
         21    1    1    2  503  502 -0.13055784770E+02 -0.28077279472E+02  0.39796082650E+01  0.31218975326E+02  0.00000000000E+00 0.  1.
          2    1    1    2  501    0  0.38077756867E+02  0.95536843244E+02  0.16750369189E+03  0.19655709293E+03  0.00000000000E+00 0. -1.
<scales pt_clust_5="13000.00000" pt_clust_6="13000.00000" pt_clust_7="13000.00000" pt_clust_8="13000.00000" pt_clust_9="30.96429" pt_clust_10="97.33816"></scales>
<clustering>
<clus scale="   30.964">  2  9  1 -1</clus>
<clus scale="   80.349">  5  6 -1 -1</clus>
<clus scale="   86.384">  7  8 -1 -1</clus>
<clus scale="   97.338">  2 10  1 -1</clus>
<clus scale="  124.654">  2  5  1 -1</clus>
<clus scale="   30.964">  2  5  1 -1</clus>
</clustering>
</event>
<event>
10    3  0.7209067E-005  0.1079547E+03  0.7546771E-02  0.1265748E+00
         -2   -1    0    0    0  501 -0.00000000000E+00  0.00000000000E+00  0.25260409151E+03  0.25260409151E+03  0.00000000000E+00 0.  1.
         21   -1    0    0  503  502  0.00000000000E+00 -0.00000000000E+00 -0.16447261966E+03  0.16447261966E+03  0.00000000000E+00 0. -1.
        -24    2    1    2    0    0  0.37675971263E+02  0.47231754540E+02  0.15116802704E+03  0.18550850751E+03  0.88945581737E+02 0.  0.
         23    2    1    2    0    0 -0.51042929898E+02 -0.15202228372E+02  0.32591264207E+02  0.11137455165E+03  0.92225873875E+02 0.  0.
         11    1    3    3    0    0  0.53957326240E+02  0.55869011226E+02  0.78081064243E+02  0.11013351926E+03  0.00000000000E+00 0. -1.
        -12    1    3    3    0    0 -0.16281354976E+02 -0.86372566858E+01  0.73086962798E+02  0.75374988252E+02  0.00000000000E+00 0.  1.
        -13    1    4    4    0    0  0.62544712467E+01 -0.39950877949E+02  0.27187293111E+02  0.48727199449E+02  0.00000000000E+00 0. -1.
         13    1    4    4    0    0 -0.57297401145E+02  0.24748649577E+02  0.54039710965E+01  0.62647352198E+02  0.00000000000E+00 0.  1.
         21    1    1    2  503  501 -0.15240767681E+02 -0.40140240712E+02 -0.60157408356E+02  0.73908278995E+02  0.00000000000E+00 0. -1.
         -1    1    1    2    0  502  0.28607726315E+02  0.81107145436E+01 -0.35470411044E+02  0.46285373014E+02  0.00000000000E+00 0.  1.
<scales pt_clust_5="13000.00000" pt_clust_6="13000.00000" pt_clust_7="13000.00000" pt_clust_8="13000.00000" pt_clust_9="35.74237" pt_clust_10="29.73526"></scales>
<clustering>
<clus scale="   29.735">  2 10  1 -1</clus>
<clus scale="   35.742">  2  9  1 -1</clus>
<clus scale="   88.946">  5  6 -1 -1</clus>
<clus scale="   92.226">  7  8 -1 -1</clus>
<clus scale="  105.166">  1  5  2 -1</clus>
<clus scale="   29.735">  2  5  1 -1</clus>
</clustering>
</event>
<event>
10    3  0.7209067E-005  0.9226581E+02  0.7546771E-02  0.1299924E+00
         -2   -1    0    0    0  501 -0.00000000000E+00  0.00000000000E+00  0.13405684101E+03  0.13405684101E+03  0.00000000000E+00 0.  1.
         21   -1    0    0  503  502  0.00000000000E+00 -0.00000000000E+00 -0.23894007190E+03  0.23894007190E+03  0.00000000000E+00 0.  1.
        -24    2    1    2    0    0 -0.20640105757E+02 -0.28030761869E+02  0.51927839003E+02  0.10161454940E+03  0.80107918519E+02 0.  0.
         23    2    1    2    0    0 -0.27173803712E+02  0.55748803323E+02 -0.12988995524E+02  0.10570824413E+03  0.84611903366E+02 0.  0.
         13    1    3    3    0    0 -0.14566866909E+02  0.19339081865E+02 -0.75266020674E+01  0.25354357369E+02  0.00000000000E+00 0. -1.
        -14    1    3    3    0    0 -0.60732388488E+01 -0.47369843734E+02  0.59454441070E+02  0.76260192030E+02  0.00000000000E+00 0.  1.
        -13    1    4    4    0    0 -0.21805961737E+02  0.43090816305E+01 -0.41186668676E+02  0.46801814371E+02  0.00000000000E+00 0. -1.
         13    1    4    4    0    0 -0.53678419750E+01  0.51439721692E+02  0.28197673152E+02  0.58906429755E+02  0.00000000000E+00 0.  1.
         21    1    1    2  503  501  0.23985509777E+02 -0.12220834746E+02 -0.97635838036E+01  0.28635311241E+02  0.00000000000E+00 0. -1.
         -1    1    1    2    0  502  0.23828399692E+02 -0.15497206708E+02 -0.13405849056E+03  0.13703880815E+03  0.00000000000E+00 0.  1.
<scales pt_clust_5="13000.00000" pt_clust_6="13000.00000" pt_clust_7="13000.00000" pt_clust_8="13000.00000" pt_clust_9="26.91939" pt_clust_10="44.97178"></scales>
<clustering>
<clus scale="   26.919">  2  9  1 -1</clus>
<clus scale="   44.972">  2 10  1 -1</clus>
<clus scale="   80.108">  5  6 -1 -1</clus>
<clus scale="   84.612">  7  8 -1 -1</clus>
<clus scale="   88.154">  1  5  2 -1</clus>
<clus scale="   26.919">  2  5  1 -1</clus>
</clustering>
</event>
<event>
10    3  0.7209067E-005  0.1027497E+03  0.7546771E-02  0.1280714E+00
          1   -1    0    0  503    0 -0.00000000000E+00  0.00000000000E+00  0.39329471888E+03  0.39329471888E+03  0.00000000000E+00 0. -1.
         21   -1    0    0  501  502  0.00000000000E+00 -0.00000000000E+00 -0.12509484272E+03  0.12509484272E+03  0.00000000000E+00 0. -1.
        -24    2    1    2    0    0  0.49520433644E+02 -0.12987029384E+02  0.11559295503E+03  0.14925977116E+03  0.79346151482E+02 0.  0.
         23    2    1    2    0    0 -0.89723602281E+01  0.57419317733E+02  0.55548804146E+02  0.12228043462E+03  0.92137689092E+02 0.  0.
         11    1    3    3    0    0  0.26598970695E+02  0.33379056702E+02  0.53978070246E+02  0.68813506929E+02  0.00000000000E+00 0. -1.
        -12    1    3    3    0    0  0.22921462949E+02 -0.46366086085E+02  0.61614884781E+02  0.80446264234E+02  0.00000000000E+00 0.  1.
        -11    1    4    4    0    0 -0.24176732479E+02  0.19752252382E+02 -0.19595611531E+02  0.36859922121E+02  0.00000000000E+00 0. -1.
         11    1    4    4    0    0  0.15204372251E+02  0.37667065351E+02  0.75144415677E+02  0.85420512496E+02  0.00000000000E+00 0.  1.
         21    1    1    2  503  502  0.34968891575E+02 -0.48681522871E+02 -0.52224362507E+02  0.79499044562E+02  0.00000000000E+00 0. -1.
          2    1    1    2  501    0 -0.75516964991E+02  0.42492345214E+01  0.14928247949E+03  0.16735031126E+03  0.00000000000E+00 0. -1.
<scales pt_clust_5="13000.00000" pt_clust_6="13000.00000" pt_clust_7="13000.00000" pt_clust_8="13000.00000" pt_clust_9="59.93925" pt_clust_10="70.25553"></scales>
<clustering>
<clus scale="   59.939">  2  9  1 -1</clus>
<clus scale="   70.256">  2 10  1 -1</clus>
<clus scale="   79.346">  5  6 -1 -1</clus>
<clus scale="   91.455">  1  5  2 -1</clus>
<clus scale="   92.138">  7  8 -1 -1</clus>
<clus scale="   59.939">  2  5  1 -1</clus>
</clustering>
</event>
<event>
10    3  0.7209067E-005  0.1207358E+03  0.7546771E-02  0.1245452E+00
          1   -1    0    0  502    0 -0.00000000000E+00  0.00000000000E+00  0.35647696087E+03  0.35647696087E+03  0.00000000000E+00 0. -1.
         21   -1    0    0  503  502  0.00000000000E+00 -0.00000000000E+00 -0.11247775681E+03  0.11247775681E+03  0.00000000000E+00 0. -1.
         23    2    1    2    0    0 -0.51985291965E+02  0.60579809448E+02  0.74689470341E+02  0.14138961878E+03  0.89666735329E+02 0.  0.
        -24    2    1    2    0    0  0.95706289097E+02 -0.13233776846E+02  0.21047760563E+02  0.12595470519E+03  0.78017644875E+02 0.  0.
         13    1    4    4    0    0  0.86561810920E+02  0.15266737794E+02  0.32772510345E+02  0.93808623415E+02  0.00000000000E+00 0. -1.
        -14    1    4    4    0    0  0.91444781763E+01 -0.28500514640E+02 -0.11724749782E+02  0.32146081772E+02  0.00000000000E+00 0.  1.
        -11    1    3    3    0    0 -0.71402366972E+01  0.21986669073E+02  0.78762111815E+02  0.82084510442E+02  0.00000000000E+00 0.  1.
         11    1    3    3    0    0 -0.44845055268E+02  0.38593140375E+02 -0.40726414735E+01  0.59305108335E+02  0.00000000000E+00 0. -1.
         21    1    1    2  503  501  0.16294265905E+01 -0.39963904908E+02 -0.61861105634E+01  0.40472665966E+02  0.00000000000E+00 0. -1.
          2    1    1    2  501    0 -0.45350423722E+02 -0.73821276941E+01  0.15444808371E+03  0.16113772775E+03  0.00000000000E+00 0. -1.
<scales pt_clust_5="13000.00000" pt_clust_6="13000.00000" pt_clust_7="13000.00000" pt_clust_8="13000.00000" pt_clust_9="39.99711" pt_clust_10="46.15197"></scales>
<clustering>
<clus scale="   39.997">  2  9  1 -1</clus>
<clus scale="   46.152">  2 10  1 -1</clus>
<clus scale="   78.018">  5  6 -1 -1</clus>
<clus scale="   89.667">  7  8 -1 -1</clus>
<clus scale="  112.355">  2  5  1 -1</clus>
<clus scale="   39.997">  2  5  1 -1</clus>
</clustering>
</event>
<event>
10    3  0.7209067E-005  0.1210033E+03  0.7546771E-02  0.1259171E+00
          1   -1    0    0  503    0 -0.00000000000E+00  0.00000000000E+00  0.53967992060E+03  0.53967992060E+03  0.00000000000E+00 0. -1.
         21   -1    0    0  501  502  0.00000000000E+00 -0.00000000000E+00 -0.65681579622E+02  0.65681579622E+02  0.00000000000E+00 0.  1.
        -24    2    1    2    0    0  0.13214853612E+02 -0.26856844928E+02  0.24302233935E+03  0.25800967875E+03  0.81321672563E+02 0.  0.
         23    2    1    2    0    0 -0.20491749489E+02 -0.35688861672E+01  0.13293201508E+03  0.17928561461E+03  0.11848950260E+03 0.  0.
         11    1    3    3    0    0  0.27067151436E+02  0.10475784257E+02  0.31746441056E+02  0.43014058892E+02  0.00000000000E+00 0. -1.
        -12    1    3    3    0    0 -0.13852297824E+02 -0.37332629185E+02  0.21127589830E+03  0.21499561986E+03  0.00000000000E+00 0.  1.
        -13    1    4    4    0    0 -0.63195074606E+02 -0.15363171377E+02  0.11370666195E+03  0.13099179158E+03  0.00000000000E+00 0. -1.
         13    1    4    4    0    0  0.42703325117E+02  0.11794285210E+02  0.19225353132E+02  0.48293823029E+02  0.00000000000E+00 0.  1.
         21    1    1    2  503  502  0.24840712783E+02  0.45227798639E+02 -0.14181846963E+02  0.53513919354E+02  0.00000000000E+00 0.  1.
          2    1    1    2  501    0 -0.17563816906E+02 -0.14802067544E+02  0.11222583351E+03  0.11455228751E+03  0.00000000000E+00 0. -1.
<scales pt_clust_5="13000.00000" pt_clust_6="13000.00000" pt_clust_7="13000.00000" pt_clust_8="13000.00000" pt_clust_9="40.59069" pt_clust_10="22.96931"></scales>
<clustering>
<clus scale="   22.969">  2 10  1 -1</clus>
<clus scale="   40.591">  2  9  1 -1</clus>
<clus scale="   81.322">  5  6 -1 -1</clus>
<clus scale="   84.943">  1  5  2 -1</clus>
<clus scale="  118.490">  7  8 -1 -1</clus>
<clus scale="   22.969">  2  5  1 -1</clus>
</clustering>
</event>
<event>
10    3  0.7209067E-005  0.2201926E+03  0.7546771E-02  0.1159831E+00
          1   -1    0    0  502    0 -0.00000000000E+00  0.00000000000E+00  0.12954836372E+03  0.12954836372E+03  0.00000000000E+00 0. -1.
         21   -1    0    0  503  502  0.00000000000E+00 -0.00000000000E+00 -0.11357887510E+04  0.11357887510E+04  0.00000000000E+00 0. -1.
        -24    2    1    2    0    0 -0.41041974341E+02  0.77667580741E+02 -0.23961389518E+03  0.26719584387E+03  0.79133453499E+02 0.  0.
         23    2    1    2    0    0  0.44713937435E+02 -0.26807909781E+03 -0.10241465448E+03  0.30434338906E+03  0.90941729321E+02 0.  0.
         11    1    3    3    0    0 -0.57191356333E+02  0.39234353567E+02 -0.10153932904E+03  0.12296512140E+03  0.00000000000E+00 0. -1.
        -12    1    3    3    0    0  0.16149381993E+02  0.38433227173E+02 -0.13807456614E+03  0.14423072247E+03  0.00000000000E+00 0.  1.
        -13    1    4    4    0    0  0.36182302244E+02 -0.43792047107E+02 -0.45523570720E+02  0.72796276530E+02  0.00000000000E+00 0.  1.
         13    1    4    4    0    0  0.85316351904E+01 -0.22428705070E+03 -0.56891083759E+02  0.23154711253E+03  0.00000000000E+00 0. -1.
         21    1    1    2  503  501 -0.22018791756E+02  0.44127378108E+02 -0.23039005506E+03  0.23560906214E+03  0.00000000000E+00 0. -1.
          2    1    1    2  501    0  0.18346828662E+02  0.14628413896E+03 -0.43382178255E+03  0.45818881965E+03  0.00000000000E+00 0. -1.
<scales pt_clust_5="13000.00000" pt_clust_6="13000.00000" pt_clust_7="13000.00000" pt_clust_8="13000.00000" pt_clust_9="36.15624" pt_clust_10="210.05356"></scales>
<clustering>
<clus scale="   36.156">  9 10 -1 -1</clus>
<clus scale="   79.133">  5  6 -1 -1</clus>
<clus scale="   90.942">  7  8 -1 -1</clus>
<clus scale="  118.232">  1  5  2 -1</clus>
<clus scale="  210.054">  2  9  1 -1</clus>
<clus scale="  210.054">  2  5  1 -1</clus>
</clustering>
</event>
<event>
10    3  0.7209067E-005  0.1071572E+03  0.7546771E-02  0.1269435E+00
         21   -1    0    0  503  502  0.00000000000E+00  0.00000000000E+00  0.81580344599E+02  0.81580344599E+02  0.00000000000E+00 0. -1.
          1   -1    0    0  502    0 -0.00000000000E+00 -0.00000000000E+00 -0.42403793237E+03  0.42403793237E+03  0.00000000000E+00 0. -1.
         23    2    1    2    0    0 -0.14710648165E+02 -0.58260513506E+02 -0.13020860579E+03  0.16861793949E+03  0.88696324007E+02 0.  0.
        -24    2    1    2    0    0  0.89346310161E+02  0.21150378506E+02 -0.43184306836E+02  0.12922785515E+03  0.80030322617E+02 0.  0.
         11    1    4    4    0    0  0.97919413648E+02  0.10208951556E+01 -0.43950287169E+02  0.10733536947E+03  0.00000000000E+00 0. -1.
        -12    1    4    4    0    0 -0.85731034868E+01  0.20129483351E+02  0.76598033311E+00  0.21892485680E+02  0.00000000000E+00 0.  1.
        -13    1    3    3    0    0 -0.28075427477E+02 -0.31714323423E+01 -0.18680327665E+01  0.28315669823E+02  0.00000000000E+00 0. -1.
         13    1    3    3    0    0  0.13364779312E+02 -0.55089081163E+02 -0.12834057302E+03  0.14030226966E+03  0.00000000000E+00 0.  1.
         21    1    1    2  503  501  0.14102426160E+02  0.21112576697E+02 -0.15659939174E+02  0.29830404176E+02  0.00000000000E+00 0. -1.
          2    1    1    2  501    0 -0.88738088156E+02  0.15997558302E+02 -0.15340473598E+03  0.17794207816E+03  0.00000000000E+00 0. -1.
<scales pt_clust_5="13000.00000" pt_clust_6="13000.00000" pt_clust_7="13000.00000" pt_clust_8="13000.00000" pt_clust_9="25.38935" pt_clust_10="88.58281"></scales>
<clustering>
<clus scale="   25.389">  1  9  2 -1</clus>
<clus scale="   80.030">  5  6 -1 -1</clus>
<clus scale="   88.583">  1 10  2 -1</clus>
<clus scale="   88.696">  7  8 -1 -1</clus>
<clus scale="  100.102">  1  5  2 -1</clus>
<clus scale="   25.389">  1  5  2 -1</clus>
</clustering>
</event>
<event>
10    3  0.7209067E-005  0.2637306E+03  0.7546771E-02  0.1143296E+00
         21   -1    0    0  503  502  0.00000000000E+00  0.00000000000E+00  0.31808258805E+03  0.31808258805E+03  0.00000000000E+00 0. -1.
          1   -1    0    0  502    0 -0.00000000000E+00 -0.00000000000E+00 -0.64631772677E+03  0.64631772677E+03  0.00000000000E+00 0. -1.
        -24    2    1    2    0    0 -0.88706313217E+01 -0.64020951694E+02 -0.38771013227E+03  0.40075441243E+03  0.78151020857E+02 0.  0.
         23    2    1    2    0    0  0.23175200258E+03 -0.49100650869E+02 -0.11656795500E+02  0.25377300607E+03  0.90249615590E+02 0.  0.
         13    1    3    3    0    0  0.18274838103E+02 -0.71033129759E+02 -0.27593798942E+03  0.28551961270E+03  0.00000000000E+00 0. -1.
        -14    1    3    3    0    0 -0.27145469424E+02  0.70121780649E+01 -0.11177214285E+03  0.11523479973E+03  0.00000000000E+00 0.  1.
        -11    1    4    4    0    0  0.46652184181E+02  0.20134393545E+02  0.18062142408E+02  0.53926441387E+02  0.00000000000E+00 0.  1.
         11    1    4    4    0    0  0.18509981840E+03 -0.69235044414E+02 -0.29718937908E+02  0.19984656468E+03  0.00000000000E+00 0. -1.
         21    1    1    2  503  501  0.56868322425E+01 -0.20391902757E+02  0.37467680850E+02  0.43034833186E+02  0.00000000000E+00 0. -1.
          2    1    1    2  501    0 -0.22856820350E+03  0.13351350532E+03  0.33664108204E+02  0.26683806313E+03  0.00000000000E+00 0. -1.
<scales pt_clust_5="13000.00000" pt_clust_6="13000.00000" pt_clust_7="13000.00000" pt_clust_8="13000.00000" pt_clust_9="21.17002" pt_clust_10="247.80810"></scales>
<clustering>
<clus scale="   21.170">  1  9  2 -1</clus>
<clus scale="   78.151">  5  6 -1 -1</clus>
<clus scale="   90.250">  7  8 -1 -1</clus>
<clus scale="  101.706">  2  5  1 -1</clus>
<clus scale="  247.808">  1 10  2 -1</clus>
<clus scale="   21.170">  1  5  2 -1</clus>
</clustering>
</event>
<event>
10    3  0.7209067E-005  0.2712949E+03  0.7546771E-02  0.1100541E+00
         -2   -1    0    0    0  501 -0.00000000000E+00  0.00000000000E+00  0.33557940237E+03  0.33557940237E+03  0.00000000000E+00 0.  1.
         21   -1    0    0  503  502  0.00000000000E+00 -0.00000000000E+00 -0.38585749153E+03  0.38585749153E+03  0.00000000000E+00 0. -1.
        -24    2    1    2    0    0  0.58819103976E+02  0.99317024361E+02  0.75987161494E+02  0.16061554334E+03  0.81851974498E+02 0.  0.
         23    2    1    2    0    0  0.70699987905E+02  0.39007997455E+02  0.14595858424E+03  0.19208888381E+03  0.95258169278E+02 0.  0.
         11    1    3    3    0    0  0.28252803805E+02  0.10633982699E+03  0.56442809679E+02  0.12366151581E+03  0.00000000000E+00 0. -1.
        -12    1    3    3    0    0  0.30566300171E+02 -0.70228026288E+01  0.19544351815E+02  0.36954027531E+02  0.00000000000E+00 0.  1.
        -13    1    4    4    0    0  0.46719749194E+02  0.33062079242E+02  0.15542701794E+03  0.16563029298E+03  0.00000000000E+00 0. -1.
         13    1    4    4    0    0  0.23980238711E+02  0.59459182133E+01 -0.94684336937E+01  0.26458590829E+02  0.00000000000E+00 0.  1.
         21    1    1    2  503  501 -0.48747225631E+02  0.21523809900E+02 -0.12845482892E+03  0.13906908166E+03  0.00000000000E+00 0. -1.
         -1    1    1    2    0  502 -0.80771866250E+02 -0.15984883172E+03 -0.14376900597E+03  0.22966338510E+03  0.00000000000E+00 0.  1.
<scales pt_clust_5="13000.00000" pt_clust_6="13000.00000" pt_clust_7="13000.00000" pt_clust_8="13000.00000" pt_clust_9="53.28758" pt_clust_10="185.38996"></scales>
<clustering>
<clus scale="   53.288">  2  9  1 -1</clus>
<clus scale="   81.852">  5  6 -1 -1</clus>
<clus scale="   95.258">  7  8 -1 -1</clus>
<clus scale="  120.023">  5  7 -1 -1</clus>
<clus scale="  185.390">  2 10  1 -1</clus>
<clus scale="   53.288">  2  5  1 -1</clus>
</clustering>
</event>
<event>
10    3  0.7209067E-005  0.1033659E+03  0.7546771E-02  0.1282989E+00
         21   -1    0    0  503  502  0.00000000000E+00  0.00000000000E+00  0.77280043672E+02  0.77280043672E+02  0.00000000000E+00 0.  1.
          1   -1    0    0  502    0 -0.00000000000E+00 -0.00000000000E+00 -0.28243130748E+03  0.28243130748E+03  0.00000000000E+00 0. -1.
        -24    2    1    2    0    0  0.30190417693E+02 -0.30513447898E+02 -0.84456587921E+02  0.12557766138E+03  0.82427555903E+02 0.  0.
         23    2    1    2    0    0  0.12028309329E+02  0.77154523749E+01 -0.58802063785E+02  0.11721310142E+03  0.10038436138E+03 0.  0.
         11    1    3    3    0    0  0.50088027198E+02 -0.39619256401E+02 -0.81431848507E+02  0.10348739970E+03  0.00000000000E+00 0. -1.
        -12    1    3    3    0    0 -0.19897609506E+02  0.91058085024E+01 -0.30247394143E+01  0.22090261679E+02  0.00000000000E+00 0.  1.
        -11    1    4    4    0    0  0.29916640502E+02  0.46887021868E+02 -0.46312398011E+02  0.72375661711E+02  0.00000000000E+00 0. -1.
         11    1    4    4    0    0 -0.17888331173E+02 -0.39171569493E+02 -0.12489665773E+02  0.44837439711E+02  0.00000000000E+00 0.  1.
         21    1    1    2  503  501 -0.23702439338E+02 -0.32705106566E+01  0.18602180459E+02  0.30307474134E+02  0.00000000000E+00 0.  1.
          2    1    1    2  501    0 -0.18516287683E+02  0.26068506180E+02 -0.80494792561E+02  0.86613114212E+02  0.00000000000E+00 0. -1.
<scales pt_clust_5="13000.00000" pt_clust_6="13000.00000" pt_clust_7="13000.00000" pt_clust_8="13000.00000" pt_clust_9="23.92701" pt_clust_10="32.63891"></scales>
<clustering>
<clus scale="   23.927">  1  9  2 -1</clus>
<clus scale="   32.639">  1 10  2 -1</clus>
<clus scale="   82.428">  5  6 -1 -1</clus>
<clus scale="   86.034">  2  5  1 -1</clus>
<clus scale="  100.384">  7  8 -1 -1</clus>
<clus scale="   23.927">  1  5  2 -1</clus>
</clustering>
</event>
<event>
10    3  0.7209067E-005  0.1075445E+03  0.7546771E-02  0.1268945E+00
          1   -1    0    0  503    0 -0.00000000000E+00  0.00000000000E+00  0.27661788635E+03  0.27661788635E+03  0.00000000000E+00 0. -1.
         21   -1    0    0  501  502  0.00000000000E+00 -0.00000000000E+00 -0.28244981631E+03  0.28244981631E+03  0.00000000000E+00 0. -1.
        -24    2    1    2    0    0 -0.18309646804E+02  0.55555457478E+02  0.23623160374E+03  0.25634019239E+03  0.80518765570E+02 0.  0.
         23    2    1    2    0    0  0.20714012982E+02 -0.69368976623E+02 -0.15537476051E+03  0.19348795584E+03  0.89750474105E+02 0.  0.
         11    1    3    3    0    0 -0.44836176056E+02  0.55689185145E+02  0.19046560082E+03  0.20344216161E+03  0.00000000000E+00 0. -1.
        -12    1    3    3    0    0  0.26526529252E+02 -0.13372766696E+00  0.45766002916E+02  0.52898030778E+02  0.00000000000E+00 0.  1.
        -11    1    4    4    0    0 -0.32392166808E+02 -0.12641686652E+02 -0.69247398274E+02  0.77487204618E+02  0.00000000000E+00 0. -1.
         11    1    4    4    0    0  0.53106179790E+02 -0.56727289971E+02 -0.86127362235E+02  0.11600075123E+03  0.00000000000E+00 0.  1.
         21    1    1    2  503  502 -0.20447707768E+02 -0.17518684807E+02 -0.54681770003E+02  0.60951694324E+02  0.00000000000E+00 0. -1.
          2    1    1    2  501    0  0.18043341589E+02  0.31332203951E+02 -0.32007003189E+02  0.48287860103E+02  0.00000000000E+00 0. -1.
<scales pt_clust_5="13000.00000" pt_clust_6="13000.00000" pt_clust_7="13000.00000" pt_clust_8="13000.00000" pt_clust_9="26.92607" pt_clust_10="31.65984"></scales>
<clustering>
<clus scale="   26.926">  2  9  1 -1</clus>
<clus scale="   31.660">  2 10  1 -1</clus>
<clus scale="   80.519">  5  6 -1 -1</clus>
<clus scale="   89.750">  7  8 -1 -1</clus>
<clus scale="   99.970">  1  5  2 -1</clus>
<clus scale="   26.926">  2  5  1 -1</clus>
</clustering>
</event>
<event>
10    3  0.7209067E-005  0.5383649E+03  0.7546771E-02  0.1061545E+00
         21   -1    0    0  503  502  0.00000000000E+00  0.00000000000E+00  0.22994352535E+04  0.22994352535E+04  0.00000000000E+00 0. -1.
          1   -1    0    0  502    0 -0.00000000000E+00 -0.00000000000E+00 -0.17865458787E+03  0.17865458787E+03  0.00000000000E+00 0. -1.
         23    2    1    2    0    0  0.88667514908E+01  0.34816641345E+02  0.21301508715E+03  0.23472281067E+03  0.91807149486E+02 0.  0.
        -24    2    1    2    0    0 -0.44905990723E+03  0.25003097932E+03  0.12210865999E+04  0.13274816548E+04  0.83574927884E+02 0.  0.
         13    1    4    4    0    0 -0.17423791815E+03  0.11384820815E+03  0.39862317594E+03  0.44968956294E+03  0.00000000000E+00 0. -1.
        -14    1    4    4    0    0 -0.27482198909E+03  0.13618277117E+03  0.82246342396E+03  0.87779209190E+03  0.00000000000E+00 0.  1.
        -13    1    3    3    0    0 -0.32381681350E+02  0.81066344819E+01  0.28869946282E+02  0.44133486243E+02  0.00000000000E+00 0.  1.
         13    1    3    3    0    0  0.41248432840E+02  0.26710006863E+02  0.18414514087E+03  0.19058932443E+03  0.00000000000E+00 0. -1.
         21    1    1    2  503  501 -0.17088865625E+02  0.17043497556E+02  0.13929277407E+03  0.14136826746E+03  0.00000000000E+00 0. -1.
          2    1    1    2  501    0  0.45728202137E+03 -0.30189111822E+03  0.54738620453E+03  0.77451710842E+03  0.00000000000E+00 0. -1.
<scales pt_clust_5="13000.00000" pt_clust_6="13000.00000" pt_clust_7="13000.00000" pt_clust_8="13000.00000" pt_clust_9="24.13525" pt_clust_10="531.83858"></scales>
<clustering>
<clus scale="   24.135">  1  9  2 -1</clus>
<clus scale="   83.575">  5  6 -1 -1</clus>
<clus scale="   91.807">  7  8 -1 -1</clus>
<clus scale="   99.082">  2  7  1 -1</clus>
<clus scale="  531.839">  1 10  2 -1</clus>
<clus scale="   24.135">  1  5  2 -1</clus>
</clustering>
</event>
<event>
10    3  0.7209067E-005  0.1090262E+03  0.7546771E-02  0.1266844E+00
          3   -1    0    0  503    0 -0.00000000000E+00  0.00000000000E+00  0.42018093713E+03  0.42018093713E+03  0.00000000000E+00 0. -1.
         21   -1    0    0  501  502  0.00000000000E+00 -0.00000000000E+00 -0.51401481310E+02  0.51401481310E+02  0.00000000000E+00 0. -1.
         23    2    1    2    0    0  0.13671485322E+02  0.50267207484E+02  0.13978207258E+03  0.17432835605E+03  0.90208903375E+02 0.  0.
        -24    2    1    2    0    0 -0.57582449873E+02 -0.49635408867E+02  0.15286424927E+03  0.18811118506E+03  0.78986877979E+02 0.  0.
         13    1    4    4    0    0 -0.69532983945E+01 -0.54687609773E+02  0.10324710527E+03  0.11704293130E+03  0.00000000000E+00 0. -1.
        -14    1    4    4    0    0 -0.50629151478E+02  0.50522009068E+01  0.49617144004E+02  0.71068253760E+02  0.00000000000E+00 0.  1.
        -13    1    3    3    0    0 -0.23286392226E+02  0.40560002579E+02  0.12481586135E+03  0.13329054399E+03  0.00000000000E+00 0.  1.
         13    1    3    3    0    0  0.36957877547E+02  0.97072049051E+01  0.14966211228E+02  0.41037812057E+02  0.00000000000E+00 0. -1.
         21    1    1    2  503  502 -0.43660793068E+01 -0.20140956229E+02  0.53883700597E+01  0.21301532768E+02  0.00000000000E+00 0.  1.
          4    1    1    2  501    0  0.48277043858E+02  0.19509157612E+02  0.70744763902E+02  0.87841344558E+02  0.00000000000E+00 0. -1.
<scales pt_clust_5="13000.00000" pt_clust_6="13000.00000" pt_clust_7="13000.00000" pt_clust_8="13000.00000" pt_clust_9="20.60875" pt_clust_10="49.90138"></scales>
<clustering>
<clus scale="   20.609">  2  9  1 -1</clus>
<clus scale="   49.901">  2 10  1 -1</clus>
<clus scale="   78.987">  5  6 -1 -1</clus>
<clus scale="   90.209">  7  8 -1 -1</clus>
<clus scale="   99.940">  2  5  1 -1</clus>
<clus scale="   20.609">  2  5  1 -1</clus>
</clustering>
</event>
<event>
10    3  0.7209067E-005  0.1420931E+03  0.7546771E-02  0.1223296E+00
         21   -1    0    0  501  502  0.00000000000E+00  0.00000000000E+00  0.22831549163E+03  0.22831549163E+03  0.00000000000E+00 0.  1.
          1   -1    0    0  503    0 -0.00000000000E+00 -0.00000000000E+00 -0.39701604589E+03  0.39701604589E+03  0.00000000000E+00 0. -1.
         23    2    1    2    0    0  0.52208557779E+02  0.18075120203E+02 -0.17073216059E+03  0.20348675675E+03  0.95942410019E+02 0.  0.
        -24    2    1    2    0    0  0.61032347044E+01 -0.11313365067E+03 -0.52123777104E+02  0.14682412859E+03  0.77485251550E+02 0.  0.
         11    1    4    4    0    0  0.36248350392E+02 -0.58952809340E+02 -0.58390454021E+01  0.69451213714E+02  0.00000000000E+00 0. -1.
        -12    1    4    4    0    0 -0.30145115688E+02 -0.54180841328E+02 -0.46284731702E+02  0.77372914871E+02  0.00000000000E+00 0.  1.
        -13    1    3    3    0    0  0.36863725290E+02 -0.20962681227E+02 -0.19739556361E+02  0.46776258206E+02  0.00000000000E+00 0.  1.
         13    1    3    3    0    0  0.15344832489E+02  0.39037801429E+02 -0.15099260423E+03  0.15671049855E+03  0.00000000000E+00 0. -1.
         21    1    1    2  503  502 -0.20845734013E+02 -0.24044341404E+02  0.12668877429E+03  0.13062434885E+03  0.00000000000E+00 0.  1.
          2    1    1    2  501    0 -0.37466058471E+02  0.11910287187E+03 -0.72533390869E+02  0.14439630333E+03  0.00000000000E+00 0. -1.
<scales pt_clust_5="13000.00000" pt_clust_6="13000.00000" pt_clust_7="13000.00000" pt_clust_8="13000.00000" pt_clust_9="31.82255" pt_clust_10="119.10713"></scales>
<clustering>
<clus scale="   31.823">  1  9  2 -1</clus>
<clus scale="   77.485">  5  6 -1 -1</clus>
<clus scale="   95.942">  7  8 -1 -1</clus>
<clus scale="  108.555">  2  7  1 -1</clus>
<clus scale="  119.107">  1 10  2 -1</clus>
<clus scale="   31.823">  1  5  2 -1</clus>
</clustering>
</event>
<event>
10    3  0.7209067E-005  0.1439088E+03  0.7546771E-02  0.1227582E+00
          1   -1    0    0  503    0 -0.00000000000E+00  0.00000000000E+00  0.16979509367E+03  0.16979509367E+03  0.00000000000E+00 0. -1.
         21   -1    0    0  501  502  0.00000000000E+00 -0.00000000000E+00 -0.67377488248E+03  0.67377488248E+03  0.00000000000E+00 0. -1.
         23    2    1    2    0    0 -0.12705465597E+02  0.27096341364E+01  0.99636571506E+02  0.13817592257E+03  0.94849186736E+02 0.  0.
        -24    2    1    2    0    0  0.80593837473E+02  0.91154918179E+02 -0.10128872291E+03  0.17686569073E+03  0.78851007743E+02 0.  0.
         13    1    4    4    0    0  0.83355657113E+01  0.68342462901E+02 -0.54514136376E+02  0.87817794073E+02  0.00000000000E+00 0. -1.
        -14    1    4    4    0    0  0.72258271761E+02  0.22812455278E+02 -0.46774586537E+02  0.89047896659E+02  0.00000000000E+00 0.  1.
        -13    1    3    3    0    0 -0.12744083374E+02 -0.40064244242E+02  0.17440286102E+02  0.45516138973E+02  0.00000000000E+00 0.  1.
         13    1    3    3    0    0  0.38617776490E-01  0.42773878378E+02  0.82196285404E+02  0.92659783601E+02  0.00000000000E+00 0. -1.
         21    1    1    2  503  502  0.31979056972E+02 -0.10689344584E+02 -0.12381574148E+03  0.12832482227E+03  0.00000000000E+00 0.  1.
          2    1    1    2  501    0 -0.99867428848E+02 -0.83175207732E+02 -0.37851189593E+03  0.40020354057E+03  0.00000000000E+00 0. -1.
<scales pt_clust_5="13000.00000" pt_clust_6="13000.00000" pt_clust_7="13000.00000" pt_clust_8="13000.00000" pt_clust_9="33.71828" pt_clust_10="120.38382"></scales>
<clustering>
<clus scale="   33.718">  2  9  1 -1</clus>
<clus scale="   78.851">  5  6 -1 -1</clus>
<clus scale="   94.849">  7  8 -1 -1</clus>
<clus scale="   95.582">  1  7  2 -1</clus>
<clus scale="  120.384">  2 10  1 -1</clus>
<clus scale="   33.718">  2  5  1 -1</clus>
</clustering>
</event>
<event>
10    3  0.7209067E-005  0.1255704E+03  0.7546771E-02  0.1248098E+00
         21   -1    0    0  503  502  0.00000000000E+00  0.00000000000E+00  0.33941807267E+03  0.33941807267E+03  0.00000000000E+00 0. -1.
          1   -1    0    0  502    0 -0.00000000000E+00 -0.00000000000E+00 -0.90446664715E+03  0.90446664715E+03  0.00000000000E+00 0. -1.
        -24    2    1    2    0    0  0.17692646729E+02  0.32947947624E+02 -0.39870983086E+03  0.40939488379E+03  0.85064943666E+02 0.  0.
         23    2    1    2    0    0  0.44728362661E+02  0.28215607209E+02 -0.22394980863E+03  0.24649593412E+03  0.88374101629E+02 0.  0.
         13    1    3    3    0    0 -0.21655645599E+02  0.45944602144E+02 -0.24406604964E+03  0.24929522667E+03  0.00000000000E+00 0. -1.
        -14    1    3    3    0    0  0.39348292328E+02 -0.12996654520E+02 -0.15464378122E+03  0.16009965712E+03  0.00000000000E+00 0.  1.
        -13    1    4    4    0    0 -0.21707609231E+02  0.55480147358E+01 -0.11303500149E+03  0.11523416303E+03  0.00000000000E+00 0.  1.
         13    1    4    4    0    0  0.66435971892E+02  0.22667592473E+02 -0.11091480713E+03  0.13126177110E+03  0.00000000000E+00 0. -1.
         21    1    1    2  503  501  0.43473169278E+02  0.99360426268E+00  0.30697417237E+03  0.31003878177E+03  0.00000000000E+00 0. -1.
          2    1    1    2  501    0 -0.10589417867E+03 -0.62157159096E+02 -0.24936310736E+03  0.27795512014E+03  0.00000000000E+00 0. -1.
<scales pt_clust_5="13000.00000" pt_clust_6="13000.00000" pt_clust_7="13000.00000" pt_clust_8="13000.00000" pt_clust_9="43.48452" pt_clust_10="89.20736"></scales>
<clustering>
<clus scale="   43.485">  1  9  2 -1</clus>
<clus scale="   85.065">  5  6 -1 -1</clus>
<clus scale="   88.374">  7  8 -1 -1</clus>
<clus scale="   94.701">  2  5  1 -1</clus>
<clus scale="   89.207">  1 10  2 -1</clus>
<clus scale="   43.485">  1  5  2 -1</clus>
</clustering>
</event>
<event>
10    3  0.7209067E-005  0.1075298E+03  0.7546771E-02  0.1268374E+00
         21   -1    0    0  501  502  0.00000000000E+00  0.00000000000E+00  0.38492778301E+03  0.38492778301E+03  0.00000000000E+00 0.  1.
          1   -1    0    0  503    0 -0.00000000000E+00 -0.00000000000E+00 -0.44313280671E+03  0.44313280671E+03  0.00000000000E+00 0. -1.
         23    2    1    2    0    0 -0.58070581028E+02  0.21963032534E+02 -0.39101990510E+03  0.40559063622E+03  0.88049025153E+02 0.  0.
        -24    2    1    2    0    0  0.61895059562E+02 -0.38631569211E+00  0.29421043449E+02  0.10541653832E+03  0.80099320325E+02 0.  0.
         11    1    4    4    0    0  0.60872775142E+02  0.31963474833E+02  0.22258360369E+02  0.72267510565E+02  0.00000000000E+00 0. -1.
        -12    1    4    4    0    0  0.10222844204E+01 -0.32349790525E+02  0.71626830792E+01  0.33149027759E+02  0.00000000000E+00 0.  1.
        -11    1    3    3    0    0 -0.73599145426E+02 -0.76454929301E+01 -0.28310246792E+03  0.29261287585E+03  0.00000000000E+00 0.  1.
         11    1    3    3    0    0  0.15528564398E+02  0.29608525464E+02 -0.10791743718E+03  0.11297776038E+03  0.00000000000E+00 0. -1.
         21    1    1    2  503  502  0.25551905362E+02 -0.44930675906E+02  0.21293912673E+03  0.21912265332E+03  0.00000000000E+00 0.  1.
          2    1    1    2  501    0 -0.29376383896E+02  0.23353959064E+02  0.90454711216E+02  0.97930761847E+02  0.00000000000E+00 0. -1.
<scales pt_clust_5="13000.00000" pt_clust_6="13000.00000" pt_clust_7="13000.00000" pt_clust_8="13000.00000" pt_clust_9="27.82777" pt_clust_10="37.52838"></scales>
<clustering>
<clus scale="   37.528">  1 10  2 -1</clus>
<clus scale="   27.828">  1  9  2 -1</clus>
<clus scale="   80.099">  5  6 -1 -1</clus>
<clus scale="   88.049">  7  8 -1 -1</clus>
<clus scale="  101.123">  1  5  2 -1</clus>
<clus scale="   37.528">  1  5  2 -1</clus>
</clustering>
</event>
<event>
10    3  0.7209067E-005  0.1873640E+03  0.7546771E-02  0.1187616E+00
          1   -1    0    0  503    0 -0.00000000000E+00  0.00000000000E+00  0.16934459287E+04  0.16934459287E+04  0.00000000000E+00 0. -1.
         21   -1    0    0  501  502  0.00000000000E+00 -0.00000000000E+00 -0.79011882756E+02  0.79011882756E+02  0.00000000000E+00 0.  1.
         23    2    1    2    0    0 -0.18532997467E+00  0.55456771119E+01  0.16203385125E+03  0.19149323415E+03  0.10190142732E+03 0.  0.
        -24    2    1    2    0    0  0.14041556781E+03 -0.47138443150E+02  0.95457840566E+03  0.96934405105E+03  0.80432532280E+02 0.  0.
         13    1    4    4    0    0  0.14942512220E+03 -0.38853927120E+02  0.91439478507E+03  0.92733775819E+03  0.00000000000E+00 0. -1.
        -14    1    4    4    0    0 -0.90095543973E+01 -0.82845160305E+01  0.40183620594E+02  0.42006292866E+02  0.00000000000E+00 0.  1.
        -13    1    3    3    0    0 -0.28544565952E+02 -0.35185099168E+02  0.11291368349E+03  0.12166463483E+03  0.00000000000E+00 0. -1.
         13    1    3    3    0    0  0.28359235977E+02  0.40730776280E+02  0.49120167761E+02  0.69828599316E+02  0.00000000000E+00 0.  1.
         21    1    1    2  503  502  0.76315978107E+02  0.81999388744E+02  0.74849295044E+02  0.13472358827E+03  0.00000000000E+00 0.  1.
          2    1    1    2  501    0 -0.21654621594E+03 -0.40406622706E+02  0.42297249403E+03  0.47689693803E+03  0.00000000000E+00 0. -1.
<scales pt_clust_5="13000.00000" pt_clust_6="13000.00000" pt_clust_7="13000.00000" pt_clust_8="13000.00000" pt_clust_9="112.29006" pt_clust_10="169.22135"></scales>
<clustering>
<clus scale="   80.433">  5  6 -1 -1</clus>
<clus scale="  101.901">  7  8 -1 -1</clus>
<clus scale="  102.052">  1  7  2 -1</clus>
<clus scale="  112.290">  2  9  1 -1</clus>
<clus scale="  169.221">  2 10  1 -1</clus>
<clus scale="  112.290">  2  5  1 -1</clus>
</clustering>
</event>
<event>
10    3  0.7209067E-005  0.1830081E+03  0.7546771E-02  0.1187919E+00
         21   -1    0    0  501  502  0.00000000000E+00  0.00000000000E+00  0.31352661547E+03  0.31352661547E+03  0.00000000000E+00 0. -1.
          1   -1    0    0  503    0 -0.00000000000E+00 -0.00000000000E+00 -0.97274111660E+03  0.97274111660E+03  0.00000000000E+00 0. -1.
        -24    2    1    2    0    0 -0.50596551993E+02  0.56426281536E+02 -0.26302491665E+03  0.28517608360E+03  0.79995972144E+02 0.  0.
         23    2    1    2    0    0  0.15964737214E+03  0.54144923569E+02 -0.82687146730E+02  0.21319566141E+03  0.10097657960E+03 0.  0.
         11    1    3    3    0    0 -0.39837815094E+02  0.77155183159E+02 -0.20577621726E+03  0.22334687235E+03  0.00000000000E+00 0. -1.
        -12    1    3    3    0    0 -0.10758736898E+02 -0.20728901622E+02 -0.57248699384E+02  0.61829211246E+02  0.00000000000E+00 0.  1.
        -13    1    4    4    0    0 -0.62112278955E+01  0.27604539715E+02 -0.82566745991E+01  0.29474779732E+02  0.00000000000E+00 0. -1.
         13    1    4    4    0    0  0.16585860004E+03  0.26540383855E+02 -0.74430472131E+02  0.18372088167E+03  0.00000000000E+00 0.  1.
         21    1    1    2  503  502 -0.11027706337E+03 -0.32746319237E+02  0.22025856258E+03  0.24848981171E+03  0.00000000000E+00 0. -1.
          2    1    1    2  501    0  0.12262432226E+01 -0.77824885868E+02 -0.53376100034E+03  0.53940617536E+03  0.00000000000E+00 0. -1.
<scales pt_clust_5="13000.00000" pt_clust_6="13000.00000" pt_clust_7="13000.00000" pt_clust_8="13000.00000" pt_clust_9="152.62931" pt_clust_10="77.83458"></scales>
<clustering>
<clus scale="   77.835">  1 10  2 -1</clus>
<clus scale="   79.996">  5  6 -1 -1</clus>
<clus scale="  100.977">  7  8 -1 -1</clus>
<clus scale="  108.782">  2  5  1 -1</clus>
<clus scale="  152.629">  1  9  2 -1</clus>
<clus scale="   77.835">  1  5  2 -1</clus>
</clustering>
</event>
<event>
10    3  0.7209067E-005  0.1476036E+03  0.7546771E-02  0.1205606E+00
         21   -1    0    0  503  502  0.00000000000E+00  0.00000000000E+00  0.94813405205E+02  0.94813405205E+02  0.00000000000E+00 0. -1.
          1   -1    0    0  502    0 -0.00000000000E+00 -0.00000000000E+00 -0.15113415830E+04  0.15113415830E+04  0.00000000000E+00 0. -1.
         23    2    1    2    0    0 -0.11250344143E+03 -0.61175032163E+02 -0.58424876699E+03  0.60478925513E+03  0.89576852464E+02 0.  0.
        -24    2    1    2    0    0  0.11992559088E+03 -0.86666910211E+02 -0.17327203195E+03  0.24084513193E+03  0.78037682203E+02 0.  0.
         13    1    4    4    0    0  0.76442464719E+02 -0.51841907321E+02 -0.15810606298E+03  0.18310805804E+03  0.00000000000E+00 0. -1.
        -14    1    4    4    0    0  0.43483126160E+02 -0.34825002890E+02 -0.15165968976E+02  0.57737073895E+02  0.00000000000E+00 0.  1.
        -11    1    3    3    0    0 -0.73772847962E+01  0.21234807470E+02 -0.73398986353E+02  0.76764266277E+02  0.00000000000E+00 0.  1.
         11    1    3    3    0    0 -0.10512615664E+03 -0.82409839633E+02 -0.51084978064E+03  0.52802498886E+03  0.00000000000E+00 0. -1.
         21    1    1    2  503  501  0.10438361217E+01  0.59006498394E+02  0.29691762916E+02  0.66064038868E+02  0.00000000000E+00 0.  1.
          2    1    1    2  501    0 -0.84659855668E+01  0.88835443980E+02 -0.68869914180E+03  0.69445656231E+03  0.00000000000E+00 0. -1.
<scales pt_clust_5="13000.00000" pt_clust_6="13000.00000" pt_clust_7="13000.00000" pt_clust_8="13000.00000" pt_clust_9="59.01573" pt_clust_10="92.83554"></scales>
<clustering>
<clus scale="   59.016">  1  9  2 -1</clus>
<clus scale="   78.038">  5  6 -1 -1</clus>
<clus scale="   89.577">  7  8 -1 -1</clus>
<clus scale="   92.836">  1 10  2 -1</clus>
<clus scale="  140.900">  1  5  2 -1</clus>
<clus scale="   59.016">  1  5  2 -1</clus>
</clustering>
</event>
<event>
10    3  0.7209067E-005  0.1664715E+03  0.7546771E-02  0.1193322E+00
          1   -1    0    0  503    0 -0.00000000000E+00  0.00000000000E+00  0.87788977447E+03  0.87788977447E+03  0.00000000000E+00 0. -1.
         21   -1    0    0  501  502  0.00000000000E+00 -0.00000000000E+00 -0.14298278889E+03  0.14298278889E+03  0.00000000000E+00 0. -1.
        -24    2    1    2    0    0 -0.86061622215E+02  0.89969382949E+01  0.20623671774E+02  0.11923734349E+03  0.79401892466E+02 0.  0.
         23    2    1    2    0    0  0.35749257744E+02  0.10546048493E+03  0.45317204477E+03  0.48088413953E+03  0.11612377099E+03 0.  0.
         13    1    3    3    0    0 -0.82789030829E+02  0.27780990828E+02 -0.48006068390E+01  0.87457720660E+02  0.00000000000E+00 0. -1.
        -14    1    3    3    0    0 -0.32725913859E+01 -0.18784052533E+02  0.25424278613E+02  0.31779622826E+02  0.00000000000E+00 0.  1.
        -13    1    4    4    0    0  0.24390679443E+02 -0.15910829380E+02  0.36206807865E+02  0.46464961756E+02  0.00000000000E+00 0.  1.
         13    1    4    4    0    0  0.11358578302E+02  0.12137131431E+03  0.41696523690E+03  0.43441917778E+03  0.00000000000E+00 0. -1.
         21    1    1    2  503  502 -0.21529827084E+02  0.97298004826E+01 -0.62470691582E+02  0.66789144166E+02  0.00000000000E+00 0.  1.
          2    1    1    2  501    0  0.71842191554E+02 -0.12418722370E+03  0.32358196062E+03  0.35396193617E+03  0.00000000000E+00 0. -1.
<scales pt_clust_5="13000.00000" pt_clust_6="13000.00000" pt_clust_7="13000.00000" pt_clust_8="13000.00000" pt_clust_9="23.62631" pt_clust_10="119.28126"></scales>
<clustering>
<clus scale="   23.626">  2  9  1 -1</clus>
<clus scale="   79.402">  5  6 -1 -1</clus>
<clus scale="  116.124">  7  8 -1 -1</clus>
<clus scale="  128.279">  1  5  2 -1</clus>
<clus scale="  119.281">  2 10  1 -1</clus>
<clus scale="   23.626">  2  5  1 -1</clus>
</clustering>
</event>
<event>
10    3  0.7209067E-005  0.1542830E+03  0.7546771E-02  0.1197014E+00
         21   -1    0    0  501  502  0.00000000000E+00  0.00000000000E+00  0.70821565150E+02  0.70821565150E+02  0.00000000000E+00 0. -1.
          1   -1    0    0  503    0 -0.00000000000E+00 -0.00000000000E+00 -0.73580079144E+03  0.73580079144E+03  0.00000000000E+00 0. -1.
        -24    2    1    2    0    0 -0.65823329197E+01  0.10191498462E+03 -0.19039093443E+03  0.23055785252E+03  0.80487416722E+02 0.  0.
         23    2    1    2    0    0  0.11043072434E+03 -0.13515886055E+03 -0.29257216341E+03  0.35249355738E+03  0.90500689095E+02 0.  0.
         13    1    3    3    0    0 -0.25705543949E+02  0.56443603941E+02 -0.43904075787E+02  0.75988310195E+02  0.00000000000E+00 0. -1.
        -14    1    3    3    0    0  0.19123211030E+02  0.45471380681E+02 -0.14648685864E+03  0.15456954233E+03  0.00000000000E+00 0.  1.
        -11    1    4    4    0    0  0.37863173413E+02 -0.22470914025E+02 -0.15206540272E+03  0.15831123959E+03  0.00000000000E+00 0.  1.
         11    1    4    4    0    0  0.72567550927E+02 -0.11268794652E+03 -0.14050676069E+03  0.19418231778E+03  0.00000000000E+00 0. -1.
         21    1    1    2  503  502 -0.94726997660E+02 -0.39111228225E+00 -0.12680495630E+03  0.15828093378E+03  0.00000000000E+00 0.  1.
          2    1    1    2  501    0 -0.91213937596E+01  0.33634988210E+02 -0.55211172155E+02  0.65290012917E+02  0.00000000000E+00 0. -1.
<scales pt_clust_5="13000.00000" pt_clust_6="13000.00000" pt_clust_7="13000.00000" pt_clust_8="13000.00000" pt_clust_9="97.21117" pt_clust_10="34.84987"></scales>
<clustering>
<clus scale="   34.850">  1 10  2 -1</clus>
<clus scale="   80.487">  5  6 -1 -1</clus>
<clus scale="   90.501">  7  8 -1 -1</clus>
<clus scale="   97.211">  1  9  2 -1</clus>
<clus scale="  148.631">  2  5  1 -1</clus>
<clus scale="   34.850">  1  5  2 -1</clus>
</clustering>
</event>
<event>
10    3  0.7209067E-005  0.2171291E+03  0.7546771E-02  0.1140682E+00
         21   -1    0    0  503  502  0.00000000000E+00  0.00000000000E+00  0.31223916397E+03  0.31223916397E+03  0.00000000000E+00 0. -1.
          1   -1    0    0  502    0 -0.00000000000E+00 -0.00000000000E+00 -0.69239253861E+03  0.69239253861E+03  0.00000000000E+00 0. -1.
         23    2    1    2    0    0  0.14593386451E+03 -0.10460606929E+03 -0.16048058969E+03  0.25688486131E+03  0.89424212389E+02 0.  0.
        -24    2    1    2    0    0 -0.11670694598E+03 -0.14200477224E+03 -0.28424805854E+03  0.34798555481E+03  0.80691517478E+02 0.  0.
         13    1    4    4    0    0 -0.96671901508E+02 -0.13670979055E+03 -0.28086757100E+03  0.32698870900E+03  0.00000000000E+00 0. -1.
        -14    1    4    4    0    0 -0.20035044474E+02 -0.52949816871E+01 -0.33804875470E+01  0.20996845815E+02  0.00000000000E+00 0.  1.
        -13    1    3    3    0    0  0.26141701849E+02  0.15332725546E+02 -0.16688107286E+02  0.34597311645E+02  0.00000000000E+00 0.  1.
         13    1    3    3    0    0  0.11979216266E+03 -0.11993879483E+03 -0.14379248240E+03  0.22228754967E+03  0.00000000000E+00 0. -1.
         21    1    1    2  503  501 -0.13862604738E+02  0.21521509801E+02  0.15470696738E+03  0.15681069144E+03  0.00000000000E+00 0. -1.
          2    1    1    2  501    0 -0.15364313788E+02  0.22508933173E+03 -0.90131693782E+02  0.24295059502E+03  0.00000000000E+00 0. -1.
<scales pt_clust_5="13000.00000" pt_clust_6="13000.00000" pt_clust_7="13000.00000" pt_clust_8="13000.00000" pt_clust_9="25.59975" pt_clust_10="201.57854"></scales>
<clustering>
<clus scale="   25.600">  1  9  2 -1</clus>
<clus scale="   80.692">  5  6 -1 -1</clus>
<clus scale="   89.424">  7  8 -1 -1</clus>
<clus scale="  194.074">  2  7  1 -1</clus>
<clus scale="  201.579">  1 10  2 -1</clus>
<clus scale="   25.600">  1  5  2 -1</clus>
</clustering>
</event>
<event>
10    3  0.7209067E-005  0.1073816E+03  0.7546771E-02  0.1270246E+00
         -4   -1    0    0    0  501 -0.00000000000E+00  0.00000000000E+00  0.14812528048E+03  0.14812528048E+03  0.00000000000E+00 0.  1.
         21   -1    0    0  503  502  0.00000000000E+00 -0.00000000000E+00 -0.25356048081E+03  0.25356048081E+03  0.00000000000E+00 0. -1.
         23    2    1    2    0    0 -0.41878957248E+02  0.62772698041E+02 -0.22311567479E+01  0.11952620248E+03  0.92667558180E+02 0.  0.
        -24    2    1    2    0    0  0.49983608371E+02  0.12466005606E+02 -0.47255207435E+02  0.10739212073E+03  0.81524539641E+02 0.  0.
         11    1    4    4    0    0  0.44610849715E+02  0.10602918697E+02 -0.70147188891E+02  0.83804402668E+02  0.00000000000E+00 0. -1.
        -12    1    4    4    0    0  0.53727586562E+01  0.18630869084E+01  0.22891981456E+02  0.23587718062E+02  0.00000000000E+00 0.  1.
        -13    1    3    3    0    0 -0.43237700019E+02 -0.11674371776E+02  0.29765165455E+01  0.44884844993E+02  0.00000000000E+00 0. -1.
         13    1    3    3    0    0  0.13587427710E+01  0.74447069817E+02 -0.52076732934E+01  0.74641357486E+02  0.00000000000E+00 0.  1.
         21    1    1    2  503  501 -0.62208709208E+01 -0.52341669161E+02 -0.10672706956E+03  0.11903367987E+03  0.00000000000E+00 0. -1.
         -3    1    1    2    0  502 -0.18837802025E+01 -0.22897034486E+02  0.50778233409E+02  0.55733758210E+02  0.00000000000E+00 0.  1.
<scales pt_clust_5="13000.00000" pt_clust_6="13000.00000" pt_clust_7="13000.00000" pt_clust_8="13000.00000" pt_clust_9="63.03309" pt_clust_10="22.97441"></scales>
<clustering>
<clus scale="   22.974">  2 10  1 -1</clus>
<clus scale="   63.033">  2  9  1 -1</clus>
<clus scale="   81.525">  5  6 -1 -1</clus>
<clus scale="   92.668">  7  8 -1 -1</clus>
<clus scale="   97.927">  2  5  1 -1</clus>
<clus scale="   22.974">  2  5  1 -1</clus>
</clustering>
</event>
<event>
10    3  0.7209067E-005  0.4183642E+03  0.7546771E-02  0.1063636E+00
          1   -1    0    0  503    0 -0.00000000000E+00  0.00000000000E+00  0.87099005669E+03  0.87099005669E+03  0.00000000000E+00 0. -1.
         21   -1    0    0  501  502  0.00000000000E+00 -0.00000000000E+00 -0.60797658875E+03  0.60797658875E+03  0.00000000000E+00 0. -1.
         23    2    1    2    0    0 -0.16990263147E+03 -0.10733133514E+03 -0.12824366227E+03  0.25479581329E+03  0.89930806038E+02 0.  0.
        -24    2    1    2    0    0  0.26696425857E+03 -0.31965846574E+03 -0.13762348336E+03  0.44624859381E+03  0.82134853894E+02 0.  0.
         13    1    4    4    0    0  0.22586843288E+03 -0.21468492179E+03 -0.95851856768E+02  0.32602721215E+03  0.00000000000E+00 0. -1.
        -14    1    4    4    0    0  0.41095825696E+02 -0.10497354395E+03 -0.41771626591E+02  0.12022138166E+03  0.00000000000E+00 0.  1.
        -11    1    3    3    0    0 -0.93598825395E+02 -0.10445166996E+03 -0.60600352008E+02  0.15278512407E+03  0.00000000000E+00 0. -1.
         11    1    3    3    0    0 -0.76303806073E+02 -0.28796651835E+01 -0.67643310262E+02  0.10201068922E+03  0.00000000000E+00 0.  1.
         21    1    1    2  503  502  0.50989516120E+02  0.44361045927E+02 -0.38473351074E+02  0.77769093428E+02  0.00000000000E+00 0.  1.
          2    1    1    2  501    0 -0.14805114323E+03  0.38262875496E+03  0.56735396465E+03  0.70015314491E+03  0.00000000000E+00 0. -1.
<scales pt_clust_5="13000.00000" pt_clust_6="13000.00000" pt_clust_7="13000.00000" pt_clust_8="13000.00000" pt_clust_9="67.58575" pt_clust_10="410.22270"></scales>
<clustering>
<clus scale="   67.586">  2  9  1 -1</clus>
<clus scale="   82.135">  5  6 -1 -1</clus>
<clus scale="   89.931">  7  8 -1 -1</clus>
<clus scale="  199.191">  1  7  2 -1</clus>
<clus scale="  410.223">  2 10  1 -1</clus>
<clus scale="   67.586">  2  5  1 -1</clus>
</clustering>
</event>
<event>
10    3  0.7209067E-005  0.1556158E+03  0.7546771E-02  0.1195576E+00
         21   -1    0    0  503  502  0.00000000000E+00  0.00000000000E+00  0.37501136540E+03  0.37501136540E+03  0.00000000000E+00 0.  1.
          1   -1    0    0  502    0 -0.00000000000E+00 -0.00000000000E+00 -0.13377345523E+03  0.13377345523E+03  0.00000000000E+00 0. -1.
         23    2    1    2    0    0  0.12678777089E+03  0.66979337351E+02  0.36213860863E+02  0.17372359474E+03  0.91143146608E+02 0.  0.
        -24    2    1    2    0    0 -0.11378000873E+03  0.35182055999E+02  0.16778531043E+03  0.22083387670E+03  0.80199895575E+02 0.  0.
         13    1    4    4    0    0 -0.81125216256E+02  0.49192929445E+02  0.73313551135E+02  0.11990046622E+03  0.00000000000E+00 0. -1.
        -14    1    4    4    0    0 -0.32654792477E+02 -0.14010873446E+02  0.94471759296E+02  0.10093341048E+03  0.00000000000E+00 0.  1.
        -13    1    3    3    0    0  0.70737316543E+02  0.70062506233E+02 -0.11271907252E+02  0.10019769770E+03  0.00000000000E+00 0. -1.
         13    1    3    3    0    0  0.56050454343E+02 -0.30831688827E+01  0.47485768115E+02  0.73525897042E+02  0.00000000000E+00 0.  1.
         21    1    1    2  503  501 -0.71174173906E+01 -0.38835897102E+02  0.31238473723E+02  0.50346070101E+02  0.00000000000E+00 0.  1.
          2    1    1    2  501    0 -0.58903447625E+01 -0.63325496247E+02  0.60002651484E+01  0.63881279090E+02  0.00000000000E+00 0. -1.
<scales pt_clust_5="13000.00000" pt_clust_6="13000.00000" pt_clust_7="13000.00000" pt_clust_8="13000.00000" pt_clust_9="25.59219" pt_clust_10="107.98692"></scales>
<clustering>
<clus scale="   25.592">  9 10 -1 -1</clus>
<clus scale="   80.200">  5  6 -1 -1</clus>
<clus scale="   91.143">  7  8 -1 -1</clus>
<clus scale="  107.987">  1  9  2 -1</clus>
<clus scale="  149.470">  1  5  2 -1</clus>
<clus scale="  107.987">  1  5  2 -1</clus>
</clustering>
</event>
<event>
10    3  0.7209067E-005  0.1666928E+03  0.7546771E-02  0.1191824E+00
          1   -1    0    0  502    0 -0.00000000000E+00  0.00000000000E+00  0.22260952446E+03  0.22260952446E+03  0.00000000000E+00 0. -1.
         21   -1    0    0  503  502  0.00000000000E+00 -0.00000000000E+00 -0.35690294766E+03  0.35690294766E+03  0.00000000000E+00 0. -1.
         23    2    1    2    0    0 -0.55542733419E+02 -0.76518256515E+02 -0.33289691097E+02  0.13545488654E+03  0.91103149986E+02 0.  0.
        -24    2    1    2    0    0  0.97334751231E+02 -0.11751944776E+03  0.14726321931E+02  0.16135377214E+03  0.50331906650E+02 0.  0.
         11    1    4    4    0    0  0.88489517735E+02 -0.94944717830E+02  0.29315007724E+02  0.13305737060E+03  0.00000000000E+00 0. -1.
        -12    1    4    4    0    0  0.88452334962E+01 -0.22574729930E+02 -0.14588685792E+02  0.28296401541E+02  0.00000000000E+00 0.  1.
        -13    1    3    3    0    0 -0.42619263569E+02  0.94276057941E+01 -0.44168899375E+01  0.43872432060E+02  0.00000000000E+00 0.  1.
         13    1    3    3    0    0 -0.12923469850E+02 -0.85945862309E+02 -0.28872801160E+02  0.91582454476E+02  0.00000000000E+00 0. -1.
         21    1    1    2  503  501 -0.24381831276E+02  0.15576047569E+02 -0.98393134284E+02  0.10255874331E+03  0.00000000000E+00 0. -1.
          2    1    1    2  501    0 -0.17410186536E+02  0.17846165671E+03 -0.17336919757E+02  0.18014507014E+03  0.00000000000E+00 0. -1.
<scales pt_clust_5="13000.00000" pt_clust_6="13000.00000" pt_clust_7="13000.00000" pt_clust_8="13000.00000" pt_clust_9="28.93246" pt_clust_10="158.91255"></scales>
<clustering>
<clus scale="   28.932">  2  9  1 -1</clus>
<clus scale="   50.332">  5  6 -1 -1</clus>
<clus scale="   91.103">  7  8 -1 -1</clus>
<clus scale="  132.050">  1  7  2 -1</clus>
<clus scale="  158.913">  2 10  1 -1</clus>
<clus scale="   28.932">  2  5  1 -1</clus>
</clustering>
</event>
<event>
10    3  0.7209067E-005  0.9150654E+02  0.7546771E-02  0.1305592E+00
         21   -1    0    0  501  502  0.00000000000E+00  0.00000000000E+00  0.73125405307E+02  0.73125405307E+02  0.00000000000E+00 0.  1.
          1   -1    0    0  503    0 -0.00000000000E+00 -0.00000000000E+00 -0.35663711384E+03  0.35663711384E+03  0.00000000000E+00 0. -1.
         23    2    1    2    0    0 -0.12107690323E+02  0.86811251129E+01 -0.18468533146E+03  0.20641925321E+03  0.90985044605E+02 0.  0.
        -24    2    1    2    0    0 -0.42777637207E+00  0.43041156989E+02 -0.30640640638E+01  0.91645258341E+02  0.80850112556E+02 0.  0.
         11    1    4    4    0    0  0.39813240413E+01 -0.23252061070E+02  0.66243896927E+01  0.24502894195E+02  0.00000000000E+00 0. -1.
        -12    1    4    4    0    0 -0.44091004134E+01  0.66293218058E+02 -0.96884537565E+01  0.67142364147E+02  0.00000000000E+00 0.  1.
        -11    1    3    3    0    0 -0.30943473573E+02  0.13345312189E+01 -0.18357666917E+03  0.18617108528E+03  0.00000000000E+00 0. -1.
         11    1    3    3    0    0  0.18835783250E+02  0.73465938940E+01 -0.11086622882E+01  0.20248167931E+02  0.00000000000E+00 0.  1.
         21    1    1    2  503  502 -0.19139505448E+02 -0.28107314828E+02 -0.72516544962E+01  0.34769646368E+02  0.00000000000E+00 0.  1.
          2    1    1    2  501    0  0.31674972143E+02 -0.23614967274E+02 -0.88510658515E+02  0.96928361228E+02  0.00000000000E+00 0. -1.
<scales pt_clust_5="13000.00000" pt_clust_6="13000.00000" pt_clust_7="13000.00000" pt_clust_8="13000.00000" pt_clust_9="34.00503" pt_clust_10="39.68550"></scales>
<clustering>
<clus scale="   34.005">  1  9  2 -1</clus>
<clus scale="   39.685">  1 10  2 -1</clus>
<clus scale="   80.850">  5  6 -1 -1</clus>
<clus scale="   81.437">  1  5  2 -1</clus>
<clus scale="   90.985">  7  8 -1 -1</clus>
<clus scale="   34.005">  1  5  2 -1</clus>
</clustering>
</event>
<event>
10    3  0.7209067E-005  0.3760763E+03  0.7546771E-02  0.1081418E+00
         21   -1    0    0  501  502  0.00000000000E+00  0.00000000000E+00  0.24546521504E+03  0.24546521504E+03  0.00000000000E+00 0. -1.
          1   -1    0    0  503    0 -0.00000000000E+00 -0.00000000000E+00 -0.12465802681E+04  0.12465802681E+04  0.00000000000E+00 0. -1.
        -24    2    1    2    0    0  0.15015043582E+03 -0.21336355034E+02 -0.37353109622E+03  0.41050962631E+03  0.77409818694E+02 0.  0.
         23    2    1    2    0    0 -0.26741068072E+03  0.29291340479E+03 -0.12808549885E+03  0.42676093831E+03  0.91718420090E+02 0.  0.
         11    1    3    3    0    0  0.12630154115E+03  0.53371567047E+01 -0.22857840747E+03  0.26120615019E+03  0.00000000000E+00 0. -1.
        -12    1    3    3    0    0  0.23848894671E+02 -0.26673511739E+02 -0.14495268875E+03  0.14930347612E+03  0.00000000000E+00 0.  1.
        -11    1    4    4    0    0 -0.26644096885E+03  0.25474398693E+03 -0.11138763990E+03  0.38508764597E+03  0.00000000000E+00 0. -1.
         11    1    4    4    0    0 -0.96971187208E+00  0.38169417863E+02 -0.16697858946E+02  0.41673292340E+02  0.00000000000E+00 0.  1.
         21    1    1    2  503  502 -0.21013306077E+02 -0.67063823988E+01  0.35616266260E+02  0.41893352926E+02  0.00000000000E+00 0. -1.
          2    1    1    2  501    0  0.13827355098E+03 -0.26487066736E+03 -0.53511472427E+03  0.61288156561E+03  0.00000000000E+00 0. -1.
<scales pt_clust_5="13000.00000" pt_clust_6="13000.00000" pt_clust_7="13000.00000" pt_clust_8="13000.00000" pt_clust_9="22.05753" pt_clust_10="364.72082"></scales>
<clustering>
<clus scale="   22.058">  1  9  2 -1</clus>
<clus scale="   77.410">  5  6 -1 -1</clus>
<clus scale="   91.718">  7  8 -1 -1</clus>
<clus scale="  168.694">  2  5  1 -1</clus>
<clus scale="  364.721">  1 10  2 -1</clus>
<clus scale="   22.058">  1  5  2 -1</clus>
</clustering>
</event>
<event>
10    3  0.7209067E-005  0.1201419E+03  0.7546771E-02  0.1246519E+00
         -2   -1    0    0    0  501 -0.00000000000E+00  0.00000000000E+00  0.45353427454E+03  0.45353427454E+03  0.00000000000E+00 0.  1.
         21   -1    0    0  501  502  0.00000000000E+00 -0.00000000000E+00 -0.92477871791E+02  0.92477871791E+02  0.00000000000E+00 0.  1.
        -24    2    1    2    0    0  0.45280138114E+02  0.83643968172E+02  0.84162457825E+02  0.15026444686E+03  0.80308656838E+02 0.  0.
         23    2    1    2    0    0  0.41492899507E+02 -0.69789868021E+02  0.56634451371E+02  0.13500596844E+03  0.91797952284E+02 0.  0.
         13    1    3    3    0    0  0.24820020889E+02 -0.36298204352E+01 -0.29646096154E+01  0.25258621172E+02  0.00000000000E+00 0. -1.
        -14    1    3    3    0    0  0.20460117225E+02  0.87273788607E+02  0.87127067440E+02  0.12500582569E+03  0.00000000000E+00 0.  1.
        -13    1    4    4    0    0 -0.10139774415E+02 -0.56750789039E+02  0.53015123749E+00  0.57651956967E+02  0.00000000000E+00 0. -1.
         13    1    4    4    0    0  0.51632673922E+02 -0.13039078982E+02  0.56104300133E+02  0.77354011470E+02  0.00000000000E+00 0.  1.
         21    1    1    2  503  502 -0.21128259962E+02  0.62429503936E+01 -0.71760840364E+01  0.23170541227E+02  0.00000000000E+00 0.  1.
         -1    1    1    2    0  503 -0.65644777659E+02 -0.20097050544E+02  0.22743557759E+03  0.23757118981E+03  0.00000000000E+00 0.  1.
<scales pt_clust_5="13000.00000" pt_clust_6="13000.00000" pt_clust_7="13000.00000" pt_clust_8="13000.00000" pt_clust_9="22.03129" pt_clust_10="69.86141"></scales>
<clustering>
<clus scale="   22.031">  2  9  1 -1</clus>
<clus scale="   69.861">  2 10  1 -1</clus>
<clus scale="   80.309">  5  6 -1 -1</clus>
<clus scale="   91.798">  7  8 -1 -1</clus>
<clus scale="  111.610">  1  5  2 -1</clus>
<clus scale="   22.031">  2  5  1 -1</clus>
</clustering>
</event>
<event>
10    3  0.7209067E-005  0.1068784E+03  0.7546771E-02  0.1271289E+00
         21   -1    0    0  503  502  0.00000000000E+00  0.00000000000E+00  0.27675754328E+02  0.27675754328E+02  0.00000000000E+00 0.  1.
          1   -1    0    0  502    0 -0.00000000000E+00 -0.00000000000E+00 -0.99475890129E+03  0.99475890129E+03  0.00000000000E+00 0. -1.
        -24    2    1    2    0    0  0.40283255588E+02  0.62508377823E+02 -0.37831711689E+03  0.39392609501E+03  0.80770597517E+02 0.  0.
         23    2    1    2    0    0 -0.35852120350E+02 -0.54801869061E+01 -0.21882743391E+03  0.24015275097E+03  0.92046135083E+02 0.  0.
         13    1    3    3    0    0 -0.24729512156E+02  0.12207010374E+02 -0.92550851548E+02  0.96572356272E+02  0.00000000000E+00 0. -1.
        -14    1    3    3    0    0  0.65012767744E+02  0.50301367448E+02 -0.28576626534E+03  0.29735373874E+03  0.00000000000E+00 0.  1.
        -11    1    4    4    0    0 -0.23358556515E+02  0.39148518038E+02 -0.15300362690E+03  0.15965067639E+03  0.00000000000E+00 0. -1.
         11    1    4    4    0    0 -0.12493563835E+02 -0.44628704944E+02 -0.65823807014E+02  0.80502074583E+02  0.00000000000E+00 0.  1.
         21    1    1    2  503  501  0.24345948669E+02 -0.23613637285E+02 -0.29138365205E+02  0.44714353504E+02  0.00000000000E+00 0.  1.
          2    1    1    2  501    0 -0.28777083907E+02 -0.33414553631E+02 -0.34080023096E+03  0.34364145613E+03  0.00000000000E+00 0. -1.
<scales pt_clust_5="13000.00000" pt_clust_6="13000.00000" pt_clust_7="13000.00000" pt_clust_8="13000.00000" pt_clust_9="33.91650" pt_clust_10="44.30754"></scales>
<clustering>
<clus scale="   33.917">  1  9  2 -1</clus>
<clus scale="   44.308">  1 10  2 -1</clus>
<clus scale="   80.771">  5  6 -1 -1</clus>
<clus scale="   92.046">  7  8 -1 -1</clus>
<clus scale="   97.336">  2  5  1 -1</clus>
<clus scale="   33.917">  1  5  2 -1</clus>
</clustering>
</event>
<event>
10    3  0.7209067E-005  0.1057382E+03  0.7546771E-02  0.1273577E+00
         21   -1    0    0  503  502  0.00000000000E+00  0.00000000000E+00  0.39049188247E+03  0.39049188247E+03  0.00000000000E+00 0.  1.
         -2   -1    0    0    0  501 -0.00000000000E+00 -0.00000000000E+00 -0.16307986276E+03  0.16307986276E+03  0.00000000000E+00 0.  1.
        -24    2    1    2    0    0 -0.16810003045E+02  0.13283794681E+02  0.46235955079E+02  0.94456757843E+02  0.79531629913E+02 0.  0.
         23    2    1    2    0    0  0.11861445031E+03  0.19560876729E+02  0.75206491262E+02  0.16841141605E+03  0.90853580043E+02 0.  0.
         13    1    3    3    0    0  0.22672072712E+02  0.12950800628E+02 -0.80569233460E+01  0.27325082466E+02  0.00000000000E+00 0. -1.
        -14    1    3    3    0    0 -0.39482075757E+02  0.33299405251E+00  0.54292878425E+02  0.67131675376E+02  0.00000000000E+00 0.  1.
        -13    1    4    4    0    0  0.10505458430E+03  0.43523882424E+02  0.81825368307E+02  0.14009348636E+03  0.00000000000E+00 0.  1.
         13    1    4    4    0    0  0.13559866012E+02 -0.23963005695E+02 -0.66188770452E+01  0.28317929683E+02  0.00000000000E+00 0. -1.
         21    1    1    2  503  501 -0.63462965308E+02  0.11432008896E+02  0.18294589787E+03  0.19397793776E+03  0.00000000000E+00 0.  1.
         -1    1    1    2    0  502 -0.38341481957E+02 -0.44276680306E+02 -0.76976324498E+02  0.96725633577E+02  0.00000000000E+00 0.  1.
<scales pt_clust_5="13000.00000" pt_clust_6="13000.00000" pt_clust_7="13000.00000" pt_clust_8="13000.00000" pt_clust_9="83.11252" pt_clust_10="58.57045"></scales>
<clustering>
<clus scale="   58.570">  1 10  2 -1</clus>
<clus scale="   79.532">  5  6 -1 -1</clus>
<clus scale="   83.113">  1  9  2 -1</clus>
<clus scale="   90.854">  7  8 -1 -1</clus>
<clus scale="   96.185">  2  5  1 -1</clus>
<clus scale="   58.570">  1  5  2 -1</clus>
</clustering>
</event>
<event>
10    3  0.7209067E-005  0.2853371E+03  0.7546771E-02  0.1092809E+00
         21   -1    0    0  501  502  0.00000000000E+00  0.00000000000E+00  0.52086015234E+02  0.52086015234E+02  0.00000000000E+00 0. -1.
          1   -1    0    0  503    0 -0.00000000000E+00 -0.00000000000E+00 -0.18015519173E+04  0.18015519173E+04  0.00000000000E+00 0. -1.
        -24    2    1    2    0    0 -0.31428512217E+02  0.72380229924E+02 -0.22766277276E+03  0.25327197682E+03  0.78036575253E+02 0.  0.
         23    2    1    2    0    0 -0.57185267848E+02  0.11776085569E+03 -0.25805114097E+03  0.30342962328E+03  0.91331106077E+02 0.  0.
         13    1    3    3    0    0  0.28754476092E+01  0.76127751868E+02 -0.16492971999E+03  0.18167420109E+03  0.00000000000E+00 0. -1.
        -14    1    3    3    0    0 -0.34303959826E+02 -0.37475219436E+01 -0.62733052765E+02  0.71597775731E+02  0.00000000000E+00 0.  1.
        -11    1    4    4    0    0 -0.81784039760E+02  0.94546835290E+02 -0.19001287150E+03  0.22744807002E+03  0.00000000000E+00 0. -1.
         11    1    4    4    0    0  0.24598771912E+02  0.23214020404E+02 -0.68038269468E+02  0.75981553256E+02  0.00000000000E+00 0.  1.
         21    1    1    2  503  502  0.24761420322E+02  0.33774106829E+02 -0.77919833321E+02  0.88460831181E+02  0.00000000000E+00 0. -1.
          2    1    1    2  501    0  0.63852359742E+02 -0.22391519245E+03 -0.11858321551E+04  0.12084755013E+04  0.00000000000E+00 0. -1.
<scales pt_clust_5="13000.00000" pt_clust_6="13000.00000" pt_clust_7="13000.00000" pt_clust_8="13000.00000" pt_clust_9="41.87861" pt_clust_10="226.77014"></scales>
<clustering>
<clus scale="   41.879">  1  9  2 -1</clus>
<clus scale="   78.037">  5  6 -1 -1</clus>
<clus scale="   91.331">  7  8 -1 -1</clus>
<clus scale="   92.659">  5  7 -1 -1</clus>
<clus scale="  226.770">  1 10  2 -1</clus>
<clus scale="   41.879">  1  5  2 -1</clus>
</clustering>
</event>
<event>
10    3  0.7209067E-005  0.1432039E+03  0.7546771E-02  0.1227738E+00
         21   -1    0    0  501  502  0.00000000000E+00  0.00000000000E+00  0.78083243667E+03  0.78083243667E+03  0.00000000000E+00 0.  1.
         -2   -1    0    0    0  501 -0.00000000000E+00 -0.00000000000E+00 -0.53429001636E+02  0.53429001636E+02  0.00000000000E+00 0.  1.
        -24    2    1    2    0    0 -0.48806415696E+02 -0.28858023706E+02  0.13694640595E+03  0.16958438907E+03  0.82399606614E+02 0.  0.
         23    2    1    2    0    0  0.67019340728E+02 -0.10363160015E+03  0.24461630185E+03  0.28757840298E+03  0.87367626452E+02 0.  0.
         13    1    3    3    0    0 -0.41939010318E+02 -0.18718549043E+02  0.14683139954E+03  0.15384643173E+03  0.00000000000E+00 0. -1.
        -14    1    3    3    0    0 -0.68674053778E+01 -0.10139474663E+02 -0.98849935925E+01  0.15737957345E+02  0.00000000000E+00 0.  1.
        -13    1    4    4    0    0  0.54816483728E+02 -0.16289940337E+02  0.59484307060E+02  0.82514191694E+02  0.00000000000E+00 0. -1.
         13    1    4    4    0    0  0.12202857000E+02 -0.87341659816E+02  0.18513199479E+03  0.20506421129E+03  0.00000000000E+00 0.  1.
         21    1    1    2  503  502  0.12739333006E+02  0.29291156286E+02  0.15207825863E+03  0.15539645810E+03  0.00000000000E+00 0. -1.
         -1    1    1    2    0  503 -0.30952258039E+02  0.10319846757E+03  0.19376246860E+03  0.22170218814E+03  0.00000000000E+00 0.  1.
<scales pt_clust_5="13000.00000" pt_clust_6="13000.00000" pt_clust_7="13000.00000" pt_clust_8="13000.00000" pt_clust_9="31.94155" pt_clust_10="113.46480"></scales>
<clustering>
<clus scale="   31.942">  1  9  2 -1</clus>
<clus scale="   82.400">  5  6 -1 -1</clus>
<clus scale="   87.368">  7  8 -1 -1</clus>
<clus scale="   96.687">  2  5  1 -1</clus>
<clus scale="  113.465">  1 10  2 -1</clus>
<clus scale="   31.942">  1  5  2 -1</clus>
</clustering>
</event>
<event>
10    3  0.7209067E-005  0.1629911E+03  0.7546771E-02  0.1206872E+00
         21   -1    0    0  501  502  0.00000000000E+00  0.00000000000E+00  0.51348352441E+02  0.51348352441E+02  0.00000000000E+00 0. -1.
          1   -1    0    0  503    0 -0.00000000000E+00 -0.00000000000E+00 -0.89800136624E+03  0.89800136624E+03  0.00000000000E+00 0. -1.
        -24    2    1    2    0    0 -0.11407188146E+02  0.62819836454E+02 -0.18545797187E+03  0.21220783221E+03  0.81000302035E+02 0.  0.
         23    2    1    2    0    0 -0.57525424653E+02 -0.14067187699E+03 -0.32803961113E+03  0.37287976902E+03  0.91277512105E+02 0.  0.
         13    1    3    3    0    0  0.12984152590E+02  0.59022136087E+02 -0.63049873727E+02  0.87335487310E+02  0.00000000000E+00 0. -1.
        -14    1    3    3    0    0 -0.24391340736E+02  0.37977003665E+01 -0.12240809814E+03  0.12487234490E+03  0.00000000000E+00 0.  1.
        -13    1    4    4    0    0 -0.40335559480E+02 -0.58402270630E+02 -0.24364873605E+03  0.25377645508E+03  0.00000000000E+00 0.  1.
         13    1    4    4    0    0 -0.17189865173E+02 -0.82269606357E+02 -0.84390875082E+02  0.11910331394E+03  0.00000000000E+00 0. -1.
         21    1    1    2  503  502 -0.17382212954E+02 -0.13027870604E+02 -0.56814501886E+02  0.60825606156E+02  0.00000000000E+00 0. -1.
          2    1    1    2  501    0  0.86314825753E+02  0.90879911137E+02 -0.27634092892E+03  0.30343651130E+03  0.00000000000E+00 0. -1.
<scales pt_clust_5="13000.00000" pt_clust_6="13000.00000" pt_clust_7="13000.00000" pt_clust_8="13000.00000" pt_clust_9="21.72249" pt_clust_10="135.03528"></scales>
<clustering>
<clus scale="   21.722">  2  9  1 -1</clus>
<clus scale="   81.000">  5  6 -1 -1</clus>
<clus scale="   91.278">  7  8 -1 -1</clus>
<clus scale="  101.834">  2  5  1 -1</clus>
<clus scale="  135.035">  1 10  2 -1</clus>
<clus scale="  135.035">  1  5  2 -1</clus>
</clustering>
</event>
<event>
10    3  0.7209067E-005  0.2904628E+03  0.7546771E-02  0.1112111E+00
          3   -1    0    0  503    0 -0.00000000000E+00  0.00000000000E+00  0.30517774185E+03  0.30517774185E+03  0.00000000000E+00 0. -1.
         21   -1    0    0  501  502  0.00000000000E+00 -0.00000000000E+00 -0.90453145937E+03  0.90453145937E+03  0.00000000000E+00 0. -1.
        -24    2    1    2    0    0  0.10369127518E+03  0.84825152779E+02 -0.32590383860E+03  0.36138960811E+03  0.80261757651E+02 0.  0.
         23    2    1    2    0    0 -0.27375447068E+03 -0.27796872048E+03  0.47604863053E+02  0.40330800906E+03  0.90459976822E+02 0.  0.
         11    1    3    3    0    0  0.93751100361E+02  0.97909491387E+02 -0.31078014443E+03  0.33905727465E+03  0.00000000000E+00 0. -1.
        -12    1    3    3    0    0  0.99401748183E+01 -0.13084338608E+02 -0.15123694172E+02  0.22332333457E+02  0.00000000000E+00 0.  1.
        -11    1    4    4    0    0 -0.68897016551E+00 -0.20902260985E+02  0.17143877821E+02  0.27042406345E+02  0.00000000000E+00 0.  1.
         11    1    4    4    0    0 -0.27306550052E+03 -0.25706645949E+03  0.30460985232E+02  0.37626560272E+03  0.00000000000E+00 0. -1.
         21    1    1    2  503  502  0.20208937641E+02  0.77129478102E+01 -0.15007628690E+03  0.15162711702E+03  0.00000000000E+00 0. -1.
          4    1    1    2  501    0  0.14985425786E+03  0.18543061989E+03 -0.17097845507E+03  0.29338446702E+03  0.00000000000E+00 0. -1.
<scales pt_clust_5="13000.00000" pt_clust_6="13000.00000" pt_clust_7="13000.00000" pt_clust_8="13000.00000" pt_clust_9="21.63078" pt_clust_10="276.01744"></scales>
<clustering>
<clus scale="   21.631">  2  9  1 -1</clus>
<clus scale="   80.262">  5  6 -1 -1</clus>
<clus scale="   90.460">  7  8 -1 -1</clus>
<clus scale="  164.298">  1  5  2 -1</clus>
<clus scale="  276.017">  2 10  1 -1</clus>
<clus scale="   21.631">  2  5  1 -1</clus>
</clustering>
</event>
<event>
10    3  0.7209067E-005  0.1447240E+03  0.7546771E-02  0.1208792E+00
         21   -1    0    0  501  502  0.00000000000E+00  0.00000000000E+00  0.11914495863E+03  0.11914495863E+03  0.00000000000E+00 0.  1.
          1   -1    0    0  503    0 -0.00000000000E+00 -0.00000000000E+00 -0.11930056561E+04  0.11930056561E+04  0.00000000000E+00 0. -1.
        -24    2    1    2    0    0  0.72698278688E+02  0.68071394417E+02 -0.61567979316E+03  0.62878139945E+03  0.79910488222E+02 0.  0.
         23    2    1    2    0    0 -0.90889229052E+02 -0.12221270382E+03 -0.46876328702E+03  0.50077781972E+03  0.88558503495E+02 0.  0.
         11    1    3    3    0    0  0.33044808429E+02 -0.38955630507E+01 -0.77154279210E+02  0.84023315669E+02  0.00000000000E+00 0. -1.
        -12    1    3    3    0    0  0.39653470260E+02  0.71966957468E+02 -0.53852551395E+03  0.54475808378E+03  0.00000000000E+00 0.  1.
        -13    1    4    4    0    0 -0.35961626250E+02 -0.26045594048E+02 -0.46755786620E+02  0.64480346729E+02  0.00000000000E+00 0.  1.
         13    1    4    4    0    0 -0.54927602801E+02 -0.96167109771E+02 -0.42200750040E+03  0.43629747300E+03  0.00000000000E+00 0. -1.
         21    1    1    2  503  502  0.79238257080E+02  0.81465786736E+02  0.18851188703E+02  0.11519871140E+03  0.00000000000E+00 0.  1.
          2    1    1    2  501    0 -0.61047306716E+02 -0.27324477335E+02 -0.82688059457E+01  0.67392684104E+02  0.00000000000E+00 0. -1.
<scales pt_clust_5="13000.00000" pt_clust_6="13000.00000" pt_clust_7="13000.00000" pt_clust_8="13000.00000" pt_clust_9="69.64322" pt_clust_10="66.88349"></scales>
<clustering>
<clus scale="   66.883">  1 10  2 -1</clus>
<clus scale="   69.643">  1  9  2 -1</clus>
<clus scale="   79.910">  5  6 -1 -1</clus>
<clus scale="   88.559">  7  8 -1 -1</clus>
<clus scale="  139.600">  2  5  1 -1</clus>
<clus scale="   66.883">  1  5  2 -1</clus>
</clustering>
</event>
<event>
10    3  0.7209067E-005  0.2730534E+03  0.7546771E-02  0.1145931E+00
         21   -1    0    0  501  502  0.00000000000E+00  0.00000000000E+00  0.36888845393E+03  0.36888845393E+03  0.00000000000E+00 0.  1.
         -4   -1    0    0    0  501 -0.00000000000E+00 -0.00000000000E+00 -0.34525908168E+03  0.34525908168E+03  0.00000000000E+00 0.  1.
        -24    2    1    2    0    0  0.21893643230E+02  0.67058521529E+01  0.11353625616E+03  0.14114922719E+03  0.80674176821E+02 0.  0.
         23    2    1    2    0    0 -0.23654943377E+03 -0.14878179780E+03 -0.23831272587E+02  0.29446028412E+03  0.89706585032E+02 0.  0.
         11    1    3    3    0    0  0.41982741197E+02  0.30117666780E+02  0.82821295618E+02  0.97616552995E+02  0.00000000000E+00 0. -1.
        -12    1    3    3    0    0 -0.20089097968E+02 -0.23411814627E+02  0.30714960546E+02  0.43532674195E+02  0.00000000000E+00 0.  1.
        -13    1    4    4    0    0 -0.89785140849E+02 -0.28003412263E+02  0.26736093638E+02  0.97777202449E+02  0.00000000000E+00 0.  1.
         13    1    4    4    0    0 -0.14676429293E+03 -0.12077838553E+03 -0.50567366225E+02  0.19668308168E+03  0.00000000000E+00 0. -1.
         21    1    1    2  503  502  0.15668812762E+02  0.12839806366E+02  0.17710136890E+02  0.26907643330E+02  0.00000000000E+00 0. -1.
         -3    1    1    2    0  503  0.19898697778E+03  0.12923613928E+03 -0.83785748215E+02  0.25163038097E+03  0.00000000000E+00 0.  1.
<scales pt_clust_5="13000.00000" pt_clust_6="13000.00000" pt_clust_7="13000.00000" pt_clust_8="13000.00000" pt_clust_9="20.25765" pt_clust_10="257.89723"></scales>
<clustering>
<clus scale="   20.258">  1  9  2 -1</clus>
<clus scale="   80.674">  5  6 -1 -1</clus>
<clus scale="   86.043">  2  5  1 -1</clus>
<clus scale="   89.707">  7  8 -1 -1</clus>
<clus scale="  257.897">  1 10  2 -1</clus>
<clus scale="   20.258">  1  5  2 -1</clus>
</clustering>
</event>
<event>
10    3  0.7209067E-005  0.2491063E+03  0.7546771E-02  0.1132183E+00
         -4   -1    0    0    0  501 -0.00000000000E+00  0.00000000000E+00  0.23933213542E+03  0.23933213542E+03  0.00000000000E+00 0.  1.
         21   -1    0    0  501  502  0.00000000000E+00 -0.00000000000E+00 -0.47825993194E+03  0.47825993194E+03  0.00000000000E+00 0.  1.
        -24    2    1    2    0    0 -0.13624143960E+03  0.65480267351E+01 -0.11051217386E+03  0.19278709067E+03  0.79682590580E+02 0.  0.
         23    2    1    2    0    0 -0.13728876731E+03  0.79871961121E+02  0.21954200274E+02  0.18293154100E+03  0.88058082994E+02 0.  0.
         13    1    3    3    0    0 -0.29981143151E+02  0.52465889826E+01 -0.74673556949E+02  0.80638301991E+02  0.00000000000E+00 0. -1.
        -14    1    3    3    0    0 -0.10626029645E+03  0.13014377525E+01 -0.35838616912E+02  0.11214878868E+03  0.00000000000E+00 0.  1.
        -11    1    4    4    0    0 -0.34282901041E+02 -0.17936870136E+02 -0.26040703631E+01  0.38779244403E+02  0.00000000000E+00 0.  1.
         11    1    4    4    0    0 -0.10300586627E+03  0.97808831257E+02  0.24558270637E+02  0.14415229660E+03  0.00000000000E+00 0. -1.
         21    1    1    2  503  502  0.64773183434E+02 -0.12560861222E+02 -0.91384773454E+02  0.11271431740E+03  0.00000000000E+00 0.  1.
         -3    1    1    2    0  503  0.20875702347E+03 -0.73859126635E+02 -0.58985049484E+02  0.22915911829E+03  0.00000000000E+00 0.  1.
<scales pt_clust_5="13000.00000" pt_clust_6="13000.00000" pt_clust_7="13000.00000" pt_clust_8="13000.00000" pt_clust_9="59.74386" pt_clust_10="59.74386"></scales>
<clustering>
<clus scale="   59.744">  9 10 -1 -1</clus>
<clus scale="   79.683">  5  6 -1 -1</clus>
<clus scale="   88.058">  7  8 -1 -1</clus>
<clus scale="  157.968">  1  5  2 -1</clus>
<clus scale="  240.477">  1  7  2 -1</clus>
<clus scale="  249.106">  2  5  1 -1</clus>
</clustering>
</event>
<event>
10    3  0.7209067E-005  0.1103526E+03  0.7546771E-02  0.1263572E+00
          1   -1    0    0  503    0 -0.00000000000E+00  0.00000000000E+00  0.96503480328E+03  0.96503480328E+03  0.00000000000E+00 0. -1.
         21   -1    0    0  501  502  0.00000000000E+00 -0.00000000000E+00 -0.26109320219E+02  0.26109320219E+02  0.00000000000E+00 0. -1.
        -24    2    1    2    0    0  0.95101871924E+01 -0.65653899383E+02  0.39648997099E+03  0.41014245131E+03  0.81312084600E+02 0.  0.
         23    2    1    2    0    0 -0.74083841348E+02  0.31974386197E+02  0.29737103583E+03  0.32121168758E+03  0.90755927438E+02 0.  0.
         13    1    3    3    0    0  0.57899465532E+01 -0.84446085413E+02  0.29706635779E+03  0.30889008685E+03  0.00000000000E+00 0. -1.
        -14    1    3    3    0    0  0.37202406392E+01  0.18792186030E+02  0.99423613207E+02  0.10125236446E+03  0.00000000000E+00 0.  1.
        -11    1    4    4    0    0 -0.41781642148E+02  0.19702433764E+02  0.27756594309E+03  0.28138362476E+03  0.00000000000E+00 0.  1.
         11    1    4    4    0    0 -0.32302199200E+02  0.12271952433E+02  0.19805092735E+02  0.39828062819E+02  0.00000000000E+00 0. -1.
         21    1    1    2  503  502  0.22453881868E+02  0.97774558271E+01  0.27170051696E+02  0.36578506839E+02  0.00000000000E+00 0. -1.
          2    1    1    2  501    0  0.42119772288E+02  0.23902057359E+02  0.21789442454E+03  0.22321147777E+03  0.00000000000E+00 0. -1.
<scales pt_clust_5="13000.00000" pt_clust_6="13000.00000" pt_clust_7="13000.00000" pt_clust_8="13000.00000" pt_clust_9="24.49031" pt_clust_10="51.45499"></scales>
<clustering>
<clus scale="   24.490">  2  9  1 -1</clus>
<clus scale="   51.455">  2 10  1 -1</clus>
<clus scale="   81.312">  5  6 -1 -1</clus>
<clus scale="   90.756">  7  8 -1 -1</clus>
<clus scale="  102.726">  1  5  2 -1</clus>
<clus scale="   24.490">  2  5  1 -1</clus>
</clustering>
</event>
<event>
10    3  0.7209067E-005  0.1587446E+03  0.7546771E-02  0.1207377E+00
         21   -1    0    0  501  502  0.00000000000E+00  0.00000000000E+00  0.70485929852E+02  0.70485929852E+02  0.00000000000E+00 0.  1.
          1   -1    0    0  503    0 -0.00000000000E+00 -0.00000000000E+00 -0.11502353555E+04  0.11502353555E+04  0.00000000000E+00 0. -1.
         23    2    1    2    0    0  0.25187995989E+02 -0.10486416679E+02 -0.59414478193E+02  0.11422326896E+03  0.93661490897E+02 0.  0.
        -24    2    1    2    0    0  0.10116182000E+03  0.17514360572E+01 -0.38040287427E+03  0.40157119624E+03  0.79475137890E+02 0.  0.
         11    1    4    4    0    0  0.64886963885E+02  0.24705741140E+02 -0.12870030844E+03  0.14623426794E+03  0.00000000000E+00 0. -1.
        -12    1    4    4    0    0  0.36274856112E+02 -0.22954305083E+02 -0.25170256583E+03  0.25533692829E+03  0.00000000000E+00 0.  1.
        -11    1    3    3    0    0  0.32344589643E+02 -0.42093686528E+02 -0.83422060828E+01  0.53736796769E+02  0.00000000000E+00 0.  1.
         11    1    3    3    0    0 -0.71565936542E+01  0.31607269849E+02 -0.51072272110E+02  0.60486472195E+02  0.00000000000E+00 0. -1.
         21    1    1    2  503  502  0.54409671218E+02 -0.32558077660E+01 -0.18394936925E+02  0.57527265803E+02  0.00000000000E+00 0.  1.
          2    1    1    2  501    0 -0.18075948720E+03  0.11990788388E+02 -0.62153713630E+03  0.64739955439E+03  0.00000000000E+00 0. -1.
<scales pt_clust_5="13000.00000" pt_clust_6="13000.00000" pt_clust_7="13000.00000" pt_clust_8="13000.00000" pt_clust_9="54.50700" pt_clust_10="137.41755"></scales>
<clustering>
<clus scale="   54.507">  1  9  2 -1</clus>
<clus scale="   79.475">  5  6 -1 -1</clus>
<clus scale="   93.661">  7  8 -1 -1</clus>
<clus scale="  109.038">  2  7  1 -1</clus>
<clus scale="  137.418">  1 10  2 -1</clus>
<clus scale="   54.507">  1  5  2 -1</clus>
</clustering>
</event>
<event>
10    3  0.7209067E-005  0.2498656E+03  0.7546771E-02  0.1125873E+00
         21   -1    0    0  501  502  0.00000000000E+00  0.00000000000E+00  0.18553822271E+03  0.18553822271E+03  0.00000000000E+00 0. -1.
          1   -1    0    0  503    0 -0.00000000000E+00 -0.00000000000E+00 -0.19672060405E+04  0.19672060405E+04  0.00000000000E+00 0. -1.
        -24    2    1    2    0    0 -0.15991875488E+03 -0.11143715751E+02 -0.28635804799E+03  0.33896186111E+03  0.84829364468E+02 0.  0.
         23    2    1    2    0    0  0.18140595099E+03  0.24183354367E+03 -0.14083721603E+04  0.14442226380E+04  0.10428472593E+03 0.  0.
         13    1    3    3    0    0 -0.16710274151E+03 -0.81719854112E+01 -0.28580029970E+03  0.33116750878E+03  0.00000000000E+00 0. -1.
        -14    1    3    3    0    0  0.71839866304E+01 -0.29717303395E+01 -0.55774829668E+00  0.77943523323E+01  0.00000000000E+00 0.  1.
        -11    1    4    4    0    0  0.18114356539E+02  0.10411012591E+03 -0.50492093378E+03  0.51586063777E+03  0.00000000000E+00 0.  1.
         11    1    4    4    0    0  0.16329159445E+03  0.13772341777E+03 -0.90345122656E+03  0.92836200019E+03  0.00000000000E+00 0. -1.
         21    1    1    2  503  502 -0.37809830024E+01 -0.22455027888E+02  0.91789193316E+02  0.94571560839E+02  0.00000000000E+00 0. -1.
          2    1    1    2  501    0 -0.17706213112E+02 -0.20823480003E+03 -0.17872680281E+03  0.27498820333E+03  0.00000000000E+00 0. -1.
<scales pt_clust_5="13000.00000" pt_clust_6="13000.00000" pt_clust_7="13000.00000" pt_clust_8="13000.00000" pt_clust_9="22.77112" pt_clust_10="227.06280"></scales>
<clustering>
<clus scale="   22.771">  1  9  2 -1</clus>
<clus scale="   84.829">  5  6 -1 -1</clus>
<clus scale="  104.285">  7  8 -1 -1</clus>
<clus scale="  182.820">  2  5  1 -1</clus>
<clus scale="  227.063">  1 10  2 -1</clus>
<clus scale="   22.771">  1  5  2 -1</clus>
</clustering>
</event>
<event>
10    3  0.7209067E-005  0.2069287E+03  0.7546771E-02  0.1172482E+00
          1   -1    0    0  502    0 -0.00000000000E+00  0.00000000000E+00  0.43384383227E+03  0.43384383227E+03  0.00000000000E+00 0. -1.
         21   -1    0    0  503  502  0.00000000000E+00 -0.00000000000E+00 -0.20601839985E+03  0.20601839985E+03  0.00000000000E+00 0. -1.
         23    2    1    2    0    0  0.54853945302E+02  0.30993522407E+02  0.82312367778E+01  0.10610165670E+03  0.84972080993E+02 0.  0.
        -24    2    1    2    0    0 -0.10013848196E+03 -0.21489457163E+03  0.21603796872E+03  0.33048569869E+03  0.79630400124E+02 0.  0.
         13    1    4    4    0    0 -0.10972912488E+03 -0.15892186924E+03  0.16153271788E+03  0.25177263616E+03  0.00000000000E+00 0. -1.
        -14    1    4    4    0    0  0.95906429221E+01 -0.55972702389E+02  0.54505250841E+02  0.78713062535E+02  0.00000000000E+00 0.  1.
        -13    1    3    3    0    0  0.77365227316E+02  0.16823669306E+02  0.55637504105E+01  0.79368567866E+02  0.00000000000E+00 0. -1.
         13    1    3    3    0    0 -0.22511282014E+02  0.14169853101E+02  0.26674863673E+01  0.26733088829E+02  0.00000000000E+00 0.  1.
         21    1    1    2  503  501 -0.14227666647E+02  0.29026313997E+02 -0.16252196425E+02  0.36181311351E+02  0.00000000000E+00 0. -1.
          2    1    1    2  501    0  0.59512203306E+02  0.15487473523E+03  0.19808423348E+02  0.16709356538E+03  0.00000000000E+00 0. -1.
<scales pt_clust_5="13000.00000" pt_clust_6="13000.00000" pt_clust_7="13000.00000" pt_clust_8="13000.00000" pt_clust_9="32.32574" pt_clust_10="190.99341"></scales>
<clustering>
<clus scale="   32.326">  2  9  1 -1</clus>
<clus scale="   79.630">  5  6 -1 -1</clus>
<clus scale="   84.972">  7  8 -1 -1</clus>
<clus scale="  106.452">  1  7  2 -1</clus>
<clus scale="  190.993">  2 10  1 -1</clus>
<clus scale="   32.326">  2  5  1 -1</clus>
</clustering>
</event>
<event>
10    3  0.7209067E-005  0.1487151E+03  0.7546771E-02  0.1203974E+00
          1   -1    0    0  502    0 -0.00000000000E+00  0.00000000000E+00  0.23917225768E+03  0.23917225768E+03  0.00000000000E+00 0. -1.
         21   -1    0    0  503  502  0.00000000000E+00 -0.00000000000E+00 -0.30235017599E+03  0.30235017599E+03  0.00000000000E+00 0. -1.
        -24    2    1    2    0    0 -0.86573283608E+02  0.79928224414E+02  0.14674866393E+03  0.20504931384E+03  0.81403908077E+02 0.  0.
         23    2    1    2    0    0  0.46415174293E+02 -0.11371072691E+03 -0.18161401675E+03  0.23759087596E+03  0.91549306065E+02 0.  0.
         11    1    3    3    0    0 -0.84478764173E+02  0.61222837332E+02  0.15302622608E+03  0.18520778406E+03  0.00000000000E+00 0. -1.
        -12    1    3    3    0    0 -0.20945194348E+01  0.18705387082E+02 -0.62775621548E+01  0.19841529783E+02  0.00000000000E+00 0.  1.
        -13    1    4    4    0    0  0.18713624518E+02 -0.12151101627E+03 -0.15901303220E+03  0.20099818712E+03  0.00000000000E+00 0. -1.
         13    1    4    4    0    0  0.27701549775E+02  0.78002893529E+01 -0.22600984543E+02  0.36592688836E+02  0.00000000000E+00 0.  1.
         21    1    1    2  503  501 -0.13131922706E+02  0.21346147436E+02 -0.35747392205E+02  0.43657547501E+02  0.00000000000E+00 0.  1.
          2    1    1    2  501    0  0.53290032021E+02  0.12436355065E+02  0.74348267220E+01  0.55224696364E+02  0.00000000000E+00 0. -1.
<scales pt_clust_5="13000.00000" pt_clust_6="13000.00000" pt_clust_7="13000.00000" pt_clust_8="13000.00000" pt_clust_9="25.06203" pt_clust_10="54.04316"></scales>
<clustering>
<clus scale="   25.062">  2  9  1 -1</clus>
<clus scale="   54.043">  2 10  1 -1</clus>
<clus scale="   81.404">  5  6 -1 -1</clus>
<clus scale="   91.549">  7  8 -1 -1</clus>
<clus scale="  142.694">  1  5  2 -1</clus>
<clus scale="   25.062">  2  5  1 -1</clus>
</clustering>
</event>
<event>
10    3  0.7209067E-005  0.2015708E+03  0.7546771E-02  0.1179154E+00
         21   -1    0    0  501  502  0.00000000000E+00  0.00000000000E+00  0.11740957871E+03  0.11740957871E+03  0.00000000000E+00 0. -1.
          1   -1    0    0  503    0 -0.00000000000E+00 -0.00000000000E+00 -0.74116270197E+03  0.74116270197E+03  0.00000000000E+00 0. -1.
         23    2    1    2    0    0  0.35887471769E+02  0.73453396036E+01 -0.73831966577E+02  0.12513328660E+03  0.94155804292E+02 0.  0.
        -24    2    1    2    0    0 -0.70768719766E+02 -0.15170787707E+03 -0.15164615999E+03  0.23882715775E+03  0.77578101139E+02 0.  0.
         13    1    4    4    0    0 -0.71051450527E+02 -0.15996897118E+03 -0.13809650425E+03  0.22295520816E+03  0.00000000000E+00 0. -1.
        -14    1    4    4    0    0  0.28273076130E+00  0.82610941165E+01 -0.13549655748E+02  0.15871949583E+02  0.00000000000E+00 0.  1.
        -13    1    3    3    0    0  0.59928990119E+02  0.15871936091E+02 -0.77626073768E+02  0.99343895336E+02  0.00000000000E+00 0. -1.
         13    1    3    3    0    0 -0.24041518349E+02 -0.85265964877E+01  0.37941071909E+01  0.25789391260E+02  0.00000000000E+00 0.  1.
         21    1    1    2  503  502 -0.19637925724E+02 -0.41232709293E+02  0.63658830266E+01  0.46111917214E+02  0.00000000000E+00 0. -1.
          2    1    1    2  501    0  0.54519173720E+02  0.18559524676E+03 -0.40464087972E+03  0.44849991913E+03  0.00000000000E+00 0. -1.
<scales pt_clust_5="13000.00000" pt_clust_6="13000.00000" pt_clust_7="13000.00000" pt_clust_8="13000.00000" pt_clust_9="45.67039" pt_clust_10="186.04425"></scales>
<clustering>
<clus scale="   45.670">  1  9  2 -1</clus>
<clus scale="   77.578">  5  6 -1 -1</clus>
<clus scale="   94.156">  7  8 -1 -1</clus>
<clus scale="   99.022">  2  7  1 -1</clus>
<clus scale="  186.044">  1 10  2 -1</clus>
<clus scale="   45.670">  1  5  2 -1</clus>
</clustering>
</event>
<event>
10    3  0.7209067E-005  0.1744631E+03  0.7546771E-02  0.1174318E+00
          1   -1    0    0  503    0 -0.00000000000E+00  0.00000000000E+00  0.82576885694E+03  0.82576885694E+03  0.00000000000E+00 0. -1.
         21   -1    0    0  501  502  0.00000000000E+00 -0.00000000000E+00 -0.13334136769E+03  0.13334136769E+03  0.00000000000E+00 0.  1.
        -24    2    1    2    0    0  0.15718822832E+03  0.58715982652E+02  0.26859120606E+03  0.32674322526E+03  0.80400208553E+02 0.  0.
         23    2    1    2    0    0 -0.15929766575E+03  0.24713783936E+02 -0.46295798406E+01  0.18408046157E+03  0.88756216066E+02 0.  0.
         13    1    3    3    0    0  0.13054713344E+03  0.41303492867E+02  0.14630776609E+03  0.20038586524E+03  0.00000000000E+00 0. -1.
        -14    1    3    3    0    0  0.26641094881E+02  0.17412489785E+02  0.12228343998E+03  0.12635736001E+03  0.00000000000E+00 0.  1.
        -13    1    4    4    0    0 -0.10066219567E+03  0.27471472711E+02 -0.44167540523E+02  0.11330635943E+03  0.00000000000E+00 0.  1.
         13    1    4    4    0    0 -0.58635470082E+02 -0.27576887755E+01  0.39537960682E+02  0.70774102142E+02  0.00000000000E+00 0. -1.
         21    1    1    2  503  502 -0.39049798741E+02 -0.28443130424E+01  0.16960971394E+03  0.17407019263E+03  0.00000000000E+00 0.  1.
          2    1    1    2  501    0  0.41159236173E+02 -0.80585453545E+02  0.25885614908E+03  0.27421634518E+03  0.00000000000E+00 0. -1.
<scales pt_clust_5="13000.00000" pt_clust_6="13000.00000" pt_clust_7="13000.00000" pt_clust_8="13000.00000" pt_clust_9="39.15325" pt_clust_10="85.55359"></scales>
<clustering>
<clus scale="   39.153">  1  9  2 -1</clus>
<clus scale="   80.400">  5  6 -1 -1</clus>
<clus scale="   85.554">  2 10  1 -1</clus>
<clus scale="   88.756">  7  8 -1 -1</clus>
<clus scale="  170.364">  1  5  2 -1</clus>
<clus scale="   85.554">  2  5  1 -1</clus>
</clustering>
</event>
<event>
10    3  0.7209067E-005  0.1772780E+03  0.7546771E-02  0.1170976E+00
         21   -1    0    0  501  502  0.00000000000E+00  0.00000000000E+00  0.68052723418E+02  0.68052723418E+02  0.00000000000E+00 0. -1.
          1   -1    0    0  503    0 -0.00000000000E+00 -0.00000000000E+00 -0.11310416584E+04  0.11310416584E+04  0.00000000000E+00 0. -1.
         23    2    1    2    0    0 -0.97892224657E+02 -0.12323489132E+03 -0.61728694618E+03  0.64142066900E+03  0.74883740638E+02 0.  0.
        -24    2    1    2    0    0  0.15799653460E+03  0.70069073679E+02 -0.38272907428E+03  0.42742103783E+03  0.79590321322E+02 0.  0.
         13    1    4    4    0    0  0.66581916754E+02 -0.11727507158E+02 -0.13416984576E+03  0.15024058565E+03  0.00000000000E+00 0. -1.
        -14    1    4    4    0    0  0.91414617849E+02  0.81796580836E+02 -0.24855922852E+03  0.27718045218E+03  0.00000000000E+00 0.  1.
        -11    1    3    3    0    0 -0.66544182779E+02 -0.24887217693E+02 -0.25669925760E+03  0.26634941471E+03  0.00000000000E+00 0.  1.
         11    1    3    3    0    0 -0.31348041878E+02 -0.98347673629E+02 -0.36058768858E+03  0.37507125429E+03  0.00000000000E+00 0. -1.
         21    1    1    2  503  502 -0.14183513840E+02 -0.21319217343E+02 -0.21423349388E+02  0.33386239560E+02  0.00000000000E+00 0. -1.
          2    1    1    2  501    0 -0.45920796106E+02  0.74485034986E+02 -0.41549565159E+02  0.96866435449E+02  0.00000000000E+00 0. -1.
<scales pt_clust_5="13000.00000" pt_clust_6="13000.00000" pt_clust_7="13000.00000" pt_clust_8="13000.00000" pt_clust_9="25.60627" pt_clust_10="83.37988"></scales>
<clustering>
<clus scale="   25.606">  1  9  2 -1</clus>
<clus scale="   74.884">  7  8 -1 -1</clus>
<clus scale="   79.590">  5  6 -1 -1</clus>
<clus scale="   83.380">  1 10  2 -1</clus>
<clus scale="  175.215">  2  7  1 -1</clus>
<clus scale="   25.606">  1  5  2 -1</clus>
</clustering>
</event>
<event>
10    3  0.7209067E-005  0.2358945E+03  0.7546771E-02  0.1122558E+00
         21   -1    0    0  503  502  0.00000000000E+00  0.00000000000E+00  0.10438854607E+03  0.10438854607E+03  0.00000000000E+00 0.  1.
          1   -1    0    0  502    0 -0.00000000000E+00 -0.00000000000E+00 -0.95456127770E+03  0.95456127770E+03  0.00000000000E+00 0. -1.
        -24    2    1    2    0    0  0.65390565658E+02 -0.25362959566E+02 -0.81693183073E+02  0.13963594518E+03  0.88911277293E+02 0.  0.
         23    2    1    2    0    0  0.47207206768E+02 -0.51649966703E+02 -0.11472828016E+03  0.16159904589E+03  0.89752069241E+02 0.  0.
         11    1    3    3    0    0  0.12387126372E+02 -0.46696647127E+02 -0.12501188389E+02  0.49902880316E+02  0.00000000000E+00 0. -1.
        -12    1    3    3    0    0  0.53003439286E+02  0.21333687561E+02 -0.69191994684E+02  0.89733064862E+02  0.00000000000E+00 0.  1.
        -13    1    4    4    0    0  0.38630135347E+02 -0.75422051127E+02 -0.68700055181E+02  0.10908927874E+03  0.00000000000E+00 0.  1.
         13    1    4    4    0    0  0.85770714219E+01  0.23772084424E+02 -0.46028224979E+02  0.52509767156E+02  0.00000000000E+00 0. -1.
         21    1    1    2  503  501 -0.30701190338E+02 -0.51220979946E+02  0.23057319206E+02  0.64013997249E+02  0.00000000000E+00 0.  1.
          2    1    1    2  501    0 -0.81896582089E+02  0.12823390622E+03 -0.67680858760E+03  0.69370083546E+03  0.00000000000E+00 0. -1.
<scales pt_clust_5="13000.00000" pt_clust_6="13000.00000" pt_clust_7="13000.00000" pt_clust_8="13000.00000" pt_clust_9="59.71727" pt_clust_10="148.64174"></scales>
<clustering>
<clus scale="   59.717">  1  9  2 -1</clus>
<clus scale="   88.911">  5  6 -1 -1</clus>
<clus scale="   89.752">  7  8 -1 -1</clus>
<clus scale="   97.017">  5  7 -1 -1</clus>
<clus scale="  148.642">  1 10  2 -1</clus>
<clus scale="   59.717">  1  5  2 -1</clus>
</clustering>
</event>
<event>
10    3  0.7209067E-005  0.2852947E+03  0.7546771E-02  0.1093060E+00
         21   -1    0    0  503  502  0.00000000000E+00  0.00000000000E+00  0.11697122898E+04  0.11697122898E+04  0.00000000000E+00 0. -1.
          1   -1    0    0  502    0 -0.00000000000E+00 -0.00000000000E+00 -0.36568303964E+03  0.36568303964E+03  0.00000000000E+00 0. -1.
        -24    2    1    2    0    0  0.25539706384E+03  0.13823990876E+03 -0.26822978966E+03  0.40343341961E+03  0.80457264452E+02 0.  0.
         23    2    1    2    0    0 -0.13944789802E+03 -0.96968533813E+02  0.35293985527E+03  0.40107390558E+03  0.86285129010E+02 0.  0.
         13    1    3    3    0    0  0.21846998053E+03  0.80936516428E+02 -0.20129792465E+03  0.30789723375E+03  0.00000000000E+00 0. -1.
        -14    1    3    3    0    0  0.36927083319E+02  0.57303392330E+02 -0.66931865009E+02  0.95536185860E+02  0.00000000000E+00 0.  1.
        -13    1    4    4    0    0 -0.90063359428E+02 -0.10561458397E+03  0.28067846229E+03  0.31312337544E+03  0.00000000000E+00 0.  1.
         13    1    4    4    0    0 -0.49384538590E+02  0.86460501590E+01  0.72261392983E+02  0.87950530135E+02  0.00000000000E+00 0. -1.
         21    1    1    2  503  501 -0.40506357605E+02  0.37997594797E+01  0.18818420529E+03  0.19253181113E+03  0.00000000000E+00 0. -1.
          2    1    1    2  501    0 -0.75442808222E+02 -0.45071134425E+02  0.53113497927E+03  0.53835619313E+03  0.00000000000E+00 0. -1.
<scales pt_clust_5="13000.00000" pt_clust_6="13000.00000" pt_clust_7="13000.00000" pt_clust_8="13000.00000" pt_clust_9="27.46712" pt_clust_10="129.52678"></scales>
<clustering>
<clus scale="   27.467">  9 10 -1 -1</clus>
<clus scale="   80.457">  5  6 -1 -1</clus>
<clus scale="   86.285">  7  8 -1 -1</clus>
<clus scale="  129.527">  1  9  2 -1</clus>
<clus scale="  283.587">  2  5  1 -1</clus>
<clus scale="  129.527">  1  5  2 -1</clus>
</clustering>
</event>
<event>
10    3  0.7209067E-005  0.2444672E+03  0.7546771E-02  0.1161367E+00
         21   -1    0    0  501  502  0.00000000000E+00  0.00000000000E+00  0.85041484617E+02  0.85041484617E+02  0.00000000000E+00 0. -1.
          1   -1    0    0  503    0 -0.00000000000E+00 -0.00000000000E+00 -0.14307506636E+04  0.14307506636E+04  0.00000000000E+00 0. -1.
        -24    2    1    2    0    0  0.15142894950E+02  0.11635854405E+02 -0.17054818276E+03  0.18933318705E+03  0.79972949813E+02 0.  0.
         23    2    1    2    0    0  0.17317416585E+03  0.10744107020E+03 -0.80352885166E+03  0.83392812694E+03  0.90799945798E+02 0.  0.
         13    1    3    3    0    0 -0.80156932141E+01  0.42259885140E+02 -0.10327920865E+03  0.11187825602E+03  0.00000000000E+00 0. -1.
        -14    1    3    3    0    0  0.23158588164E+02 -0.30624030735E+02 -0.67268974112E+02  0.77454931039E+02  0.00000000000E+00 0.  1.
        -11    1    4    4    0    0  0.86543351185E+02  0.64704699967E+02 -0.58651323152E+03  0.59638428934E+03  0.00000000000E+00 0.  1.
         11    1    4    4    0    0  0.86630814668E+02  0.42736370236E+02 -0.21701562015E+03  0.23754383759E+03  0.00000000000E+00 0. -1.
         21    1    1    2  503  502  0.17628939678E+02  0.24672521780E+02  0.13137518279E+02  0.33047045733E+02  0.00000000000E+00 0. -1.
          2    1    1    2  501    0 -0.20594600048E+03 -0.14374944639E+03 -0.38476966286E+03  0.45948378851E+03  0.00000000000E+00 0. -1.
<scales pt_clust_5="13000.00000" pt_clust_6="13000.00000" pt_clust_7="13000.00000" pt_clust_8="13000.00000" pt_clust_9="30.32347" pt_clust_10="226.97928"></scales>
<clustering>
<clus scale="   30.323">  1  9  2 -1</clus>
<clus scale="   79.973">  5  6 -1 -1</clus>
<clus scale="   83.364">  2  5  1 -1</clus>
<clus scale="   90.800">  7  8 -1 -1</clus>
<clus scale="  226.979">  1 10  2 -1</clus>
<clus scale="   30.323">  1  5  2 -1</clus>
</clustering>
</event>
<event>
10    3  0.7209067E-005  0.2069251E+03  0.7546771E-02  0.1144922E+00
          1   -1    0    0  502    0 -0.00000000000E+00  0.00000000000E+00  0.16111950304E+04  0.16111950304E+04  0.00000000000E+00 0. -1.
         21   -1    0    0  503  502  0.00000000000E+00 -0.00000000000E+00 -0.44010343858E+02  0.44010343858E+02  0.00000000000E+00 0.  1.
         23    2    1    2    0    0 -0.14883239244E+02  0.16632684132E+03  0.70764102007E+03  0.73270553654E+03  0.90639180429E+02 0.  0.
        -24    2    1    2    0    0  0.33442393401E+02 -0.21594484146E+03  0.61631438152E+03  0.65879406890E+03  0.80097691095E+02 0.  0.
         11    1    4    4    0    0 -0.20718538526E+02 -0.21014256984E+02  0.60743977400E+02  0.67532863301E+02  0.00000000000E+00 0. -1.
        -12    1    4    4    0    0  0.54160931927E+02 -0.19493058448E+03  0.55557040412E+03  0.59126120560E+03  0.00000000000E+00 0.  1.
        -13    1    3    3    0    0  0.31501052897E+02  0.10805977451E+03  0.36040111850E+03  0.37756879825E+03  0.00000000000E+00 0.  1.
         13    1    3    3    0    0 -0.46384292142E+02  0.58267066805E+02  0.34723990157E+03  0.35513673828E+03  0.00000000000E+00 0. -1.
         21    1    1    2  503  501 -0.37760522825E+02 -0.19858547060E+01  0.49416936417E+02  0.62224065343E+02  0.00000000000E+00 0. -1.
          2    1    1    2  501    0  0.19201368668E+02  0.51603854849E+02  0.19381234855E+03  0.20148170350E+03  0.00000000000E+00 0. -1.
<scales pt_clust_5="13000.00000" pt_clust_6="13000.00000" pt_clust_7="13000.00000" pt_clust_8="13000.00000" pt_clust_9="37.81271" pt_clust_10="53.64472"></scales>
<clustering>
<clus scale="   37.813">  2  9  1 -1</clus>
<clus scale="   53.645">  2 10  1 -1</clus>
<clus scale="   80.098">  5  6 -1 -1</clus>
<clus scale="   90.639">  7  8 -1 -1</clus>
<clus scale="  202.529">  2  5  1 -1</clus>
<clus scale="   37.813">  2  5  1 -1</clus>
</clustering>
</event>
<event>
10    3  0.7209067E-005  0.1094890E+03  0.7546771E-02  0.1266286E+00
         21   -1    0    0  501  502  0.00000000000E+00  0.00000000000E+00  0.59030600730E+02  0.59030600730E+02  0.00000000000E+00 0. -1.
          1   -1    0    0  503    0 -0.00000000000E+00 -0.00000000000E+00 -0.55496862985E+03  0.55496862985E+03  0.00000000000E+00 0. -1.
         23    2    1    2    0    0 -0.20274759721E+01 -0.45327039225E+02 -0.17139563044E+03  0.20031498124E+03  0.93225417300E+02 0.  0.
        -24    2    1    2    0    0  0.97512948825E+02  0.28407363768E+02 -0.20111492626E+03  0.23961931198E+03  0.81574797609E+02 0.  0.
         11    1    4    4    0    0  0.36152464088E+02  0.40185797870E+02 -0.14817321399E+03  0.15772507839E+03  0.00000000000E+00 0. -1.
        -12    1    4    4    0    0  0.61360484737E+02 -0.11778434102E+02 -0.52941712275E+02  0.81894233593E+02  0.00000000000E+00 0.  1.
        -11    1    3    3    0    0  0.14446876210E+01  0.28116231686E+02 -0.31308026542E+02  0.42104656898E+02  0.00000000000E+00 0.  1.
         11    1    3    3    0    0 -0.34721635931E+01 -0.73443270910E+02 -0.14008760390E+03  0.15821032434E+03  0.00000000000E+00 0. -1.
         21    1    1    2  503  502  0.42351146127E+01  0.22259100716E+02 -0.18961687401E+02  0.29545716264E+02  0.00000000000E+00 0. -1.
          2    1    1    2  501    0 -0.99720587466E+02 -0.53394252591E+01 -0.10446578501E+03  0.14451922109E+03  0.00000000000E+00 0. -1.
<scales pt_clust_5="13000.00000" pt_clust_6="13000.00000" pt_clust_7="13000.00000" pt_clust_8="13000.00000" pt_clust_9="22.65841" pt_clust_10="98.18679"></scales>
<clustering>
<clus scale="   22.658">  1  9  2 -1</clus>
<clus scale="   81.575">  5  6 -1 -1</clus>
<clus scale="   93.225">  7  8 -1 -1</clus>
<clus scale="   98.187">  1 10  2 -1</clus>
<clus scale="   99.756">  1  5  2 -1</clus>
<clus scale="   22.658">  1  5  2 -1</clus>
</clustering>
</event>
<event>
10    3  0.7209067E-005  0.1121954E+03  0.7546771E-02  0.1261616E+00
         21   -1    0    0  501  502  0.00000000000E+00  0.00000000000E+00  0.10425190546E+03  0.10425190546E+03  0.00000000000E+00 0. -1.
         -4   -1    0    0    0  501 -0.00000000000E+00 -0.00000000000E+00 -0.99409522413E+03  0.99409522413E+03  0.00000000000E+00 0.  1.
        -24    2    1    2    0    0  0.69657083415E+02 -0.24143529798E+01 -0.36667692815E+03  0.38132277023E+03  0.78084230721E+02 0.  0.
         23    2    1    2    0    0 -0.43535025920E+02  0.63118475695E+02 -0.30660043963E+03  0.32901853699E+03  0.91488401719E+02 0.  0.
         13    1    3    3    0    0  0.21024320261E+02  0.29293032838E+02 -0.67119667178E+02  0.76191558176E+02  0.00000000000E+00 0. -1.
        -14    1    3    3    0    0  0.48632763155E+02 -0.31707385818E+02 -0.29955726098E+03  0.30513121206E+03  0.00000000000E+00 0.  1.
        -11    1    4    4    0    0 -0.20567809838E+02 -0.18923785102E+02 -0.12962471678E+03  0.13260358835E+03  0.00000000000E+00 0.  1.
         11    1    4    4    0    0 -0.22967216082E+02  0.82042260797E+02 -0.17697572285E+03  0.19641494864E+03  0.00000000000E+00 0. -1.
         21    1    1    2  503  502 -0.47188262240E+02  0.63839325220E+02  0.49447419419E+02  0.93526674404E+02  0.00000000000E+00 0. -1.
         -3    1    1    2    0  503  0.21066204745E+02 -0.12454344794E+03 -0.26601337031E+03  0.29447914797E+03  0.00000000000E+00 0.  1.
<scales pt_clust_5="13000.00000" pt_clust_6="13000.00000" pt_clust_7="13000.00000" pt_clust_8="13000.00000" pt_clust_9="79.38634" pt_clust_10="96.81363"></scales>
<clustering>
<clus scale="   78.084">  5  6 -1 -1</clus>
<clus scale="   79.386">  1  9  2 -1</clus>
<clus scale="   91.488">  7  8 -1 -1</clus>
<clus scale="   96.814">  1 10  2 -1</clus>
<clus scale="  101.562">  2  5  1 -1</clus>
<clus scale="   79.386">  1  5  2 -1</clus>
</clustering>
</event>
<event>
10    3  0.7209067E-005  0.1572400E+03  0.7546771E-02  0.1207692E+00
         21   -1    0    0  503  502  0.00000000000E+00  0.00000000000E+00  0.46222898187E+03  0.46222898187E+03  0.00000000000E+00 0.  1.
         -2   -1    0    0    0  501 -0.00000000000E+00 -0.00000000000E+00 -0.62674661127E+03  0.62674661127E+03  0.00000000000E+00 0.  1.
         23    2    1    2    0    0 -0.60870213669E+02  0.93013406933E+01 -0.38998209613E+03  0.40559294545E+03  0.92886512721E+02 0.  0.
        -24    2    1    2    0    0  0.21913350060E+02  0.13459690638E+03 -0.13778650362E+03  0.21002037505E+03  0.80789326271E+02 0.  0.
         11    1    4    4    0    0  0.34560990442E+02  0.95223971382E+02 -0.49974953976E+02  0.11295823481E+03  0.00000000000E+00 0. -1.
        -12    1    4    4    0    0 -0.12647640382E+02  0.39372934994E+02 -0.87811549645E+02  0.97062140242E+02  0.00000000000E+00 0.  1.
        -11    1    3    3    0    0 -0.10674277414E+02 -0.38388945765E+02 -0.10461309766E+03  0.11194441280E+03  0.00000000000E+00 0. -1.
         11    1    3    3    0    0 -0.50195936255E+02  0.47690286458E+02 -0.28536899847E+03  0.29364853265E+03  0.00000000000E+00 0.  1.
         21    1    1    2  503  501  0.12577473833E+03 -0.52821856044E+02  0.30618631281E+03  0.33520067337E+03  0.00000000000E+00 0.  1.
         -1    1    1    2    0  502 -0.86817874721E+02 -0.91076391026E+02  0.57064657530E+02  0.13816159927E+03  0.00000000000E+00 0.  1.
<scales pt_clust_5="13000.00000" pt_clust_6="13000.00000" pt_clust_7="13000.00000" pt_clust_8="13000.00000" pt_clust_9="134.89810" pt_clust_10="132.37419"></scales>
<clustering>
<clus scale="   80.789">  5  6 -1 -1</clus>
<clus scale="   92.887">  7  8 -1 -1</clus>
<clus scale="  111.443">  2  7  1 -1</clus>
<clus scale="  132.374">  1 10  2 -1</clus>
<clus scale="  134.898">  1  9  2 -1</clus>
<clus scale="  132.374">  1  5  2 -1</clus>
</clustering>
</event>
<event>
10    3  0.7209067E-005  0.1837879E+03  0.7546771E-02  0.1204603E+00
          1   -1    0    0  502    0 -0.00000000000E+00  0.00000000000E+00  0.59388445815E+03  0.59388445815E+03  0.00000000000E+00 0. -1.
         21   -1    0    0  503  502  0.00000000000E+00 -0.00000000000E+00 -0.10630475731E+03  0.10630475731E+03  0.00000000000E+00 0. -1.
         23    2    1    2    0    0 -0.83318001198E+01  0.24040407013E+02  0.34770078234E+02  0.79506379587E+02  0.66820251361E+02 0.  0.
        -24    2    1    2    0    0  0.18000072746E+03 -0.70388998537E+02  0.20194445769E+03  0.29182463936E+03  0.83816365619E+02 0.  0.
         13    1    4    4    0    0  0.57223098815E+02 -0.30890902972E+02  0.18556055025E+02  0.67624389850E+02  0.00000000000E+00 0. -1.
        -14    1    4    4    0    0  0.12277762865E+03 -0.39498095565E+02  0.18338840267E+03  0.22420024951E+03  0.00000000000E+00 0.  1.
        -13    1    3    3    0    0 -0.34812603959E+02  0.31272495434E+01  0.28690703335E+02  0.45220056855E+02  0.00000000000E+00 0.  1.
         13    1    3    3    0    0  0.26480803839E+02  0.20913157470E+02  0.60793748985E+01  0.34286322732E+02  0.00000000000E+00 0. -1.
         21    1    1    2  503  501 -0.32780587420E+02  0.17102292407E+02 -0.39459570783E+01  0.37183677796E+02  0.00000000000E+00 0. -1.
          2    1    1    2  501    0 -0.13888833992E+03  0.29246299117E+02  0.25481112199E+03  0.29167451871E+03  0.00000000000E+00 0. -1.
<scales pt_clust_5="13000.00000" pt_clust_6="13000.00000" pt_clust_7="13000.00000" pt_clust_8="13000.00000" pt_clust_9="36.97371" pt_clust_10="163.56295"></scales>
<clustering>
<clus scale="   36.974">  2  9  1 -1</clus>
<clus scale="   66.820">  7  8 -1 -1</clus>
<clus scale="   74.581">  1  7  2 -1</clus>
<clus scale="   83.816">  5  6 -1 -1</clus>
<clus scale="  163.563">  2 10  1 -1</clus>
<clus scale="   36.974">  2  5  1 -1</clus>
</clustering>
</event>
<event>
10    3  0.7209067E-005  0.1026313E+03  0.7546771E-02  0.1281420E+00
          1   -1    0    0  503    0 -0.00000000000E+00  0.00000000000E+00  0.77994855130E+03  0.77994855130E+03  0.00000000000E+00 0. -1.
         21   -1    0    0  501  502  0.00000000000E+00 -0.00000000000E+00 -0.51467142029E+02  0.51467142029E+02  0.00000000000E+00 0.  1.
        -24    2    1    2    0    0  0.77637695743E+02 -0.21500358973E+02  0.42780923469E+03  0.44151979483E+03  0.73682499325E+02 0.  0.
         23    2    1    2    0    0 -0.75346906542E+01 -0.11272502631E+02  0.15761266980E+03  0.18107662454E+03  0.88108736192E+02 0.  0.
         13    1    3    3    0    0 -0.14471205584E+01 -0.27785145974E+02  0.15208654198E+03  0.15461055833E+03  0.00000000000E+00 0. -1.
        -14    1    3    3    0    0  0.79084816302E+02  0.62847870011E+01  0.27572269271E+03  0.28690923650E+03  0.00000000000E+00 0.  1.
        -13    1    4    4    0    0 -0.19839822789E+02 -0.38161866086E+02  0.14044470745E+03  0.14688315915E+03  0.00000000000E+00 0.  1.
         13    1    4    4    0    0  0.12305132135E+02  0.26889363455E+02  0.17167962353E+02  0.34193465388E+02  0.00000000000E+00 0. -1.
         21    1    1    2  503  502 -0.37318683895E+01  0.20704847666E+02 -0.22040164265E+02  0.30469433853E+02  0.00000000000E+00 0.  1.
          2    1    1    2  501    0 -0.66371136700E+02  0.12068013938E+02  0.16509966905E+03  0.17834984011E+03  0.00000000000E+00 0. -1.
<scales pt_clust_5="13000.00000" pt_clust_6="13000.00000" pt_clust_7="13000.00000" pt_clust_8="13000.00000" pt_clust_9="21.03848" pt_clust_10="69.59033"></scales>
<clustering>
<clus scale="   21.038">  2  9  1 -1</clus>
<clus scale="   69.590">  2 10  1 -1</clus>
<clus scale="   73.682">  5  6 -1 -1</clus>
<clus scale="   88.109">  7  8 -1 -1</clus>
<clus scale="   90.549">  1  5  2 -1</clus>
<clus scale="   21.038">  2  5  1 -1</clus>
</clustering>
</event>
<event>
10    3  0.7209067E-005  0.1450972E+03  0.7546771E-02  0.1208720E+00
          3   -1    0    0  503    0 -0.00000000000E+00  0.00000000000E+00  0.62770798636E+02  0.62770798636E+02  0.00000000000E+00 0. -1.
         21   -1    0    0  501  502  0.00000000000E+00 -0.00000000000E+00 -0.90788933849E+03  0.90788933849E+03  0.00000000000E+00 0.  1.
        -24    2    1    2    0    0 -0.11129929599E+03 -0.49445172794E+02 -0.13749477847E+03  0.20087737330E+03  0.81329862884E+02 0.  0.
         23    2    1    2    0    0  0.96662458600E+02  0.33643887592E+02 -0.15930581226E+03  0.21041023179E+03  0.91752829636E+02 0.  0.
         11    1    3    3    0    0 -0.27362081593E+02 -0.53401892853E+02 -0.39741042243E+02  0.71970800385E+02  0.00000000000E+00 0. -1.
        -12    1    3    3    0    0 -0.83937214397E+02  0.39567200590E+01 -0.97753736229E+02  0.12890657292E+03  0.00000000000E+00 0.  1.
        -13    1    4    4    0    0  0.69052636247E+02  0.25327422279E+02 -0.32577422544E+02  0.80442733367E+02  0.00000000000E+00 0. -1.
         13    1    4    4    0    0  0.27609822353E+02  0.83164653134E+01 -0.12672838972E+03  0.12996749842E+03  0.00000000000E+00 0.  1.
         21    1    1    2  503  502 -0.21189249746E+02  0.54121592303E+02 -0.27778635131E+03  0.28380167024E+03  0.00000000000E+00 0.  1.
          4    1    1    2  501    0  0.35826087136E+02 -0.38320307101E+02 -0.27053159781E+03  0.27557086180E+03  0.00000000000E+00 0. -1.
<scales pt_clust_5="13000.00000" pt_clust_6="13000.00000" pt_clust_7="13000.00000" pt_clust_8="13000.00000" pt_clust_9="37.55425" pt_clust_10="52.45907"></scales>
<clustering>
<clus scale="   52.459">  2 10  1 -1</clus>
<clus scale="   37.554">  2  9  1 -1</clus>
<clus scale="   81.330">  5  6 -1 -1</clus>
<clus scale="   91.753">  7  8 -1 -1</clus>
<clus scale="  138.741">  1  5  2 -1</clus>
<clus scale="   52.459">  2  5  1 -1</clus>
</clustering>
</event>
<event>
10    3  0.7209067E-005  0.1524528E+03  0.7546771E-02  0.1200143E+00
         21   -1    0    0  501  502  0.00000000000E+00  0.00000000000E+00  0.13008531380E+03  0.13008531380E+03  0.00000000000E+00 0. -1.
          1   -1    0    0  503    0 -0.00000000000E+00 -0.00000000000E+00 -0.33330034444E+03  0.33330034444E+03  0.00000000000E+00 0. -1.
        -24    2    1    2    0    0  0.88550420076E+02  0.77957449906E+02 -0.81108318121E+02  0.16314273489E+03  0.78220533029E+02 0.  0.
         23    2    1    2    0    0 -0.35356636969E+02 -0.13371349785E+03 -0.53466284137E+02  0.17504434505E+03  0.93018750304E+02 0.  0.
         13    1    3    3    0    0  0.77794171979E+02  0.49669103345E+02 -0.19259257654E+02  0.94286117888E+02  0.00000000000E+00 0. -1.
        -14    1    3    3    0    0  0.10756248096E+02  0.28288346560E+02 -0.61849060466E+02  0.68856617000E+02  0.00000000000E+00 0.  1.
        -13    1    4    4    0    0  0.25572878339E+02 -0.55379666656E+02  0.26138228198E+01  0.61054988782E+02  0.00000000000E+00 0.  1.
         13    1    4    4    0    0 -0.60929515308E+02 -0.78333831199E+02 -0.56080106957E+02  0.11398935627E+03  0.00000000000E+00 0. -1.
         21    1    1    2  503  502 -0.26429558026E+02 -0.18669871643E+01  0.60124511030E+01  0.27169040226E+02  0.00000000000E+00 0. -1.
          2    1    1    2  501    0 -0.26764225080E+02  0.57623035113E+02 -0.74652879483E+02  0.98029538074E+02  0.00000000000E+00 0. -1.
<scales pt_clust_5="13000.00000" pt_clust_6="13000.00000" pt_clust_7="13000.00000" pt_clust_8="13000.00000" pt_clust_9="26.49542" pt_clust_10="64.55793"></scales>
<clustering>
<clus scale="   26.495">  1  9  2 -1</clus>
<clus scale="   64.558">  1 10  2 -1</clus>
<clus scale="   78.221">  5  6 -1 -1</clus>
<clus scale="   93.019">  7  8 -1 -1</clus>
<clus scale="  143.902">  2  5  1 -1</clus>
<clus scale="   26.495">  1  5  2 -1</clus>
</clustering>
</event>
<event>
10    3  0.7209067E-005  0.3117406E+03  0.7546771E-02  0.1128722E+00
         21   -1    0    0  501  502  0.00000000000E+00  0.00000000000E+00  0.21112662281E+03  0.21112662281E+03  0.00000000000E+00 0. -1.
          1   -1    0    0  503    0 -0.00000000000E+00 -0.00000000000E+00 -0.10376954491E+04  0.10376954491E+04  0.00000000000E+00 0. -1.
        -24    2    1    2    0    0  0.88270714525E+01  0.32519605061E+02 -0.11709353851E+03  0.14596535847E+03  0.80371308367E+02 0.  0.
         23    2    1    2    0    0 -0.79637585316E+01 -0.32205231053E+03 -0.10335924192E+03  0.34998514159E+03  0.89584341680E+02 0.  0.
         13    1    3    3    0    0  0.35705662554E+02 -0.55872077296E+01 -0.74523440482E+02  0.82824238058E+02  0.00000000000E+00 0. -1.
        -14    1    3    3    0    0 -0.26878591101E+02  0.38106812791E+02 -0.42570098025E+02  0.63141120409E+02  0.00000000000E+00 0.  1.
        -11    1    4    4    0    0 -0.34542537804E+02 -0.16236872309E+03 -0.17991770908E+02  0.16697452793E+03  0.00000000000E+00 0. -1.
         11    1    4    4    0    0  0.26578779273E+02 -0.15968358744E+03 -0.85367471016E+02  0.18301061366E+03  0.00000000000E+00 0.  1.
         21    1    1    2  503  502 -0.14203309965E+02  0.21258765392E+02  0.43195606122E+02  0.50194915163E+02  0.00000000000E+00 0.  1.
          2    1    1    2  501    0  0.13339997044E+02  0.26827394008E+03 -0.64931165195E+03  0.70267665665E+03  0.00000000000E+00 0. -1.
<scales pt_clust_5="13000.00000" pt_clust_6="13000.00000" pt_clust_7="13000.00000" pt_clust_8="13000.00000" pt_clust_9="25.56695" pt_clust_10="298.59160"></scales>
<clustering>
<clus scale="   25.567">  1  9  2 -1</clus>
<clus scale="   80.371">  5  6 -1 -1</clus>
<clus scale="   87.746">  2  5  1 -1</clus>
<clus scale="   89.584">  7  8 -1 -1</clus>
<clus scale="  298.592">  1 10  2 -1</clus>
<clus scale="   25.567">  1  5  2 -1</clus>
</clustering>
</event>
<event>
10    3  0.7209067E-005  0.2391025E+03  0.7546771E-02  0.1141617E+00
          1   -1    0    0  503    0 -0.00000000000E+00  0.00000000000E+00  0.24310798247E+03  0.24310798247E+03  0.00000000000E+00 0. -1.
         21   -1    0    0  501  502  0.00000000000E+00 -0.00000000000E+00 -0.88151248608E+03  0.88151248608E+03  0.00000000000E+00 0. -1.
        -24    2    1    2    0    0  0.90817537994E+02  0.17301933642E+03 -0.56977661824E+02  0.22502777764E+03  0.95955879325E+02 0.  0.
         23    2    1    2    0    0  0.10024023060E+03  0.42592656976E+02 -0.16536125750E+03  0.21663468025E+03  0.87886295553E+02 0.  0.
         13    1    3    3    0    0 -0.16647014783E+02  0.22619513102E+02  0.78170896788E+01  0.29152570473E+02  0.00000000000E+00 0. -1.
        -14    1    3    3    0    0  0.10746455278E+03  0.15039982332E+03 -0.64794751503E+02  0.19587520716E+03  0.00000000000E+00 0.  1.
        -13    1    4    4    0    0  0.22320986981E+02  0.52860648105E+02 -0.45159463319E+02  0.73019529615E+02  0.00000000000E+00 0.  1.
         13    1    4    4    0    0  0.77919243616E+02 -0.10267991128E+02 -0.12020179418E+03  0.14361515063E+03  0.00000000000E+00 0. -1.
         21    1    1    2  503  502 -0.18910875657E+03 -0.24991562682E+03 -0.50121853380E+03  0.59113446944E+03  0.00000000000E+00 0. -1.
          2    1    1    2  501    0 -0.19490120240E+01  0.34303633415E+02  0.85152949506E+02  0.91823541224E+02  0.00000000000E+00 0. -1.
<scales pt_clust_5="13000.00000" pt_clust_6="13000.00000" pt_clust_7="13000.00000" pt_clust_8="13000.00000" pt_clust_9="219.00336" pt_clust_10="34.35897"></scales>
<clustering>
<clus scale="   34.359">  2 10  1 -1</clus>
<clus scale="   87.886">  7  8 -1 -1</clus>
<clus scale="   95.956">  5  6 -1 -1</clus>
<clus scale="  142.101">  2  7  1 -1</clus>
<clus scale="  219.003">  2  9  1 -1</clus>
<clus scale="   34.359">  2  5  1 -1</clus>
</clustering>
</event>
<event>
10    3  0.7209067E-005  0.9309732E+02  0.7546771E-02  0.1305441E+00
         21   -1    0    0  503  502  0.00000000000E+00  0.00000000000E+00  0.40060542298E+03  0.40060542298E+03  0.00000000000E+00 0.  1.
         -4   -1    0    0    0  501 -0.00000000000E+00 -0.00000000000E+00 -0.70351699219E+02  0.70351699219E+02  0.00000000000E+00 0.  1.
         23    2    1    2    0    0  0.13432734119E+02  0.22083966576E+01  0.16605997549E+02  0.94052557401E+02  0.91568602901E+02 0.  0.
        -24    2    1    2    0    0 -0.82712829021E+01 -0.42199795397E+02  0.17190980473E+03  0.19270044340E+03  0.75704973897E+02 0.  0.
         11    1    4    4    0    0  0.20467033709E+02 -0.36230846157E+02  0.40553404321E+02  0.58104666630E+02  0.00000000000E+00 0. -1.
        -12    1    4    4    0    0 -0.28738316611E+02 -0.59689492404E+01  0.13135640041E+03  0.13459577677E+03  0.00000000000E+00 0.  1.
        -13    1    3    3    0    0 -0.27799508256E+02 -0.18684350370E+02  0.31000859791E+02  0.45639576201E+02  0.00000000000E+00 0. -1.
         13    1    3    3    0    0  0.41232242375E+02  0.20892747028E+02 -0.14394862242E+02  0.48412981199E+02  0.00000000000E+00 0.  1.
         21    1    1    2  503  501  0.15217135476E+02 -0.22686641919E+02  0.10552402964E+03  0.10900259522E+03  0.00000000000E+00 0.  1.
         -3    1    1    2    0  502 -0.20378586693E+02  0.62678040659E+02  0.36213891840E+02  0.75201526172E+02  0.00000000000E+00 0.  1.
<scales pt_clust_5="13000.00000" pt_clust_6="13000.00000" pt_clust_7="13000.00000" pt_clust_8="13000.00000" pt_clust_9="27.31748" pt_clust_10="60.93341"></scales>
<clustering>
<clus scale="   27.317">  1  9  2 -1</clus>
<clus scale="   60.933">  1 10  2 -1</clus>
<clus scale="   75.705">  5  6 -1 -1</clus>
<clus scale="   77.547">  1  5  2 -1</clus>
<clus scale="   91.569">  7  8 -1 -1</clus>
<clus scale="   27.317">  1  5  2 -1</clus>
</clustering>
</event>
<event>
10    3  0.7209067E-005  0.1201552E+03  0.7546771E-02  0.1259953E+00
          3   -1    0    0  503    0 -0.00000000000E+00  0.00000000000E+00  0.78461447271E+03  0.78461447271E+03  0.00000000000E+00 0. -1.
         21   -1    0    0  501  502  0.00000000000E+00 -0.00000000000E+00 -0.99346973088E+02  0.99346973088E+02  0.00000000000E+00 0.  1.
        -24    2    1    2    0    0  0.28098714028E+02 -0.18604057221E+02  0.54392446242E+03  0.55103727901E+03  0.81563554151E+02 0.  0.
         23    2    1    2    0    0  0.23862909592E+02 -0.30560097522E+02  0.11763040914E+03  0.17068063684E+03  0.11743767974E+03 0.  0.
         11    1    3    3    0    0  0.21441537544E+02 -0.50842443433E+02  0.32470674759E+03  0.32936175479E+03  0.00000000000E+00 0. -1.
        -12    1    3    3    0    0  0.66571764845E+01  0.32238386212E+02  0.21921771482E+03  0.22167552421E+03  0.00000000000E+00 0.  1.
        -13    1    4    4    0    0 -0.15353798940E+02 -0.59832087375E+02  0.26444748771E+02  0.67193322280E+02  0.00000000000E+00 0.  1.
         13    1    4    4    0    0  0.39216708532E+02  0.29271989853E+02  0.91185660369E+02  0.10348731456E+03  0.00000000000E+00 0. -1.
         21    1    1    2  503  502  0.31807961877E+02  0.31280963160E+02 -0.36416751491E+02  0.57588409287E+02  0.00000000000E+00 0.  1.
          4    1    1    2  501    0 -0.83769585497E+02  0.17883191583E+02  0.60129379562E+02  0.10465512067E+03  0.00000000000E+00 0. -1.
<scales pt_clust_5="13000.00000" pt_clust_6="13000.00000" pt_clust_7="13000.00000" pt_clust_8="13000.00000" pt_clust_9="44.61216" pt_clust_10="76.85363"></scales>
<clustering>
<clus scale="   44.612">  2  9  1 -1</clus>
<clus scale="   76.854">  2 10  1 -1</clus>
<clus scale="   81.564">  5  6 -1 -1</clus>
<clus scale="   85.430">  1  5  2 -1</clus>
<clus scale="  117.438">  7  8 -1 -1</clus>
<clus scale="   44.612">  2  5  1 -1</clus>
</clustering>
</event>
<event>
10    3  0.7209067E-005  0.9552322E+02  0.7546771E-02  0.1295383E+00
          1   -1    0    0  503    0 -0.00000000000E+00  0.00000000000E+00  0.45515106398E+03  0.45515106398E+03  0.00000000000E+00 0. -1.
         21   -1    0    0  501  502  0.00000000000E+00 -0.00000000000E+00 -0.13405230913E+03  0.13405230913E+03  0.00000000000E+00 0. -1.
         23    2    1    2    0    0 -0.52391875399E+01 -0.22800906036E+02  0.27972562162E+03  0.29476266218E+03  0.89951504830E+02 0.  0.
        -24    2    1    2    0    0  0.31949649352E+02  0.46466591520E+02  0.10691552611E+03  0.14506092637E+03  0.80198618534E+02 0.  0.
         11    1    4    4    0    0  0.51468583857E+02  0.54468968313E+01  0.66425551430E+02  0.84208299425E+02  0.00000000000E+00 0. -1.
        -12    1    4    4    0    0 -0.19518934504E+02  0.41019694688E+02  0.40489974679E+02  0.60852626945E+02  0.00000000000E+00 0.  1.
        -11    1    3    3    0    0 -0.36778536876E+02  0.25861810840E+01  0.53694733431E+02  0.65134272895E+02  0.00000000000E+00 0. -1.
         11    1    3    3    0    0  0.31539349336E+02 -0.25387087120E+02  0.22603088819E+03  0.22962838928E+03  0.00000000000E+00 0.  1.
         21    1    1    2  503  502 -0.19050223252E+02 -0.52379928518E+02 -0.93321988811E+02  0.10869940898E+03  0.00000000000E+00 0. -1.
          2    1    1    2  501    0 -0.76602385603E+01  0.28714243034E+02  0.27779595933E+02  0.40680375588E+02  0.00000000000E+00 0. -1.
<scales pt_clust_5="13000.00000" pt_clust_6="13000.00000" pt_clust_7="13000.00000" pt_clust_8="13000.00000" pt_clust_9="38.85631" pt_clust_10="29.71848"></scales>
<clustering>
<clus scale="   29.718">  2 10  1 -1</clus>
<clus scale="   38.856">  2  9  1 -1</clus>
<clus scale="   80.199">  5  6 -1 -1</clus>
<clus scale="   86.402">  2  5  1 -1</clus>
<clus scale="   89.952">  7  8 -1 -1</clus>
<clus scale="   29.718">  2  5  1 -1</clus>
</clustering>
</event>
<event>
10    3  0.7209067E-005  0.9700905E+02  0.7546771E-02  0.1293471E+00
          1   -1    0    0  503    0 -0.00000000000E+00  0.00000000000E+00  0.21776056660E+03  0.21776056660E+03  0.00000000000E+00 0. -1.
         21   -1    0    0  501  502  0.00000000000E+00 -0.00000000000E+00 -0.39067112691E+03  0.39067112691E+03  0.00000000000E+00 0. -1.
         23    2    1    2    0    0  0.43163058075E+02 -0.10499834717E+02  0.47114770026E+02  0.11295351427E+03  0.92549439323E+02 0.  0.
        -24    2    1    2    0    0  0.21517664641E+02  0.17162604638E+02 -0.74723958757E+02  0.11314875035E+03  0.80382863863E+02 0.  0.
         13    1    4    4    0    0  0.26924436402E+02 -0.27499081638E+02 -0.45075322870E+02  0.59269802584E+02  0.00000000000E+00 0. -1.
        -14    1    4    4    0    0 -0.54067717605E+01  0.44661686276E+02 -0.29648635887E+02  0.53878947761E+02  0.00000000000E+00 0.  1.
        -11    1    3    3    0    0 -0.21716587454E+02  0.13992667023E+02  0.33460963715E+02  0.42273407643E+02  0.00000000000E+00 0.  1.
         11    1    3    3    0    0  0.64879645530E+02 -0.24492501739E+02  0.13653806311E+02  0.70680106623E+02  0.00000000000E+00 0. -1.
         21    1    1    2  503  502 -0.35313722029E+02 -0.26008128487E+01 -0.26074578702E+03  0.26313910512E+03  0.00000000000E+00 0. -1.
          2    1    1    2  501    0 -0.29367000688E+02 -0.40619570728E+01  0.11544441545E+03  0.11919032378E+03  0.00000000000E+00 0. -1.
<scales pt_clust_5="13000.00000" pt_clust_6="13000.00000" pt_clust_7="13000.00000" pt_clust_8="13000.00000" pt_clust_9="55.35688" pt_clust_10="29.64660"></scales>
<clustering>
<clus scale="   29.647">  2 10  1 -1</clus>
<clus scale="   55.357">  2  9  1 -1</clus>
<clus scale="   80.383">  5  6 -1 -1</clus>
<clus scale="   85.480">  2  5  1 -1</clus>
<clus scale="   92.549">  7  8 -1 -1</clus>
<clus scale="   29.647">  2  5  1 -1</clus>
</clustering>
</event>
<event>
10    3  0.7209067E-005  0.1174414E+03  0.7546771E-02  0.1251348E+00
         -2   -1    0    0    0  501 -0.00000000000E+00  0.00000000000E+00  0.84577536819E+03  0.84577536819E+03  0.00000000000E+00 0.  1.
         21   -1    0    0  503  502  0.00000000000E+00 -0.00000000000E+00 -0.11289784849E+03  0.11289784849E+03  0.00000000000E+00 0.  1.
        -24    2    1    2    0    0 -0.57770283948E+02 -0.50708066679E+02  0.71489591746E+03  0.72352134148E+03  0.80611692975E+02 0.  0.
         23    2    1    2    0    0  0.28749442207E+02  0.41826442035E+02  0.95021861612E+02  0.14187323615E+03  0.92319441452E+02 0.  0.
         13    1    3    3    0    0 -0.44247319790E+02 -0.35772961875E+02  0.19240229886E+03  0.20063941466E+03  0.00000000000E+00 0. -1.
        -14    1    3    3    0    0 -0.13522964158E+02 -0.14935104804E+02  0.52249361859E+03  0.52288192681E+03  0.00000000000E+00 0.  1.
        -11    1    4    4    0    0  0.43001625884E+02 -0.15086668255E+02  0.51853030567E+02  0.69032486314E+02  0.00000000000E+00 0. -1.
         11    1    4    4    0    0 -0.14252183677E+02  0.56913110289E+02  0.43168831045E+02  0.72840749833E+02  0.00000000000E+00 0.  1.
         21    1    1    2  503  501  0.11805775304E+02  0.24729108245E+02 -0.53377975467E+02  0.60000944910E+02  0.00000000000E+00 0.  1.
         -1    1    1    2    0  502  0.17215066437E+02 -0.15847483601E+02 -0.23662283897E+02  0.33277694153E+02  0.00000000000E+00 0.  1.
<scales pt_clust_5="13000.00000" pt_clust_6="13000.00000" pt_clust_7="13000.00000" pt_clust_8="13000.00000" pt_clust_9="27.28365" pt_clust_10="23.39874"></scales>
<clustering>
<clus scale="   23.399">  2 10  1 -1</clus>
<clus scale="   27.284">  2  9  1 -1</clus>
<clus scale="   80.612">  5  6 -1 -1</clus>
<clus scale="   92.319">  7  8 -1 -1</clus>
<clus scale="  108.480">  1  5  2 -1</clus>
<clus scale="   23.399">  2  5  1 -1</clus>
</clustering>
</event>
<event>
10    3  0.7209067E-005  0.3663718E+03  0.7546771E-02  0.1056386E+00
         21   -1    0    0  503  502  0.00000000000E+00  0.00000000000E+00  0.17111574204E+03  0.17111574204E+03  0.00000000000E+00 0.  1.
          1   -1    0    0  502    0 -0.00000000000E+00 -0.00000000000E+00 -0.10533904157E+04  0.10533904157E+04  0.00000000000E+00 0. -1.
         23    2    1    2    0    0 -0.16562591826E+03  0.34079674734E+03 -0.45968767230E+03  0.60288760054E+03  0.92662479016E+02 0.  0.
        -24    2    1    2    0    0  0.73814614254E+02 -0.32233592406E+03 -0.26061395931E+03  0.42851978439E+03  0.79752897172E+02 0.  0.
         11    1    4    4    0    0  0.46451577490E+02 -0.21228153015E+03 -0.12124242214E+03  0.24883914890E+03  0.00000000000E+00 0. -1.
        -12    1    4    4    0    0  0.27363036764E+02 -0.11005439391E+03 -0.13937153716E+03  0.17968063549E+03  0.00000000000E+00 0.  1.
        -13    1    3    3    0    0 -0.13639217858E+03  0.25593544590E+03 -0.40380850757E+03  0.49715901845E+03  0.00000000000E+00 0.  1.
         13    1    3    3    0    0 -0.29233739679E+02  0.84861301441E+02 -0.55879164732E+02  0.10572858208E+03  0.00000000000E+00 0. -1.
         21    1    1    2  503  501  0.35999506290E+02 -0.10834533902E+02 -0.25416395766E+02  0.45380003875E+02  0.00000000000E+00 0.  1.
          2    1    1    2  501    0  0.55811797711E+02 -0.76262893817E+01 -0.13655664629E+03  0.14771876895E+03  0.00000000000E+00 0. -1.
<scales pt_clust_5="13000.00000" pt_clust_6="13000.00000" pt_clust_7="13000.00000" pt_clust_8="13000.00000" pt_clust_9="37.59457" pt_clust_10="57.61702"></scales>
<clustering>
<clus scale="   37.595">  1  9  2 -1</clus>
<clus scale="   57.617">  1 10  2 -1</clus>
<clus scale="   79.753">  5  6 -1 -1</clus>
<clus scale="   92.662">  7  8 -1 -1</clus>
<clus scale="  363.321">  1  5  2 -1</clus>
<clus scale="   37.595">  1  5  2 -1</clus>
</clustering>
</event>
<event>
10    3  0.7209067E-005  0.2128345E+03  0.7546771E-02  0.1173620E+00
         21   -1    0    0  503  502  0.00000000000E+00  0.00000000000E+00  0.30873471383E+02  0.30873471383E+02  0.00000000000E+00 0. -1.
          1   -1    0    0  502    0 -0.00000000000E+00 -0.00000000000E+00 -0.29749341748E+04  0.29749341748E+04  0.00000000000E+00 0. -1.
        -24    2    1    2    0    0 -0.26541111448E+02 -0.35790563399E+02 -0.62570024030E+03  0.63226128025E+03  0.79171590652E+02 0.  0.
         23    2    1    2    0    0  0.10680326007E+03  0.22464404917E+03 -0.13184371557E+04  0.13448374793E+04  0.91866354442E+02 0.  0.
         11    1    3    3    0    0 -0.10188800444E+02 -0.48793292949E+02 -0.20246095520E+03  0.20850667968E+03  0.00000000000E+00 0. -1.
        -12    1    3    3    0    0 -0.16352311004E+02  0.13002729550E+02 -0.42323928510E+03  0.42375460057E+03  0.00000000000E+00 0.  1.
        -11    1    4    4    0    0  0.10666843898E+03  0.14116088313E+03 -0.10059356227E+04  0.10213770253E+04  0.00000000000E+00 0.  1.
         11    1    4    4    0    0  0.13482108576E+00  0.83483166037E+02 -0.31250153301E+03  0.32346045403E+03  0.00000000000E+00 0. -1.
         21    1    1    2  503  501 -0.47092293748E+02 -0.39456305072E+02 -0.11245868474E+03  0.12814616621E+03  0.00000000000E+00 0. -1.
          2    1    1    2  501    0 -0.33169854874E+02 -0.14939718070E+03 -0.88746462271E+03  0.90056272044E+03  0.00000000000E+00 0. -1.
<scales pt_clust_5="13000.00000" pt_clust_6="13000.00000" pt_clust_7="13000.00000" pt_clust_8="13000.00000" pt_clust_9="61.43683" pt_clust_10="191.98729"></scales>
<clustering>
<clus scale="   61.437">  1  9  2 -1</clus>
<clus scale="   79.172">  5  6 -1 -1</clus>
<clus scale="   91.866">  7  8 -1 -1</clus>
<clus scale="   95.334">  2  5  1 -1</clus>
<clus scale="  191.987">  1 10  2 -1</clus>
<clus scale="   61.437">  1  5  2 -1</clus>
</clustering>
</event>
<event>
10    3  0.7209067E-005  0.4372541E+03  0.7546771E-02  0.1091656E+00
         21   -1    0    0  501  502  0.00000000000E+00  0.00000000000E+00  0.62305975577E+03  0.62305975577E+03  0.00000000000E+00 0.  1.
          1   -1    0    0  503    0 -0.00000000000E+00 -0.00000000000E+00 -0.73157616204E+03  0.73157616204E+03  0.00000000000E+00 0. -1.
        -24    2    1    2    0    0 -0.46093010085E+02 -0.43252264032E+02  0.11411042727E+03  0.14588182843E+03  0.65306924062E+02 0.  0.
         23    2    1    2    0    0 -0.45867410478E+03 -0.78504491005E+02  0.15035585423E+03  0.49824476599E+03  0.95373342346E+02 0.  0.
         13    1    3    3    0    0 -0.22397331181E+02 -0.56383547425E+02  0.59784950264E+02  0.85176200562E+02  0.00000000000E+00 0. -1.
        -14    1    3    3    0    0 -0.23695678905E+02  0.13131283392E+02  0.54325477011E+02  0.60705627867E+02  0.00000000000E+00 0.  1.
        -13    1    4    4    0    0 -0.92579360048E+02 -0.96761115985E+00 -0.57755334195E+01  0.92764384138E+02  0.00000000000E+00 0. -1.
         13    1    4    4    0    0 -0.36609474474E+03 -0.77536879845E+02  0.15613138765E+03  0.40548038185E+03  0.00000000000E+00 0.  1.
         21    1    1    2  503  502  0.77253793428E+02  0.11333098479E+02  0.55062411018E+02  0.95542958020E+02  0.00000000000E+00 0.  1.
          2    1    1    2  501    0  0.42751332144E+03  0.11042365656E+03 -0.42804509879E+03  0.61496636537E+03  0.00000000000E+00 0. -1.
<scales pt_clust_5="13000.00000" pt_clust_6="13000.00000" pt_clust_7="13000.00000" pt_clust_8="13000.00000" pt_clust_9="78.08065" pt_clust_10="426.72622"></scales>
<clustering>
<clus scale="   65.307">  5  6 -1 -1</clus>
<clus scale="   78.081">  1  9  2 -1</clus>
<clus scale="   81.737">  2  5  1 -1</clus>
<clus scale="   95.373">  7  8 -1 -1</clus>
<clus scale="  426.726">  1 10  2 -1</clus>
<clus scale="   78.081">  1  5  2 -1</clus>
</clustering>
</event>
<event>
10    3  0.7209067E-005  0.1100420E+03  0.7546771E-02  0.1264397E+00
         21   -1    0    0  501  502  0.00000000000E+00  0.00000000000E+00  0.69580987144E+02  0.69580987144E+02  0.00000000000E+00 0.  1.
          1   -1    0    0  503    0 -0.00000000000E+00 -0.00000000000E+00 -0.31111505912E+03  0.31111505912E+03  0.00000000000E+00 0. -1.
         23    2    1    2    0    0  0.56423683698E+02  0.17277724437E+02 -0.15461222863E+03  0.18896104783E+03  0.91209563708E+02 0.  0.
        -24    2    1    2    0    0 -0.69167247227E+02  0.64599945915E+01 -0.58984119748E+02  0.12209548700E+03  0.81254796442E+02 0.  0.
         13    1    4    4    0    0  0.38733096607E+01 -0.21280172373E+02 -0.33570585138E+02  0.39935353391E+02  0.00000000000E+00 0. -1.
        -14    1    4    4    0    0 -0.73040556888E+02  0.27740166965E+02 -0.25413534610E+02  0.82160133612E+02  0.00000000000E+00 0.  1.
        -11    1    3    3    0    0  0.56209280582E+02  0.41956702123E+02 -0.63670739891E+02  0.94730202126E+02  0.00000000000E+00 0. -1.
         11    1    3    3    0    0  0.21440311598E+00 -0.24678977685E+02 -0.90941488740E+02  0.94230845706E+02  0.00000000000E+00 0.  1.
         21    1    1    2  503  502 -0.10079799440E+02 -0.18908416047E+02  0.11123217476E+02  0.24142421610E+02  0.00000000000E+00 0. -1.
          2    1    1    2  501    0  0.22823362969E+02 -0.48293029820E+01 -0.39060941078E+02  0.45497089824E+02  0.00000000000E+00 0. -1.
<scales pt_clust_5="13000.00000" pt_clust_6="13000.00000" pt_clust_7="13000.00000" pt_clust_8="13000.00000" pt_clust_9="21.42733" pt_clust_10="22.99568"></scales>
<clustering>
<clus scale="   21.427">  1  9  2 -1</clus>
<clus scale="   22.996">  1 10  2 -1</clus>
<clus scale="   81.255">  5  6 -1 -1</clus>
<clus scale="   91.210">  7  8 -1 -1</clus>
<clus scale="  101.943">  1  5  2 -1</clus>
<clus scale="   21.427">  1  5  2 -1</clus>
</clustering>
</event>
<event>
10    3  0.7209067E-005  0.9366879E+02  0.7546771E-02  0.1296385E+00
          1   -1    0    0  503    0 -0.00000000000E+00  0.00000000000E+00  0.96887433291E+02  0.96887433291E+02  0.00000000000E+00 0. -1.
         21   -1    0    0  501  502  0.00000000000E+00 -0.00000000000E+00 -0.58110184498E+03  0.58110184498E+03  0.00000000000E+00 0.  1.
        -24    2    1    2    0    0  0.19622646777E+02  0.60917644776E+02  0.58211631355E+01  0.10300664509E+03  0.80501399245E+02 0.  0.
         23    2    1    2    0    0  0.49847357924E+01  0.12024077944E+01 -0.66270204733E+02  0.10761824339E+03  0.84638365417E+02 0.  0.
         13    1    3    3    0    0  0.47441750311E+02  0.54655751280E+02  0.13163941321E+02  0.73561268149E+02  0.00000000000E+00 0. -1.
        -14    1    3    3    0    0 -0.27819103534E+02  0.62618934959E+01 -0.73427781855E+01  0.29445376939E+02  0.00000000000E+00 0.  1.
        -13    1    4    4    0    0  0.43468979979E+02  0.86789035571E+01 -0.25871965772E+02  0.51324791283E+02  0.00000000000E+00 0.  1.
         13    1    4    4    0    0 -0.38484244186E+02 -0.74764957628E+01 -0.40398238960E+02  0.56293452111E+02  0.00000000000E+00 0. -1.
         21    1    1    2  503  502 -0.13616266953E+02 -0.95433398580E+02 -0.42131105685E+03  0.43219896219E+03  0.00000000000E+00 0.  1.
          2    1    1    2  501    0 -0.10991115617E+02  0.33313346009E+02 -0.24543132385E+01  0.35165427600E+02  0.00000000000E+00 0. -1.
<scales pt_clust_5="13000.00000" pt_clust_6="13000.00000" pt_clust_7="13000.00000" pt_clust_8="13000.00000" pt_clust_9="73.50634" pt_clust_10="35.07969"></scales>
<clustering>
<clus scale="   35.080">  2 10  1 -1</clus>
<clus scale="   73.506">  2  9  1 -1</clus>
<clus scale="   80.501">  5  6 -1 -1</clus>
<clus scale="   84.638">  7  8 -1 -1</clus>
<clus scale="   89.948">  1  5  2 -1</clus>
<clus scale="   35.080">  2  5  1 -1</clus>
</clustering>
</event>
<event>
10    3  0.7209067E-005  0.1129018E+03  0.7546771E-02  0.1256840E+00
         21   -1    0    0  503  502  0.00000000000E+00  0.00000000000E+00  0.21251394859E+03  0.21251394859E+03  0.00000000000E+00 0.  1.
         -4   -1    0    0    0  501 -0.00000000000E+00 -0.00000000000E+00 -0.21546082492E+03  0.21546082492E+03  0.00000000000E+00 0.  1.
         23    2    1    2    0    0  0.27613727954E+02 -0.28907354437E+02 -0.27476174209E+02  0.10422214309E+03  0.92245118297E+02 0.  0.
        -24    2    1    2    0    0 -0.33920239230E+02  0.88502228003E+02 -0.58358987072E+02  0.14191319136E+03  0.88036103499E+02 0.  0.
         11    1    4    4    0    0 -0.24387181805E+02  0.29231879187E+01  0.15011186982E+02  0.28785680444E+02  0.00000000000E+00 0. -1.
        -12    1    4    4    0    0 -0.95330574258E+01  0.85579040084E+02 -0.73370174054E+02  0.11312751092E+03  0.00000000000E+00 0.  1.
        -11    1    3    3    0    0 -0.55342312313E+00 -0.57623488521E+02 -0.27833988244E+02  0.63996121820E+02  0.00000000000E+00 0.  1.
         11    1    3    3    0    0  0.28167151077E+02  0.28716134084E+02  0.35781403578E+00  0.40226021272E+02  0.00000000000E+00 0. -1.
         21    1    1    2  503  501  0.43071533869E+02 -0.20236698341E+02  0.11122743155E+03  0.12098025673E+03  0.00000000000E+00 0.  1.
         -3    1    1    2    0  502 -0.36765022592E+02 -0.39358175225E+02 -0.28339146601E+02  0.60859182325E+02  0.00000000000E+00 0.  1.
<scales pt_clust_5="13000.00000" pt_clust_6="13000.00000" pt_clust_7="13000.00000" pt_clust_8="13000.00000" pt_clust_9="47.58866" pt_clust_10="51.95840"></scales>
<clustering>
<clus scale="   47.589">  1  9  2 -1</clus>
<clus scale="   51.958">  1 10  2 -1</clus>
<clus scale="   88.036">  5  6 -1 -1</clus>
<clus scale="   92.245">  7  8 -1 -1</clus>
<clus scale="  109.490">  1  5  2 -1</clus>
<clus scale="   47.589">  1  5  2 -1</clus>
</clustering>
</event>
<event>
10    3  0.7209067E-005  0.2163158E+03  0.7546771E-02  0.1154922E+00
         21   -1    0    0  501  502  0.00000000000E+00  0.00000000000E+00  0.21581534301E+03  0.21581534301E+03  0.00000000000E+00 0. -1.
          1   -1    0    0  503    0 -0.00000000000E+00 -0.00000000000E+00 -0.86844730240E+03  0.86844730240E+03  0.00000000000E+00 0. -1.
         23    2    1    2    0    0 -0.92406562249E+00 -0.11489086765E+03 -0.11241447332E+03  0.18362151731E+03  0.88764195712E+02 0.  0.
        -24    2    1    2    0    0  0.55181805169E+02 -0.10736009060E+03 -0.57316300486E+03  0.59124770834E+03  0.80540684120E+02 0.  0.
         11    1    4    4    0    0  0.46321544723E+02 -0.11360840253E+03 -0.56357340481E+03  0.57677338465E+03  0.00000000000E+00 0. -1.
        -12    1    4    4    0    0  0.88602604464E+01  0.62483119280E+01 -0.95896000521E+01  0.14474323690E+02  0.00000000000E+00 0.  1.
        -13    1    3    3    0    0 -0.27085883325E+02 -0.10492944997E+03 -0.11168293956E+03  0.15561784453E+03  0.00000000000E+00 0.  1.
         13    1    3    3    0    0  0.26161817702E+02 -0.99614176746E+01 -0.73153376330E+00  0.28003672781E+02  0.00000000000E+00 0. -1.
         21    1    1    2  503  502 -0.52161374911E+02  0.18196957304E+03  0.11249511774E+03  0.22020192111E+03  0.00000000000E+00 0. -1.
          2    1    1    2  501    0 -0.20963646351E+01  0.40281385208E+02 -0.79549598953E+02  0.89191498656E+02  0.00000000000E+00 0. -1.
<scales pt_clust_5="13000.00000" pt_clust_6="13000.00000" pt_clust_7="13000.00000" pt_clust_8="13000.00000" pt_clust_9="200.76287" pt_clust_10="40.33592"></scales>
<clustering>
<clus scale="   40.336">  1 10  2 -1</clus>
<clus scale="   80.541">  5  6 -1 -1</clus>
<clus scale="   88.764">  7  8 -1 -1</clus>
<clus scale="  139.875">  2  7  1 -1</clus>
<clus scale="  200.763">  1  9  2 -1</clus>
<clus scale="   40.336">  1  5  2 -1</clus>
</clustering>
</event>
<event>
10    3  0.7209067E-005  0.2426652E+03  0.7546771E-02  0.1152644E+00
         21   -1    0    0  501  502  0.00000000000E+00  0.00000000000E+00  0.20151304604E+03  0.20151304604E+03  0.00000000000E+00 0. -1.
         -2   -1    0    0    0  501 -0.00000000000E+00 -0.00000000000E+00 -0.87854397481E+03  0.87854397481E+03  0.00000000000E+00 0.  1.
         23    2    1    2    0    0 -0.32419145409E+01 -0.51624645793E+02 -0.20718217927E+03  0.23206153927E+03  0.90843208540E+02 0.  0.
        -24    2    1    2    0    0 -0.15327420440E+03 -0.96614116862E+02 -0.17020181924E+03  0.26064152789E+03  0.78345883600E+02 0.  0.
         13    1    4    4    0    0 -0.10827123710E+03 -0.71907859976E+02 -0.68980559221E+02  0.14714522982E+03  0.00000000000E+00 0. -1.
        -14    1    4    4    0    0 -0.45002967304E+02 -0.24706256886E+02 -0.10122126002E+03  0.11349629807E+03  0.00000000000E+00 0.  1.
        -13    1    3    3    0    0  0.15038792110E+02 -0.73001351497E+02 -0.12914436259E+03  0.14910945301E+03  0.00000000000E+00 0. -1.
         13    1    3    3    0    0 -0.18280706651E+02  0.21376705704E+02 -0.78037816677E+02  0.82952086256E+02  0.00000000000E+00 0.  1.
         21    1    1    2  503  502 -0.11865390831E+03  0.64447214904E+02  0.41371645122E+02  0.14122254242E+03  0.00000000000E+00 0. -1.
         -1    1    1    2    0  503  0.27517002726E+03  0.83791547750E+02 -0.34101857538E+03  0.44613141127E+03  0.00000000000E+00 0.  1.
<scales pt_clust_5="13000.00000" pt_clust_6="13000.00000" pt_clust_7="13000.00000" pt_clust_8="13000.00000" pt_clust_9="133.42291" pt_clust_10="229.67017"></scales>
<clustering>
<clus scale="   78.346">  5  6 -1 -1</clus>
<clus scale="   90.843">  7  8 -1 -1</clus>
<clus scale="  104.538">  2  7  1 -1</clus>
<clus scale="  133.423">  1  9  2 -1</clus>
<clus scale="  229.670">  1 10  2 -1</clus>
<clus scale="  133.423">  1  5  2 -1</clus>
</clustering>
</event>
<event>
10    3  0.7209067E-005  0.8850370E+02  0.7546771E-02  0.1306888E+00
         -2   -1    0    0    0  501 -0.00000000000E+00  0.00000000000E+00  0.65233711537E+03  0.65233711537E+03  0.00000000000E+00 0.  1.
         21   -1    0    0  503  502  0.00000000000E+00 -0.00000000000E+00 -0.34043173229E+02  0.34043173229E+02  0.00000000000E+00 0.  1.
         23    2    1    2    0    0  0.11396763502E+00  0.40790220088E+02  0.29156988696E+03  0.30602763532E+03  0.83522808592E+02 0.  0.
        -24    2    1    2    0    0 -0.15237272140E+02  0.72230503504E+00  0.80124503296E+02  0.11628928426E+03  0.82888873917E+02 0.  0.
         11    1    4    4    0    0 -0.17539519016E+02 -0.25498643768E+02  0.84150676989E+02  0.89661318298E+02  0.00000000000E+00 0. -1.
        -12    1    4    4    0    0  0.23022468766E+01  0.26220948803E+02 -0.40261736926E+01  0.26627965965E+02  0.00000000000E+00 0.  1.
        -13    1    3    3    0    0 -0.32495042606E+01 -0.20454789474E+02  0.24867326097E+02  0.32362657456E+02  0.00000000000E+00 0. -1.
         13    1    3    3    0    0  0.33634718956E+01  0.61245009562E+02  0.26670256086E+03  0.27366497786E+03  0.00000000000E+00 0.  1.
         21    1    1    2  503  501  0.29207251317E+02 -0.94362892522E+01  0.24651293921E+02  0.39367415159E+02  0.00000000000E+00 0.  1.
         -1    1    1    2    0  502 -0.14083946812E+02 -0.32076235871E+02  0.22194825797E+03  0.22469595386E+03  0.00000000000E+00 0.  1.
<scales pt_clust_5="13000.00000" pt_clust_6="13000.00000" pt_clust_7="13000.00000" pt_clust_8="13000.00000" pt_clust_9="30.69376" pt_clust_10="34.90775"></scales>
<clustering>
<clus scale="   30.694">  2  9  1 -1</clus>
<clus scale="   34.908">  2 10  1 -1</clus>
<clus scale="   82.889">  5  6 -1 -1</clus>
<clus scale="   83.523">  7  8 -1 -1</clus>
<clus scale="   87.906">  2  5  1 -1</clus>
<clus scale="   30.694">  2  5  1 -1</clus>
</clustering>
</event>
<event>
10    3  0.7209067E-005  0.1190729E+03  0.7546771E-02  0.1249179E+00
         21   -1    0    0  501  502  0.00000000000E+00  0.00000000000E+00  0.29786802351E+03  0.29786802351E+03  0.00000000000E+00 0. -1.
         -2   -1    0    0    0  501 -0.00000000000E+00 -0.00000000000E+00 -0.13157434180E+03  0.13157434180E+03  0.00000000000E+00 0.  1.
        -24    2    1    2    0    0 -0.29832487576E+02  0.54839203355E+02  0.25621637320E+02  0.10449435016E+03  0.79782738583E+02 0.  0.
         23    2    1    2    0    0  0.76409076266E+02 -0.64225786452E+02  0.90016726208E+02  0.16369752482E+03  0.93437519528E+02 0.  0.
         13    1    3    3    0    0  0.25391642340E+02  0.71585655875E+01 -0.20550520957E+01  0.26461364310E+02  0.00000000000E+00 0. -1.
        -14    1    3    3    0    0 -0.55224129917E+02  0.47680637767E+02  0.27676689416E+02  0.78032985846E+02  0.00000000000E+00 0.  1.
        -13    1    4    4    0    0 -0.15271504239E+02 -0.22006742128E+02 -0.23360160207E+01  0.26888148163E+02  0.00000000000E+00 0.  1.
         13    1    4    4    0    0  0.91680580505E+02 -0.42219044324E+02  0.92352742228E+02  0.13680937666E+03  0.00000000000E+00 0. -1.
         21    1    1    2  503  502  0.12851303268E+02 -0.52046304556E+02  0.53489273864E+02  0.75730286096E+02  0.00000000000E+00 0. -1.
         -1    1    1    2    0  503 -0.59427891958E+02  0.61432887653E+02 -0.28339556866E+01  0.85520204237E+02  0.00000000000E+00 0.  1.
<scales pt_clust_5="13000.00000" pt_clust_6="13000.00000" pt_clust_7="13000.00000" pt_clust_8="13000.00000" pt_clust_9="53.60946" pt_clust_10="77.40689"></scales>
<clustering>
<clus scale="   53.609">  1  9  2 -1</clus>
<clus scale="   77.407">  1 10  2 -1</clus>
<clus scale="   79.783">  5  6 -1 -1</clus>
<clus scale="   93.438">  7  8 -1 -1</clus>
<clus scale="  108.688">  2  5  1 -1</clus>
<clus scale="   53.609">  1  5  2 -1</clus>
</clustering>
</event>
<event>
10    3  0.7209067E-005  0.1229453E+03  0.7546771E-02  0.1243671E+00
         21   -1    0    0  501  502  0.00000000000E+00  0.00000000000E+00  0.23402017469E+03  0.23402017469E+03  0.00000000000E+00 0. -1.
          3   -1    0    0  503    0 -0.00000000000E+00 -0.00000000000E+00 -0.27386343213E+03  0.27386343213E+03  0.00000000000E+00 0. -1.
         23    2    1    2    0    0  0.29499036984E+02 -0.41891287148E+02 -0.68826682915E+02  0.12584469098E+03  0.92058138392E+02 0.  0.
        -24    2    1    2    0    0 -0.38082571571E+02  0.10658113363E+03 -0.13137187731E+03  0.18865924541E+03  0.74323081396E+02 0.  0.
         13    1    4    4    0    0 -0.17223650834E+02  0.10661839887E+03 -0.83745920963E+02  0.13666571042E+03  0.00000000000E+00 0. -1.
        -14    1    4    4    0    0 -0.20858920737E+02 -0.37265244967E-01 -0.47625956348E+02  0.51993534993E+02  0.00000000000E+00 0.  1.
        -11    1    3    3    0    0 -0.27017834223E+02  0.79903426608E+01 -0.29609815203E+02  0.40872363503E+02  0.00000000000E+00 0.  1.
         11    1    3    3    0    0  0.56516871207E+02 -0.49881629808E+02 -0.39216867712E+02  0.84972327475E+02  0.00000000000E+00 0. -1.
         21    1    1    2  503  502 -0.20826234325E+02  0.12661547775E+02  0.48051456870E+02  0.53879396206E+02  0.00000000000E+00 0.  1.
          4    1    1    2  501    0  0.29409768912E+02 -0.77351394254E+02  0.11230384592E+03  0.13950027422E+03  0.00000000000E+00 0. -1.
<scales pt_clust_5="13000.00000" pt_clust_6="13000.00000" pt_clust_7="13000.00000" pt_clust_8="13000.00000" pt_clust_9="24.37308" pt_clust_10="70.28116"></scales>
<clustering>
<clus scale="   24.373">  1  9  2 -1</clus>
<clus scale="   70.281">  1 10  2 -1</clus>
<clus scale="   74.323">  5  6 -1 -1</clus>
<clus scale="   92.058">  7  8 -1 -1</clus>
<clus scale="  110.294">  1  5  2 -1</clus>
<clus scale="   24.373">  1  5  2 -1</clus>
</clustering>
</event>
<event>
10    3  0.7209067E-005  0.1104394E+03  0.7546771E-02  0.1267763E+00
         21   -1    0    0  503  502  0.00000000000E+00  0.00000000000E+00  0.11427427208E+04  0.11427427208E+04  0.00000000000E+00 0.  1.
          3   -1    0    0  502    0 -0.00000000000E+00 -0.00000000000E+00 -0.34067729310E+02  0.34067729310E+02  0.00000000000E+00 0. -1.
         23    2    1    2    0    0  0.12891245956E+02 -0.48576887868E+02  0.18027942302E+03  0.21386149016E+03  0.10348994324E+03 0.  0.
        -24    2    1    2    0    0 -0.47891163608E+02 -0.25207586136E+02  0.71557772145E+03  0.72278280653E+03  0.86223686042E+02 0.  0.
         11    1    4    4    0    0 -0.44026619528E+02  0.88411845090E+01  0.16093616199E+03  0.16708368564E+03  0.00000000000E+00 0. -1.
        -12    1    4    4    0    0 -0.38645440803E+01 -0.34048770645E+02  0.55464155945E+03  0.55569912089E+03  0.00000000000E+00 0.  1.
        -13    1    3    3    0    0  0.56665492182E+02 -0.13702462692E+02  0.79513662412E+02  0.98595932970E+02  0.00000000000E+00 0. -1.
         13    1    3    3    0    0 -0.43774246226E+02 -0.34874425176E+02  0.10076576061E+03  0.11526555719E+03  0.00000000000E+00 0.  1.
         21    1    1    2  503  501  0.81298417557E+00  0.20798141311E+02  0.14901111172E+03  0.15045775168E+03  0.00000000000E+00 0.  1.
          4    1    1    2  501    0  0.34186933477E+02  0.52986332694E+02  0.63806735323E+02  0.89708401755E+02  0.00000000000E+00 0. -1.
<scales pt_clust_5="13000.00000" pt_clust_6="13000.00000" pt_clust_7="13000.00000" pt_clust_8="13000.00000" pt_clust_9="20.81402" pt_clust_10="64.44808"></scales>
<clustering>
<clus scale="   20.814">  1  9  2 -1</clus>
<clus scale="   64.448">  1 10  2 -1</clus>
<clus scale="   86.224">  5  6 -1 -1</clus>
<clus scale="   94.452">  1  5  2 -1</clus>
<clus scale="  103.490">  7  8 -1 -1</clus>
<clus scale="   20.814">  1  5  2 -1</clus>
</clustering>
</event>
<event>
10    3  0.7209067E-005  0.1120908E+03  0.7546771E-02  0.1260825E+00
         21   -1    0    0  501  502  0.00000000000E+00  0.00000000000E+00  0.49190227686E+03  0.49190227686E+03  0.00000000000E+00 0. -1.
         -2   -1    0    0    0  501 -0.00000000000E+00 -0.00000000000E+00 -0.26866627711E+03  0.26866627711E+03  0.00000000000E+00 0.  1.
         23    2    1    2    0    0  0.65517783906E+02  0.99578489490E+01 -0.23116241842E+03  0.25670385185E+03  0.89827975043E+02 0.  0.
        -24    2    1    2    0    0 -0.89954814923E+02  0.10941146902E+02  0.32475008653E+03  0.34623464989E+03  0.78766976966E+02 0.  0.
         11    1    4    4    0    0 -0.10391620182E+03  0.83716359005E+01  0.26379814780E+03  0.28365141296E+03  0.00000000000E+00 0. -1.
        -12    1    4    4    0    0  0.13961386892E+02  0.25695110016E+01  0.60951938730E+02  0.62583236938E+02  0.00000000000E+00 0.  1.
        -11    1    3    3    0    0  0.43117601742E+02  0.43864089765E+02 -0.18621175859E+03  0.19610712631E+03  0.00000000000E+00 0.  1.
         11    1    3    3    0    0  0.22400182164E+02 -0.33906240816E+02 -0.44950659827E+02  0.60596725540E+02  0.00000000000E+00 0. -1.
         21    1    1    2  503  502 -0.30785359289E+02 -0.93713597234E+00  0.40503951236E+02  0.50884050901E+02  0.00000000000E+00 0. -1.
         -1    1    1    2    0  503  0.55222390306E+02 -0.19961859879E+02  0.89144380404E+02  0.10674600132E+03  0.00000000000E+00 0.  1.
<scales pt_clust_5="13000.00000" pt_clust_6="13000.00000" pt_clust_7="13000.00000" pt_clust_8="13000.00000" pt_clust_9="30.79962" pt_clust_10="52.49353"></scales>
<clustering>
<clus scale="   30.800">  1  9  2 -1</clus>
<clus scale="   52.494">  1 10  2 -1</clus>
<clus scale="   78.767">  5  6 -1 -1</clus>
<clus scale="   89.828">  7  8 -1 -1</clus>
<clus scale="  103.439">  1  5  2 -1</clus>
<clus scale="   30.800">  1  5  2 -1</clus>
</clustering>
</event>
<event>
10    3  0.7209067E-005  0.1723259E+03  0.7546771E-02  0.1204862E+00
         21   -1    0    0  503  502  0.00000000000E+00  0.00000000000E+00  0.61825701181E+03  0.61825701181E+03  0.00000000000E+00 0. -1.
          1   -1    0    0  502    0 -0.00000000000E+00 -0.00000000000E+00 -0.11879636651E+03  0.11879636651E+03  0.00000000000E+00 0. -1.
        -24    2    1    2    0    0 -0.33016805179E+02 -0.99603663448E+01  0.51440750277E+02  0.10169751205E+03  0.80665450133E+02 0.  0.
         23    2    1    2    0    0 -0.17990716825E+02 -0.12398488121E+03  0.44939344937E+02  0.16007722584E+03  0.88934002774E+02 0.  0.
         13    1    3    3    0    0 -0.42006453258E+02 -0.11563987287E+02 -0.56026256448E+01  0.43927865091E+02  0.00000000000E+00 0. -1.
        -14    1    3    3    0    0  0.89896480793E+01  0.16036209421E+01  0.57043375921E+02  0.57769646954E+02  0.00000000000E+00 0.  1.
        -13    1    4    4    0    0  0.25650708590E+02 -0.33442793827E+02 -0.12944629178E+02  0.44090165964E+02  0.00000000000E+00 0.  1.
         13    1    4    4    0    0 -0.43641425415E+02 -0.90542087384E+02  0.57883974115E+02  0.11598705988E+03  0.00000000000E+00 0. -1.
         21    1    1    2  503  501 -0.21342241529E+02 -0.21700381787E+02  0.22827398255E+03  0.23029417915E+03  0.00000000000E+00 0. -1.
          2    1    1    2  501    0  0.72349763533E+02  0.15564562934E+03  0.17480656753E+03  0.24498446128E+03  0.00000000000E+00 0. -1.
<scales pt_clust_5="13000.00000" pt_clust_6="13000.00000" pt_clust_7="13000.00000" pt_clust_8="13000.00000" pt_clust_9="30.43678" pt_clust_10="147.60408"></scales>
<clustering>
<clus scale="   30.437">  1  9  2 -1</clus>
<clus scale="   80.665">  5  6 -1 -1</clus>
<clus scale="   88.934">  7  8 -1 -1</clus>
<clus scale="   89.970">  2  5  1 -1</clus>
<clus scale="  147.604">  1 10  2 -1</clus>
<clus scale="   30.437">  1  5  2 -1</clus>
</clustering>
</event>
<event>
10    3  0.7209067E-005  0.2663896E+03  0.7546771E-02  0.1144832E+00
          3   -1    0    0  502    0 -0.00000000000E+00  0.00000000000E+00  0.82710865558E+03  0.82710865558E+03  0.00000000000E+00 0. -1.
         21   -1    0    0  503  502  0.00000000000E+00 -0.00000000000E+00 -0.34149008830E+03  0.34149008830E+03  0.00000000000E+00 0. -1.
        -24    2    1    2    0    0 -0.43138240311E+02  0.31185291432E+02  0.17327240972E+03  0.19768462269E+03  0.78882519613E+02 0.  0.
         23    2    1    2    0    0  0.28092684851E+03 -0.91730294143E+02  0.51530058198E+03  0.60104323037E+03  0.91563824227E+02 0.  0.
         11    1    3    3    0    0 -0.57027818434E+02  0.19083086107E+02  0.16812551270E+03  0.17855678165E+03  0.00000000000E+00 0. -1.
        -12    1    3    3    0    0  0.13889578123E+02  0.12102205325E+02  0.51468970160E+01  0.19127841045E+02  0.00000000000E+00 0.  1.
        -13    1    4    4    0    0  0.50732845395E+02  0.18181072369E+02  0.78657867539E+02  0.95349006918E+02  0.00000000000E+00 0.  1.
         13    1    4    4    0    0  0.23019400311E+03 -0.10991136651E+03  0.43664271444E+03  0.50569422345E+03  0.00000000000E+00 0. -1.
         21    1    1    2  503  501 -0.15633738449E+02 -0.24319350057E+02 -0.11132302938E+03  0.11501591818E+03  0.00000000000E+00 0. -1.
          4    1    1    2  501    0 -0.22215486975E+03  0.84864352768E+02 -0.91631395036E+02  0.25485497264E+03  0.00000000000E+00 0. -1.
<scales pt_clust_5="13000.00000" pt_clust_6="13000.00000" pt_clust_7="13000.00000" pt_clust_8="13000.00000" pt_clust_9="28.91098" pt_clust_10="250.15892"></scales>
<clustering>
<clus scale="   28.911">  2  9  1 -1</clus>
<clus scale="   78.883">  5  6 -1 -1</clus>
<clus scale="   91.564">  7  8 -1 -1</clus>
<clus scale="   95.128">  1  5  2 -1</clus>
<clus scale="  250.159">  2 10  1 -1</clus>
<clus scale="   28.911">  2  5  1 -1</clus>
</clustering>
</event>
<event>
10    3  0.7209067E-005  0.1288102E+03  0.7546771E-02  0.1232921E+00
          1   -1    0    0  503    0 -0.00000000000E+00  0.00000000000E+00  0.44035617819E+03  0.44035617819E+03  0.00000000000E+00 0. -1.
         21   -1    0    0  501  502  0.00000000000E+00 -0.00000000000E+00 -0.18369447628E+03  0.18369447628E+03  0.00000000000E+00 0. -1.
         23    2    1    2    0    0  0.45611925245E+02  0.80546285870E+02  0.37146631743E+03  0.39354587149E+03  0.91230346326E+02 0.  0.
        -24    2    1    2    0    0  0.17441997470E+02 -0.91102434829E+02 -0.97547969813E+02  0.15524692176E+03  0.77344187853E+02 0.  0.
         13    1    4    4    0    0  0.47699097501E+02 -0.51429691656E+02 -0.48477263112E+02  0.85265832108E+02  0.00000000000E+00 0. -1.
        -14    1    4    4    0    0 -0.30257100031E+02 -0.39672743173E+02 -0.49070706700E+02  0.69981089655E+02  0.00000000000E+00 0.  1.
        -13    1    3    3    0    0  0.39238737921E+02 -0.33040624239E+01  0.67344091896E+02  0.78011679224E+02  0.00000000000E+00 0.  1.
         13    1    3    3    0    0  0.63731873246E+01  0.83850348294E+02  0.30412222553E+03  0.31553419227E+03  0.00000000000E+00 0. -1.
         21    1    1    2  503  502 -0.29689654837E+02 -0.62282152875E+01 -0.22189761141E+02  0.37585260003E+02  0.00000000000E+00 0. -1.
          2    1    1    2  501    0 -0.33364267879E+02  0.16784364247E+02  0.49331154391E+01  0.37672601214E+02  0.00000000000E+00 0. -1.
<scales pt_clust_5="13000.00000" pt_clust_6="13000.00000" pt_clust_7="13000.00000" pt_clust_8="13000.00000" pt_clust_9="30.33589" pt_clust_10="39.92388"></scales>
<clustering>
<clus scale="   30.336">  2  9  1 -1</clus>
<clus scale="   39.924">  2 10  1 -1</clus>
<clus scale="   77.344">  5  6 -1 -1</clus>
<clus scale="   91.230">  7  8 -1 -1</clus>
<clus scale="  119.378">  2  5  1 -1</clus>
<clus scale="   30.336">  2  5  1 -1</clus>
</clustering>
</event>
<event>
10    3  0.7209067E-005  0.2531782E+03  0.7546771E-02  0.1145893E+00
         21   -1    0    0  503  502  0.00000000000E+00  0.00000000000E+00  0.11262020415E+03  0.11262020415E+03  0.00000000000E+00 0. -1.
          1   -1    0    0  502    0 -0.00000000000E+00 -0.00000000000E+00 -0.98620526106E+03  0.98620526106E+03  0.00000000000E+00 0. -1.
        -24    2    1    2    0    0  0.18438541203E+02  0.62121180323E+02 -0.12213929761E+03  0.16110059189E+03  0.82682355074E+02 0.  0.
         23    2    1    2    0    0 -0.18042053276E+03  0.12919894350E+03 -0.24499453125E+03  0.34284716163E+03  0.90983076738E+02 0.  0.
         11    1    3    3    0    0  0.45803108400E+02  0.62270102200E+02 -0.96041465226E+02  0.12328606332E+03  0.00000000000E+00 0. -1.
        -12    1    3    3    0    0 -0.27364567197E+02 -0.14892187780E+00 -0.26097832385E+02  0.37814528568E+02  0.00000000000E+00 0.  1.
        -13    1    4    4    0    0 -0.22378494476E+02  0.23102555475E+02  0.54050624748E+00  0.32168575217E+02  0.00000000000E+00 0.  1.
         13    1    4    4    0    0 -0.15804203828E+03  0.10609638803E+03 -0.24553503750E+03  0.31067858641E+03  0.00000000000E+00 0. -1.
         21    1    1    2  503  501  0.82755003661E+01  0.23106344503E+02 -0.82198043401E+00  0.24557335247E+02  0.00000000000E+00 0. -1.
          2    1    1    2  501    0  0.15370649119E+03 -0.21442646833E+03 -0.50562924761E+03  0.57032037645E+03  0.00000000000E+00 0. -1.
<scales pt_clust_5="13000.00000" pt_clust_6="13000.00000" pt_clust_7="13000.00000" pt_clust_8="13000.00000" pt_clust_9="24.54357" pt_clust_10="236.26540"></scales>
<clustering>
<clus scale="   24.544">  1  9  2 -1</clus>
<clus scale="   82.682">  5  6 -1 -1</clus>
<clus scale="   90.983">  7  8 -1 -1</clus>
<clus scale="  108.037">  2  5  1 -1</clus>
<clus scale="  236.265">  1 10  2 -1</clus>
<clus scale="   24.544">  1  5  2 -1</clus>
</clustering>
</event>
<event>
10    3  0.7209067E-005  0.3971647E+03  0.7546771E-02  0.1044766E+00
          1   -1    0    0  502    0 -0.00000000000E+00  0.00000000000E+00  0.14269899153E+04  0.14269899153E+04  0.00000000000E+00 0. -1.
         21   -1    0    0  503  502  0.00000000000E+00 -0.00000000000E+00 -0.18649446182E+03  0.18649446182E+03  0.00000000000E+00 0. -1.
        -24    2    1    2    0    0  0.43079718791E+02  0.22224737082E+03  0.19021498989E+03  0.30639475658E+03  0.80288532634E+02 0.  0.
         23    2    1    2    0    0  0.13435239514E+02  0.71090087894E+02  0.19032822741E+03  0.22580384446E+03  0.97612682402E+02 0.  0.
         11    1    3    3    0    0  0.51307373901E+02  0.19116295860E+03  0.18981687508E+03  0.27423743257E+03  0.00000000000E+00 0. -1.
        -12    1    3    3    0    0 -0.82276551103E+01  0.31084412225E+02  0.39811480407E+00  0.32157324009E+02  0.00000000000E+00 0.  1.
        -13    1    4    4    0    0  0.33430121249E+02  0.72372305208E+02  0.18968624210E+03  0.20575760985E+03  0.00000000000E+00 0.  1.
         13    1    4    4    0    0 -0.19994881735E+02 -0.12822173134E+01  0.64198530602E+00  0.20046234608E+02  0.00000000000E+00 0. -1.
         21    1    1    2  503  501 -0.47577562549E+02  0.49729315400E+02 -0.65033537482E+02  0.94688913108E+02  0.00000000000E+00 0. -1.
          2    1    1    2  501    0 -0.89373957552E+01 -0.34306677412E+03  0.92498577365E+03  0.98659686296E+03  0.00000000000E+00 0. -1.
<scales pt_clust_5="13000.00000" pt_clust_6="13000.00000" pt_clust_7="13000.00000" pt_clust_8="13000.00000" pt_clust_9="68.82317" pt_clust_10="329.48218"></scales>
<clustering>
<clus scale="   68.823">  2  9  1 -1</clus>
<clus scale="   80.289">  5  6 -1 -1</clus>
<clus scale="   97.613">  7  8 -1 -1</clus>
<clus scale="  104.406">  5  7 -1 -1</clus>
<clus scale="  329.482">  2 10  1 -1</clus>
<clus scale="   68.823">  2  5  1 -1</clus>
</clustering>
</event>
<event>
10    3  0.7209067E-005  0.1554730E+03  0.7546771E-02  0.1196221E+00
         21   -1    0    0  501  502  0.00000000000E+00  0.00000000000E+00  0.22302911032E+03  0.22302911032E+03  0.00000000000E+00 0.  1.
          1   -1    0    0  503    0 -0.00000000000E+00 -0.00000000000E+00 -0.28158887108E+03  0.28158887108E+03  0.00000000000E+00 0. -1.
         23    2    1    2    0    0 -0.11791490063E+03 -0.19713138720E+02 -0.76566654245E+02  0.17029414428E+03  0.94048452435E+02 0.  0.
        -24    2    1    2    0    0  0.12596270839E+03  0.44087707859E+02  0.27118911022E+02  0.15829715931E+03  0.80698360719E+02 0.  0.
         13    1    4    4    0    0  0.13151541780E+02 -0.15617036684E+02 -0.13355501728E+02  0.24397219358E+02  0.00000000000E+00 0. -1.
        -14    1    4    4    0    0  0.11281116661E+03  0.59704744543E+02  0.40474412750E+02  0.13389993995E+03  0.00000000000E+00 0.  1.
        -13    1    3    3    0    0 -0.61833108017E+02 -0.54628200626E+02 -0.60482456489E+02  0.10230200924E+03  0.00000000000E+00 0.  1.
         13    1    3    3    0    0 -0.56081792616E+02  0.34915061906E+02 -0.16084197756E+02  0.67992135048E+02  0.00000000000E+00 0. -1.
         21    1    1    2  503  502 -0.11507479511E+02  0.29892702268E+02  0.71753601164E+02  0.78578464057E+02  0.00000000000E+00 0.  1.
          2    1    1    2  501    0  0.34596717550E+01 -0.54267271407E+02 -0.80865618706E+02  0.97448213751E+02  0.00000000000E+00 0. -1.
<scales pt_clust_5="13000.00000" pt_clust_6="13000.00000" pt_clust_7="13000.00000" pt_clust_8="13000.00000" pt_clust_9="32.03117" pt_clust_10="52.66634"></scales>
<clustering>
<clus scale="   32.031">  1  9  2 -1</clus>
<clus scale="   52.666">  1 10  2 -1</clus>
<clus scale="   80.698">  5  6 -1 -1</clus>
<clus scale="   94.048">  7  8 -1 -1</clus>
<clus scale="  147.780">  1  5  2 -1</clus>
<clus scale="   32.031">  1  5  2 -1</clus>
</clustering>
</event>
<event>
10    3  0.7209067E-005  0.6435561E+03  0.7546771E-02  0.9819651E-01
          1   -1    0    0  502    0 -0.00000000000E+00  0.00000000000E+00  0.19944385738E+04  0.19944385738E+04  0.00000000000E+00 0. -1.
         21   -1    0    0  503  502  0.00000000000E+00 -0.00000000000E+00 -0.11677938410E+04  0.11677938410E+04  0.00000000000E+00 0. -1.
         23    2    1    2    0    0 -0.32995743341E+03  0.37480918557E+03  0.28228421769E+03  0.58129380354E+03  0.94150268370E+02 0.  0.
        -24    2    1    2    0    0  0.43486884733E+03 -0.71827935744E+03  0.61537345740E+03  0.10443567889E+04  0.83429375792E+02 0.  0.
         13    1    4    4    0    0  0.41450812236E+03 -0.68578280134E+03  0.60657659776E+03  0.10050125388E+04  0.00000000000E+00 0. -1.
        -14    1    4    4    0    0  0.20360724967E+02 -0.32496556094E+02  0.87968596446E+01  0.39344250136E+02  0.00000000000E+00 0.  1.
        -11    1    3    3    0    0 -0.36952325754E+02  0.20886003248E+02  0.52666847341E+02  0.67642415090E+02  0.00000000000E+00 0.  1.
         11    1    3    3    0    0 -0.29300510766E+03  0.35392318232E+03  0.22961737035E+03  0.51365138845E+03  0.00000000000E+00 0. -1.
         21    1    1    2  503  501 -0.18774900913E+03 -0.91042781593E+02 -0.72087278995E+03  0.75046389507E+03  0.00000000000E+00 0. -1.
          2    1    1    2  501    0  0.82837595211E+02  0.43451295346E+03  0.64985984770E+03  0.78611792726E+03  0.00000000000E+00 0. -1.
<scales pt_clust_5="13000.00000" pt_clust_6="13000.00000" pt_clust_7="13000.00000" pt_clust_8="13000.00000" pt_clust_9="208.65876" pt_clust_10="423.51865"></scales>
<clustering>
<clus scale="   83.429">  5  6 -1 -1</clus>
<clus scale="   94.150">  7  8 -1 -1</clus>
<clus scale="  208.659">  2  9  1 -1</clus>
<clus scale="  423.519">  2 10  1 -1</clus>
<clus scale="  642.075">  2  5  1 -1</clus>
<clus scale="  208.659">  2  5  1 -1</clus>
</clustering>
</event>
<event>
10    3  0.7209067E-005  0.2427678E+03  0.7546771E-02  0.1143708E+00
         21   -1    0    0  503  502  0.00000000000E+00  0.00000000000E+00  0.15189538257E+03  0.15189538257E+03  0.00000000000E+00 0. -1.
         -4   -1    0    0    0  501 -0.00000000000E+00 -0.00000000000E+00 -0.84906444975E+03  0.84906444975E+03  0.00000000000E+00 0.  1.
         23    2    1    2    0    0 -0.82050810969E+02  0.23146960858E+02 -0.34193432452E+02  0.12979171020E+03  0.91698308793E+02 0.  0.
        -24    2    1    2    0    0 -0.46759323887E+02  0.18214218929E+03 -0.25683052389E+03  0.32780202282E+03  0.78294550728E+02 0.  0.
         11    1    4    4    0    0 -0.36242223195E+02  0.18774146942E+03 -0.23529128281E+03  0.30318698166E+03  0.00000000000E+00 0. -1.
        -12    1    4    4    0    0 -0.10517100692E+02 -0.55992801322E+01 -0.21539241074E+02  0.24615041154E+02  0.00000000000E+00 0.  1.
        -13    1    3    3    0    0 -0.89832690678E+02  0.45513344605E+01 -0.51128654653E+02  0.10346384048E+03  0.00000000000E+00 0. -1.
         13    1    3    3    0    0  0.77818797095E+01  0.18595626398E+02  0.16935222201E+02  0.26327869719E+02  0.00000000000E+00 0.  1.
         21    1    1    2  503  501  0.31945067533E+01  0.49226085018E+02 -0.18163920753E+01  0.49363059060E+02  0.00000000000E+00 0. -1.
         -3    1    1    2    0  502  0.12561562810E+03 -0.25451523516E+03 -0.40432871876E+03  0.49400304024E+03  0.00000000000E+00 0.  1.
<scales pt_clust_5="13000.00000" pt_clust_6="13000.00000" pt_clust_7="13000.00000" pt_clust_8="13000.00000" pt_clust_9="49.32963" pt_clust_10="229.79600"></scales>
<clustering>
<clus scale="   49.330">  1  9  2 -1</clus>
<clus scale="   78.295">  5  6 -1 -1</clus>
<clus scale="   91.698">  7  8 -1 -1</clus>
<clus scale="  129.112">  2  7  1 -1</clus>
<clus scale="  229.796">  1 10  2 -1</clus>
<clus scale="   49.330">  1  5  2 -1</clus>
</clustering>
</event>
<event>
10    3  0.7209067E-005  0.2173910E+03  0.7546771E-02  0.1156201E+00
         21   -1    0    0  501  502  0.00000000000E+00  0.00000000000E+00  0.11912724681E+03  0.11912724681E+03  0.00000000000E+00 0.  1.
         -2   -1    0    0    0  501 -0.00000000000E+00 -0.00000000000E+00 -0.11501206433E+04  0.11501206433E+04  0.00000000000E+00 0.  1.
         23    2    1    2    0    0  0.88019759053E+02 -0.41848392376E+02 -0.61949083307E+03  0.63349044764E+03  0.89679925642E+02 0.  0.
        -24    2    1    2    0    0  0.42297428821E+02 -0.15767063383E+03 -0.15208327744E+03  0.23765276843E+03  0.81856055403E+02 0.  0.
         13    1    4    4    0    0  0.20088649389E+02 -0.15748940939E+03 -0.12183018978E+03  0.20012262002E+03  0.00000000000E+00 0. -1.
        -14    1    4    4    0    0  0.22208779433E+02 -0.18122444654E+00 -0.30253087666E+02  0.37530148408E+02  0.00000000000E+00 0.  1.
        -11    1    3    3    0    0 -0.28626370509E+01 -0.34404459394E+02 -0.93841263399E+02  0.99990220689E+02  0.00000000000E+00 0. -1.
         11    1    3    3    0    0  0.90882396104E+02 -0.74439329820E+01 -0.52564956968E+03  0.53350022695E+03  0.00000000000E+00 0.  1.
         21    1    1    2  503  502  0.23297744984E+02 -0.11095505865E+02  0.55548189302E+01  0.26396044876E+02  0.00000000000E+00 0.  1.
         -1    1    1    2    0  503 -0.15361493286E+03  0.21061453208E+03 -0.26497410491E+03  0.37170862916E+03  0.00000000000E+00 0.  1.
<scales pt_clust_5="13000.00000" pt_clust_6="13000.00000" pt_clust_7="13000.00000" pt_clust_8="13000.00000" pt_clust_9="25.80494" pt_clust_10="201.39130"></scales>
<clustering>
<clus scale="   25.805">  1  9  2 -1</clus>
<clus scale="   81.856">  5  6 -1 -1</clus>
<clus scale="   89.680">  7  8 -1 -1</clus>
<clus scale="  133.737">  2  7  1 -1</clus>
<clus scale="  201.391">  1 10  2 -1</clus>
<clus scale="   25.805">  1  5  2 -1</clus>
</clustering>
</event>
<event>
10    3  0.7209067E-005  0.2091271E+03  0.7546771E-02  0.1183433E+00
          1   -1    0    0  503    0 -0.00000000000E+00  0.00000000000E+00  0.36146484227E+03  0.36146484227E+03  0.00000000000E+00 0. -1.
         21   -1    0    0  501  502  0.00000000000E+00 -0.00000000000E+00 -0.32363032509E+03  0.32363032509E+03  0.00000000000E+00 0. -1.
        -24    2    1    2    0    0  0.60193857406E+00 -0.13241704024E+01  0.40009277776E+02  0.89729782946E+02  0.80303025361E+02 0.  0.
         23    2    1    2    0    0  0.11146711454E+03  0.14915241594E+03  0.17626916159E+03  0.27205081632E+03  0.90936618201E+02 0.  0.
         13    1    3    3    0    0 -0.29610035557E+02 -0.57313140402E+01  0.49319437575E+02  0.57810112342E+02  0.00000000000E+00 0. -1.
        -14    1    3    3    0    0  0.30211974132E+02  0.44071436378E+01 -0.93101597989E+01  0.31919670604E+02  0.00000000000E+00 0.  1.
        -11    1    4    4    0    0  0.12688405926E+03  0.12583422403E+03  0.15897615295E+03  0.23918033707E+03  0.00000000000E+00 0. -1.
         11    1    4    4    0    0 -0.15416944728E+02  0.23318191902E+02  0.17293008637E+02  0.32870479249E+02  0.00000000000E+00 0.  1.
         21    1    1    2  503  502  0.39699680328E+02 -0.21277669165E+02 -0.10188016371E+03  0.11139287043E+03  0.00000000000E+00 0. -1.
          2    1    1    2  501    0 -0.15176873344E+03 -0.12655057637E+03 -0.76563758471E+02  0.21192169766E+03  0.00000000000E+00 0. -1.
<scales pt_clust_5="13000.00000" pt_clust_6="13000.00000" pt_clust_7="13000.00000" pt_clust_8="13000.00000" pt_clust_9="45.04224" pt_clust_10="188.32065"></scales>
<clustering>
<clus scale="   45.042">  2  9  1 -1</clus>
<clus scale="   80.303">  5  6 -1 -1</clus>
<clus scale="   80.556">  1  5  2 -1</clus>
<clus scale="   90.937">  7  8 -1 -1</clus>
<clus scale="  188.321">  2 10  1 -1</clus>
<clus scale="   45.042">  2  5  1 -1</clus>
</clustering>
</event>
<event>
10    3  0.7209067E-005  0.1354899E+03  0.7546771E-02  0.1244442E+00
          1   -1    0    0  503    0 -0.00000000000E+00  0.00000000000E+00  0.10970969280E+04  0.10970969280E+04  0.00000000000E+00 0. -1.
         21   -1    0    0  501  502  0.00000000000E+00 -0.00000000000E+00 -0.64827065055E+02  0.64827065055E+02  0.00000000000E+00 0.  1.
        -24    2    1    2    0    0  0.12772197493E+02  0.14762379629E+02  0.84872341785E+02  0.11849496104E+03  0.80353497193E+02 0.  0.
         23    2    1    2    0    0 -0.53598648290E+02 -0.11075342869E+02  0.81626960175E+02  0.13377374876E+03  0.90757792563E+02 0.  0.
         13    1    3    3    0    0  0.22990612879E+02 -0.27431493378E+02  0.55636672294E+02  0.66155078515E+02  0.00000000000E+00 0. -1.
        -14    1    3    3    0    0 -0.10218415385E+02  0.42193873007E+02  0.29235669492E+02  0.52339882527E+02  0.00000000000E+00 0.  1.
        -13    1    4    4    0    0 -0.23461340727E+02  0.36752364172E+02  0.57860615139E+02  0.72450131575E+02  0.00000000000E+00 0. -1.
         13    1    4    4    0    0 -0.30137307563E+02 -0.47827707041E+02  0.23766345036E+02  0.61323617183E+02  0.00000000000E+00 0.  1.
         21    1    1    2  503  502 -0.66912651422E+02 -0.46396459660E+02  0.75855339153E+02  0.11128327308E+03  0.00000000000E+00 0.  1.
          2    1    1    2  501    0  0.10773910222E+03  0.42709422900E+02  0.78991522180E+03  0.79837201015E+03  0.00000000000E+00 0. -1.
<scales pt_clust_5="13000.00000" pt_clust_6="13000.00000" pt_clust_7="13000.00000" pt_clust_8="13000.00000" pt_clust_9="81.42441" pt_clust_10="100.60095"></scales>
<clustering>
<clus scale="   80.353">  5  6 -1 -1</clus>
<clus scale="   81.424">  2  9  1 -1</clus>
<clus scale="   81.137">  1  5  2 -1</clus>
<clus scale="   90.758">  7  8 -1 -1</clus>
<clus scale="  100.601">  2 10  1 -1</clus>
<clus scale="   81.424">  2  5  1 -1</clus>
</clustering>
</event>
<event>
10    3  0.7209067E-005  0.8983865E+02  0.7546771E-02  0.1308766E+00
         -2   -1    0    0    0  501 -0.00000000000E+00  0.00000000000E+00  0.80960446656E+03  0.80960446656E+03  0.00000000000E+00 0.  1.
         21   -1    0    0  501  502  0.00000000000E+00 -0.00000000000E+00 -0.28964860194E+02  0.28964860194E+02  0.00000000000E+00 0.  1.
        -24    2    1    2    0    0 -0.49279181170E+02 -0.26040265847E+01  0.56954374777E+03  0.57700020841E+03  0.78191695365E+02 0.  0.
         23    2    1    2    0    0  0.26042791851E+02 -0.23658887001E+02  0.99396472001E+02  0.12552741273E+03  0.68113895498E+02 0.  0.
         11    1    3    3    0    0  0.20174922673E+02  0.56093849078E+00  0.78232709235E+02  0.80794176468E+02  0.00000000000E+00 0. -1.
        -12    1    3    3    0    0 -0.69454103843E+02 -0.31649650754E+01  0.49131103853E+03  0.49620603194E+03  0.00000000000E+00 0.  1.
        -11    1    4    4    0    0  0.48824772554E+02 -0.22647709756E+02  0.67975248852E+02  0.86703008187E+02  0.00000000000E+00 0. -1.
         11    1    4    4    0    0 -0.22781980704E+02 -0.10111772451E+01  0.31421223149E+02  0.38824404547E+02  0.00000000000E+00 0.  1.
         21    1    1    2  503  502 -0.12499936425E+02  0.19663639828E+02  0.57021814764E+01  0.23987955634E+02  0.00000000000E+00 0.  1.
         -1    1    1    2    0  503  0.35736325745E+02  0.65992737583E+01  0.10599720512E+03  0.11205374998E+03  0.00000000000E+00 0.  1.
<scales pt_clust_5="13000.00000" pt_clust_6="13000.00000" pt_clust_7="13000.00000" pt_clust_8="13000.00000" pt_clust_9="23.30037" pt_clust_10="35.16344"></scales>
<clustering>
<clus scale="   23.300">  2  9  1 -1</clus>
<clus scale="   35.163">  2 10  1 -1</clus>
<clus scale="   68.114">  7  8 -1 -1</clus>
<clus scale="   78.192">  5  6 -1 -1</clus>
<clus scale="   81.219">  2  7  1 -1</clus>
<clus scale="   23.300">  2  5  1 -1</clus>
</clustering>
</event>
<event>
10    3  0.7209067E-005  0.2556529E+03  0.7546771E-02  0.1146232E+00
         21   -1    0    0  503  502  0.00000000000E+00  0.00000000000E+00  0.28324531313E+03  0.28324531313E+03  0.00000000000E+00 0. -1.
          1   -1    0    0  502    0 -0.00000000000E+00 -0.00000000000E+00 -0.44825555597E+03  0.44825555597E+03  0.00000000000E+00 0. -1.
        -24    2    1    2    0    0 -0.13598561167E+02 -0.60764028688E+02 -0.87069168597E+02  0.13472926287E+03  0.81815317064E+02 0.  0.
         23    2    1    2    0    0 -0.15646388782E+03  0.22506737174E+03 -0.10877913587E+03  0.30856640868E+03  0.90796795947E+02 0.  0.
         11    1    3    3    0    0  0.34026752016E+02 -0.31734748675E+02 -0.46321150679E+02  0.65654878924E+02  0.00000000000E+00 0. -1.
        -12    1    3    3    0    0 -0.47625313183E+02 -0.29029280012E+02 -0.40748017917E+02  0.69074383950E+02  0.00000000000E+00 0.  1.
        -11    1    4    4    0    0 -0.18305719858E+02  0.97487143507E+02 -0.52738538356E+02  0.11233964552E+03  0.00000000000E+00 0.  1.
         11    1    4    4    0    0 -0.13815816796E+03  0.12758022823E+03 -0.56040597519E+02  0.19622676316E+03  0.00000000000E+00 0. -1.
         21    1    1    2  503  501  0.10006221389E+02 -0.21216802353E+02  0.66551862819E+02  0.70565059437E+02  0.00000000000E+00 0. -1.
          2    1    1    2  501    0  0.16005622760E+03 -0.14308654069E+03 -0.35713801185E+02  0.21764013811E+03  0.00000000000E+00 0. -1.
<scales pt_clust_5="13000.00000" pt_clust_6="13000.00000" pt_clust_7="13000.00000" pt_clust_8="13000.00000" pt_clust_9="23.45799" pt_clust_10="238.98610"></scales>
<clustering>
<clus scale="   23.458">  1  9  2 -1</clus>
<clus scale="   81.815">  5  6 -1 -1</clus>
<clus scale="   90.797">  7  8 -1 -1</clus>
<clus scale="  104.085">  2  5  1 -1</clus>
<clus scale="  238.986">  1 10  2 -1</clus>
<clus scale="   23.458">  1  5  2 -1</clus>
</clustering>
</event>
<event>
10    3  0.7209067E-005  0.9739092E+02  0.7546771E-02  0.1292976E+00
         21   -1    0    0  503  502  0.00000000000E+00  0.00000000000E+00  0.15196277111E+03  0.15196277111E+03  0.00000000000E+00 0. -1.
          1   -1    0    0  502    0 -0.00000000000E+00 -0.00000000000E+00 -0.23092873180E+03  0.23092873180E+03  0.00000000000E+00 0. -1.
         23    2    1    2    0    0  0.15649179342E+02 -0.24869326617E+02 -0.48729059738E+02  0.10773435756E+03  0.91481092670E+02 0.  0.
        -24    2    1    2    0    0  0.29683330749E+02  0.52348462585E+02  0.28767340382E+02  0.10296654307E+03  0.78441618157E+02 0.  0.
         13    1    4    4    0    0  0.23204552200E+02  0.20533348953E+02  0.53721539409E+02  0.62016719185E+02  0.00000000000E+00 0. -1.
        -14    1    4    4    0    0  0.64787785494E+01  0.31815113631E+02 -0.24954199027E+02  0.40949823882E+02  0.00000000000E+00 0.  1.
        -11    1    3    3    0    0  0.40229420150E+02 -0.36266944776E+02 -0.57752293991E+02  0.79177174679E+02  0.00000000000E+00 0.  1.
         11    1    3    3    0    0 -0.24580240808E+02  0.11397618159E+02  0.90232342527E+01  0.28557182884E+02  0.00000000000E+00 0. -1.
         21    1    1    2  503  501  0.10946358711E+02 -0.17914964543E+02  0.47176524992E+02  0.51637130380E+02  0.00000000000E+00 0. -1.
          2    1    1    2  501    0 -0.56278868803E+02 -0.95641714247E+01 -0.10618076632E+03  0.12055347190E+03  0.00000000000E+00 0. -1.
<scales pt_clust_5="13000.00000" pt_clust_6="13000.00000" pt_clust_7="13000.00000" pt_clust_8="13000.00000" pt_clust_9="20.99449" pt_clust_10="56.55642"></scales>
<clustering>
<clus scale="   20.994">  1  9  2 -1</clus>
<clus scale="   56.556">  1 10  2 -1</clus>
<clus scale="   78.442">  5  6 -1 -1</clus>
<clus scale="   85.260">  1  5  2 -1</clus>
<clus scale="   91.481">  7  8 -1 -1</clus>
<clus scale="   20.994">  1  5  2 -1</clus>
</clustering>
</event>
<event>
10    3  0.7209067E-005  0.9638653E+02  0.7546771E-02  0.1292629E+00
         21   -1    0    0  501  502  0.00000000000E+00  0.00000000000E+00  0.13207858722E+03  0.13207858722E+03  0.00000000000E+00 0.  1.
          1   -1    0    0  503    0 -0.00000000000E+00 -0.00000000000E+00 -0.33675312543E+03  0.33675312543E+03  0.00000000000E+00 0. -1.
        -24    2    1    2    0    0  0.35730239274E+02 -0.24221582240E+02 -0.21078403341E+03  0.22912492518E+03  0.78771743377E+02 0.  0.
         23    2    1    2    0    0  0.26735927918E+00  0.45414899326E+02 -0.23881323218E+02  0.10144808569E+03  0.87514638370E+02 0.  0.
         11    1    3    3    0    0 -0.11910812472E+02 -0.37782933249E+02 -0.79916848041E+02  0.89197085712E+02  0.00000000000E+00 0. -1.
        -12    1    3    3    0    0  0.47641051746E+02  0.13561351009E+02 -0.13086718537E+03  0.13992783947E+03  0.00000000000E+00 0.  1.
        -11    1    4    4    0    0 -0.34828366407E+02  0.25215426453E+00 -0.27146531308E+02  0.44158949834E+02  0.00000000000E+00 0. -1.
         11    1    4    4    0    0  0.35095725686E+02  0.45162745062E+02  0.32652080905E+01  0.57289135853E+02  0.00000000000E+00 0.  1.
         21    1    1    2  503  502 -0.69968086345E+02 -0.27180679601E+02 -0.19852940173E+02  0.77643168945E+02  0.00000000000E+00 0. -1.
          2    1    1    2  501    0  0.33970487792E+02  0.59873625145E+01  0.49843758591E+02  0.60615532837E+02  0.00000000000E+00 0. -1.
<scales pt_clust_5="13000.00000" pt_clust_6="13000.00000" pt_clust_7="13000.00000" pt_clust_8="13000.00000" pt_clust_9="62.39207" pt_clust_10="34.49409"></scales>
<clustering>
<clus scale="   34.494">  1 10  2 -1</clus>
<clus scale="   62.392">  1  9  2 -1</clus>
<clus scale="   78.772">  5  6 -1 -1</clus>
<clus scale="   87.515">  7  8 -1 -1</clus>
<clus scale="   88.524">  2  5  1 -1</clus>
<clus scale="   34.494">  1  5  2 -1</clus>
</clustering>
</event>
<event>
10    3  0.7209067E-005  0.1556828E+03  0.7546771E-02  0.1195829E+00
          1   -1    0    0  503    0 -0.00000000000E+00  0.00000000000E+00  0.30644175562E+03  0.30644175562E+03  0.00000000000E+00 0. -1.
         21   -1    0    0  501  502  0.00000000000E+00 -0.00000000000E+00 -0.21196341101E+03  0.21196341101E+03  0.00000000000E+00 0.  1.
        -24    2    1    2    0    0 -0.99473396626E+01  0.12305753571E+03  0.14288084290E+03  0.20435583993E+03  0.78129811117E+02 0.  0.
         23    2    1    2    0    0 -0.75386706183E+01 -0.13811016941E+03 -0.67544363737E+02  0.17887722588E+03  0.91123928881E+02 0.  0.
         13    1    3    3    0    0  0.12285291098E+02  0.27496611459E+02  0.85605283688E+02  0.90748314664E+02  0.00000000000E+00 0. -1.
        -14    1    3    3    0    0 -0.22232630761E+02  0.95560924251E+02  0.57275559207E+02  0.11360752526E+03  0.00000000000E+00 0.  1.
        -13    1    4    4    0    0 -0.46475389302E+02 -0.64638240607E+02 -0.49639483326E+02  0.93819732810E+02  0.00000000000E+00 0. -1.
         13    1    4    4    0    0  0.38936718684E+02 -0.73471928807E+02 -0.17904880411E+02  0.85057493068E+02  0.00000000000E+00 0.  1.
         21    1    1    2  503  502  0.54665922048E+02 -0.39715970015E+02  0.11392248737E+02  0.68523752370E+02  0.00000000000E+00 0.  1.
          2    1    1    2  501    0 -0.37179911767E+02  0.54768603721E+02  0.77496167208E+01  0.66648348455E+02  0.00000000000E+00 0. -1.
<scales pt_clust_5="13000.00000" pt_clust_6="13000.00000" pt_clust_7="13000.00000" pt_clust_8="13000.00000" pt_clust_9="57.93063" pt_clust_10="66.19627"></scales>
<clustering>
<clus scale="   66.196">  2 10  1 -1</clus>
<clus scale="   57.931">  2  9  1 -1</clus>
<clus scale="   78.130">  5  6 -1 -1</clus>
<clus scale="   91.124">  7  8 -1 -1</clus>
<clus scale="  148.451">  1  5  2 -1</clus>
<clus scale="   66.196">  2  5  1 -1</clus>
</clustering>
</event>
<event>
10    3  0.7209067E-005  0.1051660E+03  0.7546771E-02  0.1277631E+00
          1   -1    0    0  503    0 -0.00000000000E+00  0.00000000000E+00  0.10079394286E+04  0.10079394286E+04  0.00000000000E+00 0. -1.
         21   -1    0    0  501  502  0.00000000000E+00 -0.00000000000E+00 -0.11598371377E+03  0.11598371377E+03  0.00000000000E+00 0. -1.
         23    2    1    2    0    0 -0.40214132761E+02  0.32883828278E+02  0.40643593013E+03  0.42094516423E+03  0.96468354149E+02 0.  0.
        -24    2    1    2    0    0  0.41999511487E+02  0.73597693130E+02  0.29199054714E+03  0.31443224896E+03  0.80178427049E+02 0.  0.
         11    1    4    4    0    0  0.17464557870E+02  0.81291997563E+02  0.16387521285E+03  0.18376203372E+03  0.00000000000E+00 0. -1.
        -12    1    4    4    0    0  0.24534953618E+02 -0.76943044330E+01  0.12811533429E+03  0.13067021524E+03  0.00000000000E+00 0.  1.
        -11    1    3    3    0    0  0.66950827653E+01 -0.22149492634E+02  0.31420313039E+02  0.39021279178E+02  0.00000000000E+00 0.  1.
         11    1    3    3    0    0 -0.46909215526E+02  0.55033320912E+02  0.37501561709E+03  0.38192388506E+03  0.00000000000E+00 0. -1.
         21    1    1    2  503  502 -0.65637696372E+02 -0.10065628403E+02 -0.72592760413E+02  0.98383600892E+02  0.00000000000E+00 0. -1.
          2    1    1    2  501    0  0.63852317645E+02 -0.96415893005E+02  0.26612199792E+03  0.29016212825E+03  0.00000000000E+00 0. -1.
<scales pt_clust_5="13000.00000" pt_clust_6="13000.00000" pt_clust_7="13000.00000" pt_clust_8="13000.00000" pt_clust_9="66.40500" pt_clust_10="107.32822"></scales>
<clustering>
<clus scale="   66.405">  2  9  1 -1</clus>
<clus scale="   80.178">  5  6 -1 -1</clus>
<clus scale="   96.468">  7  8 -1 -1</clus>
<clus scale="  107.328">  2 10  1 -1</clus>
<clus scale="   90.456">  2  5  1 -1</clus>
<clus scale="   66.405">  2  5  1 -1</clus>
</clustering>
</event>
<event>
10    3  0.7209067E-005  0.1057952E+03  0.7546771E-02  0.1273468E+00
         21   -1    0    0  503  502  0.00000000000E+00  0.00000000000E+00  0.13827438583E+03  0.13827438583E+03  0.00000000000E+00 0. -1.
          1   -1    0    0  502    0 -0.00000000000E+00 -0.00000000000E+00 -0.68735020019E+03  0.68735020019E+03  0.00000000000E+00 0. -1.
        -24    2    1    2    0    0  0.56169222667E+02  0.33157296180E+02 -0.30605415106E+03  0.32334876030E+03  0.81430274106E+02 0.  0.
         23    2    1    2    0    0 -0.16103855095E+02  0.74785873661E+02 -0.46417746319E+02  0.12872400841E+03  0.92536490740E+02 0.  0.
         13    1    3    3    0    0  0.76587168025E+02  0.24187534225E+02 -0.21245253622E+03  0.22712708175E+03  0.00000000000E+00 0. -1.
        -14    1    3    3    0    0 -0.20417945358E+02  0.89697619551E+01 -0.93601614844E+02  0.96221678553E+02  0.00000000000E+00 0.  1.
        -11    1    4    4    0    0 -0.26887854310E+02  0.13782467297E+02 -0.58282509211E+02  0.65648792784E+02  0.00000000000E+00 0.  1.
         11    1    4    4    0    0  0.10783999215E+02  0.61003406364E+02  0.11864762891E+02  0.63075215621E+02  0.00000000000E+00 0. -1.
         21    1    1    2  503  501 -0.28986641348E+02 -0.38862488596E+02  0.77084003641E+02  0.91062956321E+02  0.00000000000E+00 0. -1.
          2    1    1    2  501    0 -0.11078726225E+02 -0.69080681245E+02 -0.27368792061E+03  0.28248886099E+03  0.00000000000E+00 0. -1.
<scales pt_clust_5="13000.00000" pt_clust_6="13000.00000" pt_clust_7="13000.00000" pt_clust_8="13000.00000" pt_clust_9="48.48215" pt_clust_10="73.47411"></scales>
<clustering>
<clus scale="   48.482">  1  9  2 -1</clus>
<clus scale="   73.474">  1 10  2 -1</clus>
<clus scale="   81.430">  5  6 -1 -1</clus>
<clus scale="   92.536">  7  8 -1 -1</clus>
<clus scale="   96.232">  2  5  1 -1</clus>
<clus scale="   48.482">  1  5  2 -1</clus>
</clustering>
</event>
<event>
10    3  0.7209067E-005  0.1632311E+03  0.7546771E-02  0.1186113E+00
         21   -1    0    0  503  502  0.00000000000E+00  0.00000000000E+00  0.12552284761E+03  0.12552284761E+03  0.00000000000E+00 0. -1.
         -2   -1    0    0    0  501 -0.00000000000E+00 -0.00000000000E+00 -0.11120287779E+04  0.11120287779E+04  0.00000000000E+00 0.  1.
        -24    2    1    2    0    0  0.13424853887E+03 -0.41884097149E+02 -0.94049350421E+03  0.95435330218E+03  0.80531025902E+02 0.  0.
         23    2    1    2    0    0 -0.11635971952E+03  0.31555306113E+02 -0.90926744640E+02  0.17455005385E+03  0.87548425098E+02 0.  0.
         13    1    3    3    0    0  0.14085922643E+02 -0.15476200631E+02 -0.36886482627E+02  0.42409180649E+02  0.00000000000E+00 0. -1.
        -14    1    3    3    0    0  0.12016261623E+03 -0.26407896517E+02 -0.90360702158E+03  0.91194412153E+03  0.00000000000E+00 0.  1.
        -13    1    4    4    0    0 -0.60136837992E+02  0.59238969776E+02 -0.38218335092E+02  0.92662484108E+02  0.00000000000E+00 0.  1.
         13    1    4    4    0    0 -0.56222881532E+02 -0.27683663663E+02 -0.52708409549E+02  0.81887569745E+02  0.00000000000E+00 0. -1.
         21    1    1    2  503  501 -0.52349694530E+02  0.28871220204E+02  0.28037977014E+02  0.66031553279E+02  0.00000000000E+00 0. -1.
         -1    1    1    2    0  502  0.34460875184E+02 -0.18542429168E+02  0.16876341534E+02  0.42616716221E+02  0.00000000000E+00 0.  1.
<scales pt_clust_5="13000.00000" pt_clust_6="13000.00000" pt_clust_7="13000.00000" pt_clust_8="13000.00000" pt_clust_9="40.56708" pt_clust_10="39.13277"></scales>
<clustering>
<clus scale="   39.133">  1 10  2 -1</clus>
<clus scale="   40.567">  1  9  2 -1</clus>
<clus scale="   80.531">  5  6 -1 -1</clus>
<clus scale="   87.548">  7  8 -1 -1</clus>
<clus scale="  159.577">  2  5  1 -1</clus>
<clus scale="   39.133">  1  5  2 -1</clus>
</clustering>
</event>
<event>
10    3  0.7209067E-005  0.9425129E+02  0.7546771E-02  0.1300252E+00
          1   -1    0    0  503    0 -0.00000000000E+00  0.00000000000E+00  0.78476111499E+03  0.78476111499E+03  0.00000000000E+00 0. -1.
         21   -1    0    0  501  502  0.00000000000E+00 -0.00000000000E+00 -0.22677617563E+02  0.22677617563E+02  0.00000000000E+00 0.  1.
        -24    2    1    2    0    0 -0.12703937077E+02  0.72271381500E+00  0.37783608857E+03  0.38668717414E+03  0.81270834176E+02 0.  0.
         23    2    1    2    0    0  0.10179415585E+02  0.10991722215E+02  0.30383398145E+03  0.31823100563E+03  0.93442207829E+02 0.  0.
         11    1    3    3    0    0  0.95622786615E+01  0.31908363191E+02  0.84008636624E+02  0.90371631844E+02  0.00000000000E+00 0. -1.
        -12    1    3    3    0    0 -0.22266215739E+02 -0.31185649376E+02  0.29382745194E+03  0.29631554230E+03  0.00000000000E+00 0.  1.
        -13    1    4    4    0    0  0.36132191624E+02 -0.27171696212E+02  0.19194963236E+03  0.19720166761E+03  0.00000000000E+00 0. -1.
         13    1    4    4    0    0 -0.25952776040E+02  0.38163418427E+02  0.11188434909E+03  0.12102933802E+03  0.00000000000E+00 0.  1.
         21    1    1    2  503  502 -0.21395977321E+02 -0.19359071134E+01  0.39959547211E+01  0.21851847427E+02  0.00000000000E+00 0.  1.
          2    1    1    2  501    0  0.23920498813E+02 -0.97785289166E+01  0.76417472691E+02  0.80668705356E+02  0.00000000000E+00 0. -1.
<scales pt_clust_5="13000.00000" pt_clust_6="13000.00000" pt_clust_7="13000.00000" pt_clust_8="13000.00000" pt_clust_9="21.48338" pt_clust_10="22.94450"></scales>
<clustering>
<clus scale="   21.483">  2  9  1 -1</clus>
<clus scale="   22.945">  2 10  1 -1</clus>
<clus scale="   81.271">  5  6 -1 -1</clus>
<clus scale="   82.200">  1  5  2 -1</clus>
<clus scale="   93.442">  7  8 -1 -1</clus>
<clus scale="   21.483">  2  5  1 -1</clus>
</clustering>
</event>
<event>
10    3  0.7209067E-005  0.1199597E+03  0.7546771E-02  0.1246722E+00
          1   -1    0    0  503    0 -0.00000000000E+00  0.00000000000E+00  0.62384582672E+03  0.62384582672E+03  0.00000000000E+00 0. -1.
         21   -1    0    0  501  502  0.00000000000E+00 -0.00000000000E+00 -0.16555137261E+03  0.16555137261E+03  0.00000000000E+00 0.  1.
         23    2    1    2    0    0 -0.91271841528E+02 -0.40698606699E+02  0.25257082102E+03  0.28666481288E+03  0.91639345633E+02 0.  0.
        -24    2    1    2    0    0 -0.13636407700E+01  0.39853604418E+02 -0.10895324936E+03  0.14119727598E+03  0.80471677598E+02 0.  0.
         13    1    4    4    0    0 -0.10946824082E+02  0.53549857507E+02 -0.33925830092E+02  0.64330258386E+02  0.00000000000E+00 0. -1.
        -14    1    4    4    0    0  0.95831833120E+01 -0.13696253089E+02 -0.75027419271E+02  0.76867017592E+02  0.00000000000E+00 0.  1.
        -13    1    3    3    0    0 -0.76060617619E+02  0.93032963290E+01  0.10408633031E+03  0.12925065970E+03  0.00000000000E+00 0.  1.
         13    1    3    3    0    0 -0.15211223909E+02 -0.50001903028E+02  0.14848449072E+03  0.15741415319E+03  0.00000000000E+00 0. -1.
         21    1    1    2  503  502  0.49301068089E+02 -0.30342005911E+02  0.18779636206E+02  0.60859735240E+02  0.00000000000E+00 0. -1.
          2    1    1    2  501    0  0.43334414208E+02  0.31187008191E+02  0.29589724625E+03  0.30067537523E+03  0.00000000000E+00 0. -1.
<scales pt_clust_5="13000.00000" pt_clust_6="13000.00000" pt_clust_7="13000.00000" pt_clust_8="13000.00000" pt_clust_9="60.87346" pt_clust_10="53.39011"></scales>
<clustering>
<clus scale="   53.390">  2 10  1 -1</clus>
<clus scale="   60.873">  1  9  2 -1</clus>
<clus scale="   80.472">  5  6 -1 -1</clus>
<clus scale="   91.639">  7  8 -1 -1</clus>
<clus scale="  111.661">  2  5  1 -1</clus>
<clus scale="   53.390">  2  5  1 -1</clus>
</clustering>
</event>
<event>
10    3  0.7209067E-005  0.1678553E+03  0.7546771E-02  0.1194477E+00
         -4   -1    0    0    0  501 -0.00000000000E+00  0.00000000000E+00  0.41980812493E+03  0.41980812493E+03  0.00000000000E+00 0.  1.
         21   -1    0    0  501  502  0.00000000000E+00 -0.00000000000E+00 -0.41214870569E+03  0.41214870569E+03  0.00000000000E+00 0.  1.
         23    2    1    2    0    0  0.53226898830E+02  0.60587362757E+02  0.44086220631E+01  0.12241521189E+03  0.91989765015E+02 0.  0.
        -24    2    1    2    0    0 -0.83322989895E+02 -0.17505829464E+03  0.22567659171E+03  0.30836555731E+03  0.81063343889E+02 0.  0.
         11    1    4    4    0    0 -0.32048052886E+01 -0.19967149872E+02  0.75283458906E+02  0.77952274090E+02  0.00000000000E+00 0. -1.
        -12    1    4    4    0    0 -0.80118184607E+02 -0.15509114477E+03  0.15039313280E+03  0.23041328322E+03  0.00000000000E+00 0.  1.
        -11    1    3    3    0    0 -0.18817199717E+02 -0.94873445937E+01 -0.43968034248E+01  0.21527391690E+02  0.00000000000E+00 0.  1.
         11    1    3    3    0    0  0.72044098547E+02  0.70074707351E+02  0.88054254879E+01  0.10088782020E+03  0.00000000000E+00 0. -1.
         21    1    1    2  503  502  0.27455759357E+02 -0.31182159955E+02 -0.24955897244E+03  0.25299372828E+03  0.00000000000E+00 0.  1.
         -3    1    1    2    0  503  0.26403317081E+01  0.14565309183E+03  0.27133177916E+02  0.14818233315E+03  0.00000000000E+00 0.  1.
<scales pt_clust_5="13000.00000" pt_clust_6="13000.00000" pt_clust_7="13000.00000" pt_clust_8="13000.00000" pt_clust_9="41.54691" pt_clust_10="146.98347"></scales>
<clustering>
<clus scale="   41.547">  2  9  1 -1</clus>
<clus scale="   81.063">  5  6 -1 -1</clus>
<clus scale="   91.990">  7  8 -1 -1</clus>
<clus scale="  122.002">  1  7  2 -1</clus>
<clus scale="  146.983">  2 10  1 -1</clus>
<clus scale="   41.547">  2  5  1 -1</clus>
</clustering>
</event>
<event>
10    3  0.7209067E-005  0.1720524E+03  0.7546771E-02  0.1200143E+00
          1   -1    0    0  503    0 -0.00000000000E+00  0.00000000000E+00  0.15309252529E+03  0.15309252529E+03  0.00000000000E+00 0. -1.
         21   -1    0    0  501  502  0.00000000000E+00 -0.00000000000E+00 -0.41246430320E+03  0.41246430320E+03  0.00000000000E+00 0. -1.
         23    2    1    2    0    0 -0.35121854755E+02 -0.11690081754E+02 -0.73143585274E+02  0.12275659326E+03  0.91372832007E+02 0.  0.
        -24    2    1    2    0    0 -0.11367698921E+03  0.30194796142E+02  0.32215883945E+02  0.14605673257E+03  0.80377374676E+02 0.  0.
         13    1    4    4    0    0 -0.11389891636E+03  0.29711746855E+02  0.50269559076E+02  0.12799523280E+03  0.00000000000E+00 0. -1.
        -14    1    4    4    0    0  0.22192714658E+00  0.48304928710E+00 -0.18053675131E+02  0.18061499772E+02  0.00000000000E+00 0.  1.
        -13    1    3    3    0    0  0.85109185237E+01 -0.27521851705E+02 -0.70622414579E+02  0.76271970582E+02  0.00000000000E+00 0. -1.
         13    1    3    3    0    0 -0.43632773279E+02  0.15831769951E+02 -0.25211706942E+01  0.46484622677E+02  0.00000000000E+00 0.  1.
         21    1    1    2  503  502 -0.15318114326E+02 -0.22642324605E+02 -0.55367662671E+01  0.27892208065E+02  0.00000000000E+00 0. -1.
          2    1    1    2  501    0  0.16411695829E+03  0.41376102174E+01 -0.21290731032E+03  0.26885129460E+03  0.00000000000E+00 0. -1.
<scales pt_clust_5="13000.00000" pt_clust_6="13000.00000" pt_clust_7="13000.00000" pt_clust_8="13000.00000" pt_clust_9="27.33714" pt_clust_10="152.12335"></scales>
<clustering>
<clus scale="   27.337">  1  9  2 -1</clus>
<clus scale="   80.377">  5  6 -1 -1</clus>
<clus scale="   91.373">  7  8 -1 -1</clus>
<clus scale="  100.113">  1  7  2 -1</clus>
<clus scale="  152.123">  2 10  1 -1</clus>
<clus scale="  152.123">  2  5  1 -1</clus>
</clustering>
</event>
<event>
10    3  0.7209067E-005  0.2437355E+03  0.7546771E-02  0.1150685E+00
         21   -1    0    0  503  502  0.00000000000E+00  0.00000000000E+00  0.13029118871E+03  0.13029118871E+03  0.00000000000E+00 0. -1.
          1   -1    0    0  502    0 -0.00000000000E+00 -0.00000000000E+00 -0.11633535322E+04  0.11633535322E+04  0.00000000000E+00 0. -1.
         23    2    1    2    0    0 -0.13960268724E+02  0.25261756984E+02 -0.71497461974E+02  0.12414112060E+03  0.97293809085E+02 0.  0.
        -24    2    1    2    0    0  0.94153032735E+01  0.18918745132E+03 -0.61942498987E+03  0.65253460214E+03  0.78952829267E+02 0.  0.
         11    1    4    4    0    0  0.18932866423E+02  0.19329539199E+03 -0.57497794297E+03  0.60689471648E+03  0.00000000000E+00 0. -1.
        -12    1    4    4    0    0 -0.95175631491E+01 -0.41079406736E+01 -0.44447046901E+02  0.45639885660E+02  0.00000000000E+00 0.  1.
        -13    1    3    3    0    0  0.20177706285E+02  0.23658808987E+02 -0.82558531398E+02  0.88220123443E+02  0.00000000000E+00 0.  1.
         13    1    3    3    0    0 -0.34137975009E+02  0.16029479968E+01  0.11061069424E+02  0.35920997157E+02  0.00000000000E+00 0. -1.
         21    1    1    2  503  501 -0.12394683093E+02  0.63351268340E+02  0.12915966597E+02  0.65831858263E+02  0.00000000000E+00 0. -1.
          2    1    1    2  501    0  0.16939648543E+02 -0.27780047664E+03 -0.35505585823E+03  0.45113713988E+03  0.00000000000E+00 0. -1.
<scales pt_clust_5="13000.00000" pt_clust_6="13000.00000" pt_clust_7="13000.00000" pt_clust_8="13000.00000" pt_clust_9="64.55239" pt_clust_10="230.59365"></scales>
<clustering>
<clus scale="   64.552">  1  9  2 -1</clus>
<clus scale="   78.953">  5  6 -1 -1</clus>
<clus scale="   97.294">  7  8 -1 -1</clus>
<clus scale="  108.052">  2  7  1 -1</clus>
<clus scale="  230.594">  1 10  2 -1</clus>
<clus scale="   64.552">  1  5  2 -1</clus>
</clustering>
</event>
<event>
10    3  0.7209067E-005  0.2181565E+03  0.7546771E-02  0.1149046E+00
         21   -1    0    0  503  502  0.00000000000E+00  0.00000000000E+00  0.55228618312E+02  0.55228618312E+02  0.00000000000E+00 0. -1.
          1   -1    0    0  502    0 -0.00000000000E+00 -0.00000000000E+00 -0.19472298102E+04  0.19472298102E+04  0.00000000000E+00 0. -1.
         23    2    1    2    0    0 -0.13418132406E+03  0.98820512754E+01 -0.32039607490E+03  0.35832569132E+03  0.87414950585E+02 0.  0.
        -24    2    1    2    0    0  0.17402431218E+03  0.17859985663E+03 -0.82710386299E+03  0.86752717207E+03  0.79499837003E+02 0.  0.
         11    1    4    4    0    0  0.11637293104E+03  0.16294601854E+03 -0.67638062102E+03  0.70539691559E+03  0.00000000000E+00 0. -1.
        -12    1    4    4    0    0  0.57651381137E+02  0.15653838083E+02 -0.15072324198E+03  0.16213025648E+03  0.00000000000E+00 0.  1.
        -11    1    3    3    0    0 -0.10933110229E+03 -0.42863453164E+01 -0.15067711607E+03  0.18621293186E+03  0.00000000000E+00 0. -1.
         11    1    3    3    0    0 -0.24850221772E+02  0.14168396592E+02 -0.16971895883E+03  0.17211275946E+03  0.00000000000E+00 0.  1.
         21    1    1    2  503  501  0.10919604197E+02 -0.22343813424E+02 -0.21028074770E+02  0.32567832023E+02  0.00000000000E+00 0. -1.
          2    1    1    2  501    0 -0.50762592316E+02 -0.16613809448E+03 -0.72347317925E+03  0.74403773312E+03  0.00000000000E+00 0. -1.
<scales pt_clust_5="13000.00000" pt_clust_6="13000.00000" pt_clust_7="13000.00000" pt_clust_8="13000.00000" pt_clust_9="24.86933" pt_clust_10="203.15525"></scales>
<clustering>
<clus scale="   24.869">  1  9  2 -1</clus>
<clus scale="   79.500">  5  6 -1 -1</clus>
<clus scale="   87.415">  7  8 -1 -1</clus>
<clus scale="  156.658">  2  7  1 -1</clus>
<clus scale="  203.155">  1 10  2 -1</clus>
<clus scale="   24.869">  1  5  2 -1</clus>
</clustering>
</event>
<event>
10    3  0.7209067E-005  0.2128940E+03  0.7546771E-02  0.1140098E+00
         21   -1    0    0  503  502  0.00000000000E+00  0.00000000000E+00  0.50005740811E+03  0.50005740811E+03  0.00000000000E+00 0.  1.
         -2   -1    0    0    0  501 -0.00000000000E+00 -0.00000000000E+00 -0.21416479989E+03  0.21416479989E+03  0.00000000000E+00 0.  1.
         23    2    1    2    0    0 -0.10867276579E+03  0.11168551069E+03  0.12146960103E+03  0.21765436575E+03  0.91296963987E+02 0.  0.
        -24    2    1    2    0    0  0.20232459487E+03 -0.12164955945E+03  0.10500434917E+03  0.27087202779E+03  0.81313498797E+02 0.  0.
         11    1    4    4    0    0  0.11355116776E+02 -0.38435741815E+02  0.71079069083E+01  0.40703406080E+02  0.00000000000E+00 0. -1.
        -12    1    4    4    0    0  0.19096947810E+03 -0.83213817637E+02  0.97896442259E+02  0.23016862171E+03  0.00000000000E+00 0.  1.
        -11    1    3    3    0    0 -0.85627893529E+02  0.12132565760E+03  0.12271669256E+03  0.19264329206E+03  0.00000000000E+00 0.  1.
         11    1    3    3    0    0 -0.23044872264E+02 -0.96401469045E+01 -0.12470915352E+01  0.25011073693E+02  0.00000000000E+00 0. -1.
         21    1    1    2  503  501  0.56434513395E+01 -0.38787626070E+02  0.10036165606E+03  0.10774409722E+03  0.00000000000E+00 0.  1.
         -1    1    1    2    0  502 -0.99295280421E+02  0.48751674831E+02 -0.40942998029E+02  0.11795171724E+03  0.00000000000E+00 0.  1.
<scales pt_clust_5="13000.00000" pt_clust_6="13000.00000" pt_clust_7="13000.00000" pt_clust_8="13000.00000" pt_clust_9="39.19603" pt_clust_10="108.50861"></scales>
<clustering>
<clus scale="   39.196">  1  9  2 -1</clus>
<clus scale="   81.313">  5  6 -1 -1</clus>
<clus scale="   91.297">  7  8 -1 -1</clus>
<clus scale="  108.509">  1 10  2 -1</clus>
<clus scale="  208.808">  1  5  2 -1</clus>
<clus scale="   39.196">  1  5  2 -1</clus>
</clustering>
</event>
<event>
10    3  0.7209067E-005  0.1058251E+03  0.7546771E-02  0.1271466E+00
         21   -1    0    0  503  502  0.00000000000E+00  0.00000000000E+00  0.21297892839E+03  0.21297892839E+03  0.00000000000E+00 0. -1.
          1   -1    0    0  502    0 -0.00000000000E+00 -0.00000000000E+00 -0.35674087802E+03  0.35674087802E+03  0.00000000000E+00 0. -1.
        -24    2    1    2    0    0 -0.28804079562E+02  0.44013081059E+02 -0.16239035855E+03  0.18824335662E+03  0.79360610237E+02 0.  0.
         23    2    1    2    0    0  0.10469386723E+03 -0.58276230046E+02  0.78067996445E+01  0.14808391360E+03  0.86665878655E+02 0.  0.
         11    1    3    3    0    0  0.21316438248E+02  0.30561947664E+02 -0.36874692796E+02  0.52422954451E+02  0.00000000000E+00 0. -1.
        -12    1    3    3    0    0 -0.50120517810E+02  0.13451133395E+02 -0.12551566575E+03  0.13582040217E+03  0.00000000000E+00 0.  1.
        -11    1    4    4    0    0  0.61042193848E+02  0.39212988432E+01  0.31082312962E+02  0.68612216066E+02  0.00000000000E+00 0. -1.
         11    1    4    4    0    0  0.43651673379E+02 -0.62197528889E+02 -0.23275513318E+02  0.79471697533E+02  0.00000000000E+00 0.  1.
         21    1    1    2  503  501  0.18126667650E+02  0.37937026515E+02  0.95704825153E+02  0.10453328474E+03  0.00000000000E+00 0. -1.
          2    1    1    2  501    0 -0.94016455315E+02 -0.23673877528E+02 -0.84883215880E+02  0.12885925145E+03  0.00000000000E+00 0. -1.
<scales pt_clust_5="13000.00000" pt_clust_6="13000.00000" pt_clust_7="13000.00000" pt_clust_8="13000.00000" pt_clust_9="42.04514" pt_clust_10="91.93833"></scales>
<clustering>
<clus scale="   42.045">  1  9  2 -1</clus>
<clus scale="   79.361">  5  6 -1 -1</clus>
<clus scale="   86.666">  7  8 -1 -1</clus>
<clus scale="   91.938">  1 10  2 -1</clus>
<clus scale="   99.930">  2  5  1 -1</clus>
<clus scale="   42.045">  1  5  2 -1</clus>
</clustering>
</event>
<event>
10    3  0.7209067E-005  0.1587199E+03  0.7546771E-02  0.1207552E+00
          3   -1    0    0  502    0 -0.00000000000E+00  0.00000000000E+00  0.71781124828E+03  0.71781124828E+03  0.00000000000E+00 0. -1.
         21   -1    0    0  503  502  0.00000000000E+00 -0.00000000000E+00 -0.90205325928E+02  0.90205325928E+02  0.00000000000E+00 0. -1.
         23    2    1    2    0    0 -0.18609393753E+02  0.56277921453E+02  0.44650925499E+03  0.45954559711E+03  0.91094056116E+02 0.  0.
        -24    2    1    2    0    0  0.12441768292E+03  0.21744647847E+02  0.10519614116E+03  0.19073812046E+03  0.96758529078E+02 0.  0.
         13    1    4    4    0    0  0.79224995855E+02  0.45615480819E+02  0.10553870854E+03  0.13962732920E+03  0.00000000000E+00 0. -1.
        -14    1    4    4    0    0  0.45192687067E+02 -0.23870832973E+02 -0.34256738257E+00  0.51110791263E+02  0.00000000000E+00 0.  1.
        -11    1    3    3    0    0 -0.20823288772E+02  0.80643114245E+02  0.36824705660E+03  0.37754842858E+03  0.00000000000E+00 0. -1.
         11    1    3    3    0    0  0.22138950185E+01 -0.24365192793E+02  0.78262198387E+02  0.81997168533E+02  0.00000000000E+00 0.  1.
         21    1    1    2  503  501 -0.18622805408E+02 -0.26442885725E+02  0.21199188016E+01  0.32411867309E+02  0.00000000000E+00 0. -1.
          4    1    1    2  501    0 -0.87185483761E+02 -0.51579683575E+02  0.73780607405E+02  0.12532098932E+03  0.00000000000E+00 0. -1.
<scales pt_clust_5="13000.00000" pt_clust_6="13000.00000" pt_clust_7="13000.00000" pt_clust_8="13000.00000" pt_clust_9="24.21026" pt_clust_10="132.91212"></scales>
<clustering>
<clus scale="   24.210">  9 10 -1 -1</clus>
<clus scale="   91.094">  7  8 -1 -1</clus>
<clus scale="   96.759">  5  6 -1 -1</clus>
<clus scale="  108.681">  1  7  2 -1</clus>
<clus scale="  132.912">  2  9  1 -1</clus>
<clus scale="  132.912">  2  5  1 -1</clus>
</clustering>
</event>
<event>
10    3  0.7209067E-005  0.1174551E+03  0.7546771E-02  0.1248116E+00
         21   -1    0    0  503  502  0.00000000000E+00  0.00000000000E+00  0.81598057016E+03  0.81598057016E+03  0.00000000000E+00 0. -1.
         -2   -1    0    0    0  501 -0.00000000000E+00 -0.00000000000E+00 -0.44209303464E+02  0.44209303464E+02  0.00000000000E+00 0.  1.
         23    2    1    2    0    0 -0.45816226623E+02  0.13820218156E+02  0.96325281374E+02  0.14908636780E+03  0.10323788152E+03 0.  0.
        -24    2    1    2    0    0  0.58277235656E+02 -0.49666296288E+02  0.54815832233E+03  0.56339444079E+03  0.10522724167E+03 0.  0.
         11    1    4    4    0    0  0.78659679435E+02 -0.66408965259E+02  0.45979167402E+03  0.47117499863E+03  0.00000000000E+00 0. -1.
        -12    1    4    4    0    0 -0.20382443780E+02  0.16742668971E+02  0.88366648311E+02  0.92219442160E+02  0.00000000000E+00 0.  1.
        -13    1    3    3    0    0 -0.65483226603E+02  0.26204234395E+02  0.10306432128E+03  0.12488782642E+03  0.00000000000E+00 0.  1.
         13    1    3    3    0    0  0.19666999980E+02 -0.12384016239E+02 -0.67390399040E+01  0.24198541386E+02  0.00000000000E+00 0. -1.
         21    1    1    2  503  501 -0.21944619157E+02 -0.26857956208E+01  0.91959520500E+02  0.94579771720E+02  0.00000000000E+00 0. -1.
         -1    1    1    2    0  502  0.94836101247E+01  0.38531873753E+02  0.35328142492E+02  0.53129293313E+02  0.00000000000E+00 0.  1.
<scales pt_clust_5="13000.00000" pt_clust_6="13000.00000" pt_clust_7="13000.00000" pt_clust_8="13000.00000" pt_clust_9="22.10837" pt_clust_10="39.22164"></scales>
<clustering>
<clus scale="   22.108">  1  9  2 -1</clus>
<clus scale="   39.222">  1 10  2 -1</clus>
<clus scale="  103.238">  7  8 -1 -1</clus>
<clus scale="  105.227">  5  6 -1 -1</clus>
<clus scale="  115.676">  2  7  1 -1</clus>
<clus scale="   22.108">  1  5  2 -1</clus>
</clustering>
</event>
<event>
10    3  0.7209067E-005  0.9858784E+02  0.7546771E-02  0.1288201E+00
         21   -1    0    0  503  502  0.00000000000E+00  0.00000000000E+00  0.25416526881E+03  0.25416526881E+03  0.00000000000E+00 0. -1.
         -2   -1    0    0    0  501 -0.00000000000E+00 -0.00000000000E+00 -0.74202951929E+02  0.74202951929E+02  0.00000000000E+00 0.  1.
        -24    2    1    2    0    0  0.28089745856E+02  0.26232063009E+02  0.52559167556E+02  0.10281539064E+03  0.79569991242E+02 0.  0.
         23    2    1    2    0    0 -0.47279599814E+02 -0.13764047537E+02  0.84057295345E+02  0.13215145911E+03  0.89294846890E+02 0.  0.
         11    1    3    3    0    0 -0.12315800337E+02  0.40432375938E+02  0.12261050938E+02  0.44008968768E+02  0.00000000000E+00 0. -1.
        -12    1    3    3    0    0  0.40405546193E+02 -0.14200312928E+02  0.40298116618E+02  0.58806421872E+02  0.00000000000E+00 0.  1.
        -13    1    4    4    0    0 -0.73449694110E+02 -0.25354930799E+01  0.60928500895E+02  0.95465011975E+02  0.00000000000E+00 0. -1.
         13    1    4    4    0    0  0.26170094297E+02 -0.11228554457E+02  0.23128794450E+02  0.36686447135E+02  0.00000000000E+00 0.  1.
         21    1    1    2  503  501 -0.28150947314E+02 -0.66997660486E+01  0.34272582466E+02  0.44855017653E+02  0.00000000000E+00 0. -1.
         -1    1    1    2    0  502  0.47340801272E+02 -0.57682494241E+01  0.90732715169E+01  0.48546353339E+02  0.00000000000E+00 0.  1.
<scales pt_clust_5="13000.00000" pt_clust_6="13000.00000" pt_clust_7="13000.00000" pt_clust_8="13000.00000" pt_clust_9="28.93722" pt_clust_10="44.06895"></scales>
<clustering>
<clus scale="   28.937">  1  9  2 -1</clus>
<clus scale="   44.069">  1 10  2 -1</clus>
<clus scale="   79.570">  5  6 -1 -1</clus>
<clus scale="   89.295">  7  8 -1 -1</clus>
<clus scale="   89.874">  2  5  1 -1</clus>
<clus scale="   28.937">  1  5  2 -1</clus>
</clustering>
</event>
<event>
10    3  0.7209067E-005  0.2475761E+03  0.7546771E-02  0.1150098E+00
          1   -1    0    0  502    0 -0.00000000000E+00  0.00000000000E+00  0.75053148013E+03  0.75053148013E+03  0.00000000000E+00 0. -1.
         21   -1    0    0  503  502  0.00000000000E+00 -0.00000000000E+00 -0.14362349657E+03  0.14362349657E+03  0.00000000000E+00 0. -1.
         23    2    1    2    0    0 -0.27289737255E+02  0.45059461884E+02  0.18864313837E+03  0.21611478307E+03  0.91347035762E+02 0.  0.
        -24    2    1    2    0    0  0.79772210338E+02  0.21106368932E+03  0.27986700120E+03  0.36836540645E+03  0.80349535278E+02 0.  0.
         11    1    4    4    0    0  0.56309665752E+02  0.46268201429E+02  0.78773840329E+02  0.10731655436E+03  0.00000000000E+00 0. -1.
        -12    1    4    4    0    0  0.23462544586E+02  0.16479548789E+03  0.20109316087E+03  0.26104885209E+03  0.00000000000E+00 0.  1.
        -13    1    3    3    0    0 -0.87838347132E+01 -0.28323673799E+02  0.48689584562E+02  0.57009314103E+02  0.00000000000E+00 0.  1.
         13    1    3    3    0    0 -0.18505902542E+02  0.73383135682E+02  0.13995355381E+03  0.15910546897E+03  0.00000000000E+00 0. -1.
         21    1    1    2  503  501 -0.71599281397E+01 -0.23921802385E+02 -0.13637649313E+02  0.28451760562E+02  0.00000000000E+00 0.  1.
          2    1    1    2  501    0 -0.45322544944E+02 -0.23220134882E+03  0.15203549330E+03  0.28122302661E+03  0.00000000000E+00 0. -1.
<scales pt_clust_5="13000.00000" pt_clust_6="13000.00000" pt_clust_7="13000.00000" pt_clust_8="13000.00000" pt_clust_9="24.97033" pt_clust_10="234.17485"></scales>
<clustering>
<clus scale="   24.970">  2  9  1 -1</clus>
<clus scale="   80.350">  5  6 -1 -1</clus>
<clus scale="   91.347">  7  8 -1 -1</clus>
<clus scale="  104.544">  1  7  2 -1</clus>
<clus scale="  234.175">  2 10  1 -1</clus>
<clus scale="   24.970">  2  5  1 -1</clus>
</clustering>
</event>
<event>
10    3  0.7209067E-005  0.1389306E+03  0.7546771E-02  0.1234712E+00
          1   -1    0    0  503    0 -0.00000000000E+00  0.00000000000E+00  0.55450925548E+03  0.55450925548E+03  0.00000000000E+00 0. -1.
         21   -1    0    0  501  502  0.00000000000E+00 -0.00000000000E+00 -0.87579353073E+02  0.87579353073E+02  0.00000000000E+00 0. -1.
         23    2    1    2    0    0 -0.60019693036E+01  0.64221242289E+01  0.20924718841E+03  0.22833280279E+03  0.90962715749E+02 0.  0.
        -24    2    1    2    0    0 -0.95185688166E+02 -0.28327365348E+02  0.95016381497E+02  0.15878053452E+03  0.79500883843E+02 0.  0.
         11    1    4    4    0    0 -0.61343860569E+02 -0.58763294389E+01  0.72199231070E+01  0.62046174474E+02  0.00000000000E+00 0. -1.
        -12    1    4    4    0    0 -0.33841827597E+02 -0.22451035910E+02  0.87796458390E+02  0.96734360051E+02  0.00000000000E+00 0.  1.
        -13    1    3    3    0    0  0.24132387613E+02 -0.33491955816E+02  0.99784480661E+02  0.10798622976E+03  0.00000000000E+00 0.  1.
         13    1    3    3    0    0 -0.30134356916E+02  0.39914080045E+02  0.10946270775E+03  0.12034657303E+03  0.00000000000E+00 0. -1.
         21    1    1    2  503  502 -0.22594542459E+02  0.20784353510E+01 -0.22114266061E+02  0.31683970804E+02  0.00000000000E+00 0. -1.
          2    1    1    2  501    0  0.12378219993E+03  0.19826805769E+02  0.18478059856E+03  0.22329130043E+03  0.00000000000E+00 0. -1.
<scales pt_clust_5="13000.00000" pt_clust_6="13000.00000" pt_clust_7="13000.00000" pt_clust_8="13000.00000" pt_clust_9="22.68994" pt_clust_10="113.93571"></scales>
<clustering>
<clus scale="   22.690">  2  9  1 -1</clus>
<clus scale="   79.501">  5  6 -1 -1</clus>
<clus scale="   90.963">  7  8 -1 -1</clus>
<clus scale="   91.712">  1  7  2 -1</clus>
<clus scale="  113.936">  2 10  1 -1</clus>
<clus scale="   22.690">  2  5  1 -1</clus>
</clustering>
</event>
<event>
10    3  0.7209067E-005  0.1510878E+03  0.7546771E-02  0.1213931E+00
         21   -1    0    0  501  502  0.00000000000E+00  0.00000000000E+00  0.13096446981E+03  0.13096446981E+03  0.00000000000E+00 0. -1.
          1   -1    0    0  503    0 -0.00000000000E+00 -0.00000000000E+00 -0.38638383279E+03  0.38638383279E+03  0.00000000000E+00 0. -1.
        -24    2    1    2    0    0 -0.33147474769E+02  0.77779452015E+02 -0.16155288703E+03  0.20016254883E+03  0.82567017674E+02 0.  0.
         23    2    1    2    0    0 -0.96076997730E+02 -0.82111781938E+02 -0.44918289097E+02  0.16248756403E+03  0.91713802366E+02 0.  0.
         13    1    3    3    0    0 -0.62448922716E+01  0.67265585543E+02 -0.47687352072E+02  0.82690635658E+02  0.00000000000E+00 0. -1.
        -14    1    3    3    0    0 -0.26902582498E+02  0.10513866472E+02 -0.11386553496E+03  0.11747191317E+03  0.00000000000E+00 0.  1.
        -13    1    4    4    0    0 -0.10360690333E+03 -0.45477936239E+02 -0.14095479100E+02  0.11402331179E+03  0.00000000000E+00 0. -1.
         13    1    4    4    0    0  0.75299055969E+01 -0.36633845699E+02 -0.30822809997E+02  0.48464252239E+02  0.00000000000E+00 0.  1.
         21    1    1    2  503  502  0.10343912613E+02 -0.21703111562E+02 -0.15061685329E+02  0.28370335644E+02  0.00000000000E+00 0.  1.
          2    1    1    2  501    0  0.11888055989E+03  0.26035441485E+02 -0.33886501525E+02  0.12632785409E+03  0.00000000000E+00 0. -1.
<scales pt_clust_5="13000.00000" pt_clust_6="13000.00000" pt_clust_7="13000.00000" pt_clust_8="13000.00000" pt_clust_9="24.04208" pt_clust_10="120.06712"></scales>
<clustering>
<clus scale="   24.042">  2  9  1 -1</clus>
<clus scale="   82.567">  5  6 -1 -1</clus>
<clus scale="   91.714">  7  8 -1 -1</clus>
<clus scale="  109.970">  2  5  1 -1</clus>
<clus scale="  120.067">  1 10  2 -1</clus>
<clus scale="  120.067">  1  5  2 -1</clus>
</clustering>
</event>
<event>
10    3  0.7209067E-005  0.5134977E+03  0.7546771E-02  0.1010315E+00
         21   -1    0    0  501  502  0.00000000000E+00  0.00000000000E+00  0.33603303989E+03  0.33603303989E+03  0.00000000000E+00 0. -1.
          1   -1    0    0  503    0 -0.00000000000E+00 -0.00000000000E+00 -0.11976976415E+04  0.11976976415E+04  0.00000000000E+00 0. -1.
        -24    2    1    2    0    0 -0.65432394769E+02  0.15825528461E+03 -0.21508014269E+03  0.28695314465E+03  0.82197968682E+02 0.  0.
         23    2    1    2    0    0  0.94736223974E+02  0.27130586574E+03 -0.57862202753E+03  0.65143993696E+03  0.83598539503E+02 0.  0.
         13    1    3    3    0    0 -0.78565383277E+02  0.12343001405E+03 -0.13693113119E+03  0.20039366883E+03  0.00000000000E+00 0. -1.
        -14    1    3    3    0    0  0.13132988508E+02  0.34825270558E+02 -0.78149011500E+02  0.86559475824E+02  0.00000000000E+00 0.  1.
        -11    1    4    4    0    0  0.48422832081E+02  0.23621771498E+03 -0.46153179337E+03  0.52072562433E+03  0.00000000000E+00 0. -1.
         11    1    4    4    0    0  0.46313391893E+02  0.35088150761E+02 -0.11709023416E+03  0.13071431263E+03  0.00000000000E+00 0.  1.
         21    1    1    2  503  502 -0.81507804821E+02 -0.49050679878E+03 -0.11769732849E+02  0.49737206245E+03  0.00000000000E+00 0. -1.
          2    1    1    2  501    0  0.52203975616E+02  0.60945648426E+02 -0.56192698527E+02  0.97965537307E+02  0.00000000000E+00 0. -1.
<scales pt_clust_5="13000.00000" pt_clust_6="13000.00000" pt_clust_7="13000.00000" pt_clust_8="13000.00000" pt_clust_9="445.46940" pt_clust_10="80.24733"></scales>
<clustering>
<clus scale="   80.247">  1 10  2 -1</clus>
<clus scale="   82.198">  5  6 -1 -1</clus>
<clus scale="   83.599">  7  8 -1 -1</clus>
<clus scale="  165.043">  5  7 -1 -1</clus>
<clus scale="  445.469">  1  9  2 -1</clus>
<clus scale="   80.247">  1  5  2 -1</clus>
</clustering>
</event>
<event>
10    3  0.7209067E-005  0.1020653E+03  0.7546771E-02  0.1282226E+00
         21   -1    0    0  501  502  0.00000000000E+00  0.00000000000E+00  0.11142733279E+03  0.11142733279E+03  0.00000000000E+00 0.  1.
         -2   -1    0    0    0  501 -0.00000000000E+00 -0.00000000000E+00 -0.32756471393E+03  0.32756471393E+03  0.00000000000E+00 0.  1.
         23    2    1    2    0    0 -0.17053610421E+02  0.41593525382E+02 -0.16574927830E+03  0.19369364079E+03  0.89574305720E+02 0.  0.
        -24    2    1    2    0    0 -0.21163762145E+02 -0.60658116471E+02 -0.87103727379E+02  0.13244283724E+03  0.76333045864E+02 0.  0.
         13    1    4    4    0    0  0.26597573154E+02 -0.38262410782E+02 -0.46934243458E+02  0.66138235428E+02  0.00000000000E+00 0. -1.
        -14    1    4    4    0    0 -0.47761335300E+02 -0.22395705689E+02 -0.40169483921E+02  0.66304601812E+02  0.00000000000E+00 0.  1.
        -11    1    3    3    0    0 -0.40180529224E+02  0.45162974195E+02 -0.15779554590E+03  0.16897811536E+03  0.00000000000E+00 0.  1.
         11    1    3    3    0    0  0.23126918802E+02 -0.35694488132E+01 -0.79537324000E+01  0.24715525429E+02  0.00000000000E+00 0. -1.
         21    1    1    2  503  502  0.27977735263E+01  0.21176856266E+02  0.64400360816E+02  0.67850521378E+02  0.00000000000E+00 0.  1.
         -1    1    1    2    0  503  0.35419599040E+02 -0.21122651765E+01 -0.27684736286E+02  0.45005047312E+02  0.00000000000E+00 0.  1.
<scales pt_clust_5="13000.00000" pt_clust_6="13000.00000" pt_clust_7="13000.00000" pt_clust_8="13000.00000" pt_clust_9="21.36087" pt_clust_10="36.00652"></scales>
<clustering>
<clus scale="   21.361">  1  9  2 -1</clus>
<clus scale="   36.007">  1 10  2 -1</clus>
<clus scale="   76.333">  5  6 -1 -1</clus>
<clus scale="   89.574">  7  8 -1 -1</clus>
<clus scale="   90.667">  1  5  2 -1</clus>
<clus scale="   21.361">  1  5  2 -1</clus>
</clustering>
</event>
<event>
10    3  0.7209067E-005  0.2296793E+03  0.7546771E-02  0.1140746E+00
         21   -1    0    0  501  502  0.00000000000E+00  0.00000000000E+00  0.23646458072E+03  0.23646458072E+03  0.00000000000E+00 0. -1.
          1   -1    0    0  503    0 -0.00000000000E+00 -0.00000000000E+00 -0.69655473261E+03  0.69655473261E+03  0.00000000000E+00 0. -1.
        -24    2    1    2    0    0 -0.11489781567E+03 -0.91132046451E+02 -0.15815284058E+03  0.23032792302E+03  0.80821242283E+02 0.  0.
         23    2    1    2    0    0  0.26662062770E+03  0.39379400553E+02 -0.28141813012E+03  0.40032371165E+03  0.91791142506E+02 0.  0.
         13    1    3    3    0    0 -0.87307725964E+02 -0.88275782141E+02 -0.16000783909E+03  0.20252842096E+03  0.00000000000E+00 0. -1.
        -14    1    3    3    0    0 -0.27590089703E+02 -0.28562643103E+01  0.18549985062E+01  0.27799502066E+02  0.00000000000E+00 0.  1.
        -11    1    4    4    0    0  0.18047953443E+03  0.51576364224E+02 -0.23793763850E+03  0.30306320052E+03  0.00000000000E+00 0. -1.
         11    1    4    4    0    0  0.86141093277E+02 -0.12196963672E+02 -0.43480491621E+02  0.97260511131E+02  0.00000000000E+00 0.  1.
         21    1    1    2  503  502  0.58184244863E+02 -0.33238578049E+02  0.24736939501E+02  0.71429164890E+02  0.00000000000E+00 0. -1.
          2    1    1    2  501    0 -0.20990705690E+03  0.84991223947E+02 -0.45256120684E+02  0.23093851377E+03  0.00000000000E+00 0. -1.
<scales pt_clust_5="13000.00000" pt_clust_6="13000.00000" pt_clust_7="13000.00000" pt_clust_8="13000.00000" pt_clust_9="67.00902" pt_clust_10="210.53972"></scales>
<clustering>
<clus scale="   67.009">  1  9  2 -1</clus>
<clus scale="   80.821">  5  6 -1 -1</clus>
<clus scale="   91.791">  7  8 -1 -1</clus>
<clus scale="  163.715">  2  5  1 -1</clus>
<clus scale="  210.540">  1 10  2 -1</clus>
<clus scale="   67.009">  1  5  2 -1</clus>
</clustering>
</event>
<event>
10    3  0.7209067E-005  0.3477396E+03  0.7546771E-02  0.1087857E+00
          1   -1    0    0  503    0 -0.00000000000E+00  0.00000000000E+00  0.27991978779E+04  0.27991978779E+04  0.00000000000E+00 0. -1.
         21   -1    0    0  501  502  0.00000000000E+00 -0.00000000000E+00 -0.88927617793E+02  0.88927617793E+02  0.00000000000E+00 0. -1.
        -24    2    1    2    0    0  0.15803813302E+03  0.16805669262E+01  0.24040723129E+03  0.29609066625E+03  0.69965491416E+02 0.  0.
         23    2    1    2    0    0 -0.13367677840E+03 -0.34088030368E+03  0.89963508073E+03  0.97599915149E+03  0.95719395607E+02 0.  0.
         11    1    3    3    0    0  0.15540750355E+03 -0.77833548410E+01  0.19418918660E+03  0.24884033629E+03  0.00000000000E+00 0. -1.
        -12    1    3    3    0    0  0.26306294754E+01  0.94639217672E+01  0.46218044684E+02  0.47250329957E+02  0.00000000000E+00 0.  1.
        -13    1    4    4    0    0 -0.13508597842E+03 -0.24807538792E+03  0.72790903602E+03  0.78079522563E+03  0.00000000000E+00 0. -1.
         13    1    4    4    0    0  0.14092000186E+01 -0.92804915768E+02  0.17172604472E+03  0.19520392586E+03  0.00000000000E+00 0.  1.
         21    1    1    2  503  502  0.21428529815E+02  0.21028439715E+02  0.29351396499E+02  0.41986684119E+02  0.00000000000E+00 0. -1.
          2    1    1    2  501    0 -0.45789884439E+02  0.31817129704E+03  0.15408765515E+04  0.15740489938E+04  0.00000000000E+00 0. -1.
<scales pt_clust_5="13000.00000" pt_clust_6="13000.00000" pt_clust_7="13000.00000" pt_clust_8="13000.00000" pt_clust_9="30.02294" pt_clust_10="334.30632"></scales>
<clustering>
<clus scale="   30.023">  2  9  1 -1</clus>
<clus scale="   69.965">  5  6 -1 -1</clus>
<clus scale="   95.719">  7  8 -1 -1</clus>
<clus scale="  179.675">  1  5  2 -1</clus>
<clus scale="  334.306">  2 10  1 -1</clus>
<clus scale="   30.023">  2  5  1 -1</clus>
</clustering>
</event>
<event>
10    3  0.7209067E-005  0.1903473E+03  0.7546771E-02  0.1188841E+00
         21   -1    0    0  501  502  0.00000000000E+00  0.00000000000E+00  0.44395027356E+03  0.44395027356E+03  0.00000000000E+00 0.  1.
         -2   -1    0    0    0  501 -0.00000000000E+00 -0.00000000000E+00 -0.14110648613E+03  0.14110648613E+03  0.00000000000E+00 0.  1.
        -24    2    1    2    0    0 -0.53010431767E+02 -0.31075787746E+02  0.88609833560E+02  0.13207361570E+03  0.76262224601E+02 0.  0.
         23    2    1    2    0    0  0.17183669815E+03  0.38496679952E+02  0.20421740926E+03  0.28464314901E+03  0.91143440993E+02 0.  0.
         11    1    3    3    0    0 -0.25818084126E+02  0.17284497114E+02  0.64474703315E+02  0.71570347742E+02  0.00000000000E+00 0. -1.
        -12    1    3    3    0    0 -0.27192347641E+02 -0.48360284860E+02  0.24135130245E+02  0.60503267960E+02  0.00000000000E+00 0.  1.
        -13    1    4    4    0    0  0.97985470188E+02  0.29634713744E+02  0.17881487318E+03  0.20604399408E+03  0.00000000000E+00 0.  1.
         13    1    4    4    0    0  0.73851227962E+02  0.88619662083E+01  0.25402536082E+02  0.78599154931E+02  0.00000000000E+00 0. -1.
         21    1    1    2  503  502  0.18933117617E+02  0.72576622318E+01  0.21218126931E+02  0.29348688458E+02  0.00000000000E+00 0.  1.
         -1    1    1    2    0  503 -0.13775938400E+03 -0.14678554438E+02 -0.11201582331E+02  0.13899130652E+03  0.00000000000E+00 0.  1.
<scales pt_clust_5="13000.00000" pt_clust_6="13000.00000" pt_clust_7="13000.00000" pt_clust_8="13000.00000" pt_clust_9="20.27650" pt_clust_10="167.10774"></scales>
<clustering>
<clus scale="   20.277">  1  9  2 -1</clus>
<clus scale="   76.262">  5  6 -1 -1</clus>
<clus scale="   91.143">  7  8 -1 -1</clus>
<clus scale="   94.723">  2  5  1 -1</clus>
<clus scale="  167.108">  1 10  2 -1</clus>
<clus scale="   20.277">  1  5  2 -1</clus>
</clustering>
</event>
<event>
10    3  0.7209067E-005  0.1308478E+03  0.7546771E-02  0.1241172E+00
         21   -1    0    0  503  502  0.00000000000E+00  0.00000000000E+00  0.59968288782E+03  0.59968288782E+03  0.00000000000E+00 0. -1.
         -2   -1    0    0    0  501 -0.00000000000E+00 -0.00000000000E+00 -0.92782777657E+02  0.92782777657E+02  0.00000000000E+00 0.  1.
         23    2    1    2    0    0 -0.27156487937E+02  0.16727594950E+02  0.66678097601E+02  0.11708057541E+03  0.90799808199E+02 0.  0.
        -24    2    1    2    0    0  0.56304821984E+02 -0.73063815459E+02  0.20696148567E+03  0.23991175195E+03  0.78841854793E+02 0.  0.
         13    1    4    4    0    0  0.65645651841E+02 -0.23235069829E+02  0.10422775182E+03  0.12535008705E+03  0.00000000000E+00 0. -1.
        -14    1    4    4    0    0 -0.93408298570E+01 -0.49828745630E+02  0.10273373385E+03  0.11456166490E+03  0.00000000000E+00 0.  1.
        -13    1    3    3    0    0 -0.44070394266E+02  0.37264599516E+02  0.69485256543E+02  0.90327464841E+02  0.00000000000E+00 0. -1.
         13    1    3    3    0    0  0.16913906329E+02 -0.20537004566E+02 -0.28071589413E+01  0.26753110570E+02  0.00000000000E+00 0.  1.
         21    1    1    2  503  501 -0.75957506977E+02 -0.62322904849E+02  0.16170795228E+03  0.18921720103E+03  0.00000000000E+00 0. -1.
         -1    1    1    2    0  502  0.46809172930E+02  0.11865912536E+03  0.71552574617E+02  0.14625613709E+03  0.00000000000E+00 0.  1.
<scales pt_clust_5="13000.00000" pt_clust_6="13000.00000" pt_clust_7="13000.00000" pt_clust_8="13000.00000" pt_clust_9="100.55403" pt_clust_10="104.42754"></scales>
<clustering>
<clus scale="   78.842">  5  6 -1 -1</clus>
<clus scale="   90.800">  7  8 -1 -1</clus>
<clus scale="   96.239">  2  7  1 -1</clus>
<clus scale="  100.554">  1  9  2 -1</clus>
<clus scale="  104.428">  1 10  2 -1</clus>
<clus scale="  100.554">  1  5  2 -1</clus>
</clustering>
</event>
<event>
10    3  0.7209067E-005  0.1647752E+03  0.7546771E-02  0.1207500E+00
         21   -1    0    0  501  502  0.00000000000E+00  0.00000000000E+00  0.12044876054E+03  0.12044876054E+03  0.00000000000E+00 0. -1.
          1   -1    0    0  503    0 -0.00000000000E+00 -0.00000000000E+00 -0.12658383412E+04  0.12658383412E+04  0.00000000000E+00 0. -1.
        -24    2    1    2    0    0 -0.10098068239E+03  0.10577856715E+03 -0.10639167394E+04  0.10769333634E+04  0.80501163036E+02 0.  0.
         23    2    1    2    0    0  0.37731530686E+02 -0.72307057985E+01 -0.80978415572E+02  0.12839819605E+03  0.91938248008E+02 0.  0.
         13    1    3    3    0    0 -0.82248787220E+02  0.11704379829E+03 -0.85602858827E+03  0.86789922090E+03  0.00000000000E+00 0. -1.
        -14    1    3    3    0    0 -0.18731895170E+02 -0.11265231132E+02 -0.20788815116E+03  0.20903414248E+03  0.00000000000E+00 0.  1.
        -11    1    4    4    0    0  0.53005348034E+02 -0.30454227845E+02 -0.79870657250E+02  0.10058006166E+03  0.00000000000E+00 0.  1.
         11    1    4    4    0    0 -0.15273817348E+02  0.23223522047E+02 -0.11077583215E+01  0.27818134393E+02  0.00000000000E+00 0. -1.
         21    1    1    2  503  502  0.87309292207E+02 -0.91398219494E+02 -0.41363418844E+02  0.13299428353E+03  0.00000000000E+00 0. -1.
          2    1    1    2  501    0 -0.24060140503E+02 -0.71496418623E+01  0.40868993188E+02  0.47961258782E+02  0.00000000000E+00 0. -1.
<scales pt_clust_5="13000.00000" pt_clust_6="13000.00000" pt_clust_7="13000.00000" pt_clust_8="13000.00000" pt_clust_9="143.77219" pt_clust_10="25.09995"></scales>
<clustering>
<clus scale="   25.100">  1 10  2 -1</clus>
<clus scale="   80.501">  5  6 -1 -1</clus>
<clus scale="   91.938">  7  8 -1 -1</clus>
<clus scale="   97.242">  1  7  2 -1</clus>
<clus scale="  143.772">  1  9  2 -1</clus>
<clus scale="   25.100">  1  5  2 -1</clus>
</clustering>
</event>
<event>
10    3  0.7209067E-005  0.1013142E+03  0.7546771E-02  0.1283930E+00
          1   -1    0    0  503    0 -0.00000000000E+00  0.00000000000E+00  0.80950092154E+03  0.80950092154E+03  0.00000000000E+00 0. -1.
         21   -1    0    0  501  502  0.00000000000E+00 -0.00000000000E+00 -0.29206588090E+02  0.29206588090E+02  0.00000000000E+00 0. -1.
         23    2    1    2    0    0  0.57324617204E+02  0.14238951722E+02  0.33552849687E+03  0.35299182599E+03  0.92385050291E+02 0.  0.
        -24    2    1    2    0    0 -0.19449834531E+02 -0.19598044530E+02  0.20387955185E+03  0.22058014181E+03  0.79538342239E+02 0.  0.
         11    1    4    4    0    0 -0.10669196670E+02 -0.49694630636E+02  0.14829679781E+03  0.15676520122E+03  0.00000000000E+00 0. -1.
        -12    1    4    4    0    0 -0.87806378609E+01  0.30096586105E+02  0.55582754033E+02  0.63814940589E+02  0.00000000000E+00 0.  1.
        -11    1    3    3    0    0 -0.12042624525E+02  0.35120749356E+02  0.12028281337E+03  0.12588267170E+03  0.00000000000E+00 0.  1.
         11    1    3    3    0    0  0.69367241729E+02 -0.20881797634E+02  0.21524568350E+03  0.22710915429E+03  0.00000000000E+00 0. -1.
         21    1    1    2  503  502 -0.35541360258E+01  0.39519032402E+02  0.32773378542E+02  0.51463386461E+02  0.00000000000E+00 0. -1.
          2    1    1    2  501    0 -0.34320646647E+02 -0.34159939594E+02  0.20811290619E+03  0.21367215538E+03  0.00000000000E+00 0. -1.
<scales pt_clust_5="13000.00000" pt_clust_6="13000.00000" pt_clust_7="13000.00000" pt_clust_8="13000.00000" pt_clust_9="39.67853" pt_clust_10="45.07697"></scales>
<clustering>
<clus scale="   39.679">  2  9  1 -1</clus>
<clus scale="   45.077">  2 10  1 -1</clus>
<clus scale="   79.538">  5  6 -1 -1</clus>
<clus scale="   89.755">  2  5  1 -1</clus>
<clus scale="   92.385">  7  8 -1 -1</clus>
<clus scale="   39.679">  2  5  1 -1</clus>
</clustering>
</event>
<event>
10    3  0.7209067E-005  0.1224412E+03  0.7546771E-02  0.1259836E+00
         21   -1    0    0  503  502  0.00000000000E+00  0.00000000000E+00  0.66950552496E+02  0.66950552496E+02  0.00000000000E+00 0.  1.
         -4   -1    0    0    0  501 -0.00000000000E+00 -0.00000000000E+00 -0.65625404027E+03  0.65625404027E+03  0.00000000000E+00 0.  1.
        -24    2    1    2    0    0 -0.37951390123E+01 -0.21018211662E+02 -0.15270833059E+03  0.17323349426E+03  0.78954676886E+02 0.  0.
         23    2    1    2    0    0  0.72742825773E+02  0.21156253049E+02 -0.25887336926E+03  0.28319916973E+03  0.86297408286E+02 0.  0.
         13    1    3    3    0    0 -0.26403104167E+02 -0.78082750002E+01 -0.14249018942E+03  0.14512596993E+03  0.00000000000E+00 0. -1.
        -14    1    3    3    0    0  0.22607965155E+02 -0.13209936661E+02 -0.10218141168E+02  0.28107524330E+02  0.00000000000E+00 0.  1.
        -11    1    4    4    0    0  0.70169957885E+02  0.43782251055E+02 -0.23923599742E+03  0.25312955370E+03  0.00000000000E+00 0.  1.
         11    1    4    4    0    0  0.25728678878E+01 -0.22625998006E+02 -0.19637371841E+02  0.30069616023E+02  0.00000000000E+00 0. -1.
         21    1    1    2  503  501  0.27198853895E+02  0.12665349166E+02  0.26918282525E+02  0.40308592840E+02  0.00000000000E+00 0.  1.
         -3    1    1    2    0  502 -0.96146540655E+02 -0.12803390553E+02 -0.20464007045E+03  0.22646333593E+03  0.00000000000E+00 0.  1.
<scales pt_clust_5="13000.00000" pt_clust_6="13000.00000" pt_clust_7="13000.00000" pt_clust_8="13000.00000" pt_clust_9="30.00315" pt_clust_10="86.85966"></scales>
<clustering>
<clus scale="   30.003">  1  9  2 -1</clus>
<clus scale="   78.955">  5  6 -1 -1</clus>
<clus scale="   80.919">  2  5  1 -1</clus>
<clus scale="   86.297">  7  8 -1 -1</clus>
<clus scale="   86.860">  1 10  2 -1</clus>
<clus scale="   30.003">  1  5  2 -1</clus>
</clustering>
</event>
<event>
10    3  0.7209067E-005  0.1692235E+03  0.7546771E-02  0.1187978E+00
         21   -1    0    0  503  502  0.00000000000E+00  0.00000000000E+00  0.13196442142E+03  0.13196442142E+03  0.00000000000E+00 0. -1.
          1   -1    0    0  502    0 -0.00000000000E+00 -0.00000000000E+00 -0.15117969116E+04  0.15117969116E+04  0.00000000000E+00 0. -1.
         23    2    1    2    0    0  0.17471826456E+02 -0.77195764249E+02 -0.21036058256E+03  0.24251035095E+03  0.91078234976E+02 0.  0.
        -24    2    1    2    0    0  0.19408585436E+03  0.90541519852E+02 -0.42940224785E+03  0.48658664437E+03  0.80704314281E+02 0.  0.
         13    1    4    4    0    0  0.98273668336E+02  0.89421486860E+02 -0.23989402960E+03  0.27423176628E+03  0.00000000000E+00 0. -1.
        -14    1    4    4    0    0  0.95812186021E+02  0.11200329914E+01 -0.18950821825E+03  0.21235487809E+03  0.00000000000E+00 0.  1.
        -13    1    3    3    0    0 -0.29792128589E+02  0.36017012996E+00 -0.49104763997E+02  0.57436734723E+02  0.00000000000E+00 0.  1.
         13    1    3    3    0    0  0.47263955045E+02 -0.77555934379E+02 -0.16125581856E+03  0.18507361623E+03  0.00000000000E+00 0. -1.
         21    1    1    2  503  501 -0.80005244951E+02 -0.81689418563E+02  0.39616254765E+02  0.12101011514E+03  0.00000000000E+00 0. -1.
          2    1    1    2  501    0 -0.13155243586E+03  0.68343662960E+02 -0.77968591455E+03  0.79365422257E+03  0.00000000000E+00 0. -1.
<scales pt_clust_5="13000.00000" pt_clust_6="13000.00000" pt_clust_7="13000.00000" pt_clust_8="13000.00000" pt_clust_9="114.34159" pt_clust_10="148.73945"></scales>
<clustering>
<clus scale="   80.704">  5  6 -1 -1</clus>
<clus scale="   91.078">  7  8 -1 -1</clus>
<clus scale="  114.342">  1  9  2 -1</clus>
<clus scale="  137.409">  2  7  1 -1</clus>
<clus scale="  148.739">  1 10  2 -1</clus>
<clus scale="  114.342">  1  5  2 -1</clus>
</clustering>
</event>
<event>
10    3  0.7209067E-005  0.1285867E+03  0.7546771E-02  0.1233520E+00
         21   -1    0    0  501  502  0.00000000000E+00  0.00000000000E+00  0.56614870262E+02  0.56614870262E+02  0.00000000000E+00 0.  1.
          3   -1    0    0  503    0 -0.00000000000E+00 -0.00000000000E+00 -0.79137018144E+03  0.79137018144E+03  0.00000000000E+00 0. -1.
         23    2    1    2    0    0  0.80361941311E+02 -0.44596017657E+02 -0.58938626258E+03  0.60410264361E+03  0.95482936153E+02 0.  0.
        -24    2    1    2    0    0 -0.40596898634E+02  0.67299013259E+02 -0.14200740725E+03  0.18159386972E+03  0.81443013464E+02 0.  0.
         11    1    4    4    0    0 -0.23654466341E+02  0.14708950309E+02 -0.11818856550E+03  0.12142661987E+03  0.00000000000E+00 0. -1.
        -12    1    4    4    0    0 -0.16942432293E+02  0.52590062950E+02 -0.23818841755E+02  0.60167249859E+02  0.00000000000E+00 0.  1.
        -13    1    3    3    0    0  0.71926757996E+01  0.24940792344E+02 -0.63218829171E+02  0.68340310723E+02  0.00000000000E+00 0.  1.
         13    1    3    3    0    0  0.73169265511E+02 -0.69536810001E+02 -0.52616743341E+03  0.53576233289E+03  0.00000000000E+00 0. -1.
         21    1    1    2  503  502 -0.35721135018E+02  0.18455931036E+01  0.48340642504E+01  0.36093959025E+02  0.00000000000E+00 0.  1.
          4    1    1    2  501    0 -0.40439076581E+01 -0.24548588706E+02 -0.81957055899E+01  0.26194579338E+02  0.00000000000E+00 0. -1.
<scales pt_clust_5="13000.00000" pt_clust_6="13000.00000" pt_clust_7="13000.00000" pt_clust_8="13000.00000" pt_clust_9="38.45724" pt_clust_10="24.87944"></scales>
<clustering>
<clus scale="   24.879">  1 10  2 -1</clus>
<clus scale="   38.457">  1  9  2 -1</clus>
<clus scale="   81.443">  5  6 -1 -1</clus>
<clus scale="   95.483">  7  8 -1 -1</clus>
<clus scale="  118.535">  1  5  2 -1</clus>
<clus scale="   24.879">  1  5  2 -1</clus>
</clustering>
</event>
<event>
10    3  0.7209067E-005  0.1261872E+03  0.7546771E-02  0.1236676E+00
          1   -1    0    0  503    0 -0.00000000000E+00  0.00000000000E+00  0.34348291565E+03  0.34348291565E+03  0.00000000000E+00 0. -1.
         21   -1    0    0  501  502  0.00000000000E+00 -0.00000000000E+00 -0.16864717528E+03  0.16864717528E+03  0.00000000000E+00 0. -1.
         23    2    1    2    0    0  0.38385588592E+02  0.78124983282E+02  0.23919590588E+03  0.27085224126E+03  0.92570453062E+02 0.  0.
        -24    2    1    2    0    0 -0.57553321161E+02 -0.62214277653E+02  0.31838486577E+02  0.12110868526E+03  0.80440184599E+02 0.  0.
         11    1    4    4    0    0 -0.56636488587E+02 -0.20718664734E+01  0.16696737662E+02  0.59082700672E+02  0.00000000000E+00 0. -1.
        -12    1    4    4    0    0 -0.91683257481E+00 -0.60142411180E+02  0.15141748915E+02  0.62025984593E+02  0.00000000000E+00 0.  1.
        -11    1    3    3    0    0 -0.22033030799E+02  0.86766515348E+01  0.10811782567E+03  0.11068063496E+03  0.00000000000E+00 0. -1.
         11    1    3    3    0    0  0.60418619390E+02  0.69448331747E+02  0.13107808021E+03  0.16017160629E+03  0.00000000000E+00 0.  1.
         21    1    1    2  503  502 -0.24469314780E+02 -0.23363378673E+01 -0.21795072769E+02  0.32851651974E+02  0.00000000000E+00 0. -1.
          2    1    1    2  501    0  0.43637047350E+02 -0.13574367761E+02 -0.74403579319E+02  0.87317512430E+02  0.00000000000E+00 0. -1.
<scales pt_clust_5="13000.00000" pt_clust_6="13000.00000" pt_clust_7="13000.00000" pt_clust_8="13000.00000" pt_clust_9="24.58060" pt_clust_10="33.17631"></scales>
<clustering>
<clus scale="   24.581">  2  9  1 -1</clus>
<clus scale="   33.176">  2 10  1 -1</clus>
<clus scale="   80.440">  5  6 -1 -1</clus>
<clus scale="   92.570">  7  8 -1 -1</clus>
<clus scale="  117.578">  2  5  1 -1</clus>
<clus scale="   24.581">  2  5  1 -1</clus>
</clustering>
</event>
<event>
10    3  0.7209067E-005  0.9751257E+02  0.7546771E-02  0.1295799E+00
          1   -1    0    0  503    0 -0.00000000000E+00  0.00000000000E+00  0.70347337444E+03  0.70347337444E+03  0.00000000000E+00 0. -1.
         21   -1    0    0  501  502  0.00000000000E+00 -0.00000000000E+00 -0.10880647475E+03  0.10880647475E+03  0.00000000000E+00 0.  1.
         23    2    1    2    0    0 -0.42263228244E+02 -0.37745257723E+02  0.31182866703E+03  0.32351084775E+03  0.64894268536E+02 0.  0.
        -24    2    1    2    0    0  0.19667242855E+02  0.22320864794E+02  0.15699679221E+03  0.18098976972E+03  0.84995779508E+02 0.  0.
         13    1    4    4    0    0 -0.30938927249E+02 -0.51894081938E+00  0.82252864125E+02  0.87880715608E+02  0.00000000000E+00 0. -1.
        -14    1    4    4    0    0  0.50606170104E+02  0.22839805613E+02  0.74743928081E+02  0.93109054114E+02  0.00000000000E+00 0.  1.
        -11    1    3    3    0    0  0.58591722284E+01 -0.26851345191E+02  0.49827965334E+02  0.56904751709E+02  0.00000000000E+00 0. -1.
         11    1    3    3    0    0 -0.48122400473E+02 -0.10893912532E+02  0.26200070169E+03  0.26660609604E+03  0.00000000000E+00 0.  1.
         21    1    1    2  503  502 -0.12993639795E+02 -0.31156583326E+02 -0.83668965766E+02  0.90222298751E+02  0.00000000000E+00 0.  1.
          2    1    1    2  501    0  0.35589625185E+02  0.46580976256E+02  0.20951040623E+03  0.21755693298E+03  0.00000000000E+00 0. -1.
<scales pt_clust_5="13000.00000" pt_clust_6="13000.00000" pt_clust_7="13000.00000" pt_clust_8="13000.00000" pt_clust_9="33.75748" pt_clust_10="52.63649"></scales>
<clustering>
<clus scale="   33.757">  2  9  1 -1</clus>
<clus scale="   52.636">  2 10  1 -1</clus>
<clus scale="   64.894">  7  8 -1 -1</clus>
<clus scale="   80.596">  1  7  2 -1</clus>
<clus scale="   84.996">  5  6 -1 -1</clus>
<clus scale="   33.757">  2  5  1 -1</clus>
</clustering>
</event>
<event>
10    3  0.7209067E-005  0.1799094E+03  0.7546771E-02  0.1199454E+00
          1   -1    0    0  503    0 -0.00000000000E+00  0.00000000000E+00  0.62088709467E+03  0.62088709467E+03  0.00000000000E+00 0. -1.
         21   -1    0    0  501  502  0.00000000000E+00 -0.00000000000E+00 -0.17104040561E+03  0.17104040561E+03  0.00000000000E+00 0. -1.
         23    2    1    2    0    0  0.20808503839E+01 -0.74137763854E+01  0.29791504820E+03  0.31091828987E+03  0.88642613976E+02 0.  0.
        -24    2    1    2    0    0  0.13133512731E+03 -0.86324363185E+02  0.20169549662E+03  0.26802324002E+03  0.80340354061E+02 0.  0.
         11    1    4    4    0    0  0.82073620488E+02 -0.77201893982E+01  0.11124745711E+03  0.13846182585E+03  0.00000000000E+00 0. -1.
        -12    1    4    4    0    0  0.49261506821E+02 -0.78604173787E+02  0.90448039509E+02  0.12956141417E+03  0.00000000000E+00 0.  1.
        -13    1    3    3    0    0  0.30957560990E+02  0.28939534502E+02  0.15184898778E+03  0.15765145838E+03  0.00000000000E+00 0.  1.
         13    1    3    3    0    0 -0.28876710606E+02 -0.36353310888E+02  0.14606606043E+03  0.15326683149E+03  0.00000000000E+00 0. -1.
         21    1    1    2  503  502  0.20564324414E+02  0.36526568080E+02 -0.22097371530E+01  0.41975761489E+02  0.00000000000E+00 0. -1.
          2    1    1    2  501    0 -0.15398030211E+03  0.57211571490E+02 -0.47554118614E+02  0.17101020890E+03  0.00000000000E+00 0. -1.
<scales pt_clust_5="13000.00000" pt_clust_6="13000.00000" pt_clust_7="13000.00000" pt_clust_8="13000.00000" pt_clust_9="41.91756" pt_clust_10="160.97455"></scales>
<clustering>
<clus scale="   41.918">  2  9  1 -1</clus>
<clus scale="   80.340">  5  6 -1 -1</clus>
<clus scale="   88.643">  7  8 -1 -1</clus>
<clus scale="   88.883">  1  7  2 -1</clus>
<clus scale="  160.975">  2 10  1 -1</clus>
<clus scale="   41.918">  2  5  1 -1</clus>
</clustering>
</event>
<event>
10    3  0.7209067E-005  0.9249578E+02  0.7546771E-02  0.1303733E+00
         21   -1    0    0  503  502  0.00000000000E+00  0.00000000000E+00  0.85680649967E+02  0.85680649967E+02  0.00000000000E+00 0. -1.
         -2   -1    0    0    0  501 -0.00000000000E+00 -0.00000000000E+00 -0.52239558094E+03  0.52239558094E+03  0.00000000000E+00 0.  1.
        -24    2    1    2    0    0 -0.11890662106E+01  0.13865950239E+02 -0.42078203620E+03  0.42855107029E+03  0.80030115577E+02 0.  0.
         23    2    1    2    0    0  0.31266369965E+02 -0.27180674475E+02 -0.39936864502E+02  0.10777944481E+03  0.91132215062E+02 0.  0.
         13    1    3    3    0    0 -0.84220925120E+00 -0.33674652771E+02 -0.17238565551E+03  0.17564596716E+03  0.00000000000E+00 0. -1.
        -14    1    3    3    0    0 -0.34685695944E+00  0.47540603010E+02 -0.24839638069E+03  0.25290510312E+03  0.00000000000E+00 0.  1.
        -11    1    4    4    0    0 -0.92127671810E+01 -0.51803861034E+02 -0.18483219266E+02  0.55768669445E+02  0.00000000000E+00 0.  1.
         11    1    4    4    0    0  0.40479137146E+02  0.24623186559E+02 -0.21453645235E+02  0.52010775367E+02  0.00000000000E+00 0. -1.
         21    1    1    2  503  501 -0.24371488109E+02 -0.20394078669E+02  0.19442365715E+02  0.37254442178E+02  0.00000000000E+00 0.  1.
         -1    1    1    2    0  502 -0.57058156455E+01  0.33708802905E+02  0.45616040165E+01  0.34491273630E+02  0.00000000000E+00 0.  1.
<scales pt_clust_5="13000.00000" pt_clust_6="13000.00000" pt_clust_7="13000.00000" pt_clust_8="13000.00000" pt_clust_9="31.77873" pt_clust_10="30.20648"></scales>
<clustering>
<clus scale="   31.779">  1  9  2 -1</clus>
<clus scale="   30.206">  1 10  2 -1</clus>
<clus scale="   80.030">  5  6 -1 -1</clus>
<clus scale="   81.579">  2  5  1 -1</clus>
<clus scale="   91.132">  7  8 -1 -1</clus>
<clus scale="   31.779">  1  5  2 -1</clus>
</clustering>
</event>
<event>
10    3  0.7209067E-005  0.2674336E+03  0.7546771E-02  0.1103315E+00
         21   -1    0    0  503  502  0.00000000000E+00  0.00000000000E+00  0.37776236894E+03  0.37776236894E+03  0.00000000000E+00 0. -1.
         -4   -1    0    0    0  501 -0.00000000000E+00 -0.00000000000E+00 -0.93426674889E+03  0.93426674889E+03  0.00000000000E+00 0.  1.
         23    2    1    2    0    0 -0.23549654445E+03  0.12242113742E+02 -0.57846191405E+03  0.63126120404E+03  0.90906710028E+02 0.  0.
        -24    2    1    2    0    0  0.31841786035E+03  0.11067031503E+02 -0.13057564141E+03  0.35327011548E+03  0.78976980102E+02 0.  0.
         13    1    4    4    0    0  0.24926647520E+03 -0.23251492873E+02 -0.10948297502E+03  0.27324152209E+03  0.00000000000E+00 0. -1.
        -14    1    4    4    0    0  0.69151385153E+02  0.34318524376E+02 -0.21092666397E+02  0.80028593388E+02  0.00000000000E+00 0.  1.
        -13    1    3    3    0    0 -0.17880988196E+03 -0.12747881090E+02 -0.33394123001E+03  0.37901481166E+03  0.00000000000E+00 0.  1.
         13    1    3    3    0    0 -0.56686662487E+02  0.24989994831E+02 -0.24452068404E+03  0.25224639238E+03  0.00000000000E+00 0. -1.
         21    1    1    2  503  501 -0.72168670296E+02  0.30384580908E+02  0.22409872426E+03  0.23738529428E+03  0.00000000000E+00 0. -1.
         -3    1    1    2    0  502 -0.10752645605E+02 -0.53693726152E+02 -0.71565548735E+02  0.90112504023E+02  0.00000000000E+00 0.  1.
<scales pt_clust_5="13000.00000" pt_clust_6="13000.00000" pt_clust_7="13000.00000" pt_clust_8="13000.00000" pt_clust_9="78.96821" pt_clust_10="54.75983"></scales>
<clustering>
<clus scale="   54.760">  1 10  2 -1</clus>
<clus scale="   78.968">  1  9  2 -1</clus>
<clus scale="   78.977">  5  6 -1 -1</clus>
<clus scale="   90.907">  7  8 -1 -1</clus>
<clus scale="  263.617">  1  5  2 -1</clus>
<clus scale="   54.760">  1  5  2 -1</clus>
</clustering>
</event>
<event>
10    3  0.7209067E-005  0.2183338E+03  0.7546771E-02  0.1170329E+00
          1   -1    0    0  503    0 -0.00000000000E+00  0.00000000000E+00  0.96275980895E+03  0.96275980895E+03  0.00000000000E+00 0. -1.
         21   -1    0    0  501  502  0.00000000000E+00 -0.00000000000E+00 -0.87362679765E+02  0.87362679765E+02  0.00000000000E+00 0. -1.
         23    2    1    2    0    0 -0.24143631024E+02 -0.84962150627E+01  0.18387734202E+03  0.20712355541E+03  0.91837844655E+02 0.  0.
        -24    2    1    2    0    0  0.21354078928E+03  0.40486030928E+02  0.43482734215E+03  0.49277192542E+03  0.80688076031E+02 0.  0.
         11    1    4    4    0    0  0.22021867208E+03  0.43209476888E+02  0.41725962444E+03  0.47378150725E+03  0.00000000000E+00 0. -1.
        -12    1    4    4    0    0 -0.66778828018E+01 -0.27234459603E+01  0.17567717711E+02  0.18990418168E+02  0.00000000000E+00 0.  1.
        -11    1    3    3    0    0 -0.58150081756E+02 -0.55134245727E+01  0.90611771847E+02  0.10780687852E+03  0.00000000000E+00 0.  1.
         11    1    3    3    0    0  0.34006450732E+02 -0.29827904900E+01  0.93265570169E+02  0.99316676895E+02  0.00000000000E+00 0. -1.
         21    1    1    2  503  502 -0.37336798650E+01  0.29126815489E+02  0.23590759157E+01  0.29459751951E+02  0.00000000000E+00 0. -1.
          2    1    1    2  501    0 -0.18566347839E+03 -0.61116631354E+02  0.25433336910E+03  0.32076725593E+03  0.00000000000E+00 0. -1.
<scales pt_clust_5="13000.00000" pt_clust_6="13000.00000" pt_clust_7="13000.00000" pt_clust_8="13000.00000" pt_clust_9="29.36515" pt_clust_10="202.87707"></scales>
<clustering>
<clus scale="   29.365">  2  9  1 -1</clus>
<clus scale="   80.688">  5  6 -1 -1</clus>
<clus scale="   91.838">  7  8 -1 -1</clus>
<clus scale="   95.190">  1  7  2 -1</clus>
<clus scale="  202.877">  2 10  1 -1</clus>
<clus scale="   29.365">  2  5  1 -1</clus>
</clustering>
</event>
<event>
10    3  0.7209067E-005  0.1626294E+03  0.7546771E-02  0.1187361E+00
         21   -1    0    0  501  502  0.00000000000E+00  0.00000000000E+00  0.67918595804E+02  0.67918595804E+02  0.00000000000E+00 0.  1.
          1   -1    0    0  503    0 -0.00000000000E+00 -0.00000000000E+00 -0.13100726933E+04  0.13100726933E+04  0.00000000000E+00 0. -1.
         23    2    1    2    0    0  0.67483897280E+02  0.14422669435E+03 -0.78025704838E+03  0.80153158301E+03  0.91084583017E+02 0.  0.
        -24    2    1    2    0    0  0.41289938260E+02 -0.11956955938E+03 -0.40527935880E+03  0.43212617240E+03  0.80498022744E+02 0.  0.
         13    1    4    4    0    0  0.34710144222E+02 -0.25200921356E+02 -0.21946965417E+03  0.22362202407E+03  0.00000000000E+00 0. -1.
        -14    1    4    4    0    0  0.65797940381E+01 -0.94368638024E+02 -0.18580970464E+03  0.20850414833E+03  0.00000000000E+00 0.  1.
        -13    1    3    3    0    0  0.77110228953E+02  0.61201242718E+02 -0.47104589771E+03  0.48122325097E+03  0.00000000000E+00 0.  1.
         13    1    3    3    0    0 -0.96263316731E+01  0.83025451632E+02 -0.30921115067E+03  0.32030833205E+03  0.00000000000E+00 0. -1.
         21    1    1    2  503  502 -0.80955120795E+01  0.18407107783E+02  0.18614394738E+01  0.20194650026E+02  0.00000000000E+00 0. -1.
          2    1    1    2  501    0 -0.10067832346E+03 -0.43064242753E+02 -0.58479129789E+02  0.12413888367E+03  0.00000000000E+00 0. -1.
<scales pt_clust_5="13000.00000" pt_clust_6="13000.00000" pt_clust_7="13000.00000" pt_clust_8="13000.00000" pt_clust_9="20.10868" pt_clust_10="110.23207"></scales>
<clustering>
<clus scale="   20.109">  1  9  2 -1</clus>
<clus scale="   80.498">  5  6 -1 -1</clus>
<clus scale="   91.085">  7  8 -1 -1</clus>
<clus scale="  110.232">  1 10  2 -1</clus>
<clus scale="  156.945">  1  5  2 -1</clus>
<clus scale="   20.109">  1  5  2 -1</clus>
</clustering>
</event>
<event>
10    3  0.7209067E-005  0.1745065E+03  0.7546771E-02  0.1201290E+00
         21   -1    0    0  501  502  0.00000000000E+00  0.00000000000E+00  0.84376265999E+03  0.84376265999E+03  0.00000000000E+00 0.  1.
         -4   -1    0    0    0  501 -0.00000000000E+00 -0.00000000000E+00 -0.85463400663E+02  0.85463400663E+02  0.00000000000E+00 0.  1.
         23    2    1    2    0    0 -0.39575010905E+01 -0.14427406888E+02  0.26697948169E+02  0.97492141854E+02  0.92564169107E+02 0.  0.
        -24    2    1    2    0    0  0.17137768746E+03 -0.28713513350E+02  0.47049850070E+03  0.50860563440E+03  0.84356828897E+02 0.  0.
         11    1    4    4    0    0  0.15133319079E+02  0.16594121834E+02  0.12144056998E+03  0.12349977434E+03  0.00000000000E+00 0. -1.
        -12    1    4    4    0    0  0.15624436839E+03 -0.45307635184E+02  0.34905793072E+03  0.38510586007E+03  0.00000000000E+00 0.  1.
        -11    1    3    3    0    0  0.32246085353E+02  0.15020643497E+02 -0.11285865587E+02  0.37320242680E+02  0.00000000000E+00 0.  1.
         11    1    3    3    0    0 -0.36203586443E+02 -0.29448050385E+02  0.37983813755E+02  0.60171899174E+02  0.00000000000E+00 0. -1.
         21    1    1    2  503  502 -0.25949261058E+02  0.24190668972E+02  0.10860978324E+03  0.11425689314E+03  0.00000000000E+00 0.  1.
         -3    1    1    2    0  503 -0.14147092532E+03  0.18950251265E+02  0.15249302722E+03  0.20887139126E+03  0.00000000000E+00 0.  1.
<scales pt_clust_5="13000.00000" pt_clust_6="13000.00000" pt_clust_7="13000.00000" pt_clust_8="13000.00000" pt_clust_9="35.47609" pt_clust_10="152.76279"></scales>
<clustering>
<clus scale="   35.476">  1  9  2 -1</clus>
<clus scale="   84.357">  5  6 -1 -1</clus>
<clus scale="   92.564">  7  8 -1 -1</clus>
<clus scale="   93.591">  2  7  1 -1</clus>
<clus scale="  152.763">  1 10  2 -1</clus>
<clus scale="   35.476">  1  5  2 -1</clus>
</clustering>
</event>
<event>
10    3  0.7209067E-005  0.1228412E+03  0.7546771E-02  0.1242148E+00
          1   -1    0    0  502    0 -0.00000000000E+00  0.00000000000E+00  0.41628582960E+03  0.41628582960E+03  0.00000000000E+00 0. -1.
         21   -1    0    0  503  502  0.00000000000E+00 -0.00000000000E+00 -0.48799898441E+03  0.48799898441E+03  0.00000000000E+00 0. -1.
         23    2    1    2    0    0  0.42123179719E+02 -0.62505667830E+02  0.26888042045E+03  0.29413425044E+03  0.92395649242E+02 0.  0.
        -24    2    1    2    0    0 -0.70645371746E+01  0.11683990911E+03  0.38230642199E+02  0.14701518587E+03  0.80314449667E+02 0.  0.
         13    1    4    4    0    0  0.12899924119E+02  0.11910894354E+03  0.41225985141E+02  0.12670015913E+03  0.00000000000E+00 0. -1.
        -14    1    4    4    0    0 -0.19964461293E+02 -0.22690344242E+01 -0.29953429411E+01  0.20315026736E+02  0.00000000000E+00 0.  1.
        -13    1    3    3    0    0  0.68512212313E+02 -0.59117589318E+02  0.18174079847E+03  0.20302347261E+03  0.00000000000E+00 0. -1.
         13    1    3    3    0    0 -0.26389032594E+02 -0.33880785123E+01  0.87139621986E+02  0.91110777832E+02  0.00000000000E+00 0.  1.
         21    1    1    2  503  501  0.48885267546E+02 -0.58185778254E+02 -0.37104076755E+03  0.37874345586E+03  0.00000000000E+00 0. -1.
          2    1    1    2  501    0 -0.83943910090E+02  0.38515369691E+01 -0.77834499120E+01  0.84391921833E+02  0.00000000000E+00 0. -1.
<scales pt_clust_5="13000.00000" pt_clust_6="13000.00000" pt_clust_7="13000.00000" pt_clust_8="13000.00000" pt_clust_9="75.99575" pt_clust_10="67.03335"></scales>
<clustering>
<clus scale="   75.996">  2  9  1 -1</clus>
<clus scale="   67.033">  2 10  1 -1</clus>
<clus scale="   80.314">  5  6 -1 -1</clus>
<clus scale="   92.396">  7  8 -1 -1</clus>
<clus scale="  114.033">  2  5  1 -1</clus>
<clus scale="   75.996">  2  5  1 -1</clus>
</clustering>
</event>
<event>
10    3  0.7209067E-005  0.2510741E+03  0.7546771E-02  0.1128662E+00
         21   -1    0    0  501  502  0.00000000000E+00  0.00000000000E+00  0.37072919846E+03  0.37072919846E+03  0.00000000000E+00 0. -1.
         -2   -1    0    0    0  501 -0.00000000000E+00 -0.00000000000E+00 -0.42687150325E+03  0.42687150325E+03  0.00000000000E+00 0.  1.
        -24    2    1    2    0    0  0.13302891294E+03  0.61927885314E+02 -0.68543170802E+01  0.16985350676E+03  0.85272958440E+02 0.  0.
         23    2    1    2    0    0 -0.26663340203E+03  0.21976687957E+02  0.48455297244E+02  0.28714672831E+03  0.92352486989E+02 0.  0.
         13    1    3    3    0    0  0.10740881771E+03  0.42186940751E+02  0.31561835265E+02  0.11963503474E+03  0.00000000000E+00 0. -1.
        -14    1    3    3    0    0  0.25620095229E+02  0.19740944563E+02 -0.38416152345E+02  0.50218472028E+02  0.00000000000E+00 0.  1.
        -13    1    4    4    0    0 -0.12468546448E+03  0.33083872689E+02  0.63846658077E+02  0.14393541410E+03  0.00000000000E+00 0. -1.
         13    1    4    4    0    0 -0.14194793756E+03 -0.11107184732E+02 -0.15391360833E+02  0.14321131421E+03  0.00000000000E+00 0.  1.
         21    1    1    2  503  502 -0.14443955796E+02  0.15568056674E+02  0.83591823209E+02  0.86247232739E+02  0.00000000000E+00 0. -1.
         -1    1    1    2    0  503  0.14804844489E+03 -0.99472629944E+02 -0.18133510816E+03  0.25435323390E+03  0.00000000000E+00 0.  1.
<scales pt_clust_5="13000.00000" pt_clust_6="13000.00000" pt_clust_7="13000.00000" pt_clust_8="13000.00000" pt_clust_9="21.23658" pt_clust_10="233.47224"></scales>
<clustering>
<clus scale="   21.237">  1  9  2 -1</clus>
<clus scale="   85.273">  5  6 -1 -1</clus>
<clus scale="   92.352">  7  8 -1 -1</clus>
<clus scale="  168.208">  2  5  1 -1</clus>
<clus scale="  233.472">  1 10  2 -1</clus>
<clus scale="   21.237">  1  5  2 -1</clus>
</clustering>
</event>
<event>
10    3  0.7209067E-005  0.2619095E+03  0.7546771E-02  0.1106442E+00
         -2   -1    0    0    0  501 -0.00000000000E+00  0.00000000000E+00  0.27592113741E+03  0.27592113741E+03  0.00000000000E+00 0.  1.
         21   -1    0    0  501  502  0.00000000000E+00 -0.00000000000E+00 -0.10989929711E+04  0.10989929711E+04  0.00000000000E+00 0.  1.
         23    2    1    2    0    0 -0.10212835174E+03  0.21556345894E+03  0.20328145497E+02  0.25685870407E+03  0.93087890168E+02 0.  0.
        -24    2    1    2    0    0  0.29307312994E+03 -0.17092975933E+03 -0.80108140468E+03  0.87405558341E+03  0.84456520456E+02 0.  0.
         11    1    4    4    0    0  0.47794881372E+02  0.45385732279E+01 -0.11468342903E+03  0.12432714195E+03  0.00000000000E+00 0. -1.
        -12    1    4    4    0    0  0.24527824857E+03 -0.17546833255E+03 -0.68639797565E+03  0.74972844145E+03  0.00000000000E+00 0.  1.
        -11    1    3    3    0    0 -0.31498991316E+02  0.11203007646E+03  0.52191231852E+02  0.12754155859E+03  0.00000000000E+00 0.  1.
         11    1    3    3    0    0 -0.70629360427E+02  0.10353338248E+03 -0.31863086355E+02  0.12931714547E+03  0.00000000000E+00 0. -1.
         21    1    1    2  503  502 -0.37213945411E+02 -0.35912544049E+01 -0.72941259091E+02  0.81964639443E+02  0.00000000000E+00 0.  1.
         -1    1    1    2    0  503 -0.15373083279E+03 -0.41042445208E+02  0.30622684592E+02  0.16203518158E+03  0.00000000000E+00 0.  1.
<scales pt_clust_5="13000.00000" pt_clust_6="13000.00000" pt_clust_7="13000.00000" pt_clust_8="13000.00000" pt_clust_9="37.38683" pt_clust_10="161.48799"></scales>
<clustering>
<clus scale="   37.387">  2  9  1 -1</clus>
<clus scale="   84.457">  5  6 -1 -1</clus>
<clus scale="   93.088">  7  8 -1 -1</clus>
<clus scale="  161.488">  2 10  1 -1</clus>
<clus scale="  258.967">  2  5  1 -1</clus>
<clus scale="   37.387">  2  5  1 -1</clus>
</clustering>
</event>
<event>
10    3  0.7209067E-005  0.2078332E+03  0.7546771E-02  0.1168482E+00
          1   -1    0    0  502    0 -0.00000000000E+00  0.00000000000E+00  0.10045188546E+04  0.10045188546E+04  0.00000000000E+00 0. -1.
         21   -1    0    0  503  502  0.00000000000E+00 -0.00000000000E+00 -0.21220168325E+03  0.21220168325E+03  0.00000000000E+00 0. -1.
         23    2    1    2    0    0  0.62143735402E+02  0.27525601619E+02  0.17629526723E+03  0.20990921444E+03  0.91445910053E+02 0.  0.
        -24    2    1    2    0    0 -0.13158674081E+03 -0.17422913932E+03 -0.48273417043E+01  0.23285586431E+03  0.80794102316E+02 0.  0.
         13    1    4    4    0    0 -0.12085646746E+03 -0.18133128063E+03 -0.11772226339E+02  0.21823360047E+03  0.00000000000E+00 0. -1.
        -14    1    4    4    0    0 -0.10730273349E+02  0.71021413029E+01  0.69448846347E+01  0.14622263841E+02  0.00000000000E+00 0.  1.
        -11    1    3    3    0    0 -0.20463947733E+02  0.13756035935E+02  0.17028807384E+02  0.29966347165E+02  0.00000000000E+00 0. -1.
         11    1    3    3    0    0  0.82607683135E+02  0.13769565685E+02  0.15926645984E+03  0.17994286727E+03  0.00000000000E+00 0.  1.
         21    1    1    2  503  501  0.78987681086E+01  0.22872818904E+02 -0.67576820375E+02  0.71778708781E+02  0.00000000000E+00 0.  1.
          2    1    1    2  501    0  0.61544237297E+02  0.12383071880E+03  0.68842606617E+03  0.70217675029E+03  0.00000000000E+00 0. -1.
<scales pt_clust_5="13000.00000" pt_clust_6="13000.00000" pt_clust_7="13000.00000" pt_clust_8="13000.00000" pt_clust_9="24.19827" pt_clust_10="191.48625"></scales>
<clustering>
<clus scale="   24.198">  2  9  1 -1</clus>
<clus scale="   80.794">  5  6 -1 -1</clus>
<clus scale="   91.446">  7  8 -1 -1</clus>
<clus scale="  115.127">  1  7  2 -1</clus>
<clus scale="  191.486">  2 10  1 -1</clus>
<clus scale="   24.198">  2  5  1 -1</clus>
</clustering>
</event>
<event>
10    3  0.7209067E-005  0.1264521E+03  0.7546771E-02  0.1245491E+00
          1   -1    0    0  502    0 -0.00000000000E+00  0.00000000000E+00  0.33358217275E+03  0.33358217275E+03  0.00000000000E+00 0. -1.
         21   -1    0    0  503  502  0.00000000000E+00 -0.00000000000E+00 -0.14792458996E+03  0.14792458996E+03  0.00000000000E+00 0. -1.
        -24    2    1    2    0    0 -0.31825690208E+02 -0.39249480338E+02 -0.99169245962E+01  0.98221515691E+02  0.83640447675E+02 0.  0.
         23    2    1    2    0    0 -0.67470394806E+01 -0.45175191665E+02  0.25045963523E+03  0.27032682506E+03  0.90885878904E+02 0.  0.
         13    1    3    3    0    0 -0.50347945243E+02 -0.53988066962E+02 -0.10370875114E+02  0.74546509074E+02  0.00000000000E+00 0. -1.
        -14    1    3    3    0    0  0.18522255036E+02  0.14738586623E+02  0.45395051777E+00  0.23675006617E+02  0.00000000000E+00 0.  1.
        -13    1    4    4    0    0  0.33358894208E+02 -0.49147602586E+02  0.17457825429E+03  0.18440680447E+03  0.00000000000E+00 0. -1.
         13    1    4    4    0    0 -0.40105933688E+02  0.39724109211E+01  0.75881380943E+02  0.85920020596E+02  0.00000000000E+00 0.  1.
         21    1    1    2  503  501 -0.18432850892E+00  0.30638484559E+02 -0.27705420437E+02  0.41307881023E+02  0.00000000000E+00 0.  1.
          2    1    1    2  501    0  0.38757058197E+02  0.53786187445E+02 -0.27179707414E+02  0.71650540927E+02  0.00000000000E+00 0. -1.
<scales pt_clust_5="13000.00000" pt_clust_6="13000.00000" pt_clust_7="13000.00000" pt_clust_8="13000.00000" pt_clust_9="22.87126" pt_clust_10="94.13683"></scales>
<clustering>
<clus scale="   22.871">  9 10 -1 -1</clus>
<clus scale="   83.640">  5  6 -1 -1</clus>
<clus scale="   90.886">  7  8 -1 -1</clus>
<clus scale="   97.720">  1  5  2 -1</clus>
<clus scale="   94.137">  2  9  1 -1</clus>
<clus scale="   94.137">  2  5  1 -1</clus>
</clustering>
</event>
<event>
10    3  0.7209067E-005  0.1717901E+03  0.7546771E-02  0.1199793E+00
          1   -1    0    0  503    0 -0.00000000000E+00  0.00000000000E+00  0.79540492048E+03  0.79540492048E+03  0.00000000000E+00 0. -1.
         21   -1    0    0  501  502  0.00000000000E+00 -0.00000000000E+00 -0.11022678866E+03  0.11022678866E+03  0.00000000000E+00 0. -1.
        -24    2    1    2    0    0 -0.21794838349E+02  0.53681254840E+02  0.43728239317E+03  0.44862381752E+03  0.81796981464E+02 0.  0.
         23    2    1    2    0    0 -0.61115962637E+02  0.46360125504E+02  0.15067817229E+03  0.20817345986E+03  0.12144074958E+03 0.  0.
         13    1    3    3    0    0  0.25886908385E+02  0.43730245050E+02  0.19656576829E+03  0.20302848968E+03  0.00000000000E+00 0. -1.
        -14    1    3    3    0    0 -0.47681746734E+02  0.99510097893E+01  0.24071662487E+03  0.24559532784E+03  0.00000000000E+00 0.  1.
        -13    1    4    4    0    0 -0.81101800274E+02  0.33713550456E+02  0.16018465086E+03  0.18268340883E+03  0.00000000000E+00 0. -1.
         13    1    4    4    0    0  0.19985837637E+02  0.12646575047E+02 -0.95064785652E+01  0.25490051024E+02  0.00000000000E+00 0.  1.
         21    1    1    2  503  502 -0.30443095693E+02  0.13642407969E+02 -0.29325828729E+02  0.44417356981E+02  0.00000000000E+00 0. -1.
          2    1    1    2  501    0  0.11335389668E+03 -0.11368378831E+03  0.12654339510E+03  0.20441707478E+03  0.00000000000E+00 0. -1.
<scales pt_clust_5="13000.00000" pt_clust_6="13000.00000" pt_clust_7="13000.00000" pt_clust_8="13000.00000" pt_clust_9="33.36012" pt_clust_10="121.50713"></scales>
<clustering>
<clus scale="   33.360">  2  9  1 -1</clus>
<clus scale="   81.797">  5  6 -1 -1</clus>
<clus scale="  101.341">  1  5  2 -1</clus>
<clus scale="  121.441">  7  8 -1 -1</clus>
<clus scale="  121.507">  2 10  1 -1</clus>
<clus scale="   33.360">  2  5  1 -1</clus>
</clustering>
</event>
<event>
10    3  0.7209067E-005  0.8781941E+02  0.7546771E-02  0.1310130E+00
         21   -1    0    0  501  502  0.00000000000E+00  0.00000000000E+00  0.20527622181E+03  0.20527622181E+03  0.00000000000E+00 0.  1.
          1   -1    0    0  503    0 -0.00000000000E+00 -0.00000000000E+00 -0.14417320005E+03  0.14417320005E+03  0.00000000000E+00 0. -1.
        -24    2    1    2    0    0  0.32474601638E+01 -0.30233847122E+02 -0.88669532173E+02  0.12364817509E+03  0.80634693260E+02 0.  0.
         23    2    1    2    0    0 -0.23789266204E+02  0.51150678258E+01  0.44996205709E+02  0.98162199180E+02  0.83779864611E+02 0.  0.
         11    1    3    3    0    0 -0.17884183291E+02 -0.44453572319E+02 -0.85459786365E+02  0.97976217469E+02  0.00000000000E+00 0. -1.
        -12    1    3    3    0    0  0.21131643455E+02  0.14219725197E+02 -0.32097458077E+01  0.25671957618E+02  0.00000000000E+00 0.  1.
        -11    1    4    4    0    0 -0.50708619726E+02 -0.45044982194E+01  0.47290030638E+02  0.69483822696E+02  0.00000000000E+00 0.  1.
         11    1    4    4    0    0  0.26919353522E+02  0.96195660452E+01 -0.22938249289E+01  0.28678376484E+02  0.00000000000E+00 0. -1.
         21    1    1    2  503  502 -0.20545494536E+02 -0.57770900050E+01  0.27157699651E+02  0.34540306382E+02  0.00000000000E+00 0.  1.
          2    1    1    2  501    0  0.41087300575E+02  0.30895869301E+02  0.77618648578E+02  0.93098741214E+02  0.00000000000E+00 0. -1.
<scales pt_clust_5="13000.00000" pt_clust_6="13000.00000" pt_clust_7="13000.00000" pt_clust_8="13000.00000" pt_clust_9="21.34226" pt_clust_10="41.84382"></scales>
<clustering>
<clus scale="   21.342">  1  9  2 -1</clus>
<clus scale="   41.844">  1 10  2 -1</clus>
<clus scale="   80.635">  5  6 -1 -1</clus>
<clus scale="   83.780">  7  8 -1 -1</clus>
<clus scale="   84.824">  2  5  1 -1</clus>
<clus scale="   21.342">  1  5  2 -1</clus>
</clustering>
</event>
<event>
10    3  0.7209067E-005  0.1617273E+03  0.7546771E-02  0.1188387E+00
         21   -1    0    0  503  502  0.00000000000E+00  0.00000000000E+00  0.93482455655E+03  0.93482455655E+03  0.00000000000E+00 0.  1.
         -4   -1    0    0    0  501 -0.00000000000E+00 -0.00000000000E+00 -0.81711387206E+02  0.81711387206E+02  0.00000000000E+00 0.  1.
         23    2    1    2    0    0  0.11435337802E+03  0.58184445043E+02  0.84555815293E+02  0.17860011991E+03  0.91028524230E+02 0.  0.
        -24    2    1    2    0    0 -0.90129684312E+02 -0.13425699678E+03  0.31947547239E+03  0.36698513253E+03  0.80406522494E+02 0.  0.
         11    1    4    4    0    0 -0.43593430922E+02 -0.10292315546E+03  0.14117366294E+03  0.18006544993E+03  0.00000000000E+00 0. -1.
        -12    1    4    4    0    0 -0.46536253390E+02 -0.31333841325E+02  0.17830180945E+03  0.18691968260E+03  0.00000000000E+00 0.  1.
        -11    1    3    3    0    0  0.12007177318E+03  0.23875711967E+02  0.63023783613E+02  0.13769269275E+03  0.00000000000E+00 0.  1.
         11    1    3    3    0    0 -0.57183951619E+01  0.34308733076E+02  0.21532031681E+02  0.40907427160E+02  0.00000000000E+00 0. -1.
         21    1    1    2  503  501  0.19399372838E+02  0.53801248104E+02  0.39016117272E+03  0.39433063622E+03  0.00000000000E+00 0.  1.
         -3    1    1    2    0  502 -0.43623066543E+02  0.22271303636E+02  0.58920708936E+02  0.76620055088E+02  0.00000000000E+00 0.  1.
<scales pt_clust_5="13000.00000" pt_clust_6="13000.00000" pt_clust_7="13000.00000" pt_clust_8="13000.00000" pt_clust_9="63.87742" pt_clust_10="48.97944"></scales>
<clustering>
<clus scale="   48.979">  1 10  2 -1</clus>
<clus scale="   63.877">  1  9  2 -1</clus>
<clus scale="   80.407">  5  6 -1 -1</clus>
<clus scale="   91.029">  7  8 -1 -1</clus>
<clus scale="  155.996">  1  5  2 -1</clus>
<clus scale="   48.979">  1  5  2 -1</clus>
</clustering>
</event>
<event>
10    3  0.7209067E-005  0.1148387E+03  0.7546771E-02  0.1255873E+00
         21   -1    0    0  503  502  0.00000000000E+00  0.00000000000E+00  0.43335765765E+03  0.43335765765E+03  0.00000000000E+00 0. -1.
          1   -1    0    0  502    0 -0.00000000000E+00 -0.00000000000E+00 -0.15572179805E+03  0.15572179805E+03  0.00000000000E+00 0. -1.
         23    2    1    2    0    0  0.78148631300E+02  0.49049872801E+02 -0.84376612454E+02  0.15482884972E+03  0.91320651452E+02 0.  0.
        -24    2    1    2    0    0 -0.33661884045E+02  0.18262161315E+02  0.48925542449E+02  0.10128576415E+03  0.79990426564E+02 0.  0.
         11    1    4    4    0    0 -0.27033062860E+02  0.39918721991E+02  0.59257513345E+02  0.76392039774E+02  0.00000000000E+00 0. -1.
        -12    1    4    4    0    0 -0.66288211853E+01 -0.21656560676E+02 -0.10331970896E+02  0.24893724374E+02  0.00000000000E+00 0.  1.
        -11    1    3    3    0    0  0.33148297215E+02  0.70447154781E+02 -0.37502336851E+02  0.86417801952E+02  0.00000000000E+00 0.  1.
         11    1    3    3    0    0  0.45000334085E+02 -0.21397281979E+02 -0.46874275603E+02  0.68411047771E+02  0.00000000000E+00 0. -1.
         21    1    1    2  503  501  0.16229666022E+02 -0.27269747221E+02  0.16449154456E+03  0.16752465312E+03  0.00000000000E+00 0. -1.
          2    1    1    2  501    0 -0.60716413277E+02 -0.40042286895E+02  0.14859538505E+03  0.16544018871E+03  0.00000000000E+00 0. -1.
<scales pt_clust_5="13000.00000" pt_clust_6="13000.00000" pt_clust_7="13000.00000" pt_clust_8="13000.00000" pt_clust_9="31.73391" pt_clust_10="75.91029"></scales>
<clustering>
<clus scale="   31.734">  1  9  2 -1</clus>
<clus scale="   75.910">  1 10  2 -1</clus>
<clus scale="   79.990">  5  6 -1 -1</clus>
<clus scale="   91.321">  7  8 -1 -1</clus>
<clus scale="  106.052">  1  5  2 -1</clus>
<clus scale="   31.734">  1  5  2 -1</clus>
</clustering>
</event>
<event>
10    3  0.7209067E-005  0.1622777E+03  0.7546771E-02  0.1209360E+00
          1   -1    0    0  503    0 -0.00000000000E+00  0.00000000000E+00  0.85117591080E+03  0.85117591080E+03  0.00000000000E+00 0. -1.
         21   -1    0    0  501  502  0.00000000000E+00 -0.00000000000E+00 -0.12356300687E+03  0.12356300687E+03  0.00000000000E+00 0.  1.
         23    2    1    2    0    0  0.39775033502E+02  0.15858334819E+02 -0.25011709161E+02  0.10468905779E+03  0.92199095181E+02 0.  0.
        -24    2    1    2    0    0  0.19563791632E+02 -0.13272169075E+03  0.55827941500E+03  0.57951689832E+03  0.78524780070E+02 0.  0.
         11    1    4    4    0    0 -0.22505925613E+02 -0.64790959181E+02  0.17424870268E+03  0.18726183665E+03  0.00000000000E+00 0. -1.
        -12    1    4    4    0    0  0.42069717246E+02 -0.67930731573E+02  0.38403071232E+03  0.39225506167E+03  0.00000000000E+00 0.  1.
        -11    1    3    3    0    0  0.68536705537E+02  0.21592362260E+02 -0.13136994436E+02  0.73048550544E+02  0.00000000000E+00 0.  1.
         11    1    3    3    0    0 -0.28761672034E+02 -0.57340274407E+01 -0.11874714725E+02  0.31640507245E+02  0.00000000000E+00 0. -1.
         21    1    1    2  503  502 -0.10835927351E+02 -0.24827014052E+02 -0.16645477442E+02  0.31794179775E+02  0.00000000000E+00 0. -1.
          2    1    1    2  501    0 -0.48502897784E+02  0.14169036999E+03  0.21099067553E+03  0.25873878179E+03  0.00000000000E+00 0. -1.
<scales pt_clust_5="13000.00000" pt_clust_6="13000.00000" pt_clust_7="13000.00000" pt_clust_8="13000.00000" pt_clust_9="27.08871" pt_clust_10="142.01375"></scales>
<clustering>
<clus scale="   27.089">  2  9  1 -1</clus>
<clus scale="   78.525">  5  6 -1 -1</clus>
<clus scale="   92.199">  7  8 -1 -1</clus>
<clus scale="   97.827">  1  7  2 -1</clus>
<clus scale="  142.014">  2 10  1 -1</clus>
<clus scale="   27.089">  2  5  1 -1</clus>
</clustering>
</event>
<event>
10    3  0.7209067E-005  0.2511811E+03  0.7546771E-02  0.1119304E+00
         21   -1    0    0  501  502  0.00000000000E+00  0.00000000000E+00  0.11830013346E+04  0.11830013346E+04  0.00000000000E+00 0.  1.
         -4   -1    0    0    0  501 -0.00000000000E+00 -0.00000000000E+00 -0.18836007261E+03  0.18836007261E+03  0.00000000000E+00 0.  1.
         23    2    1    2    0    0  0.19683842259E+03 -0.37660431146E+02  0.43672988210E+03  0.48957890504E+03  0.93759488353E+02 0.  0.
        -24    2    1    2    0    0 -0.12362450666E+03  0.27437694365E+03  0.69559959237E+02  0.31908352284E+03  0.80062355454E+02 0.  0.
         13    1    4    4    0    0 -0.89727994708E+02  0.16489404566E+03  0.79869758033E+02  0.20401063104E+03  0.00000000000E+00 0. -1.
        -14    1    4    4    0    0 -0.33896511949E+02  0.10948289799E+03 -0.10309798796E+02  0.11507289179E+03  0.00000000000E+00 0.  1.
        -11    1    3    3    0    0  0.17126478170E+03 -0.56904082643E+02  0.40969888743E+03  0.44768613830E+03  0.00000000000E+00 0.  1.
         11    1    3    3    0    0  0.25573640893E+02  0.19243651497E+02  0.27030994673E+02  0.41892766732E+02  0.00000000000E+00 0. -1.
         21    1    1    2  503  502 -0.26390745048E+02 -0.14626723247E+02  0.16441062243E+03  0.16715640946E+03  0.00000000000E+00 0.  1.
         -3    1    1    2    0  503 -0.46823170883E+02 -0.22208978926E+03  0.32394079822E+03  0.39554256987E+03  0.00000000000E+00 0.  1.
<scales pt_clust_5="13000.00000" pt_clust_6="13000.00000" pt_clust_7="13000.00000" pt_clust_8="13000.00000" pt_clust_9="30.17304" pt_clust_10="238.07977"></scales>
<clustering>
<clus scale="   30.173">  1  9  2 -1</clus>
<clus scale="   80.062">  5  6 -1 -1</clus>
<clus scale="   93.759">  7  8 -1 -1</clus>
<clus scale="  211.930">  2  7  1 -1</clus>
<clus scale="  238.080">  1 10  2 -1</clus>
<clus scale="   30.173">  1  5  2 -1</clus>
</clustering>
</event>
<event>
10    3  0.7209067E-005  0.9443400E+02  0.7546771E-02  0.1299267E+00
          1   -1    0    0  502    0 -0.00000000000E+00  0.00000000000E+00  0.10360397581E+04  0.10360397581E+04  0.00000000000E+00 0. -1.
         21   -1    0    0  503  502  0.00000000000E+00 -0.00000000000E+00 -0.92325536768E+02  0.92325536768E+02  0.00000000000E+00 0.  1.
         23    2    1    2    0    0  0.10951883789E+02 -0.93691771131E+01  0.26072397920E+03  0.27681804288E+03  0.91888575438E+02 0.  0.
        -24    2    1    2    0    0  0.42558110875E+02  0.30529721566E+02  0.19940253518E+03  0.22126060167E+03  0.80322015126E+02 0.  0.
         13    1    4    4    0    0 -0.20331121865E+02  0.39905179715E+01  0.89647708910E+02  0.92010817096E+02  0.00000000000E+00 0. -1.
        -14    1    4    4    0    0  0.62889232740E+02  0.26539203594E+02  0.10975482627E+03  0.12924978457E+03  0.00000000000E+00 0.  1.
        -13    1    3    3    0    0 -0.34988688361E+02 -0.20191737356E+02  0.16780485003E+03  0.17259890575E+03  0.00000000000E+00 0.  1.
         13    1    3    3    0    0  0.45940572149E+02  0.10822560243E+02  0.92919129167E+02  0.10421913713E+03  0.00000000000E+00 0. -1.
         21    1    1    2  503  501  0.27511622016E+02  0.65134404860E+01 -0.67189074087E+02  0.72895033641E+02  0.00000000000E+00 0.  1.
          2    1    1    2  501    0 -0.81021616680E+02 -0.27673984939E+02  0.55077678102E+03  0.55739161666E+03  0.00000000000E+00 0. -1.
<scales pt_clust_5="13000.00000" pt_clust_6="13000.00000" pt_clust_7="13000.00000" pt_clust_8="13000.00000" pt_clust_9="28.27215" pt_clust_10="81.44183"></scales>
<clustering>
<clus scale="   28.272">  2  9  1 -1</clus>
<clus scale="   80.322">  5  6 -1 -1</clus>
<clus scale="   81.442">  2 10  1 -1</clus>
<clus scale="   83.222">  2  5  1 -1</clus>
<clus scale="   91.889">  7  8 -1 -1</clus>
<clus scale="   28.272">  2  5  1 -1</clus>
</clustering>
</event>
<event>
10    3  0.7209067E-005  0.4428217E+03  0.7546771E-02  0.1029885E+00
         21   -1    0    0  501  502  0.00000000000E+00  0.00000000000E+00  0.48414786869E+03  0.48414786869E+03  0.00000000000E+00 0.  1.
         -2   -1    0    0    0  501 -0.00000000000E+00 -0.00000000000E+00 -0.52353063242E+03  0.52353063242E+03  0.00000000000E+00 0.  1.
        -24    2    1    2    0    0 -0.21589697802E+02 -0.54526222502E+02 -0.68192901510E+02  0.12104730569E+03  0.81012063348E+02 0.  0.
         23    2    1    2    0    0  0.20593794901E+02 -0.32694111819E+03 -0.19590960655E+03  0.39177916382E+03  0.88293488500E+02 0.  0.
         13    1    3    3    0    0 -0.43975791284E+02 -0.55827403082E+02 -0.68380239935E+02  0.98622646322E+02  0.00000000000E+00 0. -1.
        -14    1    3    3    0    0  0.22386093482E+02  0.13011805806E+01  0.18733842437E+00  0.22424659372E+02  0.00000000000E+00 0.  1.
        -13    1    4    4    0    0  0.51112416036E+02 -0.16322493851E+03 -0.79652466295E+02  0.18867796642E+03  0.00000000000E+00 0. -1.
         13    1    4    4    0    0 -0.30518621135E+02 -0.16371617968E+03 -0.11625714026E+03  0.20310119740E+03  0.00000000000E+00 0.  1.
         21    1    1    2  503  502  0.23659846354E+02 -0.12348704217E+02  0.63186940827E+02  0.68592042661E+02  0.00000000000E+00 0.  1.
         -1    1    1    2    0  503 -0.22663943453E+02  0.39381604491E+03  0.16153280350E+03  0.42625998893E+03  0.00000000000E+00 0.  1.
<scales pt_clust_5="13000.00000" pt_clust_6="13000.00000" pt_clust_7="13000.00000" pt_clust_8="13000.00000" pt_clust_9="26.68855" pt_clust_10="385.18636"></scales>
<clustering>
<clus scale="   26.689">  1  9  2 -1</clus>
<clus scale="   81.012">  5  6 -1 -1</clus>
<clus scale="   88.293">  7  8 -1 -1</clus>
<clus scale="   94.432">  5  7 -1 -1</clus>
<clus scale="  385.186">  1 10  2 -1</clus>
<clus scale="   26.689">  1  5  2 -1</clus>
</clustering>
</event>
<event>
10    3  0.7209067E-005  0.4671317E+03  0.7546771E-02  0.1074325E+00
          3   -1    0    0  502    0 -0.00000000000E+00  0.00000000000E+00  0.40365019927E+03  0.40365019927E+03  0.00000000000E+00 0. -1.
         21   -1    0    0  503  502  0.00000000000E+00 -0.00000000000E+00 -0.79425402855E+03  0.79425402855E+03  0.00000000000E+00 0. -1.
        -24    2    1    2    0    0 -0.60368092339E+02 -0.17375092945E+02 -0.14145716912E+03  0.17531203310E+03  0.82328475187E+02 0.  0.
         23    2    1    2    0    0 -0.17782714679E+02  0.48326318473E+03 -0.15519948342E+03  0.51584407072E+03  0.90270122340E+02 0.  0.
         11    1    3    3    0    0 -0.50851646584E+02 -0.40355222858E+02 -0.13471593473E+03  0.14954202434E+03  0.00000000000E+00 0. -1.
        -12    1    3    3    0    0 -0.95164457551E+01  0.22980129913E+02 -0.67412343913E+01  0.25770008765E+02  0.00000000000E+00 0.  1.
        -11    1    4    4    0    0 -0.16653307245E+02  0.45692904209E+03 -0.16725037085E+03  0.48686154983E+03  0.00000000000E+00 0. -1.
         11    1    4    4    0    0 -0.11294074346E+01  0.26334142640E+02  0.12050887429E+02  0.28982520897E+02  0.00000000000E+00 0.  1.
         21    1    1    2  503  501 -0.11860269167E+02 -0.36252778969E+02 -0.53804557680E+02  0.65953471439E+02  0.00000000000E+00 0. -1.
          4    1    1    2  501    0  0.90011076185E+02 -0.42963531282E+03 -0.40142619051E+02  0.44079465255E+03  0.00000000000E+00 0. -1.
<scales pt_clust_5="13000.00000" pt_clust_6="13000.00000" pt_clust_7="13000.00000" pt_clust_8="13000.00000" pt_clust_9="38.14354" pt_clust_10="458.32685"></scales>
<clustering>
<clus scale="   38.144">  2  9  1 -1</clus>
<clus scale="   82.328">  5  6 -1 -1</clus>
<clus scale="   90.270">  7  8 -1 -1</clus>
<clus scale="  106.641">  1  5  2 -1</clus>
<clus scale="  458.327">  2 10  1 -1</clus>
<clus scale="   38.144">  2  5  1 -1</clus>
</clustering>
</event>
<event>
10    3  0.7209067E-005  0.1346685E+03  0.7546771E-02  0.1223973E+00
         21   -1    0    0  501  502  0.00000000000E+00  0.00000000000E+00  0.49657333500E+02  0.49657333500E+02  0.00000000000E+00 0. -1.
          3   -1    0    0  503    0 -0.00000000000E+00 -0.00000000000E+00 -0.79047105425E+03  0.79047105425E+03  0.00000000000E+00 0. -1.
        -24    2    1    2    0    0  0.22511958064E+02 -0.74498379689E+02 -0.19251818822E+03  0.22251658776E+03  0.79959878694E+02 0.  0.
         23    2    1    2    0    0 -0.75336774354E+02  0.96553813295E+02 -0.32875624298E+03  0.36304389640E+03  0.93391300359E+02 0.  0.
         13    1    3    3    0    0  0.32675408841E+02 -0.87944748099E+02 -0.17236576058E+03  0.19624453236E+03  0.00000000000E+00 0. -1.
        -14    1    3    3    0    0 -0.10163450777E+02  0.13446368411E+02 -0.20152427640E+02  0.26272055399E+02  0.00000000000E+00 0.  1.
        -11    1    4    4    0    0 -0.53005329212E+02  0.11344063322E+03 -0.25323701644E+03  0.28250190917E+03  0.00000000000E+00 0. -1.
         11    1    4    4    0    0 -0.22331445142E+02 -0.16886819926E+02 -0.75519226538E+02  0.80541987225E+02  0.00000000000E+00 0.  1.
         21    1    1    2  503  502  0.31896445441E+02 -0.62200526347E+02 -0.72472121251E+02  0.10069010412E+03  0.00000000000E+00 0. -1.
          4    1    1    2  501    0  0.20928370850E+02  0.40145092740E+02 -0.14706716830E+03  0.15387779947E+03  0.00000000000E+00 0. -1.
<scales pt_clust_5="13000.00000" pt_clust_6="13000.00000" pt_clust_7="13000.00000" pt_clust_8="13000.00000" pt_clust_9="62.93525" pt_clust_10="45.27281"></scales>
<clustering>
<clus scale="   45.273">  1 10  2 -1</clus>
<clus scale="   62.935">  1  9  2 -1</clus>
<clus scale="   79.960">  5  6 -1 -1</clus>
<clus scale="   93.391">  7  8 -1 -1</clus>
<clus scale="  125.727">  2  5  1 -1</clus>
<clus scale="   45.273">  1  5  2 -1</clus>
</clustering>
</event>
<event>
10    3  0.7209067E-005  0.9502147E+02  0.7546771E-02  0.1297224E+00
         -2   -1    0    0    0  501 -0.00000000000E+00  0.00000000000E+00  0.27189186020E+03  0.27189186020E+03  0.00000000000E+00 0.  1.
         21   -1    0    0  503  502  0.00000000000E+00 -0.00000000000E+00 -0.23988029430E+03  0.23988029430E+03  0.00000000000E+00 0.  1.
        -24    2    1    2    0    0  0.26006254709E+02 -0.17730953963E+00  0.15569317298E+03  0.17663251486E+03  0.79261115760E+02 0.  0.
         23    2    1    2    0    0 -0.49443501457E+02 -0.60850724801E+02 -0.14660170923E+02  0.12032137988E+03  0.90082425026E+02 0.  0.
         11    1    3    3    0    0  0.35205518370E+02 -0.22549908358E+02  0.14365003927E+03  0.14961036285E+03  0.00000000000E+00 0. -1.
        -12    1    3    3    0    0 -0.91992636617E+01  0.22372598819E+02  0.12043133715E+02  0.27022152014E+02  0.00000000000E+00 0.  1.
        -11    1    4    4    0    0 -0.22877038719E+02 -0.77964559054E+02  0.76902455327E+01  0.81614773450E+02  0.00000000000E+00 0.  1.
         11    1    4    4    0    0 -0.26566462738E+02  0.17113834252E+02 -0.22350416456E+02  0.38706606425E+02  0.00000000000E+00 0. -1.
         21    1    1    2  503  501  0.73062496581E+02  0.78336982764E+02 -0.12028331395E+03  0.16106795736E+03  0.00000000000E+00 0.  1.
         -1    1    1    2    0  502 -0.49625249833E+02 -0.17308948423E+02  0.11261877796E+02  0.53750302399E+02  0.00000000000E+00 0.  1.
<scales pt_clust_5="13000.00000" pt_clust_6="13000.00000" pt_clust_7="13000.00000" pt_clust_8="13000.00000" pt_clust_9="78.78906" pt_clust_10="52.55728"></scales>
<clustering>
<clus scale="   52.557">  2 10  1 -1</clus>
<clus scale="   78.789">  2  9  1 -1</clus>
<clus scale="   79.261">  5  6 -1 -1</clus>
<clus scale="   84.833">  1  5  2 -1</clus>
<clus scale="   90.082">  7  8 -1 -1</clus>
<clus scale="   52.557">  2  5  1 -1</clus>
</clustering>
</event>
<event>
10    3  0.7209067E-005  0.1078941E+03  0.7546771E-02  0.1268867E+00
         -4   -1    0    0    0  501 -0.00000000000E+00  0.00000000000E+00  0.66703061367E+03  0.66703061367E+03  0.00000000000E+00 0.  1.
         21   -1    0    0  503  502  0.00000000000E+00 -0.00000000000E+00 -0.26990102914E+02  0.26990102914E+02  0.00000000000E+00 0.  1.
         23    2    1    2    0    0  0.54528885281E+02  0.46214209197E+02  0.25757418803E+03  0.27577857434E+03  0.67824827761E+02 0.  0.
        -24    2    1    2    0    0 -0.27463418288E+02 -0.73801189346E+02  0.27221249909E+03  0.29446719362E+03  0.80065151994E+02 0.  0.
         13    1    4    4    0    0 -0.29854979005E+02  0.69184069516E+01  0.92498599209E+02  0.97443188483E+02  0.00000000000E+00 0. -1.
        -14    1    4    4    0    0  0.23915607177E+01 -0.80719596298E+02  0.17971389988E+03  0.19702400514E+03  0.00000000000E+00 0.  1.
        -11    1    3    3    0    0  0.28843866099E+02  0.60935609084E+02  0.15521479170E+03  0.16922395997E+03  0.00000000000E+00 0.  1.
         11    1    3    3    0    0  0.25685019182E+02 -0.14721399887E+02  0.10235939633E+03  0.10655461436E+03  0.00000000000E+00 0. -1.
         21    1    1    2  503  501 -0.36654997337E+01  0.20807239957E+02  0.16218107591E+02  0.26634641667E+02  0.00000000000E+00 0.  1.
         -3    1    1    2    0  502 -0.23399967260E+02  0.67797401920E+01  0.94035716040E+02  0.97140306958E+02  0.00000000000E+00 0.  1.
<scales pt_clust_5="13000.00000" pt_clust_6="13000.00000" pt_clust_7="13000.00000" pt_clust_8="13000.00000" pt_clust_9="21.12764" pt_clust_10="25.06238"></scales>
<clustering>
<clus scale="   21.128">  2  9  1 -1</clus>
<clus scale="   25.062">  2 10  1 -1</clus>
<clus scale="   67.825">  7  8 -1 -1</clus>
<clus scale="   80.065">  5  6 -1 -1</clus>
<clus scale="   99.151">  1  7  2 -1</clus>
<clus scale="   21.128">  2  5  1 -1</clus>
</clustering>
</event>
<event>
10    3  0.7209067E-005  0.1422917E+03  0.7546771E-02  0.1233803E+00
          1   -1    0    0  502    0 -0.00000000000E+00  0.00000000000E+00  0.57468715833E+02  0.57468715833E+02  0.00000000000E+00 0. -1.
         21   -1    0    0  503  502  0.00000000000E+00 -0.00000000000E+00 -0.73679786628E+03  0.73679786628E+03  0.00000000000E+00 0.  1.
        -24    2    1    2    0    0  0.32858466577E+02 -0.73001144831E+01 -0.34771160399E+02  0.93663878485E+02  0.80193004932E+02 0.  0.
         23    2    1    2    0    0  0.94968313763E+02 -0.18573691674E+02 -0.36388236860E+03  0.38701031991E+03  0.89457514470E+02 0.  0.
         13    1    3    3    0    0 -0.80547863119E+01  0.29767378784E+02 -0.60266297784E+01  0.31421277642E+02  0.00000000000E+00 0. -1.
        -14    1    3    3    0    0  0.40913252889E+02 -0.37067493267E+02 -0.28744530620E+02  0.62242600842E+02  0.00000000000E+00 0.  1.
        -13    1    4    4    0    0  0.57753880818E+02  0.33723268898E+02 -0.20579649388E+03  0.21639077270E+03  0.00000000000E+00 0.  1.
         13    1    4    4    0    0  0.37214432945E+02 -0.52296960572E+02 -0.15808587472E+03  0.17061954721E+03  0.00000000000E+00 0. -1.
         21    1    1    2  503  501 -0.66410228332E+02 -0.10743411914E+01 -0.18651210702E+03  0.19798545073E+03  0.00000000000E+00 0. -1.
          2    1    1    2  501    0 -0.61416552008E+02  0.26948147349E+02 -0.94163514431E+02  0.11560693299E+03  0.00000000000E+00 0. -1.
<scales pt_clust_5="13000.00000" pt_clust_6="13000.00000" pt_clust_7="13000.00000" pt_clust_8="13000.00000" pt_clust_9="50.27441" pt_clust_10="121.64106"></scales>
<clustering>
<clus scale="   50.274">  9 10 -1 -1</clus>
<clus scale="   80.193">  5  6 -1 -1</clus>
<clus scale="   86.971">  1  5  2 -1</clus>
<clus scale="   89.458">  7  8 -1 -1</clus>
<clus scale="  121.641">  2  9  1 -1</clus>
<clus scale="  121.641">  2  5  1 -1</clus>
</clustering>
</event>
<event>
10    3  0.7209067E-005  0.2854856E+03  0.7546771E-02  0.1126342E+00
         21   -1    0    0  501  502  0.00000000000E+00  0.00000000000E+00  0.72445034585E+03  0.72445034585E+03  0.00000000000E+00 0. -1.
          3   -1    0    0  503    0 -0.00000000000E+00 -0.00000000000E+00 -0.26323342638E+03  0.26323342638E+03  0.00000000000E+00 0. -1.
         23    2    1    2    0    0 -0.77875946691E+02  0.13009401685E+02  0.22703110925E+03  0.25720566845E+03  0.91529906091E+02 0.  0.
        -24    2    1    2    0    0 -0.18892742954E+03 -0.16662491059E+03  0.22372526874E+03  0.34566277612E+03  0.77280815633E+02 0.  0.
         11    1    4    4    0    0 -0.15332193173E+03 -0.16066765603E+03  0.16477362899E+03  0.27653581912E+03  0.00000000000E+00 0. -1.
        -12    1    4    4    0    0 -0.35605497813E+02 -0.59572545572E+01  0.58951639747E+02  0.69126957008E+02  0.00000000000E+00 0.  1.
        -11    1    3    3    0    0  0.19552089440E+02  0.12582760719E+02  0.38152324001E+02  0.44678964798E+02  0.00000000000E+00 0.  1.
         11    1    3    3    0    0 -0.97428036130E+02  0.42664096599E+00  0.18887878525E+03  0.21252670365E+03  0.00000000000E+00 0. -1.
         21    1    1    2  503  502 -0.13204141401E+02 -0.40433371366E+02  0.11788517914E+02  0.44138147047E+02  0.00000000000E+00 0.  1.
          4    1    1    2  501    0  0.28000751763E+03  0.19404888027E+03 -0.13279764285E+01  0.34067718061E+03  0.00000000000E+00 0. -1.
<scales pt_clust_5="13000.00000" pt_clust_6="13000.00000" pt_clust_7="13000.00000" pt_clust_8="13000.00000" pt_clust_9="42.53477" pt_clust_10="274.82682"></scales>
<clustering>
<clus scale="   42.535">  2  9  1 -1</clus>
<clus scale="   77.281">  5  6 -1 -1</clus>
<clus scale="   91.530">  7  8 -1 -1</clus>
<clus scale="  121.160">  2  7  1 -1</clus>
<clus scale="  274.827">  1 10  2 -1</clus>
<clus scale="  274.827">  1  5  2 -1</clus>
</clustering>
</event>
<event>
10    3  0.7209067E-005  0.9540086E+02  0.7546771E-02  0.1294570E+00
          1   -1    0    0  503    0 -0.00000000000E+00  0.00000000000E+00  0.72852293974E+03  0.72852293974E+03  0.00000000000E+00 0. -1.
         21   -1    0    0  501  502  0.00000000000E+00 -0.00000000000E+00 -0.88577286359E+02  0.88577286359E+02  0.00000000000E+00 0. -1.
         23    2    1    2    0    0  0.23268156146E+02  0.10640436174E+02  0.42329494120E+03  0.43376252706E+03  0.91195924599E+02 0.  0.
        -24    2    1    2    0    0 -0.40597330033E+02  0.36907414036E+02  0.16114133470E+03  0.18959448702E+03  0.83481970167E+02 0.  0.
         13    1    4    4    0    0 -0.90913444363E+01  0.60041340194E+02  0.94196635034E+02  0.11207417690E+03  0.00000000000E+00 0. -1.
        -14    1    4    4    0    0 -0.31505985597E+02 -0.23133926158E+02  0.66944699667E+02  0.77520310122E+02  0.00000000000E+00 0.  1.
        -13    1    3    3    0    0  0.12407523009E+02 -0.38305066972E+02  0.12621920083E+03  0.13248589148E+03  0.00000000000E+00 0. -1.
         13    1    3    3    0    0  0.10860633137E+02  0.48945503146E+02  0.29707574037E+03  0.30127663558E+03  0.00000000000E+00 0.  1.
         21    1    1    2  503  502 -0.62068269484E+02 -0.18318834350E+02 -0.31850954564E+02  0.72128587088E+02  0.00000000000E+00 0. -1.
          2    1    1    2  501    0  0.79397443371E+02 -0.29229015860E+02  0.87360332044E+02  0.12161462493E+03  0.00000000000E+00 0. -1.
<scales pt_clust_5="13000.00000" pt_clust_6="13000.00000" pt_clust_7="13000.00000" pt_clust_8="13000.00000" pt_clust_9="64.71514" pt_clust_10="62.95652"></scales>
<clustering>
<clus scale="   64.715">  2  9  1 -1</clus>
<clus scale="   62.957">  2 10  1 -1</clus>
<clus scale="   83.482">  5  6 -1 -1</clus>
<clus scale="   88.056">  2  5  1 -1</clus>
<clus scale="   91.196">  7  8 -1 -1</clus>
<clus scale="   64.715">  2  5  1 -1</clus>
</clustering>
</event>
<event>
10    3  0.7209067E-005  0.1257927E+03  0.7546771E-02  0.1249687E+00
         21   -1    0    0  503  502  0.00000000000E+00  0.00000000000E+00  0.85421306490E+02  0.85421306490E+02  0.00000000000E+00 0. -1.
          1   -1    0    0  502    0 -0.00000000000E+00 -0.00000000000E+00 -0.47887771876E+03  0.47887771876E+03  0.00000000000E+00 0. -1.
         23    2    1    2    0    0 -0.17369263789E+02  0.17282937038E+02 -0.39209623582E+02  0.10187122442E+03  0.90774228421E+02 0.  0.
        -24    2    1    2    0    0 -0.46108434588E+02  0.10606975848E+03 -0.17915873124E+03  0.22474509946E+03  0.70962858930E+02 0.  0.
         11    1    4    4    0    0 -0.18247119413E+02  0.49622388431E+02 -0.14228723833E+03  0.15179261179E+03  0.00000000000E+00 0. -1.
        -12    1    4    4    0    0 -0.27861315174E+02  0.56447370047E+02 -0.36871492909E+02  0.72952487674E+02  0.00000000000E+00 0.  1.
        -11    1    3    3    0    0  0.13361694356E+02 -0.18468853165E+02  0.17052697587E+02  0.28468015531E+02  0.00000000000E+00 0. -1.
         11    1    3    3    0    0 -0.30730958145E+02  0.35751790203E+02 -0.56262321169E+02  0.73403208885E+02  0.00000000000E+00 0.  1.
         21    1    1    2  503  501  0.17283020010E+02 -0.36423464746E+02 -0.42858403108E+01  0.40543063426E+02  0.00000000000E+00 0. -1.
          2    1    1    2  501    0  0.46194678367E+02 -0.86929230770E+02 -0.17080221714E+03  0.19713963795E+03  0.00000000000E+00 0. -1.
<scales pt_clust_5="13000.00000" pt_clust_6="13000.00000" pt_clust_7="13000.00000" pt_clust_8="13000.00000" pt_clust_9="40.31590" pt_clust_10="103.86568"></scales>
<clustering>
<clus scale="   40.316">  1  9  2 -1</clus>
<clus scale="   70.963">  5  6 -1 -1</clus>
<clus scale="   90.774">  7  8 -1 -1</clus>
<clus scale="   91.252">  2  7  1 -1</clus>
<clus scale="  103.866">  1 10  2 -1</clus>
<clus scale="   40.316">  1  5  2 -1</clus>
</clustering>
</event>
<event>
10    3  0.7209067E-005  0.1018217E+03  0.7546771E-02  0.1284142E+00
         21   -1    0    0  503  502  0.00000000000E+00  0.00000000000E+00  0.33591451042E+03  0.33591451042E+03  0.00000000000E+00 0. -1.
         -2   -1    0    0    0  501 -0.00000000000E+00 -0.00000000000E+00 -0.13390505443E+03  0.13390505443E+03  0.00000000000E+00 0.  1.
        -24    2    1    2    0    0  0.27196421212E+02 -0.25444599452E+02 -0.99876646780E+02  0.13325925642E+03  0.79972569556E+02 0.  0.
         23    2    1    2    0    0 -0.23900687829E+02  0.20162510236E+02  0.24569995124E+03  0.26524358081E+03  0.94910070191E+02 0.  0.
         11    1    3    3    0    0 -0.25995056513E+02  0.44600964208E+01 -0.38859982759E+02  0.46965239095E+02  0.00000000000E+00 0. -1.
        -12    1    3    3    0    0  0.53191477725E+02 -0.29904695873E+02 -0.61016664021E+02  0.86294017325E+02  0.00000000000E+00 0.  1.
        -11    1    4    4    0    0 -0.55061699575E+02  0.26960069725E+02  0.11085948329E+03  0.12668252111E+03  0.00000000000E+00 0.  1.
         11    1    4    4    0    0  0.31161011745E+02 -0.67975594892E+01  0.13484046795E+03  0.13856105970E+03  0.00000000000E+00 0. -1.
         21    1    1    2  503  501  0.76866593403E+01  0.22191921511E+02  0.34169420937E+02  0.41462217009E+02  0.00000000000E+00 0. -1.
         -1    1    1    2    0  502 -0.10982392723E+02 -0.16909832294E+02  0.22016730587E+02  0.29854510612E+02  0.00000000000E+00 0.  1.
<scales pt_clust_5="13000.00000" pt_clust_6="13000.00000" pt_clust_7="13000.00000" pt_clust_8="13000.00000" pt_clust_9="21.10592" pt_clust_10="20.16322"></scales>
<clustering>
<clus scale="   20.163">  1 10  2 -1</clus>
<clus scale="   21.106">  1  9  2 -1</clus>
<clus scale="   79.973">  5  6 -1 -1</clus>
<clus scale="   88.064">  2  5  1 -1</clus>
<clus scale="   94.910">  7  8 -1 -1</clus>
<clus scale="   20.163">  1  5  2 -1</clus>
</clustering>
</event>
<event>
10    3  0.7209067E-005  0.1361616E+03  0.7546771E-02  0.1222492E+00
          1   -1    0    0  502    0 -0.00000000000E+00  0.00000000000E+00  0.15398500080E+04  0.15398500080E+04  0.00000000000E+00 0. -1.
         21   -1    0    0  503  502  0.00000000000E+00 -0.00000000000E+00 -0.41824465720E+02  0.41824465720E+02  0.00000000000E+00 0. -1.
         23    2    1    2    0    0 -0.79138160255E+02  0.50926678976E+02  0.47704556671E+03  0.49429152499E+03  0.88855297648E+02 0.  0.
        -24    2    1    2    0    0  0.12973303342E+03 -0.44106490439E+01  0.34229030148E+03  0.37297169551E+03  0.71380118969E+02 0.  0.
         11    1    4    4    0    0  0.12939331578E+03 -0.71082565526E+01  0.25874657561E+03  0.28938373809E+03  0.00000000000E+00 0. -1.
        -12    1    4    4    0    0  0.33971763247E+00  0.26976075087E+01  0.83543725873E+02  0.83587957428E+02  0.00000000000E+00 0.  1.
        -11    1    3    3    0    0  0.28311206992E+01  0.42724829630E+02  0.22767676744E+03  0.23166816083E+03  0.00000000000E+00 0.  1.
         11    1    3    3    0    0 -0.81969280954E+02  0.82018493463E+01  0.24936879927E+03  0.26262336416E+03  0.00000000000E+00 0. -1.
         21    1    1    2  503  501  0.41461904026E+02 -0.13530242522E+01  0.17013703856E+02  0.44837331310E+02  0.00000000000E+00 0. -1.
          2    1    1    2  501    0 -0.92056777188E+02 -0.45163005680E+02  0.66167597026E+03  0.66957392193E+03  0.00000000000E+00 0. -1.
<scales pt_clust_5="13000.00000" pt_clust_6="13000.00000" pt_clust_7="13000.00000" pt_clust_8="13000.00000" pt_clust_9="41.48397" pt_clust_10="97.39561"></scales>
<clustering>
<clus scale="   41.484">  2  9  1 -1</clus>
<clus scale="   71.380">  5  6 -1 -1</clus>
<clus scale="   88.855">  7  8 -1 -1</clus>
<clus scale="   97.396">  2 10  1 -1</clus>
<clus scale="  125.458">  2  5  1 -1</clus>
<clus scale="   41.484">  2  5  1 -1</clus>
</clustering>
</event>
<event>
10    3  0.7209067E-005  0.1316196E+03  0.7546771E-02  0.1242306E+00
         21   -1    0    0  501  502  0.00000000000E+00  0.00000000000E+00  0.21467781194E+03  0.21467781194E+03  0.00000000000E+00 0. -1.
          3   -1    0    0  503    0 -0.00000000000E+00 -0.00000000000E+00 -0.50254490629E+03  0.50254490629E+03  0.00000000000E+00 0. -1.
        -24    2    1    2    0    0 -0.19519398894E+02 -0.39543120213E+02 -0.27569118514E+03  0.29076593676E+03  0.81206743093E+02 0.  0.
         23    2    1    2    0    0  0.93659634237E+02 -0.31687487912E+02 -0.10709190705E+03  0.17221124085E+03  0.91715925250E+02 0.  0.
         11    1    3    3    0    0 -0.92240388784E+01 -0.62136691455E+02 -0.23358714943E+03  0.24188635285E+03  0.00000000000E+00 0. -1.
        -12    1    3    3    0    0 -0.10295360015E+02  0.22593571242E+02 -0.42104035715E+02  0.48879583905E+02  0.00000000000E+00 0.  1.
        -11    1    4    4    0    0  0.45294316535E+02 -0.56537493984E+02 -0.31263417832E+02  0.78901613614E+02  0.00000000000E+00 0. -1.
         11    1    4    4    0    0  0.48365317702E+02  0.24850006071E+02 -0.75828489219E+02  0.93309627239E+02  0.00000000000E+00 0.  1.
         21    1    1    2  503  502 -0.10989018903E+03 -0.39863764092E+02  0.65058731937E+02  0.13378195668E+03  0.00000000000E+00 0. -1.
          4    1    1    2  501    0  0.35749953683E+02  0.11109437222E+03  0.29857265911E+02  0.12046358394E+03  0.00000000000E+00 0. -1.
<scales pt_clust_5="13000.00000" pt_clust_6="13000.00000" pt_clust_7="13000.00000" pt_clust_8="13000.00000" pt_clust_9="94.40290" pt_clust_10="107.70244"></scales>
<clustering>
<clus scale="   81.207">  5  6 -1 -1</clus>
<clus scale="   91.716">  7  8 -1 -1</clus>
<clus scale="   92.408">  2  5  1 -1</clus>
<clus scale="  107.702">  1 10  2 -1</clus>
<clus scale="   94.403">  1  9  2 -1</clus>
<clus scale="  107.702">  1  5  2 -1</clus>
</clustering>
</event>
<event>
10    3  0.7209067E-005  0.2434926E+03  0.7546771E-02  0.1149634E+00
          1   -1    0    0  502    0 -0.00000000000E+00  0.00000000000E+00  0.12562182151E+04  0.12562182151E+04  0.00000000000E+00 0. -1.
         21   -1    0    0  503  502  0.00000000000E+00 -0.00000000000E+00 -0.18435089950E+03  0.18435089950E+03  0.00000000000E+00 0. -1.
        -24    2    1    2    0    0  0.76586099133E+02 -0.80578034358E+01  0.74311696801E+03  0.75145540684E+03  0.80821046433E+02 0.  0.
         23    2    1    2    0    0  0.14933897398E+03  0.15081640754E+03  0.17644261104E+03  0.29049034244E+03  0.90581047285E+02 0.  0.
         13    1    3    3    0    0  0.89884064464E+02  0.43522207682E+01  0.53209468886E+03  0.53965066921E+03  0.00000000000E+00 0. -1.
        -14    1    3    3    0    0 -0.13297965331E+02 -0.12410024204E+02  0.21102227915E+03  0.21180473763E+03  0.00000000000E+00 0.  1.
        -11    1    4    4    0    0  0.76226623527E+01  0.40610903134E+02  0.39180792154E+01  0.41505442769E+02  0.00000000000E+00 0. -1.
         11    1    4    4    0    0  0.14171631163E+03  0.11020550441E+03  0.17252453183E+03  0.24898489968E+03  0.00000000000E+00 0.  1.
         21    1    1    2  503  501 -0.21784084338E+02 -0.26577032205E-01 -0.64696007884E+02  0.68265075060E+02  0.00000000000E+00 0.  1.
          2    1    1    2  501    0 -0.20414098878E+03 -0.14273202707E+03  0.21700374446E+03  0.33035829029E+03  0.00000000000E+00 0. -1.
<scales pt_clust_5="13000.00000" pt_clust_6="13000.00000" pt_clust_7="13000.00000" pt_clust_8="13000.00000" pt_clust_9="21.78410" pt_clust_10="226.01717"></scales>
<clustering>
<clus scale="   21.784">  2  9  1 -1</clus>
<clus scale="   80.821">  5  6 -1 -1</clus>
<clus scale="   90.581">  7  8 -1 -1</clus>
<clus scale="  111.108">  1  5  2 -1</clus>
<clus scale="  226.017">  2 10  1 -1</clus>
<clus scale="   21.784">  2  5  1 -1</clus>
</clustering>
</event>
<event>
10    3  0.7209067E-005  0.1023939E+03  0.7546771E-02  0.1280212E+00
         21   -1    0    0  501  502  0.00000000000E+00  0.00000000000E+00  0.86972455161E+02  0.86972455161E+02  0.00000000000E+00 0. -1.
          1   -1    0    0  503    0 -0.00000000000E+00 -0.00000000000E+00 -0.88870947058E+03  0.88870947058E+03  0.00000000000E+00 0. -1.
        -24    2    1    2    0    0  0.64091820427E+02 -0.27533851845E+02 -0.64868236540E+02  0.12521611089E+03  0.81273069785E+02 0.  0.
         23    2    1    2    0    0 -0.16106618899E+02 -0.10491496784E+02 -0.82287583030E+01  0.93928995463E+02  0.91572097543E+02 0.  0.
         13    1    3    3    0    0  0.76536511226E+02 -0.40648224705E+02 -0.62791221017E+02  0.10701800390E+03  0.00000000000E+00 0. -1.
        -14    1    3    3    0    0 -0.12444690799E+02  0.13114372860E+02 -0.20770155231E+01  0.18198106991E+02  0.00000000000E+00 0.  1.
        -11    1    4    4    0    0 -0.50862547633E+02 -0.23488342805E+02 -0.93836539198E+01  0.56804524119E+02  0.00000000000E+00 0. -1.
         11    1    4    4    0    0  0.34755928735E+02  0.12996846021E+02  0.11548956169E+01  0.37124471344E+02  0.00000000000E+00 0.  1.
         21    1    1    2  503  502  0.45321717351E+00 -0.44619524588E+02 -0.36081121678E+02  0.57384272425E+02  0.00000000000E+00 0. -1.
          2    1    1    2  501    0 -0.48438418702E+02  0.82644873218E+02 -0.69255889890E+03  0.69915254696E+03  0.00000000000E+00 0. -1.
<scales pt_clust_5="13000.00000" pt_clust_6="13000.00000" pt_clust_7="13000.00000" pt_clust_8="13000.00000" pt_clust_9="44.62183" pt_clust_10="94.12598"></scales>
<clustering>
<clus scale="   44.622">  1  9  2 -1</clus>
<clus scale="   81.273">  5  6 -1 -1</clus>
<clus scale="   91.572">  7  8 -1 -1</clus>
<clus scale="   94.126">  1 10  2 -1</clus>
<clus scale="   93.297">  2  5  1 -1</clus>
<clus scale="   44.622">  1  5  2 -1</clus>
</clustering>
</event>
<event>
10    3  0.7209067E-005  0.1296186E+03  0.7546771E-02  0.1245007E+00
         21   -1    0    0  503  502  0.00000000000E+00  0.00000000000E+00  0.41949567561E+03  0.41949567561E+03  0.00000000000E+00 0. -1.
         -2   -1    0    0    0  501 -0.00000000000E+00 -0.00000000000E+00 -0.27658986738E+03  0.27658986738E+03  0.00000000000E+00 0.  1.
        -24    2    1    2    0    0 -0.15818259488E+02  0.45077987125E+02  0.37611566733E+01  0.92962940528E+02  0.79660026083E+02 0.  0.
         23    2    1    2    0    0 -0.27346979586E+02  0.61466961262E+01  0.25008447456E+03  0.27015965804E+03  0.98276941606E+02 0.  0.
         13    1    3    3    0    0 -0.39590417782E+02  0.18474564564E+02 -0.22040525257E+02  0.48933582227E+02  0.00000000000E+00 0. -1.
        -14    1    3    3    0    0  0.23772158294E+02  0.26603422561E+02  0.25801681931E+02  0.44029358301E+02  0.00000000000E+00 0.  1.
        -11    1    4    4    0    0 -0.31809641502E+02  0.49333252952E+02  0.14900828170E+03  0.16015333638E+03  0.00000000000E+00 0. -1.
         11    1    4    4    0    0  0.44626619162E+01 -0.43186556826E+02  0.10107619286E+03  0.11000632166E+03  0.00000000000E+00 0.  1.
         21    1    1    2  503  501  0.10821937455E+03  0.29720722987E+01  0.72930255333E+02  0.13053385915E+03  0.00000000000E+00 0. -1.
         -1    1    1    2    0  502 -0.65054135477E+02 -0.54196755550E+02 -0.18387007834E+03  0.20242908527E+03  0.00000000000E+00 0.  1.
<scales pt_clust_5="13000.00000" pt_clust_6="13000.00000" pt_clust_7="13000.00000" pt_clust_8="13000.00000" pt_clust_9="84.51399" pt_clust_10="84.67193"></scales>
<clustering>
<clus scale="   79.660">  5  6 -1 -1</clus>
<clus scale="   84.672">  1 10  2 -1</clus>
<clus scale="   91.620">  2  5  1 -1</clus>
<clus scale="   84.514">  2  9  1 -1</clus>
<clus scale="   98.277">  7  8 -1 -1</clus>
<clus scale="   84.672">  1  5  2 -1</clus>
</clustering>
</event>
<event>
10    3  0.7209067E-005  0.3921751E+03  0.7546771E-02  0.1087096E+00
          1   -1    0    0  503    0 -0.00000000000E+00  0.00000000000E+00  0.90120432299E+03  0.90120432299E+03  0.00000000000E+00 0. -1.
         21   -1    0    0  501  502  0.00000000000E+00 -0.00000000000E+00 -0.50603713486E+03  0.50603713486E+03  0.00000000000E+00 0. -1.
        -24    2    1    2    0    0 -0.98037251006E+02  0.13631732013E+02  0.51532621849E+03  0.53092310670E+03  0.80753371851E+02 0.  0.
         23    2    1    2    0    0 -0.24067787010E+03 -0.27434694681E+03  0.19512946990E+02  0.37704650445E+03  0.92688872253E+02 0.  0.
         11    1    3    3    0    0 -0.87231116940E+02  0.39313078486E+02  0.33274755185E+03  0.34623073111E+03  0.00000000000E+00 0. -1.
        -12    1    3    3    0    0 -0.10806134066E+02 -0.25681346474E+02  0.18257866664E+03  0.18469237559E+03  0.00000000000E+00 0.  1.
        -11    1    4    4    0    0 -0.20014738619E+03 -0.17241173001E+03 -0.67298645265E+01  0.26425380209E+03  0.00000000000E+00 0.  1.
         11    1    4    4    0    0 -0.40530483916E+02 -0.10193521680E+03  0.26242811516E+02  0.11279270236E+03  0.00000000000E+00 0. -1.
         21    1    1    2  503  502  0.11201504988E+01  0.43576139559E+02 -0.83192093656E+02  0.93920493626E+02  0.00000000000E+00 0. -1.
          2    1    1    2  501    0  0.33759497061E+03  0.21713907523E+03 -0.56479883689E+02  0.40535135307E+03  0.00000000000E+00 0. -1.
<scales pt_clust_5="13000.00000" pt_clust_6="13000.00000" pt_clust_7="13000.00000" pt_clust_8="13000.00000" pt_clust_9="43.59053" pt_clust_10="381.06457"></scales>
<clustering>
<clus scale="   43.591">  2  9  1 -1</clus>
<clus scale="   80.753">  5  6 -1 -1</clus>
<clus scale="   92.689">  7  8 -1 -1</clus>
<clus scale="  127.816">  1  5  2 -1</clus>
<clus scale="  381.065">  2 10  1 -1</clus>
<clus scale="   43.591">  2  5  1 -1</clus>
</clustering>
</event>
<event>
10    3  0.7209067E-005  0.2249604E+03  0.7546771E-02  0.1166441E+00
         -2   -1    0    0    0  501 -0.00000000000E+00  0.00000000000E+00  0.96385687950E+02  0.96385687950E+02  0.00000000000E+00 0.  1.
         21   -1    0    0  503  502  0.00000000000E+00 -0.00000000000E+00 -0.14083134490E+04  0.14083134490E+04  0.00000000000E+00 0.  1.
        -24    2    1    2    0    0  0.51074841523E+02 -0.15633474980E+02 -0.23534468575E+01  0.96430270795E+02  0.80250940411E+02 0.  0.
         23    2    1    2    0    0 -0.72782495959E+02 -0.19086245427E+03 -0.37622674579E+03  0.43792934476E+03  0.92248461185E+02 0.  0.
         11    1    3    3    0    0  0.50272800047E+02 -0.12230644340E+02 -0.35725935862E+02  0.62875158677E+02  0.00000000000E+00 0. -1.
        -12    1    3    3    0    0  0.80204147688E+00 -0.34028306397E+01  0.33372489004E+02  0.33555112118E+02  0.00000000000E+00 0.  1.
        -13    1    4    4    0    0 -0.73097919310E+02 -0.16746058796E+03 -0.25059253713E+03  0.31013380014E+03  0.00000000000E+00 0.  1.
         13    1    4    4    0    0  0.31542335119E+00 -0.23401866305E+02 -0.12563420866E+03  0.12779554462E+03  0.00000000000E+00 0. -1.
         21    1    1    2  503  501 -0.51760754218E+02  0.12145121659E+02 -0.27107117009E+03  0.27623587549E+03  0.00000000000E+00 0. -1.
         -1    1    1    2    0  502  0.73468408653E+02  0.19435080759E+03 -0.66227639827E+03  0.69410364585E+03  0.00000000000E+00 0.  1.
<scales pt_clust_5="13000.00000" pt_clust_6="13000.00000" pt_clust_7="13000.00000" pt_clust_8="13000.00000" pt_clust_9="53.16653" pt_clust_10="205.17649"></scales>
<clustering>
<clus scale="   53.167">  2  9  1 -1</clus>
<clus scale="   80.251">  5  6 -1 -1</clus>
<clus scale="   92.248">  7  8 -1 -1</clus>
<clus scale="   95.142">  1  5  2 -1</clus>
<clus scale="  205.176">  2 10  1 -1</clus>
<clus scale="   53.167">  2  5  1 -1</clus>
</clustering>
</event>
<event>
10    3  0.7209067E-005  0.2410628E+03  0.7546771E-02  0.1119087E+00
          1   -1    0    0  503    0 -0.00000000000E+00  0.00000000000E+00  0.66260590581E+03  0.66260590581E+03  0.00000000000E+00 0. -1.
         21   -1    0    0  501  502  0.00000000000E+00 -0.00000000000E+00 -0.14467333630E+03  0.14467333630E+03  0.00000000000E+00 0. -1.
        -24    2    1    2    0    0  0.11153563391E+03  0.20557548764E+02  0.19071301224E+02  0.13912591402E+03  0.78291091310E+02 0.  0.
         23    2    1    2    0    0  0.56048076584E+02 -0.35477726856E+01 -0.21135345808E+02  0.11043069459E+03  0.92705241956E+02 0.  0.
         11    1    3    3    0    0  0.94807544380E+02  0.15027040517E+02 -0.18382235039E+02  0.97735300599E+02  0.00000000000E+00 0. -1.
        -12    1    3    3    0    0  0.16728089531E+02  0.55305082467E+01  0.37453536263E+02  0.41390613421E+02  0.00000000000E+00 0.  1.
        -13    1    4    4    0    0  0.75797999808E+02 -0.21528670797E+02 -0.44148930234E+01  0.78919653583E+02  0.00000000000E+00 0.  1.
         13    1    4    4    0    0 -0.19749923225E+02  0.17980898111E+02 -0.16720452785E+02  0.31511041011E+02  0.00000000000E+00 0. -1.
         21    1    1    2  503  502 -0.49538459478E+02  0.40407662787E+02  0.24184898346E+03  0.25015548960E+03  0.00000000000E+00 0. -1.
          2    1    1    2  501    0 -0.11804525102E+03 -0.57417438865E+02  0.27814763064E+03  0.30756714389E+03  0.00000000000E+00 0. -1.
<scales pt_clust_5="13000.00000" pt_clust_6="13000.00000" pt_clust_7="13000.00000" pt_clust_8="13000.00000" pt_clust_9="63.92838" pt_clust_10="155.59779"></scales>
<clustering>
<clus scale="   63.928">  1  9  2 -1</clus>
<clus scale="   78.291">  5  6 -1 -1</clus>
<clus scale="   92.705">  7  8 -1 -1</clus>
<clus scale="  102.755">  5  7 -1 -1</clus>
<clus scale="  155.598">  2 10  1 -1</clus>
<clus scale="  155.598">  2  5  1 -1</clus>
</clustering>
</event>
<event>
10    3  0.7209067E-005  0.1233024E+03  0.7546771E-02  0.1240700E+00
          1   -1    0    0  503    0 -0.00000000000E+00  0.00000000000E+00  0.37754955113E+03  0.37754955113E+03  0.00000000000E+00 0. -1.
         21   -1    0    0  501  502  0.00000000000E+00 -0.00000000000E+00 -0.43266771953E+03  0.43266771953E+03  0.00000000000E+00 0.  1.
        -24    2    1    2    0    0  0.37587740659E+01  0.79629320073E+02  0.14729594548E+03  0.18620757987E+03  0.81376963853E+02 0.  0.
         23    2    1    2    0    0 -0.32807499381E+02 -0.96156070983E+02 -0.49616420536E+02  0.14535299770E+03  0.91342119263E+02 0.  0.
         11    1    3    3    0    0  0.24214630195E+02  0.43735266759E+02  0.22630796263E+02  0.54875083721E+02  0.00000000000E+00 0. -1.
        -12    1    3    3    0    0 -0.20455856129E+02  0.35894053314E+02  0.12466514922E+03  0.13133249615E+03  0.00000000000E+00 0.  1.
        -11    1    4    4    0    0 -0.12355153057E+02 -0.44657522565E+02  0.24814139813E+02  0.52561256295E+02  0.00000000000E+00 0.  1.
         11    1    4    4    0    0 -0.20452346325E+02 -0.51498548418E+02 -0.74430560349E+02  0.92791741406E+02  0.00000000000E+00 0. -1.
         21    1    1    2  503  502  0.44425488559E+02 -0.28589777598E+02 -0.30995762199E+03  0.31442761782E+03  0.00000000000E+00 0.  1.
          2    1    1    2  501    0 -0.15376763243E+02  0.45116528509E+02  0.15715992864E+03  0.16422907527E+03  0.00000000000E+00 0. -1.
<scales pt_clust_5="13000.00000" pt_clust_6="13000.00000" pt_clust_7="13000.00000" pt_clust_8="13000.00000" pt_clust_9="33.50732" pt_clust_10="47.66496"></scales>
<clustering>
<clus scale="   47.665">  2 10  1 -1</clus>
<clus scale="   33.507">  2  9  1 -1</clus>
<clus scale="   81.377">  5  6 -1 -1</clus>
<clus scale="   91.342">  7  8 -1 -1</clus>
<clus scale="  116.113">  1  5  2 -1</clus>
<clus scale="   47.665">  2  5  1 -1</clus>
</clustering>
</event>
<event>
10    3  0.7209067E-005  0.1023581E+03  0.7546771E-02  0.1276593E+00
          1   -1    0    0  503    0 -0.00000000000E+00  0.00000000000E+00  0.10803583304E+03  0.10803583304E+03  0.00000000000E+00 0. -1.
         21   -1    0    0  501  502  0.00000000000E+00 -0.00000000000E+00 -0.54421539065E+03  0.54421539065E+03  0.00000000000E+00 0.  1.
         23    2    1    2    0    0 -0.50387107589E+02 -0.10145472046E+02  0.57788435119E+02  0.11883296386E+03  0.90221831350E+02 0.  0.
        -24    2    1    2    0    0  0.19005832411E+02  0.12761555533E+02 -0.26342481762E+03  0.27855673502E+03  0.87619296486E+02 0.  0.
         13    1    4    4    0    0 -0.26253798626E+02 -0.78018980558E+01 -0.33264384173E+02  0.43088871069E+02  0.00000000000E+00 0. -1.
        -14    1    4    4    0    0  0.45259631037E+02  0.20563453588E+02 -0.23016043345E+03  0.23546786395E+03  0.00000000000E+00 0.  1.
        -11    1    3    3    0    0 -0.74207484207E+02 -0.34947620626E+01  0.26331538940E+02  0.78818234039E+02  0.00000000000E+00 0. -1.
         11    1    3    3    0    0  0.23820376617E+02 -0.66507099835E+01  0.31456896179E+02  0.40014729822E+02  0.00000000000E+00 0.  1.
         21    1    1    2  503  502  0.39587632805E+02  0.42275330921E+02 -0.16600923922E+03  0.17582221641E+03  0.00000000000E+00 0. -1.
          2    1    1    2  501    0 -0.82063576272E+01 -0.44891414408E+02 -0.64533935886E+02  0.79039308410E+02  0.00000000000E+00 0. -1.
<scales pt_clust_5="13000.00000" pt_clust_6="13000.00000" pt_clust_7="13000.00000" pt_clust_8="13000.00000" pt_clust_9="44.93022" pt_clust_10="45.63533"></scales>
<clustering>
<clus scale="   45.635">  2 10  1 -1</clus>
<clus scale="   44.930">  2  9  1 -1</clus>
<clus scale="   87.619">  5  6 -1 -1</clus>
<clus scale="   90.222">  7  8 -1 -1</clus>
<clus scale="  100.072">  2  5  1 -1</clus>
<clus scale="   45.635">  2  5  1 -1</clus>
</clustering>
</event>
<event>
10    3  0.7209067E-005  0.2993483E+03  0.7546771E-02  0.1114096E+00
         21   -1    0    0  501  502  0.00000000000E+00  0.00000000000E+00  0.53709901199E+03  0.53709901199E+03  0.00000000000E+00 0. -1.
          1   -1    0    0  503    0 -0.00000000000E+00 -0.00000000000E+00 -0.13377108659E+04  0.13377108659E+04  0.00000000000E+00 0. -1.
        -24    2    1    2    0    0  0.11523540260E+03  0.24467159400E+02 -0.33607701579E+03  0.36513176840E+03  0.80595333944E+02 0.  0.
         23    2    1    2    0    0 -0.20125682782E+03 -0.12690528217E+03 -0.15397032367E+03  0.29667251429E+03  0.87740861508E+02 0.  0.
         11    1    3    3    0    0  0.10897209325E+03  0.25957325215E+02 -0.20265950075E+03  0.23155900562E+03  0.00000000000E+00 0. -1.
        -12    1    3    3    0    0  0.62633093500E+01 -0.14901658154E+01 -0.13341751503E+03  0.13357276278E+03  0.00000000000E+00 0.  1.
        -11    1    4    4    0    0 -0.17182675452E+03 -0.83590931636E+02 -0.15217928843E+03  0.24427528169E+03  0.00000000000E+00 0. -1.
         11    1    4    4    0    0 -0.29430073300E+02 -0.43314350537E+02 -0.17910352454E+01  0.52397232600E+02  0.00000000000E+00 0.  1.
         21    1    1    2  503  502 -0.18762835796E+03  0.23547686414E+03  0.36435918094E+03  0.47266411646E+03  0.00000000000E+00 0. -1.
          2    1    1    2  501    0  0.27364978318E+03 -0.13303874136E+03 -0.67492369540E+03  0.74034147874E+03  0.00000000000E+00 0. -1.
<scales pt_clust_5="13000.00000" pt_clust_6="13000.00000" pt_clust_7="13000.00000" pt_clust_8="13000.00000" pt_clust_9="13000.00000" pt_clust_10="299.34827"></scales>
<clustering>
<clus scale="   80.595">  5  6 -1 -1</clus>
<clus scale="   87.741">  7  8 -1 -1</clus>
<clus scale="  142.736">  2  5  1 -1</clus>
<clus scale="  230.273">  2  7  1 -1</clus>
<clus scale="  299.348">  2 10  1 -1</clus>
<clus scale="  299.348">  1  5  2 -1</clus>
</clustering>
</event>
<event>
10    3  0.1739410E-004  0.5401617E+03  0.7546771E-02  0.1051836E+00
         21   -1    0    0  503  502  0.00000000000E+00  0.00000000000E+00  0.51747299314E+03  0.51747299314E+03  0.00000000000E+00 0. -1.
         -4   -1    0    0    0  501 -0.00000000000E+00 -0.00000000000E+00 -0.79384915443E+03  0.79384915443E+03  0.00000000000E+00 0.  1.
        -24    2    1    2    0    0  0.10518922545E+03  0.45616564571E+02 -0.12232737914E+03  0.17843063598E+03  0.61056204062E+02 0.  0.
         23    2    1    2    0    0 -0.33703254263E+03 -0.45691893229E+03  0.54441231554E+02  0.57747610822E+03  0.90271603478E+02 0.  0.
         11    1    3    3    0    0  0.10355083137E+02  0.31961125254E+02 -0.25189670017E+02  0.41991198481E+02  0.00000000000E+00 0. -1.
        -12    1    3    3    0    0  0.94834142309E+02  0.13655439317E+02 -0.97137709125E+02  0.13643943750E+03  0.00000000000E+00 0.  1.
        -13    1    4    4    0    0 -0.33853052988E+02 -0.11292486955E+02 -0.59917215974E+00  0.35691854330E+02  0.00000000000E+00 0.  1.
         13    1    4    4    0    0 -0.30317948964E+03 -0.44562644533E+03  0.55040403714E+02  0.54178425389E+03  0.00000000000E+00 0. -1.
         21    1    1    2  503  501 -0.23059204880E+02  0.49922976506E+01  0.13175227731E+02  0.27022890136E+02  0.00000000000E+00 0.  1.
         -3    1    1    2    0  502  0.25490252206E+03  0.40631007007E+03 -0.22166524143E+03  0.52839251324E+03  0.00000000000E+00 0.  1.
<scales pt_clust_5="13000.00000" pt_clust_6="13000.00000" pt_clust_7="13000.00000" pt_clust_8="13000.00000" pt_clust_9="23.59343" pt_clust_10="532.56550"></scales>
<clustering>
<clus scale="   23.593">  1  9  2 -1</clus>
<clus scale="   61.056">  5  6 -1 -1</clus>
<clus scale="   90.272">  7  8 -1 -1</clus>
<clus scale="  128.947">  2  5  1 -1</clus>
<clus scale="  532.565">  1 10  2 -1</clus>
<clus scale="   23.593">  1  5  2 -1</clus>
</clustering>
</event>
<event>
10    3  0.7209067E-005  0.2275884E+03  0.7546771E-02  0.1129015E+00
         21   -1    0    0  501  502  0.00000000000E+00  0.00000000000E+00  0.40880468658E+03  0.40880468658E+03  0.00000000000E+00 0.  1.
          1   -1    0    0  503    0 -0.00000000000E+00 -0.00000000000E+00 -0.54981035675E+03  0.54981035675E+03  0.00000000000E+00 0. -1.
        -24    2    1    2    0    0 -0.17035695577E+03  0.10173500952E+03 -0.21562579454E+03  0.30439922446E+03  0.82419051449E+02 0.  0.
         23    2    1    2    0    0  0.22648762623E+03 -0.60296182082E+02 -0.77302060540E+02  0.26338457501E+03  0.91997561824E+02 0.  0.
         13    1    3    3    0    0 -0.14085873609E+03  0.91674226642E+02 -0.21543054793E+03  0.27323189482E+03  0.00000000000E+00 0. -1.
        -14    1    3    3    0    0 -0.29498219677E+02  0.10060782876E+02 -0.19524661498E+00  0.31167329649E+02  0.00000000000E+00 0.  1.
        -13    1    4    4    0    0  0.14175301047E+03  0.34778716167E+00 -0.16418000311E+02  0.14270104298E+03  0.00000000000E+00 0. -1.
         13    1    4    4    0    0  0.84734615754E+02 -0.60643969244E+02 -0.60884060228E+02  0.12068353203E+03  0.00000000000E+00 0.  1.
         21    1    1    2  503  502 -0.70393434476E+02  0.79180445455E+02  0.22527163026E+03  0.24894193290E+03  0.00000000000E+00 0.  1.
          2    1    1    2  501    0  0.14262764017E+02 -0.12061927289E+03 -0.73349445341E+02  0.14188931095E+03  0.00000000000E+00 0. -1.
<scales pt_clust_5="13000.00000" pt_clust_6="13000.00000" pt_clust_7="13000.00000" pt_clust_8="13000.00000" pt_clust_9="105.94706" pt_clust_10="104.81552"></scales>
<clustering>
<clus scale="   82.419">  5  6 -1 -1</clus>
<clus scale="   91.998">  7  8 -1 -1</clus>
<clus scale="  105.947">  1  9  2 -1</clus>
<clus scale="  104.816">  1 10  2 -1</clus>
<clus scale="  223.888">  2  5  1 -1</clus>
<clus scale="  105.947">  1  5  2 -1</clus>
</clustering>
</event>
<event>
10    3  0.7209067E-005  0.9444750E+02  0.7546771E-02  0.1296514E+00
         21   -1    0    0  501  502  0.00000000000E+00  0.00000000000E+00  0.95140710050E+02  0.95140710050E+02  0.00000000000E+00 0.  1.
          1   -1    0    0  503    0 -0.00000000000E+00 -0.00000000000E+00 -0.53062253888E+03  0.53062253888E+03  0.00000000000E+00 0. -1.
         23    2    1    2    0    0 -0.92091553058E+01 -0.51694576484E+02 -0.27015202650E+03  0.28909212938E+03  0.88515558339E+02 0.  0.
        -24    2    1    2    0    0  0.29700316938E+02 -0.29944276201E+02 -0.57427578270E+02  0.10795053452E+03  0.81096378790E+02 0.  0.
         13    1    4    4    0    0 -0.23722464335E+00 -0.28757674787E+02 -0.69832914428E+02  0.75522818222E+02  0.00000000000E+00 0. -1.
        -14    1    4    4    0    0  0.29937541582E+02 -0.11866014132E+01  0.12405336158E+02  0.32427716294E+02  0.00000000000E+00 0.  1.
        -13    1    3    3    0    0  0.34209909233E+02 -0.28517704825E+02 -0.18904056016E+03  0.19421614444E+03  0.00000000000E+00 0.  1.
         13    1    3    3    0    0 -0.43419064539E+02 -0.23176871659E+02 -0.81111466345E+02  0.94875984938E+02  0.00000000000E+00 0. -1.
         21    1    1    2  503  502  0.35979512324E+02  0.20174149449E+02  0.40911507674E+02  0.58097100386E+02  0.00000000000E+00 0.  1.
          2    1    1    2  501    0 -0.56470673957E+02  0.61464703235E+02 -0.14881373173E+03  0.17062348465E+03  0.00000000000E+00 0. -1.
<scales pt_clust_5="13000.00000" pt_clust_6="13000.00000" pt_clust_7="13000.00000" pt_clust_8="13000.00000" pt_clust_9="41.24950" pt_clust_10="81.76557"></scales>
<clustering>
<clus scale="   41.250">  1  9  2 -1</clus>
<clus scale="   81.096">  5  6 -1 -1</clus>
<clus scale="   81.766">  1 10  2 -1</clus>
<clus scale="   87.533">  1  5  2 -1</clus>
<clus scale="   88.516">  7  8 -1 -1</clus>
<clus scale="   41.250">  1  5  2 -1</clus>
</clustering>
</event>
<event>
10    3  0.7209067E-005  0.1509558E+03  0.7546771E-02  0.1226216E+00
         -2   -1    0    0    0  501 -0.00000000000E+00  0.00000000000E+00  0.29386097981E+03  0.29386097981E+03  0.00000000000E+00 0.  1.
         21   -1    0    0  503  502  0.00000000000E+00 -0.00000000000E+00 -0.57927662388E+03  0.57927662388E+03  0.00000000000E+00 0.  1.
        -24    2    1    2    0    0  0.13691600791E+00  0.39019428899E+02  0.20999458100E+03  0.22661741101E+03  0.75731052726E+02 0.  0.
         23    2    1    2    0    0  0.15251001017E+02 -0.19633330393E+02 -0.80533279481E+02  0.12656660340E+03  0.94421582797E+02 0.  0.
         11    1    3    3    0    0 -0.10303157244E+02  0.38227700731E+02  0.21224677737E+03  0.21590786613E+03  0.00000000000E+00 0. -1.
        -12    1    3    3    0    0  0.10440073252E+02  0.79172816831E+00 -0.22521963750E+01  0.10709544879E+02  0.00000000000E+00 0.  1.
        -13    1    4    4    0    0  0.24937241771E+02  0.18014307663E+02  0.63243398626E+01  0.31406664618E+02  0.00000000000E+00 0.  1.
         13    1    4    4    0    0 -0.96862407538E+01 -0.37647638055E+02 -0.86857619344E+02  0.95159938783E+02  0.00000000000E+00 0. -1.
         21    1    1    2  503  501 -0.10585685518E+03  0.10575738645E+03 -0.26742230075E+03  0.30643920362E+03  0.00000000000E+00 0.  1.
         -1    1    1    2    0  502  0.90468938155E+02 -0.12514348496E+03 -0.14745464484E+03  0.21351438566E+03  0.00000000000E+00 0.  1.
<scales pt_clust_5="13000.00000" pt_clust_6="13000.00000" pt_clust_7="13000.00000" pt_clust_8="13000.00000" pt_clust_9="150.95576" pt_clust_10="13000.00000"></scales>
<clustering>
<clus scale="   75.731">  5  6 -1 -1</clus>
<clus scale="   85.192">  1  5  2 -1</clus>
<clus scale="   94.422">  7  8 -1 -1</clus>
<clus scale="   95.965">  1  7  2 -1</clus>
<clus scale="  150.956">  2  9  1 -1</clus>
<clus scale="  150.956">  2  5  1 -1</clus>
</clustering>
</event>
<event>
10    3  0.7209067E-005  0.1589294E+03  0.7546771E-02  0.1200716E+00
         21   -1    0    0  501  502  0.00000000000E+00  0.00000000000E+00  0.60363430926E+03  0.60363430926E+03  0.00000000000E+00 0. -1.
          1   -1    0    0  503    0 -0.00000000000E+00 -0.00000000000E+00 -0.16361024907E+03  0.16361024907E+03  0.00000000000E+00 0. -1.
         23    2    1    2    0    0  0.74175787252E+02 -0.28482729423E+02  0.93579131404E+02  0.15677461532E+03  0.97508527240E+02 0.  0.
        -24    2    1    2    0    0  0.73787920265E+02  0.50821600136E+02  0.19046253365E+03  0.22406819454E+03  0.76831548627E+02 0.  0.
         13    1    4    4    0    0  0.80689443983E+02  0.29741574809E+02  0.18011667629E+03  0.19959299767E+03  0.00000000000E+00 0. -1.
        -14    1    4    4    0    0 -0.69015237180E+01  0.21080025326E+02  0.10345857362E+02  0.24475196872E+02  0.00000000000E+00 0.  1.
        -11    1    3    3    0    0 -0.18873136193E+02  0.12011875072E+02  0.71731069110E+01  0.23493272979E+02  0.00000000000E+00 0.  1.
         11    1    3    3    0    0  0.93048923445E+02 -0.40494604495E+02  0.86406024493E+02  0.13328134234E+03  0.00000000000E+00 0. -1.
         21    1    1    2  503  502 -0.16610366002E+03 -0.10110206772E+03  0.21229717661E+03  0.28789259311E+03  0.00000000000E+00 0. -1.
          2    1    1    2  501    0  0.18139952502E+02  0.78763197003E+02 -0.56314781471E+02  0.98509155367E+02  0.00000000000E+00 0. -1.
<scales pt_clust_5="13000.00000" pt_clust_6="13000.00000" pt_clust_7="13000.00000" pt_clust_8="13000.00000" pt_clust_9="139.12397" pt_clust_10="80.82515"></scales>
<clustering>
<clus scale="   76.832">  5  6 -1 -1</clus>
<clus scale="   80.825">  1 10  2 -1</clus>
<clus scale="   97.509">  7  8 -1 -1</clus>
<clus scale="  125.447">  2  7  1 -1</clus>
<clus scale="  139.124">  2  9  1 -1</clus>
<clus scale="   80.825">  1  5  2 -1</clus>
</clustering>
</event>
<event>
10    3  0.7209067E-005  0.4521701E+03  0.7546771E-02  0.1059427E+00
          1   -1    0    0  502    0 -0.00000000000E+00  0.00000000000E+00  0.22394386961E+04  0.22394386961E+04  0.00000000000E+00 0. -1.
         21   -1    0    0  503  502  0.00000000000E+00 -0.00000000000E+00 -0.16816955542E+03  0.16816955542E+03  0.00000000000E+00 0. -1.
        -24    2    1    2    0    0 -0.14493487104E+03  0.44016184062E+02  0.29109922801E+03  0.33729998753E+03  0.78031914897E+02 0.  0.
         23    2    1    2    0    0  0.36819543875E+03  0.32549879408E+03  0.76709948839E+03  0.91662406520E+03  0.10119637216E+03 0.  0.
         11    1    3    3    0    0 -0.10969806566E+03  0.51514782185E+02  0.26899064589E+03  0.29503119491E+03  0.00000000000E+00 0. -1.
        -12    1    3    3    0    0 -0.35236805373E+02 -0.74985981234E+01  0.22108582120E+02  0.42268792626E+02  0.00000000000E+00 0.  1.
        -11    1    4    4    0    0  0.23405736347E+03  0.14179701686E+03  0.44173631174E+03  0.51963469139E+03  0.00000000000E+00 0.  1.
         11    1    4    4    0    0  0.13413807528E+03  0.18370177722E+03  0.32536317665E+03  0.39698937381E+03  0.00000000000E+00 0. -1.
         21    1    1    2  503  501 -0.49298352668E+02 -0.23946380950E+01 -0.12216057187E+02  0.50845785672E+02  0.00000000000E+00 0. -1.
          2    1    1    2  501    0 -0.17396221505E+03 -0.36712034005E+03  0.10252864814E+04  0.11028384131E+04  0.00000000000E+00 0. -1.
<scales pt_clust_5="13000.00000" pt_clust_6="13000.00000" pt_clust_7="13000.00000" pt_clust_8="13000.00000" pt_clust_9="49.35648" pt_clust_10="440.70094"></scales>
<clustering>
<clus scale="   49.356">  2  9  1 -1</clus>
<clus scale="   78.032">  5  6 -1 -1</clus>
<clus scale="  101.196">  7  8 -1 -1</clus>
<clus scale="  177.433">  1  5  2 -1</clus>
<clus scale="  440.701">  2 10  1 -1</clus>
<clus scale="   49.356">  2  5  1 -1</clus>
</clustering>
</event>
<event>
10    3  0.7209067E-005  0.1323758E+03  0.7546771E-02  0.1234497E+00
         21   -1    0    0  501  502  0.00000000000E+00  0.00000000000E+00  0.23878429540E+03  0.23878429540E+03  0.00000000000E+00 0. -1.
          1   -1    0    0  503    0 -0.00000000000E+00 -0.00000000000E+00 -0.25692243175E+03  0.25692243175E+03  0.00000000000E+00 0. -1.
         23    2    1    2    0    0 -0.39610079407E+02 -0.62704742032E+01  0.13375235362E+03  0.16693298338E+03  0.91480334520E+02 0.  0.
        -24    2    1    2    0    0 -0.71844109588E+02 -0.38998796988E+02 -0.53027736390E+02  0.12662256805E+03  0.80863166300E+02 0.  0.
         13    1    4    4    0    0 -0.87857003078E+02 -0.20224924531E+02 -0.38900894151E+02  0.98189511293E+02  0.00000000000E+00 0. -1.
        -14    1    4    4    0    0  0.16012893490E+02 -0.18773872457E+02 -0.14126842239E+02  0.28433056758E+02  0.00000000000E+00 0.  1.
        -13    1    3    3    0    0  0.11429835085E+02 -0.22898115844E+02  0.10068214906E+03  0.10388387738E+03  0.00000000000E+00 0. -1.
         13    1    3    3    0    0 -0.51039914492E+02  0.16627641641E+02  0.33070204552E+02  0.63049105997E+02  0.00000000000E+00 0.  1.
         21    1    1    2  503  502 -0.21851668102E+02  0.78085719776E+01  0.10724891532E+02  0.25563499243E+02  0.00000000000E+00 0.  1.
          2    1    1    2  501    0  0.13330585710E+03  0.37460699213E+02 -0.10958764512E+03  0.17658767648E+03  0.00000000000E+00 0. -1.
<scales pt_clust_5="13000.00000" pt_clust_6="13000.00000" pt_clust_7="13000.00000" pt_clust_8="13000.00000" pt_clust_9="23.20494" pt_clust_10="104.80700"></scales>
<clustering>
<clus scale="   23.205">  1  9  2 -1</clus>
<clus scale="   80.863">  5  6 -1 -1</clus>
<clus scale="   91.480">  7  8 -1 -1</clus>
<clus scale="  106.488">  2  7  1 -1</clus>
<clus scale="  104.807">  1 10  2 -1</clus>
<clus scale="   23.205">  1  5  2 -1</clus>
</clustering>
</event>
<event>
10    3  0.7209067E-005  0.1731193E+03  0.7546771E-02  0.1174672E+00
          1   -1    0    0  502    0 -0.00000000000E+00  0.00000000000E+00  0.11710512331E+04  0.11710512331E+04  0.00000000000E+00 0. -1.
         21   -1    0    0  503  502  0.00000000000E+00 -0.00000000000E+00 -0.77149900312E+03  0.77149900312E+03  0.00000000000E+00 0.  1.
         23    2    1    2    0    0  0.72819601916E+02  0.16975097810E+03  0.86594819715E+03  0.88921196432E+03  0.81936245648E+02 0.  0.
        -24    2    1    2    0    0 -0.12602818462E+03  0.21195007026E+02  0.10567926082E+03  0.18511111714E+03  0.82253801614E+02 0.  0.
         13    1    4    4    0    0 -0.13240951656E+03  0.32739677245E+02  0.85423653473E+02  0.16093901676E+03  0.00000000000E+00 0. -1.
        -14    1    4    4    0    0  0.63813319447E+01 -0.11544670219E+02  0.20255607345E+02  0.24172100380E+02  0.00000000000E+00 0.  1.
        -13    1    3    3    0    0  0.66304422151E+02  0.53475474851E+02  0.39470470469E+03  0.40379166250E+03  0.00000000000E+00 0.  1.
         13    1    3    3    0    0  0.65151797652E+01  0.11627550325E+03  0.47124349247E+03  0.48542030182E+03  0.00000000000E+00 0. -1.
         21    1    1    2  503  501  0.59995931732E+01 -0.87657896358E+02 -0.69519718566E+03  0.70072749972E+03  0.00000000000E+00 0.  1.
          2    1    1    2  501    0  0.47208989527E+02 -0.10328808877E+03  0.12312195766E+03  0.16749965502E+03  0.00000000000E+00 0. -1.
<scales pt_clust_5="13000.00000" pt_clust_6="13000.00000" pt_clust_7="13000.00000" pt_clust_8="13000.00000" pt_clust_9="87.86297" pt_clust_10="138.68959"></scales>
<clustering>
<clus scale="   81.936">  7  8 -1 -1</clus>
<clus scale="   82.254">  5  6 -1 -1</clus>
<clus scale="   87.863">  2  9  1 -1</clus>
<clus scale="  138.690">  2 10  1 -1</clus>
<clus scale="  172.969">  1  7  2 -1</clus>
<clus scale="   87.863">  2  5  1 -1</clus>
</clustering>
</event>
<event>
10    3  0.7209067E-005  0.6574519E+03  0.7546771E-02  0.9792896E-01
          1   -1    0    0  502    0 -0.00000000000E+00  0.00000000000E+00  0.23276055119E+04  0.23276055119E+04  0.00000000000E+00 0. -1.
         21   -1    0    0  503  502  0.00000000000E+00 -0.00000000000E+00 -0.22471352649E+03  0.22471352649E+03  0.00000000000E+00 0. -1.
        -24    2    1    2    0    0  0.24439094424E+03 -0.46261436699E+03  0.11187377847E+04  0.12376306500E+04  0.80102489658E+02 0.  0.
         23    2    1    2    0    0  0.69637442459E+02 -0.20492204149E+02  0.25761001898E+03  0.28400087377E+03  0.94996160955E+02 0.  0.
         13    1    3    3    0    0  0.19153399325E+03 -0.33982886216E+03  0.90556159604E+03  0.98600746972E+03  0.00000000000E+00 0. -1.
        -14    1    3    3    0    0  0.52856950993E+02 -0.12278550483E+03  0.21317618865E+03  0.25162318031E+03  0.00000000000E+00 0.  1.
        -13    1    4    4    0    0  0.37439059911E+02 -0.31885232407E+02  0.24110188928E+03  0.24606599169E+03  0.00000000000E+00 0.  1.
         13    1    4    4    0    0  0.32198382548E+02  0.11393028258E+02  0.16508129700E+02  0.37934882072E+02  0.00000000000E+00 0. -1.
         21    1    1    2  503  501  0.22499687666E+02 -0.13095787841E+02 -0.45957628102E+02  0.52818928284E+02  0.00000000000E+00 0. -1.
          2    1    1    2  501    0 -0.33652807437E+03  0.49620235898E+03  0.77250180986E+03  0.97786858633E+03  0.00000000000E+00 0. -1.
<scales pt_clust_5="13000.00000" pt_clust_6="13000.00000" pt_clust_7="13000.00000" pt_clust_8="13000.00000" pt_clust_9="26.03336" pt_clust_10="585.84948"></scales>
<clustering>
<clus scale="   26.033">  2  9  1 -1</clus>
<clus scale="   80.102">  5  6 -1 -1</clus>
<clus scale="   94.996">  7  8 -1 -1</clus>
<clus scale="  111.272">  5  7 -1 -1</clus>
<clus scale="  585.849">  2 10  1 -1</clus>
<clus scale="   26.033">  2  5  1 -1</clus>
</clustering>
</event>
<event>
10    3  0.7209067E-005  0.2543378E+03  0.7546771E-02  0.1115274E+00
         21   -1    0    0  503  502  0.00000000000E+00  0.00000000000E+00  0.11908432810E+03  0.11908432810E+03  0.00000000000E+00 0. -1.
          1   -1    0    0  502    0 -0.00000000000E+00 -0.00000000000E+00 -0.23766979137E+04  0.23766979137E+04  0.00000000000E+00 0. -1.
        -24    2    1    2    0    0 -0.22174196412E+03 -0.15814101027E+02 -0.19659343848E+03  0.30706260110E+03  0.78859853551E+02 0.  0.
         23    2    1    2    0    0  0.25471235423E+02 -0.22735675665E+03 -0.35100752181E+03  0.42855207166E+03  0.90059531046E+02 0.  0.
         11    1    3    3    0    0 -0.21430379755E+03  0.39105940778E+01 -0.17319351867E+03  0.27556742424E+03  0.00000000000E+00 0. -1.
        -12    1    3    3    0    0 -0.74381665641E+01 -0.19724695105E+02 -0.23399919807E+02  0.31495176866E+02  0.00000000000E+00 0.  1.
        -13    1    4    4    0    0 -0.94167967877E+01 -0.18861751618E+02 -0.28930016743E+01  0.21279360764E+02  0.00000000000E+00 0.  1.
         13    1    4    4    0    0  0.34888032211E+02 -0.20849500503E+03 -0.34811452013E+03  0.40727271090E+03  0.00000000000E+00 0. -1.
         21    1    1    2  503  501  0.22357182658E+02 -0.15927146956E+02 -0.63676583085E+01  0.28179153623E+02  0.00000000000E+00 0.  1.
          2    1    1    2  501    0  0.17391354604E+03  0.25909800463E+03 -0.17036449670E+04  0.17319884154E+04  0.00000000000E+00 0. -1.
<scales pt_clust_5="13000.00000" pt_clust_6="13000.00000" pt_clust_7="13000.00000" pt_clust_8="13000.00000" pt_clust_9="27.45028" pt_clust_10="237.85927"></scales>
<clustering>
<clus scale="   27.450">  1  9  2 -1</clus>
<clus scale="   78.860">  5  6 -1 -1</clus>
<clus scale="   90.060">  7  8 -1 -1</clus>
<clus scale="  225.897">  2  5  1 -1</clus>
<clus scale="  237.859">  1 10  2 -1</clus>
<clus scale="   27.450">  1  5  2 -1</clus>
</clustering>
</event>
<event>
10    3  0.7209067E-005  0.4085712E+03  0.7546771E-02  0.1088223E+00
          1   -1    0    0  502    0 -0.00000000000E+00  0.00000000000E+00  0.22502358203E+04  0.22502358203E+04  0.00000000000E+00 0. -1.
         21   -1    0    0  503  502  0.00000000000E+00 -0.00000000000E+00 -0.16601466196E+03  0.16601466196E+03  0.00000000000E+00 0. -1.
        -24    2    1    2    0    0  0.74099014180E+02  0.20081576446E+01  0.43449154393E+03  0.44788927494E+03  0.79543725478E+02 0.  0.
         23    2    1    2    0    0 -0.25144742170E+03 -0.35203936455E+03  0.36549152094E+03  0.57367143471E+03  0.91418505013E+02 0.  0.
         13    1    3    3    0    0  0.17021581282E+02 -0.35538615020E+02  0.13073390725E+03  0.13654333338E+03  0.00000000000E+00 0. -1.
        -14    1    3    3    0    0  0.57077432898E+02  0.37546772665E+02  0.30375763668E+03  0.31134594156E+03  0.00000000000E+00 0.  1.
        -11    1    4    4    0    0 -0.33267590220E+02 -0.15345322396E+02  0.56205795752E+02  0.67091750272E+02  0.00000000000E+00 0.  1.
         11    1    4    4    0    0 -0.21817983148E+03 -0.33669404216E+03  0.30928572518E+03  0.50657968444E+03  0.00000000000E+00 0. -1.
         21    1    1    2  503  501  0.28319798413E+02  0.18333631273E+02 -0.21003509183E+02  0.39740161245E+02  0.00000000000E+00 0. -1.
          2    1    1    2  501    0  0.14902860910E+03  0.33169757564E+03  0.13052416026E+04  0.13549496113E+04  0.00000000000E+00 0. -1.
<scales pt_clust_5="13000.00000" pt_clust_6="13000.00000" pt_clust_7="13000.00000" pt_clust_8="13000.00000" pt_clust_9="33.73623" pt_clust_10="398.21255"></scales>
<clustering>
<clus scale="   33.736">  2  9  1 -1</clus>
<clus scale="   79.544">  5  6 -1 -1</clus>
<clus scale="   91.419">  7  8 -1 -1</clus>
<clus scale="  109.707">  1  5  2 -1</clus>
<clus scale="  398.213">  2 10  1 -1</clus>
<clus scale="   33.736">  2  5  1 -1</clus>
</clustering>
</event>
<event>
10    3  0.7209067E-005  0.1198743E+03  0.7546771E-02  0.1248384E+00
          1   -1    0    0  503    0 -0.00000000000E+00  0.00000000000E+00  0.37835971716E+03  0.37835971716E+03  0.00000000000E+00 0. -1.
         21   -1    0    0  501  502  0.00000000000E+00 -0.00000000000E+00 -0.38763652299E+03  0.38763652299E+03  0.00000000000E+00 0. -1.
        -24    2    1    2    0    0  0.18979033052E+02 -0.71608804939E+02  0.23775154743E+03  0.26205640906E+03  0.81607221416E+02 0.  0.
         23    2    1    2    0    0  0.85377110846E+02  0.68662539894E+02  0.36422550336E+02  0.15048539621E+03  0.96516614410E+02 0.  0.
         13    1    3    3    0    0  0.35342525672E+02  0.14187381735E+01  0.74883162018E+02  0.82816634155E+02  0.00000000000E+00 0. -1.
        -14    1    3    3    0    0 -0.16363492621E+02 -0.73027543112E+02  0.16286838541E+03  0.17923977491E+03  0.00000000000E+00 0.  1.
        -11    1    4    4    0    0  0.10592815719E+03  0.59074830469E+02  0.21080354759E+02  0.12310561091E+03  0.00000000000E+00 0.  1.
         11    1    4    4    0    0 -0.20551046343E+02  0.95877094244E+01  0.15342195577E+02  0.27379785297E+02  0.00000000000E+00 0. -1.
         21    1    1    2  503  502 -0.60993196118E+02 -0.17731697060E+02  0.24302812947E+01  0.63564843431E+02  0.00000000000E+00 0. -1.
          2    1    1    2  501    0 -0.43362947780E+02  0.20677962105E+02 -0.28588118489E+03  0.28988959145E+03  0.00000000000E+00 0. -1.
<scales pt_clust_5="13000.00000" pt_clust_6="13000.00000" pt_clust_7="13000.00000" pt_clust_8="13000.00000" pt_clust_9="75.15011" pt_clust_10="48.04085"></scales>
<clustering>
<clus scale="   48.041">  2 10  1 -1</clus>
<clus scale="   75.150">  2  9  1 -1</clus>
<clus scale="   81.607">  5  6 -1 -1</clus>
<clus scale="   96.517">  7  8 -1 -1</clus>
<clus scale="  108.232">  1  5  2 -1</clus>
<clus scale="   48.041">  2  5  1 -1</clus>
</clustering>
</event>
<event>
10    3  0.7209067E-005  0.1907009E+03  0.7546771E-02  0.1193967E+00
         21   -1    0    0  501  502  0.00000000000E+00  0.00000000000E+00  0.40138270906E+03  0.40138270906E+03  0.00000000000E+00 0.  1.
          1   -1    0    0  503    0 -0.00000000000E+00 -0.00000000000E+00 -0.35254905604E+03  0.35254905604E+03  0.00000000000E+00 0. -1.
        -24    2    1    2    0    0 -0.24583529747E+02  0.19431022773E+02 -0.39156401226E+02  0.92798149368E+02  0.78079178968E+02 0.  0.
         23    2    1    2    0    0 -0.19743988133E+03  0.22920504295E+02  0.39499046208E+01  0.21829220607E+03  0.90155583455E+02 0.  0.
         11    1    3    3    0    0  0.28201288053E+01 -0.28041332862E+02 -0.20671590501E+02  0.34951167777E+02  0.00000000000E+00 0. -1.
        -12    1    3    3    0    0 -0.27403658553E+02  0.47472355635E+02 -0.18484810725E+02  0.57846981591E+02  0.00000000000E+00 0.  1.
        -13    1    4    4    0    0 -0.14317032200E+03  0.51716583796E+02  0.23040140932E+02  0.15395841723E+03  0.00000000000E+00 0.  1.
         13    1    4    4    0    0 -0.54269559328E+02 -0.28796079501E+02 -0.19090236311E+02  0.64333788841E+02  0.00000000000E+00 0. -1.
         21    1    1    2  503  502  0.71860770271E+02  0.43781649960E+02  0.21165945756E+03  0.22777297722E+03  0.00000000000E+00 0.  1.
          2    1    1    2  501    0  0.15016264081E+03 -0.86133177029E+02 -0.12761930792E+03  0.21506843244E+03  0.00000000000E+00 0. -1.
<scales pt_clust_5="13000.00000" pt_clust_6="13000.00000" pt_clust_7="13000.00000" pt_clust_8="13000.00000" pt_clust_9="83.84558" pt_clust_10="168.04410"></scales>
<clustering>
<clus scale="   78.079">  5  6 -1 -1</clus>
<clus scale="   84.132">  2  5  1 -1</clus>
<clus scale="   83.846">  1  9  2 -1</clus>
<clus scale="   90.156">  7  8 -1 -1</clus>
<clus scale="  168.044">  1 10  2 -1</clus>
<clus scale="   83.846">  1  5  2 -1</clus>
</clustering>
</event>
<event>
10    3  0.7209067E-005  0.9834506E+02  0.7546771E-02  0.1290006E+00
         21   -1    0    0  501  502  0.00000000000E+00  0.00000000000E+00  0.63134913341E+02  0.63134913341E+02  0.00000000000E+00 0.  1.
          3   -1    0    0  503    0 -0.00000000000E+00 -0.00000000000E+00 -0.64094094941E+03  0.64094094941E+03  0.00000000000E+00 0. -1.
        -24    2    1    2    0    0  0.25132501930E+01  0.30069750384E+02 -0.32633092472E+03  0.33770769397E+03  0.81511396873E+02 0.  0.
         23    2    1    2    0    0 -0.83251806079E+01 -0.42039187244E+02 -0.38071336310E+02  0.10927358561E+03  0.93030575440E+02 0.  0.
         13    1    3    3    0    0  0.12941256650E+02  0.55065678904E+02 -0.25957322335E+03  0.26566513395E+03  0.00000000000E+00 0. -1.
        -14    1    3    3    0    0 -0.10428006457E+02 -0.24995928520E+02 -0.66757701370E+02  0.72042560015E+02  0.00000000000E+00 0.  1.
        -13    1    4    4    0    0 -0.18056678085E+02  0.18566319151E+02  0.13406464489E+02  0.29163078033E+02  0.00000000000E+00 0. -1.
         13    1    4    4    0    0  0.97314974771E+01 -0.60605506395E+02 -0.51477800799E+02  0.80110507574E+02  0.00000000000E+00 0.  1.
         21    1    1    2  503  502 -0.23874915841E+02  0.95399624502E-01  0.13850718413E+02  0.27601867836E+02  0.00000000000E+00 0.  1.
          4    1    1    2  501    0  0.29686846256E+02  0.11874037236E+02 -0.22725449345E+03  0.22949271534E+03  0.00000000000E+00 0. -1.
<scales pt_clust_5="13000.00000" pt_clust_6="13000.00000" pt_clust_7="13000.00000" pt_clust_8="13000.00000" pt_clust_9="23.87511" pt_clust_10="31.39032"></scales>
<clustering>
<clus scale="   23.875">  1  9  2 -1</clus>
<clus scale="   31.390">  1 10  2 -1</clus>
<clus scale="   81.511">  5  6 -1 -1</clus>
<clus scale="   87.528">  2  5  1 -1</clus>
<clus scale="   93.031">  7  8 -1 -1</clus>
<clus scale="   23.875">  1  5  2 -1</clus>
</clustering>
</event>
<event>
10    3  0.7209067E-005  0.9322742E+02  0.7546771E-02  0.1301676E+00
          1   -1    0    0  502    0 -0.00000000000E+00  0.00000000000E+00  0.12791060116E+04  0.12791060116E+04  0.00000000000E+00 0. -1.
         21   -1    0    0  503  502  0.00000000000E+00 -0.00000000000E+00 -0.21177471647E+02  0.21177471647E+02  0.00000000000E+00 0. -1.
        -24    2    1    2    0    0  0.11166528555E+00 -0.19589852433E+02  0.81755234290E+03  0.82180275438E+03  0.81142830443E+02 0.  0.
         23    2    1    2    0    0  0.16306523508E+02 -0.54020555292E+01  0.15783296206E+03  0.18340075270E+03  0.91812348101E+02 0.  0.
         11    1    3    3    0    0 -0.30568659122E+02 -0.24882676026E+02  0.22450636253E+03  0.22794011780E+03  0.00000000000E+00 0. -1.
        -12    1    3    3    0    0  0.30680324408E+02  0.52928235931E+01  0.59304598037E+03  0.59386263658E+03  0.00000000000E+00 0.  1.
        -11    1    4    4    0    0  0.30144679669E+02 -0.39595827473E+02  0.12291615183E+03  0.13260811305E+03  0.00000000000E+00 0.  1.
         11    1    4    4    0    0 -0.13838156161E+02  0.34193771944E+02  0.34916810231E+02  0.50792639648E+02  0.00000000000E+00 0. -1.
         21    1    1    2  503  501 -0.68862150166E+01 -0.19713704417E+02  0.21155497576E+02  0.29725497082E+02  0.00000000000E+00 0.  1.
          2    1    1    2  501    0 -0.95319737769E+01  0.44705612379E+02  0.26138773741E+03  0.26535447908E+03  0.00000000000E+00 0. -1.
<scales pt_clust_5="13000.00000" pt_clust_6="13000.00000" pt_clust_7="13000.00000" pt_clust_8="13000.00000" pt_clust_9="20.88181" pt_clust_10="43.63398"></scales>
<clustering>
<clus scale="   20.882">  2  9  1 -1</clus>
<clus scale="   43.634">  2 10  1 -1</clus>
<clus scale="   81.143">  5  6 -1 -1</clus>
<clus scale="   82.741">  1  5  2 -1</clus>
<clus scale="   91.812">  7  8 -1 -1</clus>
<clus scale="   20.882">  2  5  1 -1</clus>
</clustering>
</event>
<event>
10    3  0.7209067E-005  0.2054670E+03  0.7546771E-02  0.1146223E+00
         21   -1    0    0  503  502  0.00000000000E+00  0.00000000000E+00  0.10144503125E+04  0.10144503125E+04  0.00000000000E+00 0. -1.
          1   -1    0    0  502    0 -0.00000000000E+00 -0.00000000000E+00 -0.98246675813E+02  0.98246675813E+02  0.00000000000E+00 0. -1.
         23    2    1    2    0    0 -0.17056512753E+03 -0.71308485593E+02  0.11250860107E+03  0.23515129779E+03  0.91981436654E+02 0.  0.
        -24    2    1    2    0    0  0.16460715201E+03  0.72796459415E+02  0.55671558634E+03  0.59058254817E+03  0.80378250330E+02 0.  0.
         11    1    4    4    0    0  0.74831275972E+02  0.12737425749E+02  0.34086917054E+03  0.34921877571E+03  0.00000000000E+00 0. -1.
        -12    1    4    4    0    0  0.89775876039E+02  0.60059033666E+02  0.21584641580E+03  0.24136377246E+03  0.00000000000E+00 0.  1.
        -11    1    3    3    0    0 -0.83568563250E+02 -0.84089177226E+02  0.65534888344E+02  0.13546038565E+03  0.00000000000E+00 0.  1.
         11    1    3    3    0    0 -0.86996564281E+02  0.12780691634E+02  0.46973712729E+02  0.99690912138E+02  0.00000000000E+00 0. -1.
         21    1    1    2  503  501 -0.19092240117E+02  0.35086632583E+02  0.23850852893E+03  0.24183032025E+03  0.00000000000E+00 0. -1.
          2    1    1    2  501    0  0.25050215637E+02 -0.36574606406E+02  0.84709202986E+01  0.45132822069E+02  0.00000000000E+00 0. -1.
<scales pt_clust_5="13000.00000" pt_clust_6="13000.00000" pt_clust_7="13000.00000" pt_clust_8="13000.00000" pt_clust_9="39.94478" pt_clust_10="42.95552"></scales>
<clustering>
<clus scale="   39.945">  1  9  2 -1</clus>
<clus scale="   42.956">  1 10  2 -1</clus>
<clus scale="   80.378">  5  6 -1 -1</clus>
<clus scale="   91.981">  7  8 -1 -1</clus>
<clus scale="  200.541">  1  5  2 -1</clus>
<clus scale="   39.945">  1  5  2 -1</clus>
</clustering>
</event>
<event>
10    3  0.7209067E-005  0.1335564E+03  0.7546771E-02  0.1232209E+00
         21   -1    0    0  503  502  0.00000000000E+00  0.00000000000E+00  0.38988474006E+03  0.38988474006E+03  0.00000000000E+00 0. -1.
          1   -1    0    0  502    0 -0.00000000000E+00 -0.00000000000E+00 -0.13909045383E+03  0.13909045383E+03  0.00000000000E+00 0. -1.
        -24    2    1    2    0    0 -0.73951740599E+02  0.36107320225E+02  0.13316317226E+03  0.18073004095E+03  0.90323411924E+02 0.  0.
         23    2    1    2    0    0 -0.43532636398E+02  0.65572422997E+02 -0.18142530909E+02  0.12155169145E+03  0.90834074980E+02 0.  0.
         11    1    3    3    0    0 -0.49791276752E+01  0.33214908171E+02  0.97307198557E+02  0.10294033577E+03  0.00000000000E+00 0. -1.
        -12    1    3    3    0    0 -0.68972612924E+02  0.28924120537E+01  0.35855973706E+02  0.77789705176E+02  0.00000000000E+00 0.  1.
        -13    1    4    4    0    0  0.23503101296E+02  0.43309657526E+02 -0.33952162609E+01  0.49392810196E+02  0.00000000000E+00 0. -1.
         13    1    4    4    0    0 -0.67035737695E+02  0.22262765471E+02 -0.14747314648E+02  0.72158881255E+02  0.00000000000E+00 0.  1.
         21    1    1    2  503  501  0.27743269262E+02 -0.38535076463E+02  0.10096733777E+03  0.11157528581E+03  0.00000000000E+00 0. -1.
          2    1    1    2  501    0  0.89741107736E+02 -0.63144666759E+02  0.34806307097E+02  0.11511817568E+03  0.00000000000E+00 0. -1.
<scales pt_clust_5="13000.00000" pt_clust_6="13000.00000" pt_clust_7="13000.00000" pt_clust_8="13000.00000" pt_clust_9="47.48306" pt_clust_10="97.91064"></scales>
<clustering>
<clus scale="   47.483">  1  9  2 -1</clus>
<clus scale="   90.323">  5  6 -1 -1</clus>
<clus scale="   90.834">  7  8 -1 -1</clus>
<clus scale="  108.677">  2  5  1 -1</clus>
<clus scale="   97.911">  1 10  2 -1</clus>
<clus scale="   47.483">  1  5  2 -1</clus>
</clustering>
</event>
<event>
10    3  0.7209067E-005  0.1319994E+03  0.7546771E-02  0.1226884E+00
         21   -1    0    0  503  502  0.00000000000E+00  0.00000000000E+00  0.27224145208E+03  0.27224145208E+03  0.00000000000E+00 0. -1.
          1   -1    0    0  502    0 -0.00000000000E+00 -0.00000000000E+00 -0.66525937922E+03  0.66525937922E+03  0.00000000000E+00 0. -1.
        -24    2    1    2    0    0 -0.95636561971E+02 -0.24234983481E+02 -0.57651274226E+03  0.59029956556E+03  0.79705386895E+02 0.  0.
         23    2    1    2    0    0  0.43165696675E+02  0.85266353862E+02  0.12351966139E+03  0.17993405339E+03  0.89361783491E+02 0.  0.
         11    1    3    3    0    0 -0.72191339101E+02 -0.52538665306E+02 -0.37687483969E+03  0.38730678484E+03  0.00000000000E+00 0. -1.
        -12    1    3    3    0    0 -0.23445222870E+02  0.28303681825E+02 -0.19963790257E+03  0.20299278072E+03  0.00000000000E+00 0.  1.
        -13    1    4    4    0    0  0.63776700728E+02  0.30091226013E+02  0.80360509295E+02  0.10691473656E+03  0.00000000000E+00 0.  1.
         13    1    4    4    0    0 -0.20611004053E+02  0.55175127849E+02  0.43159152096E+02  0.73019316834E+02  0.00000000000E+00 0. -1.
         21    1    1    2  503  501  0.13272028960E+02  0.23899032991E+02  0.68093146799E+02  0.73375657896E+02  0.00000000000E+00 0.  1.
          2    1    1    2  501    0  0.39198836336E+02 -0.84930403372E+02 -0.81179930698E+01  0.93891554458E+02  0.00000000000E+00 0. -1.
<scales pt_clust_5="13000.00000" pt_clust_6="13000.00000" pt_clust_7="13000.00000" pt_clust_8="13000.00000" pt_clust_9="27.33698" pt_clust_10="90.22769"></scales>
<clustering>
<clus scale="   27.337">  1  9  2 -1</clus>
<clus scale="   79.705">  5  6 -1 -1</clus>
<clus scale="   89.362">  7  8 -1 -1</clus>
<clus scale="   90.228">  1 10  2 -1</clus>
<clus scale="  125.663">  2  5  1 -1</clus>
<clus scale="   27.337">  1  5  2 -1</clus>
</clustering>
</event>
<event>
10    3  0.7209067E-005  0.9968204E+02  0.7546771E-02  0.1288755E+00
         -2   -1    0    0    0  501 -0.00000000000E+00  0.00000000000E+00  0.95336239231E+02  0.95336239231E+02  0.00000000000E+00 0.  1.
         21   -1    0    0  503  502  0.00000000000E+00 -0.00000000000E+00 -0.46385659941E+03  0.46385659941E+03  0.00000000000E+00 0.  1.
        -24    2    1    2    0    0  0.16505654715E+02  0.46011568023E+02  0.21439693624E+02  0.89440453018E+02  0.71766518265E+02 0.  0.
         23    2    1    2    0    0  0.33749146628E+02 -0.50928097863E+02 -0.13172794115E+03  0.16961027437E+03  0.87651118892E+02 0.  0.
         11    1    3    3    0    0  0.25648790294E+02  0.62122996683E+02  0.22524937018E+02  0.70883707212E+02  0.00000000000E+00 0. -1.
        -12    1    3    3    0    0 -0.91431355793E+01 -0.16111428660E+02 -0.10852433942E+01  0.18556745806E+02  0.00000000000E+00 0.  1.
        -11    1    4    4    0    0 -0.21070484597E+02 -0.27904204590E+01 -0.72769032419E+02  0.75809523457E+02  0.00000000000E+00 0.  1.
         11    1    4    4    0    0  0.54819631225E+02 -0.48137677404E+02 -0.58958908728E+02  0.93800750913E+02  0.00000000000E+00 0. -1.
         21    1    1    2  503  501 -0.10069252415E+03 -0.55782300694E+01 -0.18326311155E+03  0.20917807993E+03  0.00000000000E+00 0.  1.
         -1    1    1    2    0  502  0.50437722804E+02  0.10494759909E+02 -0.74969001107E+02  0.90964031321E+02  0.00000000000E+00 0.  1.
<scales pt_clust_5="13000.00000" pt_clust_6="13000.00000" pt_clust_7="13000.00000" pt_clust_8="13000.00000" pt_clust_9="74.70906" pt_clust_10="51.51800"></scales>
<clustering>
<clus scale="   51.518">  2 10  1 -1</clus>
<clus scale="   71.767">  5  6 -1 -1</clus>
<clus scale="   74.709">  2  9  1 -1</clus>
<clus scale="   86.048">  1  5  2 -1</clus>
<clus scale="   87.651">  7  8 -1 -1</clus>
<clus scale="   51.518">  2  5  1 -1</clus>
</clustering>
</event>
<event>
10    3  0.7209067E-005  0.1741737E+03  0.7546771E-02  0.1190398E+00
         21   -1    0    0  501  502  0.00000000000E+00  0.00000000000E+00  0.76209667217E+03  0.76209667217E+03  0.00000000000E+00 0.  1.
         -4   -1    0    0    0  501 -0.00000000000E+00 -0.00000000000E+00 -0.86006756425E+02  0.86006756425E+02  0.00000000000E+00 0.  1.
        -24    2    1    2    0    0  0.79020409301E+02  0.32280413686E+02  0.74301639192E+02  0.13866550055E+03  0.80131998996E+02 0.  0.
         23    2    1    2    0    0 -0.61246624881E+02 -0.16147593564E+03  0.40855840674E+03  0.45294212386E+03  0.91711335150E+02 0.  0.
         13    1    3    3    0    0 -0.43918250623E+01  0.32802248375E+02  0.15093089998E+02  0.36374125303E+02  0.00000000000E+00 0. -1.
        -14    1    3    3    0    0  0.83412234363E+02 -0.52183468971E+00  0.59208549194E+02  0.10229137525E+03  0.00000000000E+00 0.  1.
        -13    1    4    4    0    0 -0.13386646033E+02 -0.23472581678E+02  0.10603590939E+02  0.29027582115E+02  0.00000000000E+00 0. -1.
         13    1    4    4    0    0 -0.47859978848E+02 -0.13800335396E+03  0.39795481580E+03  0.42391454174E+03  0.00000000000E+00 0.  1.
         21    1    1    2  503  502  0.22498056233E+02  0.81906993166E-01  0.69999621362E+02  0.73526296206E+02  0.00000000000E+00 0. -1.
         -3    1    1    2    0  503 -0.40271840652E+02  0.12911361496E+03  0.12323024845E+03  0.18296950798E+03  0.00000000000E+00 0.  1.
<scales pt_clust_5="13000.00000" pt_clust_6="13000.00000" pt_clust_7="13000.00000" pt_clust_8="13000.00000" pt_clust_9="22.49821" pt_clust_10="148.07270"></scales>
<clustering>
<clus scale="   22.498">  1  9  2 -1</clus>
<clus scale="   80.132">  5  6 -1 -1</clus>
<clus scale="   91.711">  7  8 -1 -1</clus>
<clus scale="  119.452">  2  5  1 -1</clus>
<clus scale="  148.073">  1 10  2 -1</clus>
<clus scale="   22.498">  1  5  2 -1</clus>
</clustering>
</event>
<event>
10    3  0.7209067E-005  0.3370380E+03  0.7546771E-02  0.1096629E+00
         21   -1    0    0  503  502  0.00000000000E+00  0.00000000000E+00  0.99098615009E+03  0.99098615009E+03  0.00000000000E+00 0.  1.
         -2   -1    0    0    0  501 -0.00000000000E+00 -0.00000000000E+00 -0.64309399507E+03  0.64309399507E+03  0.00000000000E+00 0.  1.
         23    2    1    2    0    0 -0.92783952121E+02 -0.92625579599E+02  0.12874066249E+03  0.20382501045E+03  0.88216307668E+02 0.  0.
        -24    2    1    2    0    0 -0.20944261447E+03  0.22735339569E+03  0.57080992633E+03  0.65408300836E+03  0.80279726838E+02 0.  0.
         13    1    4    4    0    0 -0.95006572312E+01  0.36620368536E+02  0.36605746731E+02  0.52643086661E+02  0.00000000000E+00 0. -1.
        -14    1    4    4    0    0 -0.19994195724E+03  0.19073302715E+03  0.53420417960E+03  0.60143992170E+03  0.00000000000E+00 0.  1.
        -11    1    3    3    0    0 -0.78888431230E+02 -0.11025389384E+03  0.11094095138E+03  0.17517762524E+03  0.00000000000E+00 0.  1.
         11    1    3    3    0    0 -0.13895520890E+02  0.17628314245E+02  0.17799711105E+02  0.28647385210E+02  0.00000000000E+00 0. -1.
         21    1    1    2  503  501 -0.11074028880E+02  0.23494668826E+02  0.15646796209E+03  0.15860913196E+03  0.00000000000E+00 0. -1.
         -1    1    1    2    0  502  0.31330059547E+03 -0.15822248491E+03 -0.50812639588E+03  0.61756299440E+03  0.00000000000E+00 0.  1.
<scales pt_clust_5="13000.00000" pt_clust_6="13000.00000" pt_clust_7="13000.00000" pt_clust_8="13000.00000" pt_clust_9="25.97371" pt_clust_10="327.33752"></scales>
<clustering>
<clus scale="   25.974">  1  9  2 -1</clus>
<clus scale="   80.280">  5  6 -1 -1</clus>
<clus scale="   88.216">  7  8 -1 -1</clus>
<clus scale="  156.649">  2  7  1 -1</clus>
<clus scale="  327.338">  1 10  2 -1</clus>
<clus scale="   25.974">  1  5  2 -1</clus>
</clustering>
</event>
<event>
10    3  0.7209067E-005  0.9392906E+02  0.7546771E-02  0.1299493E+00
          1   -1    0    0  502    0 -0.00000000000E+00  0.00000000000E+00  0.73008293259E+03  0.73008293259E+03  0.00000000000E+00 0. -1.
         21   -1    0    0  503  502  0.00000000000E+00 -0.00000000000E+00 -0.32649040763E+02  0.32649040763E+02  0.00000000000E+00 0. -1.
        -24    2    1    2    0    0 -0.83719007239E+00 -0.25133565239E+02  0.46905658034E+03  0.47662838553E+03  0.80796938993E+02 0.  0.
         23    2    1    2    0    0  0.18712565268E+02  0.16632600002E+02  0.14840877084E+03  0.17581213530E+03  0.90873209347E+02 0.  0.
         11    1    3    3    0    0  0.37211388190E+02 -0.15211424531E+02  0.15535113913E+03  0.16046822513E+03  0.00000000000E+00 0. -1.
        -12    1    3    3    0    0 -0.38048578263E+02 -0.99221407080E+01  0.31370544121E+03  0.31616016041E+03  0.00000000000E+00 0.  1.
        -11    1    4    4    0    0 -0.32409624211E+00  0.31095587842E+02  0.63287891281E+01  0.31734747414E+02  0.00000000000E+00 0.  1.
         11    1    4    4    0    0  0.19036661510E+02 -0.14462987840E+02  0.14207998171E+03  0.14407738789E+03  0.00000000000E+00 0. -1.
         21    1    1    2  503  501  0.26776792878E+02  0.12280235755E+02  0.20767899013E+02  0.36043119405E+02  0.00000000000E+00 0. -1.
          2    1    1    2  501    0 -0.44652168074E+02 -0.37792705172E+01  0.59200641646E+02  0.74248333117E+02  0.00000000000E+00 0. -1.
<scales pt_clust_5="13000.00000" pt_clust_6="13000.00000" pt_clust_7="13000.00000" pt_clust_8="13000.00000" pt_clust_9="29.45846" pt_clust_10="36.59737"></scales>
<clustering>
<clus scale="   29.458">  2  9  1 -1</clus>
<clus scale="   36.597">  2 10  1 -1</clus>
<clus scale="   80.797">  5  6 -1 -1</clus>
<clus scale="   84.219">  1  5  2 -1</clus>
<clus scale="   90.873">  7  8 -1 -1</clus>
<clus scale="   29.458">  2  5  1 -1</clus>
</clustering>
</event>
<event>
10    3  0.7209067E-005  0.2847393E+03  0.7546771E-02  0.1123347E+00
          1   -1    0    0  502    0 -0.00000000000E+00  0.00000000000E+00  0.55884732944E+03  0.55884732944E+03  0.00000000000E+00 0. -1.
         21   -1    0    0  503  502  0.00000000000E+00 -0.00000000000E+00 -0.15389190582E+04  0.15389190582E+04  0.00000000000E+00 0. -1.
        -24    2    1    2    0    0 -0.10649846666E+03  0.76965330037E+01  0.10849107605E+03  0.17091292643E+03  0.77715859503E+02 0.  0.
         23    2    1    2    0    0  0.14196822921E+02 -0.26340951137E+03  0.35693826596E+03  0.45300842753E+03  0.90695034339E+02 0.  0.
         13    1    3    3    0    0 -0.46251002985E+02  0.15562319915E+02  0.97691954093E+02  0.10920191836E+03  0.00000000000E+00 0. -1.
        -14    1    3    3    0    0 -0.60247463673E+02 -0.78657869112E+01  0.10799121960E+02  0.61711008077E+02  0.00000000000E+00 0.  1.
        -11    1    4    4    0    0  0.32982393676E+02 -0.92574555077E+02  0.78403629910E+02  0.12571800079E+03  0.00000000000E+00 0.  1.
         11    1    4    4    0    0 -0.18785570755E+02 -0.17083495629E+03  0.27853463605E+03  0.32729042674E+03  0.00000000000E+00 0. -1.
         21    1    1    2  503  501  0.30188497391E+02  0.66412441724E+01 -0.14740170093E+03  0.15060781167E+03  0.00000000000E+00 0. -1.
          2    1    1    2  501    0  0.62113146346E+02  0.24907173419E+03 -0.12980993698E+04  0.13232372220E+04  0.00000000000E+00 0. -1.
<scales pt_clust_5="13000.00000" pt_clust_6="13000.00000" pt_clust_7="13000.00000" pt_clust_8="13000.00000" pt_clust_9="30.91038" pt_clust_10="269.90902"></scales>
<clustering>
<clus scale="   30.910">  2  9  1 -1</clus>
<clus scale="   77.716">  5  6 -1 -1</clus>
<clus scale="   90.695">  7  8 -1 -1</clus>
<clus scale="  131.527">  1  5  2 -1</clus>
<clus scale="  269.909">  2 10  1 -1</clus>
<clus scale="   30.910">  2  5  1 -1</clus>
</clustering>
</event>
<event>
10    3  0.7209067E-005  0.2596628E+03  0.7546771E-02  0.1107586E+00
         -4   -1    0    0    0  501 -0.00000000000E+00  0.00000000000E+00  0.38984654262E+03  0.38984654262E+03  0.00000000000E+00 0.  1.
         21   -1    0    0  503  502  0.00000000000E+00 -0.00000000000E+00 -0.82017597936E+03  0.82017597936E+03  0.00000000000E+00 0.  1.
         23    2    1    2    0    0 -0.10784512687E+03  0.21723022513E+03  0.26259306021E+03  0.36941382989E+03  0.93230468975E+02 0.  0.
        -24    2    1    2    0    0  0.87613559881E+02 -0.19877689241E+03 -0.64870961383E+03  0.69103395976E+03  0.97546817730E+02 0.  0.
         13    1    4    4    0    0  0.51685155108E+02 -0.49878843584E+02 -0.32598880529E+03  0.33380826154E+03  0.00000000000E+00 0. -1.
        -14    1    4    4    0    0  0.35928404773E+02 -0.14889804882E+03 -0.32272080853E+03  0.35722569822E+03  0.00000000000E+00 0.  1.
        -13    1    3    3    0    0 -0.95205855132E+02  0.14889349821E+03  0.23637229489E+03  0.29513605414E+03  0.00000000000E+00 0.  1.
         13    1    3    3    0    0 -0.12639271741E+02  0.68336726928E+02  0.26220765314E+02  0.74277775754E+02  0.00000000000E+00 0. -1.
         21    1    1    2  503  501  0.40176152145E+02 -0.40868055865E+02 -0.82798268318E+02  0.10069694349E+03  0.00000000000E+00 0.  1.
         -3    1    1    2    0  502 -0.19944585152E+02  0.22414723135E+02  0.38585385196E+02  0.48877788829E+02  0.00000000000E+00 0.  1.
<scales pt_clust_5="13000.00000" pt_clust_6="13000.00000" pt_clust_7="13000.00000" pt_clust_8="13000.00000" pt_clust_9="53.93595" pt_clust_10="30.00345"></scales>
<clustering>
<clus scale="   30.003">  2 10  1 -1</clus>
<clus scale="   53.936">  2  9  1 -1</clus>
<clus scale="   93.230">  7  8 -1 -1</clus>
<clus scale="   97.547">  5  6 -1 -1</clus>
<clus scale="  258.072">  1  7  2 -1</clus>
<clus scale="   30.003">  2  5  1 -1</clus>
</clustering>
</event>
<event>
10    3  0.7209067E-005  0.4909044E+03  0.7546771E-02  0.1016181E+00
          1   -1    0    0  503    0 -0.00000000000E+00  0.00000000000E+00  0.22513660437E+03  0.22513660437E+03  0.00000000000E+00 0. -1.
         21   -1    0    0  501  502  0.00000000000E+00 -0.00000000000E+00 -0.13277461018E+04  0.13277461018E+04  0.00000000000E+00 0. -1.
        -24    2    1    2    0    0  0.12777398328E+03  0.13829666308E+03 -0.11833013193E+03  0.23663972252E+03  0.80896108230E+02 0.  0.
         23    2    1    2    0    0  0.27705852028E+03  0.40245008132E+02 -0.10594126376E+03  0.31267818349E+03  0.90349381413E+02 0.  0.
         11    1    3    3    0    0  0.50431536096E+02  0.95904504833E+02 -0.98065535778E+02  0.14614329676E+03  0.00000000000E+00 0. -1.
        -12    1    3    3    0    0  0.77342447188E+02  0.42392158250E+02 -0.20264596156E+02  0.90496425761E+02  0.00000000000E+00 0.  1.
        -11    1    4    4    0    0  0.69788731477E+02 -0.20052886130E+02 -0.54448184874E+02  0.90758967157E+02  0.00000000000E+00 0.  1.
         11    1    4    4    0    0  0.20726978881E+03  0.60297894262E+02 -0.51493078886E+02  0.22191921633E+03  0.00000000000E+00 0. -1.
         21    1    1    2  503  502 -0.10500027861E+02 -0.73371598280E+02 -0.97162603866E+02  0.12220562020E+03  0.00000000000E+00 0. -1.
          2    1    1    2  501    0 -0.39433247571E+03 -0.10517007293E+03 -0.78117549788E+03  0.88135917997E+03  0.00000000000E+00 0. -1.
<scales pt_clust_5="13000.00000" pt_clust_6="13000.00000" pt_clust_7="13000.00000" pt_clust_8="13000.00000" pt_clust_9="74.11911" pt_clust_10="430.46612"></scales>
<clustering>
<clus scale="   74.119">  2  9  1 -1</clus>
<clus scale="   80.896">  5  6 -1 -1</clus>
<clus scale="   90.349">  7  8 -1 -1</clus>
<clus scale="  156.672">  5  7 -1 -1</clus>
<clus scale="  430.466">  2 10  1 -1</clus>
<clus scale="   74.119">  2  5  1 -1</clus>
</clustering>
</event>
<event>
10    3  0.7209067E-005  0.2106076E+03  0.7546771E-02  0.1174956E+00
          1   -1    0    0  502    0 -0.00000000000E+00  0.00000000000E+00  0.73735360806E+03  0.73735360806E+03  0.00000000000E+00 0. -1.
         21   -1    0    0  503  502  0.00000000000E+00 -0.00000000000E+00 -0.20465632020E+03  0.20465632020E+03  0.00000000000E+00 0. -1.
         23    2    1    2    0    0 -0.24163901323E+02 -0.30193877979E+02  0.69349118761E+02  0.12057446275E+03  0.90737734157E+02 0.  0.
        -24    2    1    2    0    0  0.20142198334E+03 -0.36483367564E+02  0.47910791028E+03  0.52776142351E+03  0.84177663104E+02 0.  0.
         13    1    4    4    0    0  0.10484356617E+03 -0.21728916225E+02  0.34900301433E+03  0.36505810931E+03  0.00000000000E+00 0. -1.
        -14    1    4    4    0    0  0.96578417171E+02 -0.14754451339E+02  0.13010489596E+03  0.16270331419E+03  0.00000000000E+00 0.  1.
        -11    1    3    3    0    0 -0.30735880229E+02  0.79662152912E+01  0.74998353375E+02  0.81442666511E+02  0.00000000000E+00 0.  1.
         11    1    3    3    0    0  0.65719789066E+01 -0.38160093270E+02 -0.56492346140E+01  0.39131796239E+02  0.00000000000E+00 0. -1.
         21    1    1    2  503  501  0.15244298080E+02  0.43532501888E+02 -0.77504692905E+02  0.90191156811E+02  0.00000000000E+00 0. -1.
          2    1    1    2  501    0 -0.19250238010E+03  0.23144743655E+02  0.61744951713E+02  0.20348288519E+03  0.00000000000E+00 0. -1.
<scales pt_clust_5="13000.00000" pt_clust_6="13000.00000" pt_clust_7="13000.00000" pt_clust_8="13000.00000" pt_clust_9="46.12448" pt_clust_10="193.05359"></scales>
<clustering>
<clus scale="   46.124">  2  9  1 -1</clus>
<clus scale="   84.178">  5  6 -1 -1</clus>
<clus scale="   90.738">  7  8 -1 -1</clus>
<clus scale="   95.452">  1  7  2 -1</clus>
<clus scale="  193.054">  2 10  1 -1</clus>
<clus scale="   46.124">  2  5  1 -1</clus>
</clustering>
</event>
<event>
10    3  0.7209067E-005  0.1192236E+03  0.7546771E-02  0.1249977E+00
          3   -1    0    0  502    0 -0.00000000000E+00  0.00000000000E+00  0.72313172433E+03  0.72313172433E+03  0.00000000000E+00 0. -1.
         21   -1    0    0  503  502  0.00000000000E+00 -0.00000000000E+00 -0.15496833520E+03  0.15496833520E+03  0.00000000000E+00 0. -1.
        -24    2    1    2    0    0 -0.44293405482E+02  0.26647797324E+02  0.30988641436E+03  0.32399393769E+03  0.79186305509E+02 0.  0.
         23    2    1    2    0    0  0.95305822601E+02 -0.12936579269E+03  0.26596277321E+03  0.32509078185E+03  0.95546384407E+02 0.  0.
         11    1    3    3    0    0 -0.49294451644E+02 -0.15629403585E+00  0.27663396265E+03  0.28099166657E+03  0.00000000000E+00 0. -1.
        -12    1    3    3    0    0  0.50010461611E+01  0.26804091360E+02  0.33252451714E+02  0.43002271118E+02  0.00000000000E+00 0.  1.
        -13    1    4    4    0    0  0.83487714064E+02 -0.10043860220E+03  0.26307216598E+03  0.29370916861E+03  0.00000000000E+00 0. -1.
         13    1    4    4    0    0  0.11818108537E+02 -0.28927190498E+02  0.28906072212E+01  0.31381613241E+02  0.00000000000E+00 0.  1.
         21    1    1    2  503  501  0.13512348108E+02  0.59997486086E+02 -0.94479560928E+02  0.11273273403E+03  0.00000000000E+00 0. -1.
          4    1    1    2  501    0 -0.64524765226E+02  0.42720509284E+02  0.86793762497E+02  0.11628260596E+03  0.00000000000E+00 0. -1.
<scales pt_clust_5="13000.00000" pt_clust_6="13000.00000" pt_clust_7="13000.00000" pt_clust_8="13000.00000" pt_clust_9="61.50026" pt_clust_10="85.27121"></scales>
<clustering>
<clus scale="   61.500">  2  9  1 -1</clus>
<clus scale="   79.186">  5  6 -1 -1</clus>
<clus scale="   85.271">  2 10  1 -1</clus>
<clus scale="   95.546">  7  8 -1 -1</clus>
<clus scale="  106.563">  1  5  2 -1</clus>
<clus scale="   61.500">  2  5  1 -1</clus>
</clustering>
</event>
<event>
10    3  0.7209067E-005  0.1401312E+03  0.7546771E-02  0.1215008E+00
          1   -1    0    0  502    0 -0.00000000000E+00  0.00000000000E+00  0.71768915594E+03  0.71768915594E+03  0.00000000000E+00 0. -1.
         21   -1    0    0  503  502  0.00000000000E+00 -0.00000000000E+00 -0.75457691890E+02  0.75457691890E+02  0.00000000000E+00 0.  1.
        -24    2    1    2    0    0 -0.55406674898E+02 -0.39377167630E+02  0.16142375877E+03  0.19278588622E+03  0.80550028405E+02 0.  0.
         23    2    1    2    0    0  0.11818395652E+03  0.12885038006E+03  0.35072016562E+03  0.40193161905E+03  0.89300189248E+02 0.  0.
         11    1    3    3    0    0  0.17840815040E+02 -0.16019532235E+02  0.17740816647E+02  0.29827112995E+02  0.00000000000E+00 0. -1.
        -12    1    3    3    0    0 -0.73247489938E+02 -0.23357635394E+02  0.14368294213E+03  0.16295877323E+03  0.00000000000E+00 0.  1.
        -11    1    4    4    0    0  0.10292038330E+03  0.74752130719E+02  0.16776607277E+03  0.21053726872E+03  0.00000000000E+00 0.  1.
         11    1    4    4    0    0  0.15263573216E+02  0.54098249345E+02  0.18295409285E+03  0.19139435034E+03  0.00000000000E+00 0. -1.
         21    1    1    2  503  501  0.13870793731E+02 -0.36634964059E+02  0.88773594181E+00  0.39183001230E+02  0.00000000000E+00 0.  1.
          2    1    1    2  501    0 -0.76648075349E+02 -0.52838248376E+02  0.12919980371E+03  0.15924634133E+03  0.00000000000E+00 0. -1.
<scales pt_clust_5="13000.00000" pt_clust_6="13000.00000" pt_clust_7="13000.00000" pt_clust_8="13000.00000" pt_clust_9="39.17294" pt_clust_10="96.13336"></scales>
<clustering>
<clus scale="   39.173">  2  9  1 -1</clus>
<clus scale="   80.550">  5  6 -1 -1</clus>
<clus scale="   89.300">  7  8 -1 -1</clus>
<clus scale="   96.133">  2 10  1 -1</clus>
<clus scale="  134.724">  1  5  2 -1</clus>
<clus scale="   39.173">  2  5  1 -1</clus>
</clustering>
</event>
<event>
10    3  0.7209067E-005  0.3875097E+03  0.7546771E-02  0.1078181E+00
         21   -1    0    0  503  502  0.00000000000E+00  0.00000000000E+00  0.17915024512E+04  0.17915024512E+04  0.00000000000E+00 0.  1.
         -2   -1    0    0    0  501 -0.00000000000E+00 -0.00000000000E+00 -0.37238022049E+03  0.37238022049E+03  0.00000000000E+00 0.  1.
         23    2    1    2    0    0  0.78303954320E+02  0.11711574862E+03  0.92447711466E+03  0.93966287052E+03  0.91982426984E+02 0.  0.
        -24    2    1    2    0    0  0.18183199810E+03 -0.16551908963E+02 -0.56795709588E+02  0.20753317448E+03  0.80668610128E+02 0.  0.
         11    1    4    4    0    0  0.46490825513E+02 -0.62288327223E+01  0.20659347707E+02  0.51254305787E+02  0.00000000000E+00 0. -1.
        -12    1    4    4    0    0  0.13534117259E+03 -0.10323076241E+02 -0.77455057296E+02  0.15627886870E+03  0.00000000000E+00 0.  1.
        -13    1    3    3    0    0  0.95624533099E+02  0.72384650519E+02  0.68698640055E+03  0.69737644318E+03  0.00000000000E+00 0.  1.
         13    1    3    3    0    0 -0.17320578779E+02  0.44731098106E+02  0.23749071411E+03  0.24228642734E+03  0.00000000000E+00 0. -1.
         21    1    1    2  503  501 -0.38651732124E+03 -0.38335434489E+03  0.34873240170E+03  0.64650636607E+03  0.00000000000E+00 0.  1.
         -1    1    1    2    0  502  0.12638136882E+03  0.28279050523E+03  0.20270842397E+03  0.37018026066E+03  0.00000000000E+00 0.  1.
<scales pt_clust_5="13000.00000" pt_clust_6="13000.00000" pt_clust_7="13000.00000" pt_clust_8="13000.00000" pt_clust_9="387.50973" pt_clust_10="13000.00000"></scales>
<clustering>
<clus scale="   80.669">  5  6 -1 -1</clus>
<clus scale="   91.982">  7  8 -1 -1</clus>
<clus scale="  168.251">  2  7  1 -1</clus>
<clus scale="  226.632">  2  5  1 -1</clus>
<clus scale="  387.510">  2  9  1 -1</clus>
<clus scale="  387.510">  1  5  2 -1</clus>
</clustering>
</event>
<event>
10    3  0.7209067E-005  0.1005147E+03  0.7546771E-02  0.1284207E+00
         -2   -1    0    0    0  501 -0.00000000000E+00  0.00000000000E+00  0.17066655541E+03  0.17066655541E+03  0.00000000000E+00 0.  1.
         21   -1    0    0  501  502  0.00000000000E+00 -0.00000000000E+00 -0.22155152582E+03  0.22155152582E+03  0.00000000000E+00 0.  1.
        -24    2    1    2    0    0  0.28529928019E+02  0.37468870153E+02  0.92780624976E+02  0.13269637696E+03  0.82354180612E+02 0.  0.
         23    2    1    2    0    0  0.36368524761E+02 -0.38919469165E+02 -0.10520568796E+02  0.10711480873E+03  0.92333662380E+02 0.  0.
         13    1    3    3    0    0 -0.12290672468E+02  0.48633906603E+02  0.64864734727E+02  0.81998483598E+02  0.00000000000E+00 0. -1.
        -14    1    3    3    0    0  0.40820600487E+02 -0.11165036450E+02  0.27915890249E+02  0.50697893363E+02  0.00000000000E+00 0.  1.
        -11    1    4    4    0    0 -0.25333149656E+02 -0.74268971453E+01  0.18261053110E+02  0.32099740394E+02  0.00000000000E+00 0. -1.
         11    1    4    4    0    0  0.61701674417E+02 -0.31492572019E+02 -0.28781621906E+02  0.75015068338E+02  0.00000000000E+00 0.  1.
         21    1    1    2  503  502 -0.20679814027E+02  0.83844644549E+01 -0.79341649096E+02  0.82419968659E+02  0.00000000000E+00 0.  1.
         -1    1    1    2    0  503 -0.44218638753E+02 -0.69338654432E+01 -0.53803377502E+02  0.69986926878E+02  0.00000000000E+00 0.  1.
<scales pt_clust_5="13000.00000" pt_clust_6="13000.00000" pt_clust_7="13000.00000" pt_clust_8="13000.00000" pt_clust_9="22.31488" pt_clust_10="53.41640"></scales>
<clustering>
<clus scale="   22.315">  2  9  1 -1</clus>
<clus scale="   53.416">  2 10  1 -1</clus>
<clus scale="   82.354">  5  6 -1 -1</clus>
<clus scale="   91.433">  1  5  2 -1</clus>
<clus scale="   92.334">  7  8 -1 -1</clus>
<clus scale="   22.315">  2  5  1 -1</clus>
</clustering>
</event>
<event>
10    3  0.7209067E-005  0.6720594E+03  0.7546771E-02  0.9766245E-01
         21   -1    0    0  503  502  0.00000000000E+00  0.00000000000E+00  0.46166578707E+03  0.46166578707E+03  0.00000000000E+00 0. -1.
          1   -1    0    0  502    0 -0.00000000000E+00 -0.00000000000E+00 -0.10566616686E+04  0.10566616686E+04  0.00000000000E+00 0. -1.
        -24    2    1    2    0    0  0.27528314528E+03 -0.10681036619E+02 -0.24030493236E+03  0.37757970190E+03  0.94472621203E+02 0.  0.
         23    2    1    2    0    0  0.27685910511E+03 -0.24524496057E+03 -0.32809462169E+03  0.50285987147E+03  0.91792781783E+02 0.  0.
         11    1    3    3    0    0  0.12813724348E+03 -0.17816806772E+02 -0.17193131261E+03  0.21516730241E+03  0.00000000000E+00 0. -1.
        -12    1    3    3    0    0  0.14714590180E+03  0.71357701525E+01 -0.68373619747E+02  0.16241239950E+03  0.00000000000E+00 0.  1.
        -11    1    4    4    0    0  0.22230110537E+03 -0.14143445220E+03 -0.23653998922E+03  0.35408000822E+03  0.00000000000E+00 0. -1.
         11    1    4    4    0    0  0.54557999734E+02 -0.10381050837E+03 -0.91554632473E+02  0.14877986325E+03  0.00000000000E+00 0.  1.
         21    1    1    2  503  501 -0.13224181005E+02 -0.25534906455E+02 -0.69285119143E+01  0.29578956849E+02  0.00000000000E+00 0.  1.
          2    1    1    2  501    0 -0.53891806938E+03  0.28146090365E+03 -0.19667815554E+02  0.60830892542E+03  0.00000000000E+00 0. -1.
<scales pt_clust_5="13000.00000" pt_clust_6="13000.00000" pt_clust_7="13000.00000" pt_clust_8="13000.00000" pt_clust_9="28.75605" pt_clust_10="608.21647"></scales>
<clustering>
<clus scale="   28.756">  1  9  2 -1</clus>
<clus scale="   91.793">  7  8 -1 -1</clus>
<clus scale="   94.473">  5  6 -1 -1</clus>
<clus scale="  207.100">  5  7 -1 -1</clus>
<clus scale="  608.216">  1 10  2 -1</clus>
<clus scale="   28.756">  1  5  2 -1</clus>
</clustering>
</event>
<event>
10    3  0.7209067E-005  0.1049547E+03  0.7546771E-02  0.1274116E+00
         21   -1    0    0  503  502  0.00000000000E+00  0.00000000000E+00  0.75830618050E+02  0.75830618050E+02  0.00000000000E+00 0.  1.
         -2   -1    0    0    0  501 -0.00000000000E+00 -0.00000000000E+00 -0.48758807678E+03  0.48758807678E+03  0.00000000000E+00 0.  1.
        -24    2    1    2    0    0 -0.26667164983E+02 -0.98807532921E+00 -0.39509630410E+02  0.94151741921E+02  0.81187595299E+02 0.  0.
         23    2    1    2    0    0  0.61484792563E+02 -0.75838686562E+02 -0.95865741435E+02  0.16387077235E+03  0.90174849898E+02 0.  0.
         11    1    3    3    0    0  0.19848864920E+02  0.25198183515E+02 -0.15244923993E+02  0.35515258673E+02  0.00000000000E+00 0. -1.
        -12    1    3    3    0    0 -0.46516029903E+02 -0.26186258844E+02 -0.24264706417E+02  0.58636483248E+02  0.00000000000E+00 0.  1.
        -13    1    4    4    0    0  0.13392298271E+02 -0.27894932812E+02 -0.90623650743E+02  0.95760780091E+02  0.00000000000E+00 0. -1.
         13    1    4    4    0    0  0.48092494293E+02 -0.47943753750E+02 -0.52420906917E+01  0.68109992261E+02  0.00000000000E+00 0.  1.
         21    1    1    2  503  501  0.77123768246E+01  0.27813262345E+02 -0.89723799514E+01  0.30225186857E+02  0.00000000000E+00 0. -1.
         -1    1    1    2    0  502 -0.42530004405E+02  0.49013499546E+02 -0.26740970693E+03  0.27517099370E+03  0.00000000000E+00 0.  1.
<scales pt_clust_5="13000.00000" pt_clust_6="13000.00000" pt_clust_7="13000.00000" pt_clust_8="13000.00000" pt_clust_9="28.86275" pt_clust_10="65.85820"></scales>
<clustering>
<clus scale="   28.863">  1  9  2 -1</clus>
<clus scale="   65.858">  1 10  2 -1</clus>
<clus scale="   81.188">  5  6 -1 -1</clus>
<clus scale="   90.175">  7  8 -1 -1</clus>
<clus scale="   97.342">  2  5  1 -1</clus>
<clus scale="   28.863">  1  5  2 -1</clus>
</clustering>
</event>
<event>
10    3  0.7209067E-005  0.1147771E+03  0.7546771E-02  0.1255707E+00
         21   -1    0    0  503  502  0.00000000000E+00  0.00000000000E+00  0.87173440892E+02  0.87173440892E+02  0.00000000000E+00 0.  1.
         -4   -1    0    0    0  501 -0.00000000000E+00 -0.00000000000E+00 -0.79444282158E+03  0.79444282158E+03  0.00000000000E+00 0.  1.
         23    2    1    2    0    0  0.36089921035E+02 -0.72442423139E+02 -0.72773943369E+02  0.14085561202E+03  0.89408442187E+02 0.  0.
        -24    2    1    2    0    0 -0.93942220475E+02 -0.91311666218E+01 -0.99555397355E+02  0.15810470691E+03  0.78595815491E+02 0.  0.
         11    1    4    4    0    0 -0.52306478479E+02 -0.42289198740E+02 -0.40117089749E+02  0.78318100787E+02  0.00000000000E+00 0. -1.
        -12    1    4    4    0    0 -0.41635741996E+02  0.33158032118E+02 -0.59438307606E+02  0.79786606123E+02  0.00000000000E+00 0.  1.
        -13    1    3    3    0    0  0.10665667322E+02  0.20365615684E+02 -0.60946006137E+01  0.23783585059E+02  0.00000000000E+00 0. -1.
         13    1    3    3    0    0  0.25424253714E+02 -0.92808038823E+02 -0.66679342756E+02  0.11707202696E+03  0.00000000000E+00 0.  1.
         21    1    1    2  503  501 -0.56773557474E+02  0.92931144776E+02 -0.19005894623E+03  0.21904756913E+03  0.00000000000E+00 0.  1.
         -3    1    1    2    0  502  0.11462585691E+03 -0.11357555015E+02 -0.34488109373E+03  0.36360837441E+03  0.00000000000E+00 0.  1.
<scales pt_clust_5="13000.00000" pt_clust_6="13000.00000" pt_clust_7="13000.00000" pt_clust_8="13000.00000" pt_clust_9="108.90103" pt_clust_10="91.98474"></scales>
<clustering>
<clus scale="   78.596">  5  6 -1 -1</clus>
<clus scale="   89.408">  7  8 -1 -1</clus>
<clus scale="  108.901">  2  9  1 -1</clus>
<clus scale="   91.985">  1 10  2 -1</clus>
<clus scale="  106.570">  1  5  2 -1</clus>
<clus scale="   91.985">  1  5  2 -1</clus>
</clustering>
</event>
<event>
10    3  0.7209067E-005  0.3359840E+03  0.7546771E-02  0.1092548E+00
          1   -1    0    0  502    0 -0.00000000000E+00  0.00000000000E+00  0.71058260064E+03  0.71058260064E+03  0.00000000000E+00 0. -1.
         21   -1    0    0  503  502  0.00000000000E+00 -0.00000000000E+00 -0.46925294866E+03  0.46925294866E+03  0.00000000000E+00 0. -1.
        -24    2    1    2    0    0 -0.39338806988E+02 -0.16132840254E+03  0.65938589730E+02  0.19819595227E+03  0.85786611312E+02 0.  0.
         23    2    1    2    0    0  0.27407310763E+03  0.20329374461E+02 -0.21269268945E+03  0.35968527152E+03  0.92768327637E+02 0.  0.
         13    1    3    3    0    0 -0.23984551403E+02 -0.13851899245E+03  0.16393718408E+02  0.14153276645E+03  0.00000000000E+00 0. -1.
        -14    1    3    3    0    0 -0.15354255585E+02 -0.22809410087E+02  0.49544871322E+02  0.56663185821E+02  0.00000000000E+00 0.  1.
        -13    1    4    4    0    0  0.26963734918E+02 -0.11282654872E+01  0.75001993290E+01  0.28010158402E+02  0.00000000000E+00 0.  1.
         13    1    4    4    0    0  0.24710937271E+03  0.21457639948E+02 -0.22019288878E+03  0.33167511312E+03  0.00000000000E+00 0. -1.
         21    1    1    2  503  501  0.76630936728E+02  0.61967956473E+02 -0.22052129917E+02  0.10098823955E+03  0.00000000000E+00 0. -1.
          2    1    1    2  501    0 -0.31136523737E+03  0.79031071607E+02  0.41013588162E+03  0.52096608596E+03  0.00000000000E+00 0. -1.
<scales pt_clust_5="13000.00000" pt_clust_6="13000.00000" pt_clust_7="13000.00000" pt_clust_8="13000.00000" pt_clust_9="98.55114" pt_clust_10="322.92317"></scales>
<clustering>
<clus scale="   85.787">  5  6 -1 -1</clus>
<clus scale="   92.768">  7  8 -1 -1</clus>
<clus scale="   98.551">  2  9  1 -1</clus>
<clus scale="  175.979">  1  5  2 -1</clus>
<clus scale="  322.923">  2 10  1 -1</clus>
<clus scale="   98.551">  2  5  1 -1</clus>
</clustering>
</event>
<event>
10    3  0.7209067E-005  0.3279569E+03  0.7546771E-02  0.1072705E+00
          1   -1    0    0  503    0 -0.00000000000E+00  0.00000000000E+00  0.25300793993E+03  0.25300793993E+03  0.00000000000E+00 0. -1.
         21   -1    0    0  501  502  0.00000000000E+00 -0.00000000000E+00 -0.85830071667E+03  0.85830071667E+03  0.00000000000E+00 0.  1.
         23    2    1    2    0    0 -0.19793613799E+03 -0.23544617786E+03  0.23949507166E+02  0.32450046938E+03  0.10056519447E+03 0.  0.
        -24    2    1    2    0    0  0.26914280565E+03  0.19506847178E+03 -0.45606793199E+03  0.56989923197E+03  0.79357529526E+02 0.  0.
         11    1    4    4    0    0  0.70891934934E+02  0.93711395947E+02 -0.13216833809E+03  0.17685011100E+03  0.00000000000E+00 0. -1.
        -12    1    4    4    0    0  0.19825087072E+03  0.10135707583E+03 -0.32389959390E+03  0.39304912097E+03  0.00000000000E+00 0.  1.
        -11    1    3    3    0    0 -0.60151484925E+01 -0.45186561283E+02 -0.21599892006E+02  0.50443658339E+02  0.00000000000E+00 0.  1.
         11    1    3    3    0    0 -0.19192098950E+03 -0.19025961658E+03  0.45549399173E+02  0.27405681104E+03  0.00000000000E+00 0. -1.
         21    1    1    2  503  502  0.15023971576E+02 -0.14961651574E+02 -0.82558907413E+01  0.22753691385E+02  0.00000000000E+00 0.  1.
          2    1    1    2  501    0 -0.86230639241E+02  0.55339357656E+02 -0.16491846118E+03  0.19415526387E+03  0.00000000000E+00 0. -1.
<scales pt_clust_5="13000.00000" pt_clust_6="13000.00000" pt_clust_7="13000.00000" pt_clust_8="13000.00000" pt_clust_9="21.20308" pt_clust_10="101.22814"></scales>
<clustering>
<clus scale="   21.203">  1  9  2 -1</clus>
<clus scale="   79.358">  5  6 -1 -1</clus>
<clus scale="  100.565">  7  8 -1 -1</clus>
<clus scale="  101.228">  2 10  1 -1</clus>
<clus scale="  322.087">  2  5  1 -1</clus>
<clus scale="  101.228">  2  5  1 -1</clus>
</clustering>
</event>
<event>
10    3  0.7209067E-005  0.1849660E+03  0.7546771E-02  0.1173180E+00
          1   -1    0    0  502    0 -0.00000000000E+00  0.00000000000E+00  0.13678732723E+04  0.13678732723E+04  0.00000000000E+00 0. -1.
         21   -1    0    0  503  502  0.00000000000E+00 -0.00000000000E+00 -0.13492889122E+03  0.13492889122E+03  0.00000000000E+00 0. -1.
        -24    2    1    2    0    0  0.14533047510E+02 -0.11997310046E+03  0.16683626776E+03  0.22146885175E+03  0.81297956625E+02 0.  0.
         23    2    1    2    0    0  0.96119791130E+02  0.22243929014E+03  0.10609218891E+04  0.10921093351E+04  0.91811181907E+02 0.  0.
         13    1    3    3    0    0 -0.22141178559E+02 -0.10413783972E+02  0.94513480157E+01  0.26229881126E+02  0.00000000000E+00 0. -1.
        -14    1    3    3    0    0  0.36674226069E+02 -0.10955931649E+03  0.15738491975E+03  0.19523897063E+03  0.00000000000E+00 0.  1.
        -11    1    4    4    0    0  0.81166420647E+02  0.80747009260E+02  0.40371533092E+03  0.41963571794E+03  0.00000000000E+00 0. -1.
         11    1    4    4    0    0  0.14953370483E+02  0.14169228088E+03  0.65720655814E+03  0.67247361718E+03  0.00000000000E+00 0.  1.
         21    1    1    2  503  501  0.22241548036E+02 -0.27868234323E+01  0.55834015420E+01  0.23100372651E+02  0.00000000000E+00 0. -1.
          2    1    1    2  501    0 -0.13289438668E+03 -0.99679366243E+02 -0.39717724732E+00  0.16612360403E+03  0.00000000000E+00 0. -1.
<scales pt_clust_5="13000.00000" pt_clust_6="13000.00000" pt_clust_7="13000.00000" pt_clust_8="13000.00000" pt_clust_9="22.41546" pt_clust_10="160.57126"></scales>
<clustering>
<clus scale="   22.415">  2  9  1 -1</clus>
<clus scale="   81.298">  5  6 -1 -1</clus>
<clus scale="   91.811">  7  8 -1 -1</clus>
<clus scale="  146.705">  1  5  2 -1</clus>
<clus scale="  160.571">  2 10  1 -1</clus>
<clus scale="   22.415">  2  5  1 -1</clus>
</clustering>
</event>
<event>
10    3  0.7209067E-005  0.2558353E+03  0.7546771E-02  0.1110473E+00
          1   -1    0    0  503    0 -0.00000000000E+00  0.00000000000E+00  0.10492859493E+04  0.10492859493E+04  0.00000000000E+00 0. -1.
         21   -1    0    0  501  502  0.00000000000E+00 -0.00000000000E+00 -0.21788981218E+03  0.21788981218E+03  0.00000000000E+00 0. -1.
        -24    2    1    2    0    0  0.20065423768E+03  0.14894279943E+03  0.68751684153E+03  0.73567209087E+03  0.78025235007E+02 0.  0.
         23    2    1    2    0    0 -0.55303585669E+02 -0.19278785954E+03 -0.74525901091E+02  0.23342155165E+03  0.93305227444E+02 0.  0.
         11    1    3    3    0    0  0.17826666409E+03  0.11385993500E+03  0.48816876311E+03  0.53202615499E+03  0.00000000000E+00 0. -1.
        -12    1    3    3    0    0  0.22387573584E+02  0.35082864427E+02  0.19934807842E+03  0.20364593588E+03  0.00000000000E+00 0.  1.
        -13    1    4    4    0    0 -0.66231631671E+02 -0.88470431770E+02 -0.64730554007E+02  0.12807689469E+03  0.00000000000E+00 0.  1.
         13    1    4    4    0    0  0.10928046002E+02 -0.10431742777E+03 -0.97953470838E+01  0.10534465696E+03  0.00000000000E+00 0. -1.
         21    1    1    2  503  502  0.13632045287E+02 -0.25585778346E+02  0.25112604921E+02  0.38355021030E+02  0.00000000000E+00 0. -1.
          2    1    1    2  501    0 -0.15898269729E+03  0.69430838457E+02  0.19329259175E+03  0.25972709792E+03  0.00000000000E+00 0. -1.
<scales pt_clust_5="13000.00000" pt_clust_6="13000.00000" pt_clust_7="13000.00000" pt_clust_8="13000.00000" pt_clust_9="28.99077" pt_clust_10="169.93183"></scales>
<clustering>
<clus scale="   28.991">  2  9  1 -1</clus>
<clus scale="   78.025">  5  6 -1 -1</clus>
<clus scale="   93.305">  7  8 -1 -1</clus>
<clus scale="  169.932">  2 10  1 -1</clus>
<clus scale="  250.667">  1  5  2 -1</clus>
<clus scale="   28.991">  2  5  1 -1</clus>
</clustering>
</event>
<event>
10    3  0.7209067E-005  0.1489107E+03  0.7546771E-02  0.1203525E+00
         21   -1    0    0  501  502  0.00000000000E+00  0.00000000000E+00  0.49826319854E+03  0.49826319854E+03  0.00000000000E+00 0. -1.
         -4   -1    0    0    0  501 -0.00000000000E+00 -0.00000000000E+00 -0.18791218146E+03  0.18791218146E+03  0.00000000000E+00 0.  1.
        -24    2    1    2    0    0 -0.40167058094E+02 -0.10997461475E+03 -0.12736179250E+03  0.19093141145E+03  0.80783471346E+02 0.  0.
         23    2    1    2    0    0  0.59208652667E+02  0.12069089101E+03  0.29193773702E+03  0.33377185753E+03  0.90022524206E+02 0.  0.
         13    1    3    3    0    0 -0.64880832835E+02 -0.83497536251E+02 -0.10000935394E+03  0.14554460452E+03  0.00000000000E+00 0. -1.
        -14    1    3    3    0    0  0.24713774741E+02 -0.26477078498E+02 -0.27352438564E+02  0.45386806928E+02  0.00000000000E+00 0.  1.
        -11    1    4    4    0    0  0.40447092689E+01  0.53112168616E+02  0.38450458004E+02  0.65693986398E+02  0.00000000000E+00 0.  1.
         11    1    4    4    0    0  0.55163943398E+02  0.67578722391E+02  0.25348727901E+03  0.26807787113E+03  0.00000000000E+00 0. -1.
         21    1    1    2  503  502  0.34173791033E+01  0.23833155731E+02  0.29305680786E+02  0.37927835667E+02  0.00000000000E+00 0.  1.
         -3    1    1    2    0  503 -0.22458973676E+02 -0.34549431989E+02  0.11646939179E+03  0.12354427535E+03  0.00000000000E+00 0.  1.
<scales pt_clust_5="13000.00000" pt_clust_6="13000.00000" pt_clust_7="13000.00000" pt_clust_8="13000.00000" pt_clust_9="24.07691" pt_clust_10="35.66164"></scales>
<clustering>
<clus scale="   24.077">  1  9  2 -1</clus>
<clus scale="   35.662">  1 10  2 -1</clus>
<clus scale="   80.783">  5  6 -1 -1</clus>
<clus scale="   90.023">  7  8 -1 -1</clus>
<clus scale="  143.514">  2  5  1 -1</clus>
<clus scale="   24.077">  1  5  2 -1</clus>
</clustering>
</event>
<event>
10    3  0.7209067E-005  0.9526399E+02  0.7546771E-02  0.1296502E+00
          3   -1    0    0  503    0 -0.00000000000E+00  0.00000000000E+00  0.39515010054E+03  0.39515010054E+03  0.00000000000E+00 0. -1.
         21   -1    0    0  501  502  0.00000000000E+00 -0.00000000000E+00 -0.95785009460E+02  0.95785009460E+02  0.00000000000E+00 0. -1.
        -24    2    1    2    0    0 -0.22826529200E+02  0.49191617048E+02  0.14493446080E+03  0.17296648914E+03  0.77269287656E+02 0.  0.
         23    2    1    2    0    0 -0.14411914773E+01  0.43313346323E+01  0.29985449133E+02  0.93200994416E+02  0.88127525257E+02 0.  0.
         13    1    3    3    0    0 -0.35111975321E+02  0.64091111495E+02  0.98272592969E+02  0.12246641953E+03  0.00000000000E+00 0. -1.
        -14    1    3    3    0    0  0.12285446121E+02 -0.14899494447E+02  0.46661867827E+02  0.50500069606E+02  0.00000000000E+00 0.  1.
        -13    1    4    4    0    0 -0.81713121879E+01  0.38402662704E+02 -0.97223061851E+01  0.40448214833E+02  0.00000000000E+00 0. -1.
         13    1    4    4    0    0  0.67301207106E+01 -0.34071328072E+02  0.39707755318E+02  0.52752779583E+02  0.00000000000E+00 0.  1.
         21    1    1    2  503  502  0.24693588642E+02  0.97437643460E+01 -0.40319101652E+02  0.48273638993E+02  0.00000000000E+00 0. -1.
          4    1    1    2  501    0 -0.42586796445E+00 -0.63266716026E+02  0.16476428280E+03  0.17649398745E+03  0.00000000000E+00 0. -1.
<scales pt_clust_5="13000.00000" pt_clust_6="13000.00000" pt_clust_7="13000.00000" pt_clust_8="13000.00000" pt_clust_9="26.54645" pt_clust_10="62.20269"></scales>
<clustering>
<clus scale="   26.546">  2  9  1 -1</clus>
<clus scale="   62.203">  2 10  1 -1</clus>
<clus scale="   77.269">  5  6 -1 -1</clus>
<clus scale="   85.319">  1  5  2 -1</clus>
<clus scale="   88.128">  7  8 -1 -1</clus>
<clus scale="   26.546">  2  5  1 -1</clus>
</clustering>
</event>
<event>
10    3  0.7209067E-005  0.2470010E+03  0.7546771E-02  0.1146211E+00
         21   -1    0    0  503  502  0.00000000000E+00  0.00000000000E+00  0.20116387296E+04  0.20116387296E+04  0.00000000000E+00 0.  1.
          1   -1    0    0  502    0 -0.00000000000E+00 -0.00000000000E+00 -0.10884605040E+04  0.10884605040E+04  0.00000000000E+00 0. -1.
        -24    2    1    2    0    0 -0.12868919825E+01  0.83289863025E+02 -0.20034212073E+03  0.23123542752E+03  0.79962492628E+02 0.  0.
         23    2    1    2    0    0 -0.11214447814E+03  0.86452577209E+02 -0.30667551535E+03  0.35048450729E+03  0.93483078970E+02 0.  0.
         13    1    3    3    0    0 -0.12331427368E+02  0.94109339708E+02 -0.14141615783E+03  0.17031488959E+03  0.00000000000E+00 0. -1.
        -14    1    3    3    0    0  0.11044535385E+02 -0.10819476682E+02 -0.58925962906E+02  0.60920537932E+02  0.00000000000E+00 0.  1.
        -13    1    4    4    0    0  0.66939020553E+01  0.40442537039E+02 -0.94047638722E+02  0.10259320385E+03  0.00000000000E+00 0.  1.
         13    1    4    4    0    0 -0.11883838019E+03  0.46010040170E+02 -0.21262787663E+03  0.24789130344E+03  0.00000000000E+00 0. -1.
         21    1    1    2  503  501 -0.20189889863E+03 -0.14238813391E+03  0.19196600875E+04  0.19354928048E+04  0.00000000000E+00 0.  1.
          2    1    1    2  501    0  0.31533026875E+03 -0.27354306327E+02 -0.48946422583E+03  0.58288649395E+03  0.00000000000E+00 0. -1.
<scales pt_clust_5="13000.00000" pt_clust_6="13000.00000" pt_clust_7="13000.00000" pt_clust_8="13000.00000" pt_clust_9="247.00097" pt_clust_10="13000.00000"></scales>
<clustering>
<clus scale="   79.962">  5  6 -1 -1</clus>
<clus scale="   93.483">  7  8 -1 -1</clus>
<clus scale="  115.468">  2  5  1 -1</clus>
<clus scale="  187.894">  2  7  1 -1</clus>
<clus scale="  247.001">  1  9  2 -1</clus>
<clus scale="  247.001">  1  5  2 -1</clus>
</clustering>
</event>
<event>
10    3  0.7209067E-005  0.3036764E+03  0.7546771E-02  0.1131914E+00
         -4   -1    0    0    0  501 -0.00000000000E+00  0.00000000000E+00  0.10739448992E+04  0.10739448992E+04  0.00000000000E+00 0.  1.
         21   -1    0    0  501  502  0.00000000000E+00 -0.00000000000E+00 -0.20207263848E+03  0.20207263848E+03  0.00000000000E+00 0.  1.
        -24    2    1    2    0    0  0.10228028665E+01 -0.44277429805E+02  0.18354401507E+03  0.20310550304E+03  0.74845861466E+02 0.  0.
         23    2    1    2    0    0 -0.87939067835E+02 -0.23782424159E+03  0.51336883076E+03  0.57969374715E+03  0.90573917571E+02 0.  0.
         11    1    3    3    0    0 -0.14483629932E+02 -0.43964108273E+02  0.18168037548E+03  0.18748433851E+03  0.00000000000E+00 0. -1.
        -12    1    3    3    0    0  0.15506432799E+02 -0.31332153210E+00  0.18636395903E+01  0.15621164523E+02  0.00000000000E+00 0.  1.
        -11    1    4    4    0    0  0.18313141297E+02 -0.45751824983E+02  0.81430357534E+02  0.95181425507E+02  0.00000000000E+00 0. -1.
         11    1    4    4    0    0 -0.10625220913E+03 -0.19207241661E+03  0.43193847323E+03  0.48451232164E+03  0.00000000000E+00 0.  1.
         21    1    1    2  503  502 -0.28327928905E+02 -0.19323604821E+02 -0.76680218330E+02  0.83998387737E+02  0.00000000000E+00 0.  1.
         -3    1    1    2    0  503  0.11524419387E+03  0.30142527622E+03  0.25163963323E+03  0.40921989978E+03  0.00000000000E+00 0.  1.
<scales pt_clust_5="13000.00000" pt_clust_6="13000.00000" pt_clust_7="13000.00000" pt_clust_8="13000.00000" pt_clust_9="34.29101" pt_clust_10="289.85463"></scales>
<clustering>
<clus scale="   34.291">  2  9  1 -1</clus>
<clus scale="   74.846">  5  6 -1 -1</clus>
<clus scale="   87.772">  1  5  2 -1</clus>
<clus scale="   90.574">  7  8 -1 -1</clus>
<clus scale="  289.855">  2 10  1 -1</clus>
<clus scale="   34.291">  2  5  1 -1</clus>
</clustering>
</event>
<event>
10    3  0.7209067E-005  0.1130118E+03  0.7546771E-02  0.1259127E+00
          1   -1    0    0  503    0 -0.00000000000E+00  0.00000000000E+00  0.28617435697E+03  0.28617435697E+03  0.00000000000E+00 0. -1.
         21   -1    0    0  501  502  0.00000000000E+00 -0.00000000000E+00 -0.94981769621E+02  0.94981769621E+02  0.00000000000E+00 0. -1.
         23    2    1    2    0    0 -0.24711569540E+02 -0.70480735235E+02  0.16204093865E+03  0.20076843712E+03  0.92046204910E+02 0.  0.
        -24    2    1    2    0    0  0.14914889455E+02  0.40859040761E+02 -0.16289399718E+01  0.92117550178E+02  0.81185432598E+02 0.  0.
         13    1    4    4    0    0  0.39679271962E+02  0.24411415444E+02  0.24412530953E+02  0.52595945613E+02  0.00000000000E+00 0. -1.
        -14    1    4    4    0    0 -0.24764382507E+02  0.16447625317E+02 -0.26041470925E+02  0.39521604565E+02  0.00000000000E+00 0.  1.
        -13    1    3    3    0    0  0.20683485711E+02 -0.57300699787E+02  0.48791786602E+02  0.78050081467E+02  0.00000000000E+00 0. -1.
         13    1    3    3    0    0 -0.45395055251E+02 -0.13180035448E+02  0.11324915204E+03  0.12271835565E+03  0.00000000000E+00 0.  1.
         21    1    1    2  503  502 -0.17406696375E+02 -0.19563108438E+02  0.13536664107E+02  0.29477950499E+02  0.00000000000E+00 0. -1.
          2    1    1    2  501    0  0.27203376459E+02  0.49184802912E+02  0.17243924564E+02  0.58792188790E+02  0.00000000000E+00 0. -1.
<scales pt_clust_5="13000.00000" pt_clust_6="13000.00000" pt_clust_7="13000.00000" pt_clust_8="13000.00000" pt_clust_9="26.18603" pt_clust_10="50.12672"></scales>
<clustering>
<clus scale="   26.186">  2  9  1 -1</clus>
<clus scale="   50.127">  2 10  1 -1</clus>
<clus scale="   81.185">  5  6 -1 -1</clus>
<clus scale="   92.046">  7  8 -1 -1</clus>
<clus scale="  104.356">  2  5  1 -1</clus>
<clus scale="   26.186">  2  5  1 -1</clus>
</clustering>
</event>
<event>
10    3  0.7209067E-005  0.1331815E+03  0.7546771E-02  0.1248564E+00
          1   -1    0    0  502    0 -0.00000000000E+00  0.00000000000E+00  0.29275878611E+03  0.29275878611E+03  0.00000000000E+00 0. -1.
         21   -1    0    0  503  502  0.00000000000E+00 -0.00000000000E+00 -0.15538150200E+03  0.15538150200E+03  0.00000000000E+00 0. -1.
        -24    2    1    2    0    0 -0.76838580017E+01  0.98864813127E+01  0.96419221080E+02  0.12423013160E+03  0.77328359716E+02 0.  0.
         23    2    1    2    0    0  0.10285800027E+03 -0.49014160236E+02  0.82784397627E+02  0.16789713775E+03  0.91400417122E+02 0.  0.
         11    1    3    3    0    0  0.11022065426E+01 -0.28550802324E+02  0.72948625954E+02  0.78344528853E+02  0.00000000000E+00 0. -1.
        -12    1    3    3    0    0 -0.87860645443E+01  0.38437283637E+02  0.23470595126E+02  0.45885602744E+02  0.00000000000E+00 0.  1.
        -13    1    4    4    0    0  0.43065941310E+02  0.25825888975E+02  0.26177753874E+02  0.56629732828E+02  0.00000000000E+00 0.  1.
         13    1    4    4    0    0  0.59792058962E+02 -0.74840049211E+02  0.56606643753E+02  0.11126740492E+03  0.00000000000E+00 0. -1.
         21    1    1    2  503  501 -0.21907551534E+02 -0.54797909633E+01 -0.63620793697E+02  0.67509809019E+02  0.00000000000E+00 0. -1.
          2    1    1    2  501    0 -0.73266590736E+02  0.44607469887E+02  0.21794459103E+02  0.88503209746E+02  0.00000000000E+00 0. -1.
<scales pt_clust_5="13000.00000" pt_clust_6="13000.00000" pt_clust_7="13000.00000" pt_clust_8="13000.00000" pt_clust_9="22.58249" pt_clust_10="96.86735"></scales>
<clustering>
<clus scale="   22.582">  2  9  1 -1</clus>
<clus scale="   77.328">  5  6 -1 -1</clus>
<clus scale="   78.639">  1  5  2 -1</clus>
<clus scale="   91.400">  7  8 -1 -1</clus>
<clus scale="   96.867">  2 10  1 -1</clus>
<clus scale="   22.582">  2  5  1 -1</clus>
</clustering>
</event>
<event>
10    3  0.7209067E-005  0.9700803E+02  0.7546771E-02  0.1296248E+00
          1   -1    0    0  503    0 -0.00000000000E+00  0.00000000000E+00  0.37913778442E+03  0.37913778442E+03  0.00000000000E+00 0. -1.
         21   -1    0    0  501  502  0.00000000000E+00 -0.00000000000E+00 -0.39247563200E+02  0.39247563200E+02  0.00000000000E+00 0.  1.
         23    2    1    2    0    0  0.32200149917E+02  0.25942571161E+02  0.21371767714E+03  0.23686781580E+03  0.93387632929E+02 0.  0.
        -24    2    1    2    0    0 -0.13637245045E+02  0.39861608473E+01  0.10477623734E+03  0.13069434678E+03  0.76818542283E+02 0.  0.
         11    1    4    4    0    0 -0.40929037198E+02  0.20571028224E+02  0.67962040503E+02  0.81958478741E+02  0.00000000000E+00 0. -1.
        -12    1    4    4    0    0  0.27291792153E+02 -0.16584867377E+02  0.36814196839E+02  0.48735868041E+02  0.00000000000E+00 0.  1.
        -13    1    3    3    0    0  0.66595511878E+01  0.59258506346E+02  0.13701061328E+03  0.14942499238E+03  0.00000000000E+00 0.  1.
         13    1    3    3    0    0  0.25540598729E+02 -0.33315935185E+02  0.76707063860E+02  0.87442823414E+02  0.00000000000E+00 0. -1.
         21    1    1    2  503  502  0.12923042717E+01 -0.24749746506E+02  0.69864112741E+01  0.25749367855E+02  0.00000000000E+00 0. -1.
          2    1    1    2  501    0 -0.19855209144E+02 -0.51789855021E+01  0.14409895458E+02  0.25073817182E+02  0.00000000000E+00 0. -1.
<scales pt_clust_5="13000.00000" pt_clust_6="13000.00000" pt_clust_7="13000.00000" pt_clust_8="13000.00000" pt_clust_9="26.51703" pt_clust_10="20.51953"></scales>
<clustering>
<clus scale="   20.520">  2 10  1 -1</clus>
<clus scale="   26.517">  2  9  1 -1</clus>
<clus scale="   76.819">  5  6 -1 -1</clus>
<clus scale="   81.181">  2  5  1 -1</clus>
<clus scale="   93.388">  7  8 -1 -1</clus>
<clus scale="   20.520">  2  5  1 -1</clus>
</clustering>
</event>
<event>
10    3  0.7209067E-005  0.1480918E+03  0.7546771E-02  0.1224209E+00
         21   -1    0    0  501  502  0.00000000000E+00  0.00000000000E+00  0.41612265351E+03  0.41612265351E+03  0.00000000000E+00 0. -1.
          1   -1    0    0  503    0 -0.00000000000E+00 -0.00000000000E+00 -0.21095485705E+03  0.21095485705E+03  0.00000000000E+00 0. -1.
        -24    2    1    2    0    0  0.43849322929E+02 -0.25239285014E+02  0.14364847080E+03  0.17171440417E+03  0.79316888541E+02 0.  0.
         23    2    1    2    0    0 -0.11133622493E+03 -0.69756820267E+02  0.69421712049E+02  0.17459893485E+03  0.91671396799E+02 0.  0.
         13    1    3    3    0    0  0.47732434023E+02 -0.45827154232E+02  0.13220972745E+03  0.14784426048E+03  0.00000000000E+00 0. -1.
        -14    1    3    3    0    0 -0.38831110945E+01  0.20587869218E+02  0.11438743348E+02  0.23870143696E+02  0.00000000000E+00 0.  1.
        -13    1    4    4    0    0 -0.42374049835E+02  0.20044949152E+02  0.17506032807E+02  0.50038198115E+02  0.00000000000E+00 0.  1.
         13    1    4    4    0    0 -0.68962175097E+02 -0.89801769419E+02  0.51915679242E+02  0.12456073674E+03  0.00000000000E+00 0. -1.
         21    1    1    2  503  502  0.11638273423E+03 -0.60480126358E+01  0.77293449677E+02  0.13984204177E+03  0.00000000000E+00 0. -1.
          2    1    1    2  501    0 -0.48895832230E+02  0.10104411792E+03 -0.85195836065E+02  0.14092212977E+03  0.00000000000E+00 0. -1.
<scales pt_clust_5="13000.00000" pt_clust_6="13000.00000" pt_clust_7="13000.00000" pt_clust_8="13000.00000" pt_clust_9="116.30791" pt_clust_10="89.74506"></scales>
<clustering>
<clus scale="   79.317">  5  6 -1 -1</clus>
<clus scale="   91.671">  7  8 -1 -1</clus>
<clus scale="   94.080">  2  5  1 -1</clus>
<clus scale="   89.745">  1 10  2 -1</clus>
<clus scale="  116.308">  1  9  2 -1</clus>
<clus scale="   89.745">  1  5  2 -1</clus>
</clustering>
</event>
<event>
10    3  0.7209067E-005  0.1473324E+03  0.7546771E-02  0.1205831E+00
         21   -1    0    0  501  502  0.00000000000E+00  0.00000000000E+00  0.85045259342E+02  0.85045259342E+02  0.00000000000E+00 0.  1.
         -2   -1    0    0    0  501 -0.00000000000E+00 -0.00000000000E+00 -0.10667905121E+04  0.10667905121E+04  0.00000000000E+00 0.  1.
         23    2    1    2    0    0 -0.80478477548E+01  0.10251167410E+03 -0.25507687366E+03  0.28983358911E+03  0.91465221349E+02 0.  0.
        -24    2    1    2    0    0 -0.11891589944E+03 -0.11880863881E+03 -0.26895477269E+03  0.32730914630E+03  0.80858664997E+02 0.  0.
         11    1    4    4    0    0 -0.30575009182E+00 -0.38796493938E+02 -0.91323806413E+02  0.99223480299E+02  0.00000000000E+00 0. -1.
        -12    1    4    4    0    0 -0.11861014935E+03 -0.80012144873E+02 -0.17763096628E+03  0.22808566600E+03  0.00000000000E+00 0.  1.
        -13    1    3    3    0    0  0.23220641465E+02 -0.12151217073E+00 -0.17254257433E+02  0.28929610347E+02  0.00000000000E+00 0. -1.
         13    1    3    3    0    0 -0.31268489220E+02  0.10263318627E+03 -0.23782261623E+03  0.26090397876E+03  0.00000000000E+00 0.  1.
         21    1    1    2  503  502  0.21380098888E+02  0.94597100660E+01  0.28635917682E+02  0.36967695688E+02  0.00000000000E+00 0.  1.
         -1    1    1    2    0  503  0.10558364831E+03  0.68372546468E+01 -0.48634952407E+03  0.49772534033E+03  0.00000000000E+00 0.  1.
<scales pt_clust_5="13000.00000" pt_clust_6="13000.00000" pt_clust_7="13000.00000" pt_clust_8="13000.00000" pt_clust_9="23.37937" pt_clust_10="108.19781"></scales>
<clustering>
<clus scale="   23.379">  1  9  2 -1</clus>
<clus scale="   80.859">  5  6 -1 -1</clus>
<clus scale="   91.465">  7  8 -1 -1</clus>
<clus scale="  108.198">  1 10  2 -1</clus>
<clus scale="  140.993">  1  5  2 -1</clus>
<clus scale="   23.379">  1  5  2 -1</clus>
</clustering>
</event>
<event>
10    3  0.7209067E-005  0.3189195E+03  0.7546771E-02  0.1093492E+00
         21   -1    0    0  503  502  0.00000000000E+00  0.00000000000E+00  0.43210992557E+03  0.43210992557E+03  0.00000000000E+00 0.  1.
          1   -1    0    0  502    0 -0.00000000000E+00 -0.00000000000E+00 -0.53410917871E+03  0.53410917871E+03  0.00000000000E+00 0. -1.
         23    2    1    2    0    0 -0.18509276871E+02 -0.17250947537E+03 -0.15579450163E+03  0.25115879507E+03  0.93309705713E+02 0.  0.
        -24    2    1    2    0    0  0.11144635389E+03  0.40720515140E+03  0.68521903074E+02  0.43528496152E+03  0.80879054157E+02 0.  0.
         11    1    4    4    0    0 -0.10703174396E+02  0.33716334554E+02  0.16035434887E+02  0.38839211243E+02  0.00000000000E+00 0. -1.
        -12    1    4    4    0    0  0.12214952828E+03  0.37348881685E+03  0.52486468187E+02  0.39644575028E+03  0.00000000000E+00 0.  1.
        -13    1    3    3    0    0 -0.47296980110E+02 -0.66315662790E+02 -0.96119719753E+02  0.12599115836E+03  0.00000000000E+00 0.  1.
         13    1    3    3    0    0  0.28787703239E+02 -0.10619381258E+03 -0.59674781876E+02  0.12516763671E+03  0.00000000000E+00 0. -1.
         21    1    1    2  503  501 -0.78424563710E+01 -0.33340957100E+02  0.41748484983E+02  0.54000551299E+02  0.00000000000E+00 0.  1.
          2    1    1    2  501    0 -0.85094620643E+02 -0.20135471893E+03 -0.56475139570E+02  0.22577479639E+03  0.00000000000E+00 0. -1.
<scales pt_clust_5="13000.00000" pt_clust_6="13000.00000" pt_clust_7="13000.00000" pt_clust_8="13000.00000" pt_clust_9="34.25089" pt_clust_10="308.49348"></scales>
<clustering>
<clus scale="   34.251">  1  9  2 -1</clus>
<clus scale="   80.879">  5  6 -1 -1</clus>
<clus scale="   93.310">  7  8 -1 -1</clus>
<clus scale="  200.725">  2  7  1 -1</clus>
<clus scale="  308.493">  1 10  2 -1</clus>
<clus scale="   34.251">  1  5  2 -1</clus>
</clustering>
</event>
<event>
10    3  0.7209067E-005  0.1869133E+03  0.7546771E-02  0.1191975E+00
          3   -1    0    0  503    0 -0.00000000000E+00  0.00000000000E+00  0.95734949591E+02  0.95734949591E+02  0.00000000000E+00 0. -1.
         21   -1    0    0  501  502  0.00000000000E+00 -0.00000000000E+00 -0.74609733278E+03  0.74609733278E+03  0.00000000000E+00 0.  1.
        -24    2    1    2    0    0  0.27710319063E+02  0.13510066285E+02 -0.17479475823E+03  0.19734383527E+03  0.86261220380E+02 0.  0.
         23    2    1    2    0    0  0.70515339987E+02  0.12397803445E+03 -0.28065361140E+03  0.32774973858E+03  0.91161808595E+02 0.  0.
         13    1    3    3    0    0  0.50560251552E+02 -0.15031501986E+01 -0.56082444362E+02  0.75523764889E+02  0.00000000000E+00 0. -1.
        -14    1    3    3    0    0 -0.22849932489E+02  0.15013216484E+02 -0.11871231387E+03  0.12182007038E+03  0.00000000000E+00 0.  1.
        -13    1    4    4    0    0  0.26321889448E+02  0.99237534358E+02 -0.24548397738E+03  0.26608891980E+03  0.00000000000E+00 0.  1.
         13    1    4    4    0    0  0.44193450540E+02  0.24740500089E+02 -0.35169634022E+02  0.61660818779E+02  0.00000000000E+00 0. -1.
         21    1    1    2  503  502  0.25892372008E+02  0.30922956679E+02 -0.35259093247E+02  0.53570960740E+02  0.00000000000E+00 0.  1.
          4    1    1    2  501    0 -0.12411803106E+03 -0.16841105741E+03 -0.15965492030E+03  0.26316774778E+03  0.00000000000E+00 0. -1.
<scales pt_clust_5="13000.00000" pt_clust_6="13000.00000" pt_clust_7="13000.00000" pt_clust_8="13000.00000" pt_clust_9="40.33168" pt_clust_10="163.17518"></scales>
<clustering>
<clus scale="   40.332">  1  9  2 -1</clus>
<clus scale="   86.261">  5  6 -1 -1</clus>
<clus scale="   91.162">  7  8 -1 -1</clus>
<clus scale="   93.352">  1  5  2 -1</clus>
<clus scale="  163.175">  2 10  1 -1</clus>
<clus scale="  163.175">  2  5  1 -1</clus>
</clustering>
</event>
<event>
10    3  0.7209067E-005  0.1292836E+03  0.7546771E-02  0.1241933E+00
         21   -1    0    0  501  502  0.00000000000E+00  0.00000000000E+00  0.12115242463E+03  0.12115242463E+03  0.00000000000E+00 0. -1.
          1   -1    0    0  503    0 -0.00000000000E+00 -0.00000000000E+00 -0.37660490024E+03  0.37660490024E+03  0.00000000000E+00 0. -1.
         23    2    1    2    0    0 -0.24308434236E+01  0.23376289129E+02 -0.14364420569E+03  0.17262234096E+03  0.92803312841E+02 0.  0.
        -24    2    1    2    0    0 -0.89585536271E+02 -0.54425802745E+02 -0.46641260167E+02  0.14027704268E+03  0.80712485022E+02 0.  0.
         11    1    4    4    0    0 -0.76428396267E+02 -0.29845364274E+00 -0.23526014764E+02  0.79967882310E+02  0.00000000000E+00 0. -1.
        -12    1    4    4    0    0 -0.13157140004E+02 -0.54127349103E+02 -0.23115245404E+02  0.60309160366E+02  0.00000000000E+00 0.  1.
        -13    1    3    3    0    0 -0.43414422789E+02 -0.20654145113E+00 -0.96668714427E+02  0.10597025580E+03  0.00000000000E+00 0.  1.
         13    1    3    3    0    0  0.40983579365E+02  0.23582830580E+02 -0.46975491268E+02  0.66652085156E+02  0.00000000000E+00 0. -1.
         21    1    1    2  503  502 -0.16550969305E+02  0.55031937560E+02 -0.31648947594E+01  0.57554020671E+02  0.00000000000E+00 0. -1.
          2    1    1    2  501    0  0.10856734900E+03 -0.23982423944E+02 -0.62002114993E+02  0.12730392056E+03  0.00000000000E+00 0. -1.
<scales pt_clust_5="13000.00000" pt_clust_6="13000.00000" pt_clust_7="13000.00000" pt_clust_8="13000.00000" pt_clust_9="57.46694" pt_clust_10="100.99378"></scales>
<clustering>
<clus scale="   57.467">  1  9  2 -1</clus>
<clus scale="   80.712">  5  6 -1 -1</clus>
<clus scale="   92.803">  7  8 -1 -1</clus>
<clus scale="   98.247">  2  7  1 -1</clus>
<clus scale="  100.994">  1 10  2 -1</clus>
<clus scale="   57.467">  1  5  2 -1</clus>
</clustering>
</event>
<event>
10    3  0.7209067E-005  0.3225931E+03  0.7546771E-02  0.1106266E+00
         -2   -1    0    0    0  501 -0.00000000000E+00  0.00000000000E+00  0.29938504596E+04  0.29938504596E+04  0.00000000000E+00 0.  1.
         21   -1    0    0  503  502  0.00000000000E+00 -0.00000000000E+00 -0.95699596894E+02  0.95699596894E+02  0.00000000000E+00 0.  1.
         23    2    1    2    0    0 -0.88956540270E+02 -0.45878575943E+01  0.58570747876E+02  0.14463998818E+03  0.97754177305E+02 0.  0.
        -24    2    1    2    0    0  0.36385320530E+03 -0.90345506756E+02  0.19292723336E+04  0.19673661684E+04  0.88805619259E+02 0.  0.
         11    1    4    4    0    0  0.20438918698E+03 -0.29871329878E+02  0.85227517482E+03  0.87694937694E+03  0.00000000000E+00 0. -1.
        -12    1    4    4    0    0  0.15946401832E+03 -0.60474176878E+02  0.10769971588E+04  0.10904167915E+04  0.00000000000E+00 0.  1.
        -13    1    3    3    0    0 -0.74111838671E+02 -0.40551536329E+02  0.63135693289E+02  0.10546614384E+03  0.00000000000E+00 0.  1.
         13    1    3    3    0    0 -0.14844701599E+02  0.35963678735E+02 -0.45649454138E+01  0.39173844339E+02  0.00000000000E+00 0. -1.
         21    1    1    2  503  501 -0.18600319556E+02 -0.97568033296E+01 -0.47391657145E+01  0.21531994577E+02  0.00000000000E+00 0.  1.
         -1    1    1    2    0  502 -0.25629634547E+03  0.10469016768E+03  0.91504694693E+03  0.95601190526E+03  0.00000000000E+00 0.  1.
<scales pt_clust_5="13000.00000" pt_clust_6="13000.00000" pt_clust_7="13000.00000" pt_clust_8="13000.00000" pt_clust_9="21.00398" pt_clust_10="310.12881"></scales>
<clustering>
<clus scale="   21.004">  2  9  1 -1</clus>
<clus scale="   88.806">  5  6 -1 -1</clus>
<clus scale="   97.754">  7  8 -1 -1</clus>
<clus scale="  139.218">  1  7  2 -1</clus>
<clus scale="  310.129">  2 10  1 -1</clus>
<clus scale="   21.004">  2  5  1 -1</clus>
</clustering>
</event>
<event>
10    3  0.7209067E-005  0.9937129E+02  0.7546771E-02  0.1287535E+00
         21   -1    0    0  503  502  0.00000000000E+00  0.00000000000E+00  0.56483168986E+03  0.56483168986E+03  0.00000000000E+00 0. -1.
         -2   -1    0    0    0  501 -0.00000000000E+00 -0.00000000000E+00 -0.68847288918E+02  0.68847288918E+02  0.00000000000E+00 0.  1.
         23    2    1    2    0    0 -0.40816054317E+02  0.29227410902E+01  0.15131352414E+02  0.99049514966E+02  0.88923314623E+02 0.  0.
        -24    2    1    2    0    0  0.57928733808E+02  0.68004848069E+02  0.28868625674E+03  0.31185093901E+03  0.77012049511E+02 0.  0.
         13    1    4    4    0    0  0.51234288034E+02  0.78578817837E+02  0.28293037212E+03  0.29807579296E+03  0.00000000000E+00 0. -1.
        -14    1    4    4    0    0  0.66944457734E+01 -0.10573969769E+02  0.57558846219E+01  0.13775146049E+02  0.00000000000E+00 0.  1.
        -11    1    3    3    0    0 -0.16915143997E+02 -0.39252829456E+02  0.25086918922E+02  0.49560672087E+02  0.00000000000E+00 0.  1.
         11    1    3    3    0    0 -0.23900910320E+02  0.42175570546E+02 -0.99555665083E+01  0.49488842879E+02  0.00000000000E+00 0. -1.
         21    1    1    2  503  501  0.91462371054E+01 -0.65793898947E+02  0.18269342005E+03  0.19439489839E+03  0.00000000000E+00 0. -1.
         -1    1    1    2    0  502 -0.26258916596E+02 -0.51336902121E+01  0.94733717386E+01  0.28383626408E+02  0.00000000000E+00 0.  1.
<scales pt_clust_5="13000.00000" pt_clust_6="13000.00000" pt_clust_7="13000.00000" pt_clust_8="13000.00000" pt_clust_9="67.56702" pt_clust_10="26.75605"></scales>
<clustering>
<clus scale="   26.756">  1 10  2 -1</clus>
<clus scale="   67.567">  1  9  2 -1</clus>
<clus scale="   77.012">  5  6 -1 -1</clus>
<clus scale="   88.872">  1  5  2 -1</clus>
<clus scale="   88.923">  7  8 -1 -1</clus>
<clus scale="   26.756">  1  5  2 -1</clus>
</clustering>
</event>
<event>
10    3  0.7209067E-005  0.1016415E+03  0.7546771E-02  0.1284530E+00
         -4   -1    0    0    0  501 -0.00000000000E+00  0.00000000000E+00  0.31245223363E+03  0.31245223363E+03  0.00000000000E+00 0.  1.
         21   -1    0    0  503  502  0.00000000000E+00 -0.00000000000E+00 -0.28565749736E+03  0.28565749736E+03  0.00000000000E+00 0.  1.
         23    2    1    2    0    0 -0.45794908182E+02  0.40699559383E+02  0.20707608337E+03  0.23631568548E+03  0.95973804505E+02 0.  0.
        -24    2    1    2    0    0 -0.33353278683E+01  0.24365544955E+02  0.40776050733E+02  0.94188926848E+02  0.81265388908E+02 0.  0.
         11    1    4    4    0    0  0.80911304853E+01  0.41310422271E+02 -0.65841433418E+01  0.42607139358E+02  0.00000000000E+00 0. -1.
        -12    1    4    4    0    0 -0.11426458354E+02 -0.16944877316E+02  0.47360194075E+02  0.51581787490E+02  0.00000000000E+00 0.  1.
        -13    1    3    3    0    0 -0.70571632336E+02  0.50654369951E+02  0.15093699119E+03  0.17414992333E+03  0.00000000000E+00 0.  1.
         13    1    3    3    0    0  0.24776724154E+02 -0.99548105678E+01  0.56139092183E+02  0.62165762156E+02  0.00000000000E+00 0. -1.
         21    1    1    2  503  501 -0.18033600151E+02 -0.47077594040E+02 -0.18925655731E+02  0.53848779372E+02  0.00000000000E+00 0. -1.
         -3    1    1    2    0  502  0.67163836201E+02 -0.17987510298E+02 -0.20213174211E+03  0.21375633929E+03  0.00000000000E+00 0.  1.
<scales pt_clust_5="13000.00000" pt_clust_6="13000.00000" pt_clust_7="13000.00000" pt_clust_8="13000.00000" pt_clust_9="50.41340" pt_clust_10="77.42881"></scales>
<clustering>
<clus scale="   50.413">  2  9  1 -1</clus>
<clus scale="   77.429">  2 10  1 -1</clus>
<clus scale="   81.265">  5  6 -1 -1</clus>
<clus scale="   87.887">  2  5  1 -1</clus>
<clus scale="   95.974">  7  8 -1 -1</clus>
<clus scale="   50.413">  2  5  1 -1</clus>
</clustering>
</event>
<event>
10    3  0.7209067E-005  0.1114784E+03  0.7546771E-02  0.1262110E+00
         21   -1    0    0  501  502  0.00000000000E+00  0.00000000000E+00  0.30261557468E+03  0.30261557468E+03  0.00000000000E+00 0. -1.
          1   -1    0    0  503    0 -0.00000000000E+00 -0.00000000000E+00 -0.14278580384E+03  0.14278580384E+03  0.00000000000E+00 0. -1.
         23    2    1    2    0    0  0.10708270833E+02 -0.58165426718E+02 -0.57065616608E+02  0.12302355428E+03  0.91544668763E+02 0.  0.
        -24    2    1    2    0    0 -0.63761574207E+02  0.71729344036E+02  0.13630071833E+03  0.18508217547E+03  0.80416967849E+02 0.  0.
         13    1    4    4    0    0 -0.35469458489E+02  0.86339714548E+02  0.10327706581E+03  0.13920769058E+03  0.00000000000E+00 0. -1.
        -14    1    4    4    0    0 -0.28292115718E+02 -0.14610370512E+02  0.33023652514E+02  0.45874484887E+02  0.00000000000E+00 0.  1.
        -13    1    3    3    0    0  0.31102109522E+01  0.25083102656E+02 -0.10864778508E+02  0.27511431498E+02  0.00000000000E+00 0.  1.
         13    1    3    3    0    0  0.75980598812E+01 -0.83248529374E+02 -0.46200838100E+02  0.95512122781E+02  0.00000000000E+00 0. -1.
         21    1    1    2  503  502  0.24182244602E+02 -0.54684129855E+02  0.53388956092E+02  0.80159314147E+02  0.00000000000E+00 0. -1.
          2    1    1    2  501    0  0.28871058772E+02  0.41120212537E+02  0.27205713026E+02  0.57136334630E+02  0.00000000000E+00 0. -1.
<scales pt_clust_5="13000.00000" pt_clust_6="13000.00000" pt_clust_7="13000.00000" pt_clust_8="13000.00000" pt_clust_9="54.27748" pt_clust_10="50.24351"></scales>
<clustering>
<clus scale="   50.244">  1 10  2 -1</clus>
<clus scale="   54.277">  1  9  2 -1</clus>
<clus scale="   80.417">  5  6 -1 -1</clus>
<clus scale="   91.545">  7  8 -1 -1</clus>
<clus scale="  102.537">  1  5  2 -1</clus>
<clus scale="   50.244">  1  5  2 -1</clus>
</clustering>
</event>
<event>
10    3  0.7209067E-005  0.2061307E+03  0.7546771E-02  0.1178106E+00
         21   -1    0    0  501  502  0.00000000000E+00  0.00000000000E+00  0.29047985716E+03  0.29047985716E+03  0.00000000000E+00 0. -1.
          1   -1    0    0  503    0 -0.00000000000E+00 -0.00000000000E+00 -0.48298659478E+03  0.48298659478E+03  0.00000000000E+00 0. -1.
         23    2    1    2    0    0  0.28865962606E+02 -0.25332642044E+01 -0.19225166056E+03  0.21506099186E+03  0.91928602771E+02 0.  0.
        -24    2    1    2    0    0  0.76873764604E+02 -0.19697713023E+03 -0.11445594581E+03  0.25320658494E+03  0.79396760700E+02 0.  0.
         13    1    4    4    0    0  0.77313253465E+02 -0.13690546390E+03 -0.49743140023E+02  0.16490853582E+03  0.00000000000E+00 0. -1.
        -14    1    4    4    0    0 -0.43948886142E+00 -0.60071666327E+02 -0.64712805787E+02  0.88298049121E+02  0.00000000000E+00 0.  1.
        -11    1    3    3    0    0  0.52296171157E+02  0.26845251884E+02 -0.11969872678E+03  0.13335419851E+03  0.00000000000E+00 0.  1.
         11    1    3    3    0    0 -0.23430208550E+02 -0.29378516089E+02 -0.72552933781E+02  0.81706793356E+02  0.00000000000E+00 0. -1.
         21    1    1    2  503  502 -0.83265998101E+02  0.36193163190E+02  0.10680030252E+03  0.14017658906E+03  0.00000000000E+00 0. -1.
          2    1    1    2  501    0 -0.22473729109E+02  0.16331723124E+03  0.74005662242E+01  0.16502228607E+03  0.00000000000E+00 0. -1.
<scales pt_clust_5="13000.00000" pt_clust_6="13000.00000" pt_clust_7="13000.00000" pt_clust_8="13000.00000" pt_clust_9="90.79191" pt_clust_10="190.22623"></scales>
<clustering>
<clus scale="   79.397">  5  6 -1 -1</clus>
<clus scale="   90.792">  1  9  2 -1</clus>
<clus scale="   91.929">  7  8 -1 -1</clus>
<clus scale="   94.806">  2  7  1 -1</clus>
<clus scale="  190.226">  1 10  2 -1</clus>
<clus scale="   90.792">  1  5  2 -1</clus>
</clustering>
</event>
<event>
10    3  0.7209067E-005  0.2006662E+03  0.7546771E-02  0.1183945E+00
         21   -1    0    0  503  502  0.00000000000E+00  0.00000000000E+00  0.64799597882E+03  0.64799597882E+03  0.00000000000E+00 0. -1.
          1   -1    0    0  502    0 -0.00000000000E+00 -0.00000000000E+00 -0.27695367977E+03  0.27695367977E+03  0.00000000000E+00 0. -1.
        -24    2    1    2    0    0  0.38370467198E+02 -0.23516385791E+01  0.81035958622E+00  0.90149247423E+02  0.81537765307E+02 0.  0.
         23    2    1    2    0    0 -0.76641017397E+02  0.68541693185E+02 -0.28302483101E+02  0.14149605789E+03  0.92996207428E+02 0.  0.
         11    1    3    3    0    0 -0.18328882073E+02 -0.20684356345E+02  0.10905687166E+02  0.29710680370E+02  0.00000000000E+00 0. -1.
        -12    1    3    3    0    0  0.56699349272E+02  0.18332717766E+02 -0.10095327580E+02  0.60438567053E+02  0.00000000000E+00 0.  1.
        -11    1    4    4    0    0 -0.22772530475E+02 -0.23034823434E+02 -0.66503649735E+01  0.33066880548E+02  0.00000000000E+00 0. -1.
         11    1    4    4    0    0 -0.53868486923E+02  0.91576516619E+02 -0.21652118128E+02  0.10842917734E+03  0.00000000000E+00 0.  1.
         21    1    1    2  503  501 -0.13257020463E+03  0.13546777474E+03  0.38444757799E+03  0.42863308011E+03  0.00000000000E+00 0. -1.
          2    1    1    2  501    0  0.17084075482E+03 -0.20165782935E+03  0.14086844574E+02  0.26467127316E+03  0.00000000000E+00 0. -1.
<scales pt_clust_5="13000.00000" pt_clust_6="13000.00000" pt_clust_7="13000.00000" pt_clust_8="13000.00000" pt_clust_9="200.66619" pt_clust_10="13000.00000"></scales>
<clustering>
<clus scale="   81.538">  5  6 -1 -1</clus>
<clus scale="   90.146">  2  5  1 -1</clus>
<clus scale="   92.996">  7  8 -1 -1</clus>
<clus scale="  130.958">  2  7  1 -1</clus>
<clus scale="  200.666">  1  9  2 -1</clus>
<clus scale="  200.666">  1  5  2 -1</clus>
</clustering>
</event>
<event>
10    3  0.7209067E-005  0.1347222E+03  0.7546771E-02  0.1223071E+00
         -4   -1    0    0    0  501 -0.00000000000E+00  0.00000000000E+00  0.54583333242E+03  0.54583333242E+03  0.00000000000E+00 0.  1.
         21   -1    0    0  501  502  0.00000000000E+00 -0.00000000000E+00 -0.15556738013E+03  0.15556738013E+03  0.00000000000E+00 0.  1.
         23    2    1    2    0    0 -0.74577901010E+02 -0.71341258187E+02  0.21655844399E+03  0.25652253165E+03  0.90855991220E+02 0.  0.
        -24    2    1    2    0    0  0.92760328129E+02  0.35165792173E+02  0.13184705109E+03  0.18358793084E+03  0.80497031342E+02 0.  0.
         13    1    4    4    0    0 -0.11640595256E+01  0.33738468725E+02  0.37355151087E+02  0.50349246461E+02  0.00000000000E+00 0. -1.
        -14    1    4    4    0    0  0.93924387655E+02  0.14273234476E+01  0.94491900006E+02  0.13323868438E+03  0.00000000000E+00 0.  1.
        -11    1    3    3    0    0 -0.35455653241E+02 -0.86548946585E+02  0.12810226926E+03  0.15861278288E+03  0.00000000000E+00 0.  1.
         11    1    3    3    0    0 -0.39122247769E+02  0.15207688397E+02  0.88456174727E+02  0.97909748770E+02  0.00000000000E+00 0. -1.
         21    1    1    2  503  502 -0.80485520145E+02 -0.87631245912E+02  0.12731834213E+02  0.11966308460E+03  0.00000000000E+00 0.  1.
         -3    1    1    2    0  503  0.62303093026E+02  0.12380671193E+03  0.29128622992E+02  0.14162716546E+03  0.00000000000E+00 0.  1.
<scales pt_clust_5="13000.00000" pt_clust_6="13000.00000" pt_clust_7="13000.00000" pt_clust_8="13000.00000" pt_clust_9="118.98384" pt_clust_10="77.63600"></scales>
<clustering>
<clus scale="   80.497">  5  6 -1 -1</clus>
<clus scale="   90.856">  7  8 -1 -1</clus>
<clus scale="  118.984">  2  9  1 -1</clus>
<clus scale="   77.636">  2 10  1 -1</clus>
<clus scale="  127.965">  2  5  1 -1</clus>
<clus scale="  118.984">  2  5  1 -1</clus>
</clustering>
</event>
<event>
10    3  0.7209067E-005  0.1076346E+03  0.7546771E-02  0.1268178E+00
         21   -1    0    0  503  502  0.00000000000E+00  0.00000000000E+00  0.30258378796E+02  0.30258378796E+02  0.00000000000E+00 0. -1.
          1   -1    0    0  502    0 -0.00000000000E+00 -0.00000000000E+00 -0.16585424642E+04  0.16585424642E+04  0.00000000000E+00 0. -1.
        -24    2    1    2    0    0  0.74573774457E+02  0.13429439610E+02 -0.61251127354E+03  0.62248358221E+03  0.81081145881E+02 0.  0.
         23    2    1    2    0    0 -0.19377108811E+02 -0.19338896919E+02 -0.16374577002E+03  0.18835527089E+03  0.88969464386E+02 0.  0.
         13    1    3    3    0    0  0.72012569010E+02  0.32729120720E+02 -0.33182433752E+03  0.34112226020E+03  0.00000000000E+00 0. -1.
        -14    1    3    3    0    0  0.25612054466E+01 -0.19299681110E+02 -0.28068693603E+03  0.28136132200E+03  0.00000000000E+00 0.  1.
        -11    1    4    4    0    0 -0.44734165795E+02  0.15304317357E+02 -0.62380103898E+02  0.78272888547E+02  0.00000000000E+00 0. -1.
         11    1    4    4    0    0  0.25357056984E+02 -0.34643214276E+02 -0.10136566612E+03  0.11008238234E+03  0.00000000000E+00 0.  1.
         21    1    1    2  503  501 -0.40721882196E+01  0.82091905751E+02 -0.15997168616E+03  0.17985161684E+03  0.00000000000E+00 0. -1.
          2    1    1    2  501    0 -0.51124477427E+02 -0.76182448442E+02 -0.69205535564E+03  0.69811037302E+03  0.00000000000E+00 0. -1.
<scales pt_clust_5="13000.00000" pt_clust_6="13000.00000" pt_clust_7="13000.00000" pt_clust_8="13000.00000" pt_clust_9="82.19284" pt_clust_10="82.25445"></scales>
<clustering>
<clus scale="   81.081">  5  6 -1 -1</clus>
<clus scale="   82.193">  1  9  2 -1</clus>
<clus scale="   82.254">  1 10  2 -1</clus>
<clus scale="   88.969">  7  8 -1 -1</clus>
<clus scale="  101.212">  2  5  1 -1</clus>
<clus scale="   82.193">  1  5  2 -1</clus>
</clustering>
</event>
<event>
10    3  0.7209067E-005  0.3661703E+03  0.7546771E-02  0.1098389E+00
         21   -1    0    0  503  502  0.00000000000E+00  0.00000000000E+00  0.18859967126E+03  0.18859967126E+03  0.00000000000E+00 0.  1.
          1   -1    0    0  502    0 -0.00000000000E+00 -0.00000000000E+00 -0.13781675071E+04  0.13781675071E+04  0.00000000000E+00 0. -1.
        -24    2    1    2    0    0  0.83562835087E+02  0.24956472760E+02 -0.21834451751E+03  0.24785883243E+03  0.78448069105E+02 0.  0.
         23    2    1    2    0    0  0.57793657100E+02  0.32193787492E+03 -0.83433118028E+03  0.90078053146E+03  0.91175355083E+02 0.  0.
         13    1    3    3    0    0  0.17556813996E+02  0.19324389139E+02 -0.15155621214E+03  0.15378868349E+03  0.00000000000E+00 0. -1.
        -14    1    3    3    0    0  0.66006021092E+02  0.56320836202E+01 -0.66788305372E+02  0.94070148935E+02  0.00000000000E+00 0.  1.
        -13    1    4    4    0    0 -0.99306533597E+01  0.93236439029E+02 -0.15926683278E+03  0.18481768168E+03  0.00000000000E+00 0.  1.
         13    1    4    4    0    0  0.67724310460E+02  0.22870143589E+03 -0.67506434750E+03  0.71596284978E+03  0.00000000000E+00 0. -1.
         21    1    1    2  503  501 -0.31461224743E+01 -0.22497315114E+02  0.21769970060E+02  0.31463611845E+02  0.00000000000E+00 0.  1.
          2    1    1    2  501    0 -0.13821036971E+03 -0.32439703257E+03 -0.15866210812E+03  0.38666420262E+03  0.00000000000E+00 0. -1.
<scales pt_clust_5="13000.00000" pt_clust_6="13000.00000" pt_clust_7="13000.00000" pt_clust_8="13000.00000" pt_clust_9="22.71623" pt_clust_10="354.63747"></scales>
<clustering>
<clus scale="   22.716">  1  9  2 -1</clus>
<clus scale="   78.448">  5  6 -1 -1</clus>
<clus scale="   91.175">  7  8 -1 -1</clus>
<clus scale="  116.678">  2  5  1 -1</clus>
<clus scale="  354.637">  1 10  2 -1</clus>
<clus scale="   22.716">  1  5  2 -1</clus>
</clustering>
</event>
<event>
10    3  0.7209067E-005  0.1407298E+03  0.7546771E-02  0.1224286E+00
         21   -1    0    0  501  502  0.00000000000E+00  0.00000000000E+00  0.24753217411E+03  0.24753217411E+03  0.00000000000E+00 0. -1.
          1   -1    0    0  503    0 -0.00000000000E+00 -0.00000000000E+00 -0.44273122994E+03  0.44273122994E+03  0.00000000000E+00 0. -1.
        -24    2    1    2    0    0  0.24366693899E+02  0.70145262136E+02 -0.32024380826E+03  0.33865838063E+03  0.81359132690E+02 0.  0.
         23    2    1    2    0    0  0.58246213344E+02  0.16365067899E+02  0.18144157205E+02  0.11828184845E+03  0.10000474196E+03 0.  0.
         11    1    3    3    0    0  0.47036862501E+02  0.69375632849E+02 -0.21008283865E+03  0.22618630366E+03  0.00000000000E+00 0. -1.
        -12    1    3    3    0    0 -0.22670168601E+02  0.76962928740E+00 -0.11016096961E+03  0.11247207697E+03  0.00000000000E+00 0.  1.
        -11    1    4    4    0    0  0.75617827623E+02  0.36328905270E+02 -0.36908626239E+01  0.83973017568E+02  0.00000000000E+00 0. -1.
         11    1    4    4    0    0 -0.17371614280E+02 -0.19963837371E+02  0.21835019828E+02  0.34308830877E+02  0.00000000000E+00 0.  1.
         21    1    1    2  503  502  0.44734913760E+02 -0.42302886504E+02  0.47176278006E+00  0.61570847613E+02  0.00000000000E+00 0. -1.
          2    1    1    2  501    0 -0.12734782100E+03 -0.44207443531E+02  0.10642883244E+03  0.17175232736E+03  0.00000000000E+00 0. -1.
<scales pt_clust_5="13000.00000" pt_clust_6="13000.00000" pt_clust_7="13000.00000" pt_clust_8="13000.00000" pt_clust_9="61.56904" pt_clust_10="99.01476"></scales>
<clustering>
<clus scale="   61.569">  1  9  2 -1</clus>
<clus scale="   81.359">  5  6 -1 -1</clus>
<clus scale="  100.005">  7  8 -1 -1</clus>
<clus scale="  109.456">  2  5  1 -1</clus>
<clus scale="   99.015">  1 10  2 -1</clus>
<clus scale="   61.569">  1  5  2 -1</clus>
</clustering>
</event>
<event>
10    3  0.7209067E-005  0.4015529E+03  0.7546771E-02  0.1090259E+00
         21   -1    0    0  503  502  0.00000000000E+00  0.00000000000E+00  0.45191371712E+03  0.45191371712E+03  0.00000000000E+00 0.  1.
         -4   -1    0    0    0  501 -0.00000000000E+00 -0.00000000000E+00 -0.77268793846E+03  0.77268793846E+03  0.00000000000E+00 0.  1.
        -24    2    1    2    0    0 -0.58689291824E+02 -0.44103162694E+02 -0.33459422365E+01  0.10954783047E+03  0.81240444956E+02 0.  0.
         23    2    1    2    0    0  0.51566598660E+02 -0.79091712472E+02 -0.16085155211E+03  0.20740550306E+03  0.90714981151E+02 0.  0.
         13    1    3    3    0    0  0.20612403886E+02 -0.98595430214E+01 -0.38258327728E+01  0.23167191866E+02  0.00000000000E+00 0. -1.
        -14    1    3    3    0    0 -0.79301695709E+02 -0.34243619673E+02  0.47989053624E+00  0.86380638604E+02  0.00000000000E+00 0.  1.
        -13    1    4    4    0    0  0.74771960297E+02 -0.71900202478E+02 -0.11086111658E+03  0.15182447870E+03  0.00000000000E+00 0.  1.
         13    1    4    4    0    0 -0.23205361637E+02 -0.71915099932E+01 -0.49990435526E+02  0.55581024359E+02  0.00000000000E+00 0. -1.
         21    1    1    2  503  501  0.17730080332E+03 -0.32564476233E+03  0.69197388279E+02  0.37718478844E+03  0.00000000000E+00 0.  1.
         -3    1    1    2    0  502 -0.17017811016E+03  0.44883963749E+03 -0.22577411527E+03  0.53046353361E+03  0.00000000000E+00 0.  1.
<scales pt_clust_5="13000.00000" pt_clust_6="13000.00000" pt_clust_7="13000.00000" pt_clust_8="13000.00000" pt_clust_9="401.55288" pt_clust_10="13000.00000"></scales>
<clustering>
<clus scale="   81.240">  5  6 -1 -1</clus>
<clus scale="   90.715">  7  8 -1 -1</clus>
<clus scale="  109.497">  2  5  1 -1</clus>
<clus scale="  133.182">  2  7  1 -1</clus>
<clus scale="  401.553">  1  9  2 -1</clus>
<clus scale="  401.553">  1  5  2 -1</clus>
</clustering>
</event>
<event>
10    3  0.7209067E-005  0.1534964E+03  0.7546771E-02  0.1198987E+00
          3   -1    0    0  503    0 -0.00000000000E+00  0.00000000000E+00  0.33839759532E+03  0.33839759532E+03  0.00000000000E+00 0. -1.
         21   -1    0    0  501  502  0.00000000000E+00 -0.00000000000E+00 -0.27090286686E+03  0.27090286686E+03  0.00000000000E+00 0. -1.
        -24    2    1    2    0    0  0.82772360903E+02 -0.47008421888E+02  0.67934009365E+02  0.14235157308E+03  0.81165788810E+02 0.  0.
         23    2    1    2    0    0 -0.18283810651E+03  0.53022753088E+02  0.73601321543E+01  0.21340687200E+03  0.96162029585E+02 0.  0.
         13    1    3    3    0    0  0.57616239433E+02 -0.67741491511E+02  0.33758920094E+02  0.95122055300E+02  0.00000000000E+00 0. -1.
        -14    1    3    3    0    0  0.25156121470E+02  0.20733069623E+02  0.34175089270E+02  0.47229517783E+02  0.00000000000E+00 0.  1.
        -11    1    4    4    0    0 -0.17325462033E+01  0.21568330344E+02  0.19583637048E+02  0.29184129765E+02  0.00000000000E+00 0.  1.
         11    1    4    4    0    0 -0.18110556031E+03  0.31454422744E+02 -0.12223504893E+02  0.18422274223E+03  0.00000000000E+00 0. -1.
         21    1    1    2  503  502  0.59855842130E+02 -0.10689457709E+01 -0.12008031176E+03  0.13417580167E+03  0.00000000000E+00 0. -1.
          4    1    1    2  501    0  0.40209903476E+02 -0.49453854288E+01  0.11228089870E+03  0.11936621543E+03  0.00000000000E+00 0. -1.
<scales pt_clust_5="13000.00000" pt_clust_6="13000.00000" pt_clust_7="13000.00000" pt_clust_8="13000.00000" pt_clust_9="79.04943" pt_clust_10="40.51290"></scales>
<clustering>
<clus scale="   40.513">  2 10  1 -1</clus>
<clus scale="   79.049">  2  9  1 -1</clus>
<clus scale="   81.166">  5  6 -1 -1</clus>
<clus scale="   96.162">  7  8 -1 -1</clus>
<clus scale="  144.575">  1  5  2 -1</clus>
<clus scale="   40.513">  2  5  1 -1</clus>
</clustering>
</event>
<event>
10    3  0.7209067E-005  0.2829366E+03  0.7546771E-02  0.1094635E+00
         21   -1    0    0  503  502  0.00000000000E+00  0.00000000000E+00  0.11974017565E+04  0.11974017565E+04  0.00000000000E+00 0. -1.
         -4   -1    0    0    0  501 -0.00000000000E+00 -0.00000000000E+00 -0.14692862165E+03  0.14692862165E+03  0.00000000000E+00 0.  1.
         23    2    1    2    0    0 -0.16455621050E+03 -0.25924708260E+03  0.12196714657E+03  0.34298049814E+03  0.92042604318E+02 0.  0.
        -24    2    1    2    0    0  0.85998799804E+02  0.17669884306E+03  0.39680539138E+03  0.44979334711E+03  0.79001656730E+02 0.  0.
         11    1    4    4    0    0  0.41335480246E+02  0.15486813893E+03  0.27616486540E+03  0.31931143930E+03  0.00000000000E+00 0. -1.
        -12    1    4    4    0    0  0.44663319559E+02  0.21830704122E+02  0.12064052598E+03  0.13048190781E+03  0.00000000000E+00 0.  1.
        -13    1    3    3    0    0 -0.10388068040E+03 -0.12951459304E+03  0.20126329329E+02  0.16724322020E+03  0.00000000000E+00 0. -1.
         13    1    3    3    0    0 -0.60675530102E+02 -0.12973248956E+03  0.10184081724E+03  0.17573727794E+03  0.00000000000E+00 0.  1.
         21    1    1    2  503  501 -0.20072413357E+02  0.53694534923E+01  0.59205613086E+02  0.62745816033E+02  0.00000000000E+00 0. -1.
         -3    1    1    2    0  502  0.98629824055E+02  0.77178786047E+02  0.47249498380E+03  0.48881071687E+03  0.00000000000E+00 0.  1.
<scales pt_clust_5="13000.00000" pt_clust_6="13000.00000" pt_clust_7="13000.00000" pt_clust_8="13000.00000" pt_clust_9="20.77818" pt_clust_10="120.15624"></scales>
<clustering>
<clus scale="   20.778">  1  9  2 -1</clus>
<clus scale="   79.002">  5  6 -1 -1</clus>
<clus scale="   92.043">  7  8 -1 -1</clus>
<clus scale="  120.156">  1 10  2 -1</clus>
<clus scale="  278.967">  1  5  2 -1</clus>
<clus scale="   20.778">  1  5  2 -1</clus>
</clustering>
</event>
<event>
10    3  0.7209067E-005  0.1551273E+03  0.7546771E-02  0.1195825E+00
         21   -1    0    0  503  502  0.00000000000E+00  0.00000000000E+00  0.27683408455E+03  0.27683408455E+03  0.00000000000E+00 0.  1.
         -2   -1    0    0    0  501 -0.00000000000E+00 -0.00000000000E+00 -0.16169875222E+03  0.16169875222E+03  0.00000000000E+00 0.  1.
        -24    2    1    2    0    0 -0.72328659055E+02 -0.12229388449E+03 -0.46516692016E+02  0.16989241132E+03  0.80699440412E+02 0.  0.
         23    2    1    2    0    0  0.30963995636E+02  0.77850270739E+02  0.15090750041E+03  0.19455005632E+03  0.89762002281E+02 0.  0.
         13    1    3    3    0    0  0.85114747145E+01 -0.61661643974E+02 -0.14816797317E+02  0.63985475087E+02  0.00000000000E+00 0. -1.
        -14    1    3    3    0    0 -0.80840133769E+02 -0.60632240518E+02 -0.31699894699E+02  0.10590693623E+03  0.00000000000E+00 0.  1.
        -11    1    4    4    0    0  0.43155173727E+01  0.92323395037E+02  0.11152326331E+03  0.14484360953E+03  0.00000000000E+00 0.  1.
         11    1    4    4    0    0  0.26648478263E+02 -0.14473124298E+02  0.39384237103E+02  0.49706446794E+02  0.00000000000E+00 0. -1.
         21    1    1    2  503  501  0.35122877906E+01  0.25990125321E+02  0.17376263241E+02  0.31460408515E+02  0.00000000000E+00 0.  1.
         -1    1    1    2    0  502  0.37852375628E+02  0.18453488432E+02 -0.66317393003E+01  0.42629960616E+02  0.00000000000E+00 0.  1.
<scales pt_clust_5="13000.00000" pt_clust_6="13000.00000" pt_clust_7="13000.00000" pt_clust_8="13000.00000" pt_clust_9="26.22638" pt_clust_10="43.17630"></scales>
<clustering>
<clus scale="   26.226">  1  9  2 -1</clus>
<clus scale="   43.176">  1 10  2 -1</clus>
<clus scale="   80.699">  5  6 -1 -1</clus>
<clus scale="   89.762">  7  8 -1 -1</clus>
<clus scale="  150.066">  2  5  1 -1</clus>
<clus scale="   26.226">  1  5  2 -1</clus>
</clustering>
</event>
<event>
10    3  0.7209067E-005  0.2110386E+03  0.7546771E-02  0.1160732E+00
         21   -1    0    0  501  502  0.00000000000E+00  0.00000000000E+00  0.14968083621E+03  0.14968083621E+03  0.00000000000E+00 0. -1.
          1   -1    0    0  503    0 -0.00000000000E+00 -0.00000000000E+00 -0.95744068455E+03  0.95744068455E+03  0.00000000000E+00 0. -1.
         23    2    1    2    0    0  0.22065472386E+01  0.84451159457E+02  0.20439011838E+02  0.12631922654E+03  0.91662023782E+02 0.  0.
        -24    2    1    2    0    0 -0.18270856059E+03 -0.16105894455E+03 -0.44246842833E+03  0.51189282843E+03  0.83267977017E+02 0.  0.
         13    1    4    4    0    0 -0.12216046253E+03 -0.15222077671E+03 -0.35550882161E+03  0.40556240667E+03  0.00000000000E+00 0. -1.
        -14    1    4    4    0    0 -0.60548098061E+02 -0.88381678484E+01 -0.86959606723E+02  0.10633042176E+03  0.00000000000E+00 0.  1.
        -13    1    3    3    0    0 -0.34329766829E+02  0.59092242540E+02  0.38359440328E+02  0.78370100684E+02  0.00000000000E+00 0. -1.
         13    1    3    3    0    0  0.36536314068E+02  0.25358916918E+02 -0.17920428490E+02  0.47949125854E+02  0.00000000000E+00 0.  1.
         21    1    1    2  503  502  0.40839726189E+02  0.10045441107E+02  0.10667898943E+02  0.43388917825E+02  0.00000000000E+00 0.  1.
          2    1    1    2  501    0  0.13966228716E+03  0.66562343990E+02 -0.39639833079E+03  0.42552054797E+03  0.00000000000E+00 0. -1.
<scales pt_clust_5="13000.00000" pt_clust_6="13000.00000" pt_clust_7="13000.00000" pt_clust_8="13000.00000" pt_clust_9="42.05703" pt_clust_10="193.91693"></scales>
<clustering>
<clus scale="   42.057">  1  9  2 -1</clus>
<clus scale="   83.268">  5  6 -1 -1</clus>
<clus scale="   91.662">  7  8 -1 -1</clus>
<clus scale="  131.510">  2  7  1 -1</clus>
<clus scale="  193.917">  1 10  2 -1</clus>
<clus scale="   42.057">  1  5  2 -1</clus>
</clustering>
</event>
<event>
10    3  0.7209067E-005  0.1165503E+03  0.7546771E-02  0.1266572E+00
          1   -1    0    0  503    0 -0.00000000000E+00  0.00000000000E+00  0.10957351744E+04  0.10957351744E+04  0.00000000000E+00 0. -1.
         21   -1    0    0  501  502  0.00000000000E+00 -0.00000000000E+00 -0.42644254101E+02  0.42644254101E+02  0.00000000000E+00 0.  1.
        -24    2    1    2    0    0 -0.13290971649E+02 -0.39833592806E+01  0.41202362897E+03  0.41995531827E+03  0.80040498756E+02 0.  0.
         23    2    1    2    0    0  0.16074964765E+02  0.11565410793E+03  0.15013510385E+03  0.20410131623E+03  0.74044045713E+02 0.  0.
         11    1    3    3    0    0 -0.47202788215E+00 -0.41178750362E+02  0.23833653052E+03  0.24186817499E+03  0.00000000000E+00 0. -1.
        -12    1    3    3    0    0 -0.12818943767E+02  0.37195391081E+02  0.17368709845E+03  0.17808714329E+03  0.00000000000E+00 0.  1.
        -11    1    4    4    0    0 -0.27421289353E+02  0.64410860135E+02  0.64056067203E+02  0.94888701954E+02  0.00000000000E+00 0.  1.
         11    1    4    4    0    0  0.43496254118E+02  0.51243247796E+02  0.86079036645E+02  0.10921261428E+03  0.00000000000E+00 0. -1.
         21    1    1    2  503  502  0.38323133705E+02 -0.75851267705E+02  0.18520626415E+03  0.20377300525E+03  0.00000000000E+00 0.  1.
          2    1    1    2  501    0 -0.41107126821E+02 -0.35819480946E+02  0.30572592334E+03  0.31054978875E+03  0.00000000000E+00 0. -1.
<scales pt_clust_5="13000.00000" pt_clust_6="13000.00000" pt_clust_7="13000.00000" pt_clust_8="13000.00000" pt_clust_9="90.00812" pt_clust_10="54.52370"></scales>
<clustering>
<clus scale="   54.524">  2 10  1 -1</clus>
<clus scale="   74.044">  7  8 -1 -1</clus>
<clus scale="   80.040">  5  6 -1 -1</clus>
<clus scale="   82.242">  1  5  2 -1</clus>
<clus scale="   90.008">  1  9  2 -1</clus>
<clus scale="   54.524">  2  5  1 -1</clus>
</clustering>
</event>
<event>
10    3  0.7209067E-005  0.1160732E+03  0.7546771E-02  0.1253951E+00
          1   -1    0    0  503    0 -0.00000000000E+00  0.00000000000E+00  0.49646602777E+03  0.49646602777E+03  0.00000000000E+00 0. -1.
         21   -1    0    0  501  502  0.00000000000E+00 -0.00000000000E+00 -0.20293302996E+03  0.20293302996E+03  0.00000000000E+00 0. -1.
        -24    2    1    2    0    0 -0.69406936965E+01  0.75142884609E+02  0.20286921409E+03  0.23064310422E+03  0.79659884275E+02 0.  0.
         23    2    1    2    0    0 -0.10657965796E+03 -0.38377837069E+02  0.20753452926E+03  0.25365029694E+03  0.91846668060E+02 0.  0.
         11    1    3    3    0    0 -0.35727532104E+02  0.30765400496E+02  0.14389260584E+03  0.15142010578E+03  0.00000000000E+00 0. -1.
        -12    1    3    3    0    0  0.28786838408E+02  0.44377484113E+02  0.58976608246E+02  0.79222998441E+02  0.00000000000E+00 0.  1.
        -13    1    4    4    0    0 -0.37259941714E+02 -0.51438316613E+02  0.49294712726E+02  0.80400076961E+02  0.00000000000E+00 0. -1.
         13    1    4    4    0    0 -0.69319716248E+02  0.13060479544E+02  0.15823981653E+03  0.17325021998E+03  0.00000000000E+00 0.  1.
         21    1    1    2  503  502  0.53260791799E+02  0.32796281009E+02 -0.10512623031E+03  0.12232674397E+03  0.00000000000E+00 0. -1.
          2    1    1    2  501    0  0.60259559860E+02 -0.69561328549E+02 -0.11744515233E+02  0.92778912594E+02  0.00000000000E+00 0. -1.
<scales pt_clust_5="13000.00000" pt_clust_6="13000.00000" pt_clust_7="13000.00000" pt_clust_8="13000.00000" pt_clust_9="62.54845" pt_clust_10="104.40430"></scales>
<clustering>
<clus scale="   62.548">  2  9  1 -1</clus>
<clus scale="   79.660">  5  6 -1 -1</clus>
<clus scale="   91.847">  7  8 -1 -1</clus>
<clus scale="  104.404">  2 10  1 -1</clus>
<clus scale="  106.691">  1  5  2 -1</clus>
<clus scale="   62.548">  2  5  1 -1</clus>
</clustering>
</event>
<event>
10    3  0.7209067E-005  0.3665443E+03  0.7546771E-02  0.1056022E+00
          1   -1    0    0  502    0 -0.00000000000E+00  0.00000000000E+00  0.15239230440E+04  0.15239230440E+04  0.00000000000E+00 0. -1.
         21   -1    0    0  503  502  0.00000000000E+00 -0.00000000000E+00 -0.97985681238E+02  0.97985681238E+02  0.00000000000E+00 0. -1.
        -24    2    1    2    0    0  0.27499087810E+02 -0.79815268565E+02  0.36079813624E+03  0.37916664131E+03  0.80407523535E+02 0.  0.
         23    2    1    2    0    0  0.95560916655E+02 -0.22495649358E+03  0.57402760062E+03  0.63056166665E+03  0.91449529088E+02 0.  0.
         11    1    3    3    0    0  0.26405309436E+02 -0.77262410891E+02  0.36506007513E+03  0.37407964254E+03  0.00000000000E+00 0. -1.
        -12    1    3    3    0    0  0.10937783741E+01 -0.25528576740E+01 -0.42619388910E+01  0.50869987759E+01  0.00000000000E+00 0.  1.
        -13    1    4    4    0    0 -0.12242010756E+00 -0.54995527032E+02  0.63274081704E+02  0.83833957295E+02  0.00000000000E+00 0.  1.
         13    1    4    4    0    0  0.95683336763E+02 -0.16996096655E+03  0.51075351892E+03  0.54672770935E+03  0.00000000000E+00 0. -1.
         21    1    1    2  503  501  0.17399645762E+02  0.48065263075E+02  0.14893468760E+02  0.53243146027E+02  0.00000000000E+00 0.  1.
          2    1    1    2  501    0 -0.14045965023E+03  0.25670649907E+03  0.47621815712E+03  0.55893727123E+03  0.00000000000E+00 0. -1.
<scales pt_clust_5="13000.00000" pt_clust_6="13000.00000" pt_clust_7="13000.00000" pt_clust_8="13000.00000" pt_clust_9="51.11768" pt_clust_10="311.01799"></scales>
<clustering>
<clus scale="   51.118">  2  9  1 -1</clus>
<clus scale="   80.408">  5  6 -1 -1</clus>
<clus scale="   91.450">  7  8 -1 -1</clus>
<clus scale="   99.345">  5  7 -1 -1</clus>
<clus scale="  311.018">  2 10  1 -1</clus>
<clus scale="   51.118">  2  5  1 -1</clus>
</clustering>
</event>
<event>
10    3  0.7209067E-005  0.3273435E+03  0.7546771E-02  0.1098838E+00
          1   -1    0    0  503    0 -0.00000000000E+00  0.00000000000E+00  0.17637992305E+04  0.17637992305E+04  0.00000000000E+00 0. -1.
         21   -1    0    0  501  502  0.00000000000E+00 -0.00000000000E+00 -0.15191263260E+03  0.15191263260E+03  0.00000000000E+00 0. -1.
        -24    2    1    2    0    0 -0.10224144170E+03  0.10041863125E+03  0.45231643685E+03  0.48127778460E+03  0.80628363494E+02 0.  0.
         23    2    1    2    0    0  0.30939662483E+03 -0.17083898321E+03  0.51025250656E+03  0.63309463812E+03  0.12465540789E+03 0.  0.
         11    1    3    3    0    0 -0.67310572462E+02  0.10344572371E+03  0.28916153481E+03  0.31439803455E+03  0.00000000000E+00 0. -1.
        -12    1    3    3    0    0 -0.34930869236E+02 -0.30270924599E+01  0.16315490204E+03  0.16687975004E+03  0.00000000000E+00 0.  1.
        -13    1    4    4    0    0  0.29732898756E+03 -0.12441570533E+03  0.47293857013E+03  0.57232393423E+03  0.00000000000E+00 0. -1.
         13    1    4    4    0    0  0.12067637268E+02 -0.46423277883E+02  0.37313936439E+02  0.60770703889E+02  0.00000000000E+00 0.  1.
         21    1    1    2  503  502  0.72762633545E+01 -0.25183138647E+02 -0.53915645194E+02  0.59950240010E+02  0.00000000000E+00 0. -1.
          2    1    1    2  501    0 -0.21443144649E+03  0.95603490612E+02  0.70323329963E+03  0.74138920033E+03  0.00000000000E+00 0. -1.
<scales pt_clust_5="13000.00000" pt_clust_6="13000.00000" pt_clust_7="13000.00000" pt_clust_8="13000.00000" pt_clust_9="26.21325" pt_clust_10="302.67953"></scales>
<clustering>
<clus scale="   26.213">  2  9  1 -1</clus>
<clus scale="   80.628">  5  6 -1 -1</clus>
<clus scale="  124.655">  7  8 -1 -1</clus>
<clus scale="  161.419">  1  5  2 -1</clus>
<clus scale="  302.680">  2 10  1 -1</clus>
<clus scale="   26.213">  2  5  1 -1</clus>
</clustering>
</event>
<event>
10    3  0.7209067E-005  0.1011923E+03  0.7546771E-02  0.1283837E+00
         21   -1    0    0  501  502  0.00000000000E+00  0.00000000000E+00  0.51849334813E+03  0.51849334813E+03  0.00000000000E+00 0.  1.
          1   -1    0    0  503    0 -0.00000000000E+00 -0.00000000000E+00 -0.56147806222E+02  0.56147806222E+02  0.00000000000E+00 0. -1.
        -24    2    1    2    0    0 -0.76415109768E+01 -0.30429098349E+02  0.12833102101E+03  0.15281679025E+03  0.76810140691E+02 0.  0.
         23    2    1    2    0    0  0.88672293786E+02  0.34781498481E+02  0.26022509784E+03  0.29118141894E+03  0.89425884782E+02 0.  0.
         13    1    3    3    0    0 -0.22328814811E+02  0.11172376172E+02  0.10662304614E+02  0.27149267023E+02  0.00000000000E+00 0. -1.
        -14    1    3    3    0    0  0.14687303834E+02 -0.41601474522E+02  0.11766871639E+03  0.12566752323E+03  0.00000000000E+00 0.  1.
        -13    1    4    4    0    0  0.74028869113E+02 -0.14853754114E+02  0.18558215059E+03  0.20035379230E+03  0.00000000000E+00 0. -1.
         13    1    4    4    0    0  0.14643424672E+02  0.49635252595E+02  0.74642947256E+02  0.90827626642E+02  0.00000000000E+00 0.  1.
         21    1    1    2  503  502 -0.16388547038E+02 -0.12352926977E+02  0.60872688289E+02  0.64239111595E+02  0.00000000000E+00 0.  1.
          2    1    1    2  501    0 -0.64642235771E+02  0.80005268458E+01  0.12916734772E+02  0.66403833567E+02  0.00000000000E+00 0. -1.
<scales pt_clust_5="13000.00000" pt_clust_6="13000.00000" pt_clust_7="13000.00000" pt_clust_8="13000.00000" pt_clust_9="20.52265" pt_clust_10="66.42989"></scales>
<clustering>
<clus scale="   20.523">  1  9  2 -1</clus>
<clus scale="   66.430">  1 10  2 -1</clus>
<clus scale="   76.810">  5  6 -1 -1</clus>
<clus scale="   89.426">  7  8 -1 -1</clus>
<clus scale="   90.237">  2  5  1 -1</clus>
<clus scale="   20.523">  1  5  2 -1</clus>
</clustering>
</event>
<event>
10    3  0.7209067E-005  0.9847982E+02  0.7546771E-02  0.1289516E+00
          1   -1    0    0  503    0 -0.00000000000E+00  0.00000000000E+00  0.99689480991E+03  0.99689480991E+03  0.00000000000E+00 0. -1.
         21   -1    0    0  501  502  0.00000000000E+00 -0.00000000000E+00 -0.34136543222E+02  0.34136543222E+02  0.00000000000E+00 0.  1.
         23    2    1    2    0    0 -0.40322456176E+02  0.34483524011E+02  0.36047906742E+03  0.37553032787E+03  0.90900248621E+02 0.  0.
        -24    2    1    2    0    0  0.65832793762E+01 -0.12040754670E+02  0.11880969588E+03  0.14355426921E+03  0.79396253262E+02 0.  0.
         13    1    4    4    0    0  0.27867991054E+02 -0.48228655724E+01  0.11770145303E+03  0.12105171210E+03  0.00000000000E+00 0. -1.
        -14    1    4    4    0    0 -0.21284711678E+02 -0.72178890979E+01  0.11082428568E+01  0.22502557110E+02  0.00000000000E+00 0.  1.
        -13    1    3    3    0    0  0.76742813604E+01  0.47756878914E+02  0.11024479299E+03  0.12038907118E+03  0.00000000000E+00 0.  1.
         13    1    3    3    0    0 -0.47996737537E+02 -0.13273354903E+02  0.25023427443E+03  0.25514125669E+03  0.00000000000E+00 0. -1.
         21    1    1    2  503  502 -0.21423591203E+02  0.11696020791E+02  0.26780151524E+00  0.24409811143E+02  0.00000000000E+00 0.  1.
          2    1    1    2  501    0  0.55162768003E+02 -0.34138790132E+02  0.48320170186E+03  0.48753694491E+03  0.00000000000E+00 0. -1.
<scales pt_clust_5="13000.00000" pt_clust_6="13000.00000" pt_clust_7="13000.00000" pt_clust_8="13000.00000" pt_clust_9="24.40834" pt_clust_10="62.47804"></scales>
<clustering>
<clus scale="   24.408">  2  9  1 -1</clus>
<clus scale="   62.478">  2 10  1 -1</clus>
<clus scale="   79.396">  5  6 -1 -1</clus>
<clus scale="   87.973">  2  5  1 -1</clus>
<clus scale="   90.900">  7  8 -1 -1</clus>
<clus scale="   24.408">  2  5  1 -1</clus>
</clustering>
</event>
<event>
10    3  0.7209067E-005  0.1034095E+03  0.7546771E-02  0.1277741E+00
          1   -1    0    0  503    0 -0.00000000000E+00  0.00000000000E+00  0.26639174274E+03  0.26639174274E+03  0.00000000000E+00 0. -1.
         21   -1    0    0  501  502  0.00000000000E+00 -0.00000000000E+00 -0.95029283007E+02  0.95029283007E+02  0.00000000000E+00 0. -1.
        -24    2    1    2    0    0  0.21446954713E+02 -0.46868873191E+02  0.28053585467E+02  0.99693549660E+02  0.80592413078E+02 0.  0.
         23    2    1    2    0    0 -0.15373080976E+02  0.43022086860E+02  0.76277214116E-01  0.10129873234E+03  0.90411259137E+02 0.  0.
         13    1    3    3    0    0 -0.25219713423E+02 -0.36348062951E+02  0.27030687839E+02  0.51844707641E+02  0.00000000000E+00 0. -1.
        -14    1    3    3    0    0  0.46666668135E+02 -0.10520810240E+02  0.10228976277E+01  0.47848842019E+02  0.00000000000E+00 0.  1.
        -11    1    4    4    0    0  0.37630515173E+02  0.12151441078E+02 -0.44517176959E+01  0.39793604799E+02  0.00000000000E+00 0.  1.
         11    1    4    4    0    0 -0.53003596149E+02  0.30870645782E+02  0.45279949100E+01  0.61505127540E+02  0.00000000000E+00 0. -1.
         21    1    1    2  503  502  0.19580163267E+02 -0.18329779993E+02  0.22451713082E+02  0.34977750763E+02  0.00000000000E+00 0. -1.
          2    1    1    2  501    0 -0.25654037003E+02  0.22176566324E+02  0.12078088397E+03  0.12545099298E+03  0.00000000000E+00 0. -1.
<scales pt_clust_5="13000.00000" pt_clust_6="13000.00000" pt_clust_7="13000.00000" pt_clust_8="13000.00000" pt_clust_9="26.82096" pt_clust_10="20.03590"></scales>
<clustering>
<clus scale="   26.821">  1  9  2 -1</clus>
<clus scale="   20.036">  2 10  1 -1</clus>
<clus scale="   80.592">  5  6 -1 -1</clus>
<clus scale="   90.411">  7  8 -1 -1</clus>
<clus scale="   94.945">  1  5  2 -1</clus>
<clus scale="   20.036">  2  5  1 -1</clus>
</clustering>
</event>
<event>
10    3  0.7209067E-005  0.1101919E+03  0.7546771E-02  0.1265245E+00
         21   -1    0    0  501  502  0.00000000000E+00  0.00000000000E+00  0.44710331980E+02  0.44710331980E+02  0.00000000000E+00 0. -1.
          1   -1    0    0  503    0 -0.00000000000E+00 -0.00000000000E+00 -0.81140451277E+03  0.81140451277E+03  0.00000000000E+00 0. -1.
        -24    2    1    2    0    0  0.66080944078E+02  0.23166573696E+02 -0.37686498397E+03  0.39162708534E+03  0.80256940643E+02 0.  0.
         23    2    1    2    0    0 -0.34229594188E+02 -0.11270357345E+02 -0.13575718858E+03  0.16834336962E+03  0.92794341257E+02 0.  0.
         11    1    3    3    0    0  0.35647691722E+00  0.38087159287E+02 -0.16313844095E+03  0.16752584784E+03  0.00000000000E+00 0. -1.
        -12    1    3    3    0    0  0.65724467161E+02 -0.14920585592E+02 -0.21372654302E+03  0.22410123750E+03  0.00000000000E+00 0.  1.
        -13    1    4    4    0    0  0.19557247948E+02  0.25349456442E+02 -0.28355994594E+02  0.42768485111E+02  0.00000000000E+00 0.  1.
         13    1    4    4    0    0 -0.53786842136E+02 -0.36619813787E+02 -0.10740119399E+03  0.12557488451E+03  0.00000000000E+00 0. -1.
         21    1    1    2  503  502 -0.60239442508E+02  0.22448391570E+01 -0.25617151694E+02  0.65498612179E+02  0.00000000000E+00 0. -1.
          2    1    1    2  501    0  0.28388092617E+02 -0.14141055508E+02 -0.22845485655E+03  0.23064577762E+03  0.00000000000E+00 0. -1.
<scales pt_clust_5="13000.00000" pt_clust_6="13000.00000" pt_clust_7="13000.00000" pt_clust_8="13000.00000" pt_clust_9="47.44847" pt_clust_10="31.71521"></scales>
<clustering>
<clus scale="   31.715">  1 10  2 -1</clus>
<clus scale="   47.448">  1  9  2 -1</clus>
<clus scale="   80.257">  5  6 -1 -1</clus>
<clus scale="   92.794">  7  8 -1 -1</clus>
<clus scale="   99.863">  2  5  1 -1</clus>
<clus scale="   31.715">  1  5  2 -1</clus>
</clustering>
</event>
<event>
10    3  0.7209067E-005  0.1133881E+03  0.7546771E-02  0.1257954E+00
          1   -1    0    0  502    0 -0.00000000000E+00  0.00000000000E+00  0.40948519335E+03  0.40948519335E+03  0.00000000000E+00 0. -1.
         21   -1    0    0  503  502  0.00000000000E+00 -0.00000000000E+00 -0.26874468959E+03  0.26874468959E+03  0.00000000000E+00 0. -1.
         23    2    1    2    0    0 -0.55892537424E+02  0.62949768322E+02  0.30681716562E+03  0.33083475282E+03  0.90709489482E+02 0.  0.
        -24    2    1    2    0    0  0.48004021008E+02  0.28389226319E+02  0.23531154684E+02  0.10107178808E+03  0.80941070541E+02 0.  0.
         11    1    4    4    0    0  0.47151278002E+02  0.13841697738E+02  0.50471360018E+02  0.70442840627E+02  0.00000000000E+00 0. -1.
        -12    1    4    4    0    0  0.85274300580E+00  0.14547528580E+02 -0.26940205334E+02  0.30628947449E+02  0.00000000000E+00 0.  1.
        -13    1    3    3    0    0 -0.65579170464E+02  0.63271444315E+01  0.17748802928E+03  0.18932158063E+03  0.00000000000E+00 0. -1.
         13    1    3    3    0    0  0.96866330395E+01  0.56622623890E+02  0.12932913634E+03  0.14151317219E+03  0.00000000000E+00 0.  1.
         21    1    1    2  503  501  0.22075912208E+01  0.23740822182E+02 -0.92857626097E+02  0.95869905712E+02  0.00000000000E+00 0. -1.
          2    1    1    2  501    0  0.56809251954E+01 -0.11507981682E+03 -0.96750190453E+02  0.15045343633E+03  0.00000000000E+00 0. -1.
<scales pt_clust_5="13000.00000" pt_clust_6="13000.00000" pt_clust_7="13000.00000" pt_clust_8="13000.00000" pt_clust_9="23.84324" pt_clust_10="98.51904"></scales>
<clustering>
<clus scale="   23.843">  2  9  1 -1</clus>
<clus scale="   80.941">  5  6 -1 -1</clus>
<clus scale="   90.709">  7  8 -1 -1</clus>
<clus scale="   98.519">  2 10  1 -1</clus>
<clus scale="  105.736">  2  5  1 -1</clus>
<clus scale="   23.843">  2  5  1 -1</clus>
</clustering>
</event>
<event>
10    3  0.7209067E-005  0.3064529E+03  0.7546771E-02  0.1082563E+00
         21   -1    0    0  503  502  0.00000000000E+00  0.00000000000E+00  0.25228437589E+03  0.25228437589E+03  0.00000000000E+00 0. -1.
          1   -1    0    0  502    0 -0.00000000000E+00 -0.00000000000E+00 -0.54663841750E+03  0.54663841750E+03  0.00000000000E+00 0. -1.
         23    2    1    2    0    0 -0.23164349694E+03  0.22718258082E+03 -0.23560713667E+03  0.41212799028E+03  0.95226691741E+02 0.  0.
        -24    2    1    2    0    0  0.19401535499E+03 -0.16056367863E+03 -0.58049738440E+02  0.27084131555E+03  0.81009834019E+02 0.  0.
         11    1    4    4    0    0  0.15773441493E+03 -0.84016627868E+02 -0.50944468386E+02  0.18583400730E+03  0.00000000000E+00 0. -1.
        -12    1    4    4    0    0  0.36280940057E+02 -0.76547050766E+02 -0.71052700545E+01  0.85007308244E+02  0.00000000000E+00 0.  1.
        -11    1    3    3    0    0 -0.10928066700E+03  0.14703544419E+03 -0.17641652742E+03  0.25433143175E+03  0.00000000000E+00 0.  1.
         11    1    3    3    0    0 -0.12236282994E+03  0.80147136629E+02 -0.59190609250E+02  0.15779655853E+03  0.00000000000E+00 0. -1.
         21    1    1    2  503  501 -0.80278080379E+01 -0.23713779521E+02  0.35618557631E+02  0.43537003672E+02  0.00000000000E+00 0.  1.
          2    1    1    2  501    0  0.45655949987E+02 -0.42905122665E+02 -0.36315724131E+02  0.72416483892E+02  0.00000000000E+00 0. -1.
<scales pt_clust_5="13000.00000" pt_clust_6="13000.00000" pt_clust_7="13000.00000" pt_clust_8="13000.00000" pt_clust_9="25.03576" pt_clust_10="63.56342"></scales>
<clustering>
<clus scale="   25.036">  1  9  2 -1</clus>
<clus scale="   63.563">  1 10  2 -1</clus>
<clus scale="   81.010">  5  6 -1 -1</clus>
<clus scale="   95.227">  7  8 -1 -1</clus>
<clus scale="  302.337">  1  5  2 -1</clus>
<clus scale="   25.036">  1  5  2 -1</clus>
</clustering>
</event>
<event>
10    3  0.7209067E-005  0.1406342E+03  0.7546771E-02  0.1214569E+00
         -2   -1    0    0    0  501 -0.00000000000E+00  0.00000000000E+00  0.35321832211E+03  0.35321832211E+03  0.00000000000E+00 0.  1.
         21   -1    0    0  503  502  0.00000000000E+00 -0.00000000000E+00 -0.31960123362E+03  0.31960123362E+03  0.00000000000E+00 0. -1.
        -24    2    1    2    0    0 -0.57957812733E+02 -0.77773373546E+02  0.19322025921E+03  0.23026613304E+03  0.79250348680E+02 0.  0.
         23    2    1    2    0    0  0.73597378098E+02  0.17098500495E+03 -0.24679818864E+02  0.20789877267E+03  0.89220850910E+02 0.  0.
         13    1    3    3    0    0 -0.23629628093E+02 -0.63071651512E+00  0.52666394855E+01  0.24217650972E+02  0.00000000000E+00 0. -1.
        -14    1    3    3    0    0 -0.34328184640E+02 -0.77142657031E+02  0.18795361972E+03  0.20604848207E+03  0.00000000000E+00 0.  1.
        -13    1    4    4    0    0  0.50746383234E+02  0.16739553607E+03 -0.40913452252E+02  0.17963955991E+03  0.00000000000E+00 0. -1.
         13    1    4    4    0    0  0.22850994864E+02  0.35894688810E+01  0.16233633387E+02  0.28259212764E+02  0.00000000000E+00 0.  1.
         21    1    1    2  503  501 -0.27732181870E+02 -0.45113105964E+02 -0.16726386092E+03  0.17544647449E+03  0.00000000000E+00 0.  1.
         -1    1    1    2    0  502  0.12092616506E+02 -0.48098525444E+02  0.32340509063E+02  0.59208175537E+02  0.00000000000E+00 0.  1.
<scales pt_clust_5="13000.00000" pt_clust_6="13000.00000" pt_clust_7="13000.00000" pt_clust_8="13000.00000" pt_clust_9="75.02147" pt_clust_10="49.59538"></scales>
<clustering>
<clus scale="   49.595">  2 10  1 -1</clus>
<clus scale="   75.021">  2  9  1 -1</clus>
<clus scale="   79.250">  5  6 -1 -1</clus>
<clus scale="   89.221">  7  8 -1 -1</clus>
<clus scale="  134.530">  1  5  2 -1</clus>
<clus scale="   49.595">  2  5  1 -1</clus>
</clustering>
</event>
<event>
10    3  0.7209067E-005  0.9827053E+02  0.7546771E-02  0.1289748E+00
         21   -1    0    0  501  502  0.00000000000E+00  0.00000000000E+00  0.22302228965E+03  0.22302228965E+03  0.00000000000E+00 0. -1.
          1   -1    0    0  503    0 -0.00000000000E+00 -0.00000000000E+00 -0.33955705201E+03  0.33955705201E+03  0.00000000000E+00 0. -1.
         23    2    1    2    0    0 -0.28624176461E+02  0.14644133790E+02 -0.18450959252E+03  0.20845396921E+03  0.91517612599E+02 0.  0.
        -24    2    1    2    0    0  0.31077358140E+02 -0.61137227567E+02  0.37701389766E+02  0.11231258095E+03  0.80555311840E+02 0.  0.
         13    1    4    4    0    0  0.52083743785E+02 -0.64066844768E+02  0.38469791862E+02  0.91088977660E+02  0.00000000000E+00 0. -1.
        -14    1    4    4    0    0 -0.21006385645E+02  0.29296172008E+01 -0.76840209534E+00  0.21223603290E+02  0.00000000000E+00 0.  1.
        -13    1    3    3    0    0  0.33564562538E+02  0.58489404179E+01 -0.69978464963E+02  0.77831712823E+02  0.00000000000E+00 0.  1.
         13    1    3    3    0    0 -0.62188738999E+02  0.87951933719E+01 -0.11453112756E+03  0.13062225639E+03  0.00000000000E+00 0. -1.
         21    1    1    2  503  502  0.16277970253E+02  0.25424896498E+02  0.13243535293E+03  0.13583269261E+03  0.00000000000E+00 0. -1.
          2    1    1    2  501    0 -0.18731151932E+02  0.21068197279E+02 -0.10216191253E+03  0.10598009889E+03  0.00000000000E+00 0. -1.
<scales pt_clust_5="13000.00000" pt_clust_6="13000.00000" pt_clust_7="13000.00000" pt_clust_8="13000.00000" pt_clust_9="38.52037" pt_clust_10="28.19088"></scales>
<clustering>
<clus scale="   28.191">  1 10  2 -1</clus>
<clus scale="   38.520">  1  9  2 -1</clus>
<clus scale="   80.555">  5  6 -1 -1</clus>
<clus scale="   88.152">  1  5  2 -1</clus>
<clus scale="   91.518">  7  8 -1 -1</clus>
<clus scale="   28.191">  1  5  2 -1</clus>
</clustering>
</event>
<event>
10    3  0.7209067E-005  0.1112221E+03  0.7546771E-02  0.1262256E+00
         21   -1    0    0  501  502  0.00000000000E+00  0.00000000000E+00  0.12448726500E+03  0.12448726500E+03  0.00000000000E+00 0.  1.
         -4   -1    0    0    0  501 -0.00000000000E+00 -0.00000000000E+00 -0.14062194693E+04  0.14062194693E+04  0.00000000000E+00 0.  1.
        -24    2    1    2    0    0  0.36011826479E+02  0.46907308485E+02 -0.32005296358E+03  0.33538114095E+03  0.80928752429E+02 0.  0.
         23    2    1    2    0    0 -0.77823516648E+02 -0.12900776692E+02 -0.40887203842E+03  0.42628583725E+03  0.91215905689E+02 0.  0.
         13    1    3    3    0    0  0.54140242757E+02  0.12984357059E+02 -0.12911103815E+03  0.14060376804E+03  0.00000000000E+00 0. -1.
        -14    1    3    3    0    0 -0.18128416277E+02  0.33922951426E+02 -0.19094192543E+03  0.19477737291E+03  0.00000000000E+00 0.  1.
        -11    1    4    4    0    0 -0.81908924179E+02  0.22500135185E+02 -0.28479062107E+03  0.29718853577E+03  0.00000000000E+00 0. -1.
         11    1    4    4    0    0  0.40854075312E+01 -0.35400911877E+02 -0.12408141736E+03  0.12909730148E+03  0.00000000000E+00 0.  1.
         21    1    1    2  503  502  0.12078434040E+02  0.79691975829E+02  0.86959096689E+02  0.11856890013E+03  0.00000000000E+00 0.  1.
         -3    1    1    2    0  503  0.29733256129E+02 -0.11369850762E+03 -0.63976629903E+03  0.65047085602E+03  0.00000000000E+00 0.  1.
<scales pt_clust_5="13000.00000" pt_clust_6="13000.00000" pt_clust_7="13000.00000" pt_clust_8="13000.00000" pt_clust_9="80.60211" pt_clust_10="99.58849"></scales>
<clustering>
<clus scale="   80.602">  1  9  2 -1</clus>
<clus scale="   80.929">  5  6 -1 -1</clus>
<clus scale="   91.216">  7  8 -1 -1</clus>
<clus scale="   99.588">  1 10  2 -1</clus>
<clus scale="  102.954">  2  5  1 -1</clus>
<clus scale="   80.602">  1  5  2 -1</clus>
</clustering>
</event>
<event>
10    3  0.7209067E-005  0.1885232E+03  0.7546771E-02  0.1160758E+00
          1   -1    0    0  502    0 -0.00000000000E+00  0.00000000000E+00  0.89210122756E+03  0.89210122756E+03  0.00000000000E+00 0. -1.
         21   -1    0    0  503  502  0.00000000000E+00 -0.00000000000E+00 -0.17030688198E+03  0.17030688198E+03  0.00000000000E+00 0. -1.
         23    2    1    2    0    0 -0.15255877773E+03 -0.10349089998E+03  0.46874660974E+03  0.51150480267E+03  0.89046235036E+02 0.  0.
        -24    2    1    2    0    0  0.13820550980E+03  0.40291577088E+02  0.18360941988E+03  0.24660895599E+03  0.79871045947E+02 0.  0.
         11    1    4    4    0    0  0.84578600593E+02 -0.16680993807E+02  0.10203657687E+03  0.13357865941E+03  0.00000000000E+00 0. -1.
        -12    1    4    4    0    0  0.53626909203E+02  0.56972570895E+02  0.81572843016E+02  0.11303029657E+03  0.00000000000E+00 0.  1.
        -13    1    3    3    0    0  0.39552203065E+00 -0.38019057240E+02  0.98968634991E+02  0.10602073318E+03  0.00000000000E+00 0.  1.
         13    1    3    3    0    0 -0.15295429976E+03 -0.65471842735E+02  0.36977797475E+03  0.40548406949E+03  0.00000000000E+00 0. -1.
         21    1    1    2  503  501  0.57862910262E+02 -0.92910203109E+02 -0.30842501562E+02  0.11371755418E+03  0.00000000000E+00 0. -1.
          2    1    1    2  501    0 -0.43509642331E+02  0.15610952600E+03  0.10028081752E+03  0.19057679671E+03  0.00000000000E+00 0. -1.
<scales pt_clust_5="13000.00000" pt_clust_6="13000.00000" pt_clust_7="13000.00000" pt_clust_8="13000.00000" pt_clust_9="109.45512" pt_clust_10="114.56547"></scales>
<clustering>
<clus scale="   79.871">  5  6 -1 -1</clus>
<clus scale="   89.046">  7  8 -1 -1</clus>
<clus scale="  109.455">  2  9  1 -1</clus>
<clus scale="  114.565">  2 10  1 -1</clus>
<clus scale="  184.367">  2  5  1 -1</clus>
<clus scale="  109.455">  2  5  1 -1</clus>
</clustering>
</event>
<event>
10    3  0.7209067E-005  0.4684041E+03  0.7546771E-02  0.1046097E+00
          1   -1    0    0  503    0 -0.00000000000E+00  0.00000000000E+00  0.44414041501E+03  0.44414041501E+03  0.00000000000E+00 0. -1.
         21   -1    0    0  501  502  0.00000000000E+00 -0.00000000000E+00 -0.11861711492E+04  0.11861711492E+04  0.00000000000E+00 0.  1.
         23    2    1    2    0    0 -0.81574740789E+02 -0.19623356725E+03 -0.48774355583E+03  0.53985141296E+03  0.91562659260E+02 0.  0.
        -24    2    1    2    0    0  0.37074302372E+03  0.41732153201E+03 -0.12883945173E+03  0.57858793635E+03  0.80973730637E+02 0.  0.
         11    1    4    4    0    0  0.75194992308E+02  0.43941436369E+02 -0.90791160774E+01  0.87564644961E+02  0.00000000000E+00 0. -1.
        -12    1    4    4    0    0  0.29554803141E+03  0.37338009564E+03 -0.11976033565E+03  0.49102329139E+03  0.00000000000E+00 0.  1.
        -13    1    3    3    0    0 -0.78671248212E+01 -0.97254029474E+02 -0.13828478118E+03  0.16924218921E+03  0.00000000000E+00 0.  1.
         13    1    3    3    0    0 -0.73707615967E+02 -0.98979537772E+02 -0.34945877465E+03  0.37060922375E+03  0.00000000000E+00 0. -1.
         21    1    1    2  503  502  0.48737429678E+02 -0.20817220099E+02 -0.10610036898E+03  0.11860009276E+03  0.00000000000E+00 0.  1.
          2    1    1    2  501    0 -0.33790571261E+03 -0.20027074467E+03 -0.19347357629E+02  0.39327212211E+03  0.00000000000E+00 0. -1.
<scales pt_clust_5="13000.00000" pt_clust_6="13000.00000" pt_clust_7="13000.00000" pt_clust_8="13000.00000" pt_clust_9="52.99711" pt_clust_10="461.35201"></scales>
<clustering>
<clus scale="   52.997">  2  9  1 -1</clus>
<clus scale="   80.974">  5  6 -1 -1</clus>
<clus scale="   91.563">  7  8 -1 -1</clus>
<clus scale="  233.010">  1  7  2 -1</clus>
<clus scale="  461.352">  2 10  1 -1</clus>
<clus scale="   52.997">  2  5  1 -1</clus>
</clustering>
</event>
<event>
10    3  0.7209067E-005  0.1697376E+03  0.7546771E-02  0.1179509E+00
         21   -1    0    0  501  502  0.00000000000E+00  0.00000000000E+00  0.42396455180E+03  0.42396455180E+03  0.00000000000E+00 0. -1.
          1   -1    0    0  503    0 -0.00000000000E+00 -0.00000000000E+00 -0.24092870634E+03  0.24092870634E+03  0.00000000000E+00 0. -1.
        -24    2    1    2    0    0 -0.13305178273E+03  0.96785145798E+02 -0.12974444127E+03  0.22464356748E+03  0.80999821196E+02 0.  0.
         23    2    1    2    0    0  0.56834795293E+02 -0.73276847694E+02  0.83330512712E+02  0.15443603513E+03  0.91141780944E+02 0.  0.
         11    1    3    3    0    0 -0.11279737594E+03  0.95881014249E+02 -0.13834315039E+03  0.20262093715E+03  0.00000000000E+00 0. -1.
        -12    1    3    3    0    0 -0.20254406790E+02  0.90413154895E+00  0.85987091127E+01  0.22022630330E+02  0.00000000000E+00 0.  1.
        -11    1    4    4    0    0  0.68746393375E+01 -0.77596895848E+02  0.63530765685E+02  0.10052212244E+03  0.00000000000E+00 0. -1.
         11    1    4    4    0    0  0.49960155956E+02  0.43200481537E+01  0.19799747027E+02  0.53913912690E+02  0.00000000000E+00 0.  1.
         21    1    1    2  503  502 -0.43797026721E+02  0.81276507577E+01  0.79824725832E+02  0.91412390356E+02  0.00000000000E+00 0. -1.
          2    1    1    2  501    0  0.12001401416E+03 -0.31635948862E+02  0.14962504820E+03  0.19440126518E+03  0.00000000000E+00 0. -1.
<scales pt_clust_5="13000.00000" pt_clust_6="13000.00000" pt_clust_7="13000.00000" pt_clust_8="13000.00000" pt_clust_9="44.54479" pt_clust_10="101.54363"></scales>
<clustering>
<clus scale="   44.545">  1  9  2 -1</clus>
<clus scale="   81.000">  5  6 -1 -1</clus>
<clus scale="   91.142">  7  8 -1 -1</clus>
<clus scale="  101.544">  1 10  2 -1</clus>
<clus scale="  164.514">  2  5  1 -1</clus>
<clus scale="   44.545">  1  5  2 -1</clus>
</clustering>
</event>
<event>
10    3  0.7209067E-005  0.4041537E+03  0.7546771E-02  0.1042502E+00
         21   -1    0    0  503  502  0.00000000000E+00  0.00000000000E+00  0.23748326380E+03  0.23748326380E+03  0.00000000000E+00 0. -1.
          1   -1    0    0  502    0 -0.00000000000E+00 -0.00000000000E+00 -0.91422792652E+03  0.91422792652E+03  0.00000000000E+00 0. -1.
         23    2    1    2    0    0 -0.41940894219E+03 -0.47719171213E+02 -0.47401441199E+03  0.64112350945E+03  0.90380924488E+02 0.  0.
        -24    2    1    2    0    0  0.34916538630E+03  0.53472128219E+02 -0.15057626960E+03  0.39267179522E+03  0.82110841610E+02 0.  0.
         13    1    4    4    0    0  0.24381384204E+03  0.55260045920E+02 -0.68792594991E+02  0.25928996002E+03  0.00000000000E+00 0. -1.
        -14    1    4    4    0    0  0.10535154426E+03 -0.17879177012E+01 -0.81783674604E+02  0.13338183519E+03  0.00000000000E+00 0.  1.
        -13    1    3    3    0    0 -0.37403102965E+02  0.12752994991E+01 -0.88986716464E+02  0.96536284408E+02  0.00000000000E+00 0.  1.
         13    1    3    3    0    0 -0.38200583922E+03 -0.48994470712E+02 -0.38502769553E+03  0.54458722505E+03  0.00000000000E+00 0. -1.
         21    1    1    2  503  501  0.14815486112E+02 -0.21803220272E+02  0.14230911908E+02  0.29956600219E+02  0.00000000000E+00 0. -1.
          2    1    1    2  501    0  0.55428069779E+02  0.16050263265E+02 -0.66384893033E+02  0.87959285430E+02  0.00000000000E+00 0. -1.
<scales pt_clust_5="13000.00000" pt_clust_6="13000.00000" pt_clust_7="13000.00000" pt_clust_8="13000.00000" pt_clust_9="26.36056" pt_clust_10="58.12771"></scales>
<clustering>
<clus scale="   26.361">  1  9  2 -1</clus>
<clus scale="   58.128">  1 10  2 -1</clus>
<clus scale="   82.111">  5  6 -1 -1</clus>
<clus scale="   90.381">  7  8 -1 -1</clus>
<clus scale="  402.385">  1  5  2 -1</clus>
<clus scale="   26.361">  1  5  2 -1</clus>
</clustering>
</event>
<event>
10    3  0.7209067E-005  0.2622685E+03  0.7546771E-02  0.1106339E+00
         21   -1    0    0  503  502  0.00000000000E+00  0.00000000000E+00  0.19543219548E+03  0.19543219548E+03  0.00000000000E+00 0.  1.
          1   -1    0    0  502    0 -0.00000000000E+00 -0.00000000000E+00 -0.13049151770E+04  0.13049151770E+04  0.00000000000E+00 0. -1.
        -24    2    1    2    0    0  0.43720526984E+02 -0.24053585809E+03 -0.60480943590E+03  0.65718771076E+03  0.79575435398E+02 0.  0.
         23    2    1    2    0    0  0.11974027913E+02  0.25850042142E+03 -0.29093409696E+02  0.27579409970E+03  0.90830136658E+02 0.  0.
         13    1    3    3    0    0  0.56740684353E+02 -0.20932665239E+03 -0.46118413742E+03  0.50963512562E+03  0.00000000000E+00 0. -1.
        -14    1    3    3    0    0 -0.13020157369E+02 -0.31209205705E+02 -0.14362529848E+03  0.14755258514E+03  0.00000000000E+00 0.  1.
        -11    1    4    4    0    0 -0.36024984683E+02  0.15493221707E+03 -0.28753807160E+02  0.16164335073E+03  0.00000000000E+00 0. -1.
         11    1    4    4    0    0  0.47999012596E+02  0.10356820434E+03 -0.33960253587E+00  0.11415074897E+03  0.00000000000E+00 0.  1.
         21    1    1    2  503  501  0.19191882975E+02  0.35210722962E+02  0.32148272063E+02  0.51396836286E+02  0.00000000000E+00 0.  1.
          2    1    1    2  501    0 -0.74886437872E+02 -0.53175286285E+02 -0.50772840800E+03  0.51596872574E+03  0.00000000000E+00 0. -1.
<scales pt_clust_5="13000.00000" pt_clust_6="13000.00000" pt_clust_7="13000.00000" pt_clust_8="13000.00000" pt_clust_9="40.10141" pt_clust_10="90.88054"></scales>
<clustering>
<clus scale="   40.101">  1  9  2 -1</clus>
<clus scale="   79.575">  5  6 -1 -1</clus>
<clus scale="   90.830">  7  8 -1 -1</clus>
<clus scale="   90.881">  1 10  2 -1</clus>
<clus scale="  258.586">  2  5  1 -1</clus>
<clus scale="   40.101">  1  5  2 -1</clus>
</clustering>
</event>
<event>
10    3  0.7209067E-005  0.1225217E+03  0.7546771E-02  0.1256087E+00
         21   -1    0    0  503  502  0.00000000000E+00  0.00000000000E+00  0.21694863765E+03  0.21694863765E+03  0.00000000000E+00 0. -1.
          1   -1    0    0  502    0 -0.00000000000E+00 -0.00000000000E+00 -0.41785076329E+03  0.41785076329E+03  0.00000000000E+00 0. -1.
        -24    2    1    2    0    0  0.32820064448E+02 -0.15550877793E+00 -0.19075696423E+03  0.20974865651E+03  0.80802838406E+02 0.  0.
         23    2    1    2    0    0  0.64594609887E+02 -0.13155349595E+02 -0.12754565395E+03  0.16945742148E+03  0.90013315701E+02 0.  0.
         13    1    3    3    0    0  0.48845358370E+02 -0.27096758509E+02 -0.12362668371E+03  0.13566009097E+03  0.00000000000E+00 0. -1.
        -14    1    3    3    0    0 -0.16025293922E+02  0.26941249731E+02 -0.67130280514E+02  0.74088565544E+02  0.00000000000E+00 0.  1.
        -11    1    4    4    0    0 -0.22115813714E+02  0.55873783818E+01 -0.24143157368E+02  0.33214756677E+02  0.00000000000E+00 0.  1.
         11    1    4    4    0    0  0.86710423601E+02 -0.18742727977E+02 -0.10340249658E+03  0.13624266480E+03  0.00000000000E+00 0. -1.
         21    1    1    2  503  501 -0.90229315379E+01  0.44357215743E+02  0.14977968823E+03  0.15647022365E+03  0.00000000000E+00 0. -1.
          2    1    1    2  501    0 -0.88391742797E+02 -0.31046357370E+02 -0.32379195696E+02  0.99123099298E+02  0.00000000000E+00 0. -1.
<scales pt_clust_5="13000.00000" pt_clust_6="13000.00000" pt_clust_7="13000.00000" pt_clust_8="13000.00000" pt_clust_9="45.26561" pt_clust_10="83.12138"></scales>
<clustering>
<clus scale="   45.266">  1  9  2 -1</clus>
<clus scale="   80.803">  5  6 -1 -1</clus>
<clus scale="   86.957">  2  5  1 -1</clus>
<clus scale="   83.121">  1 10  2 -1</clus>
<clus scale="   90.013">  7  8 -1 -1</clus>
<clus scale="   45.266">  1  5  2 -1</clus>
</clustering>
</event>
<event>
10    3  0.7209067E-005  0.1523365E+03  0.7546771E-02  0.1198049E+00
         21   -1    0    0  503  502  0.00000000000E+00  0.00000000000E+00  0.83905703944E+03  0.83905703944E+03  0.00000000000E+00 0. -1.
         -2   -1    0    0    0  501 -0.00000000000E+00 -0.00000000000E+00 -0.32059102059E+03  0.32059102059E+03  0.00000000000E+00 0.  1.
         23    2    1    2    0    0 -0.91786082108E+02  0.10717638006E+03  0.13983453747E+02  0.16899988985E+03  0.91945442942E+02 0.  0.
        -24    2    1    2    0    0  0.31745825302E+02 -0.89634145010E+02  0.87439642583E+02  0.15987852879E+03  0.94198596050E+02 0.  0.
         11    1    4    4    0    0  0.24132742274E+02 -0.24949467311E+02  0.88155854302E+02  0.94743442076E+02  0.00000000000E+00 0. -1.
        -12    1    4    4    0    0  0.76130830274E+01 -0.64684677699E+02 -0.71621171895E+00  0.65135086716E+02  0.00000000000E+00 0.  1.
        -11    1    3    3    0    0 -0.58291972124E+02  0.75639095792E+02  0.52522595294E+02  0.10898554878E+03  0.00000000000E+00 0.  1.
         11    1    3    3    0    0 -0.33494109984E+02  0.31537284273E+02 -0.38539141547E+02  0.60014341070E+02  0.00000000000E+00 0. -1.
         21    1    1    2  503  501  0.11087752620E+03 -0.47709485264E+02  0.61368037305E+03  0.62543874285E+03  0.00000000000E+00 0. -1.
         -1    1    1    2    0  502 -0.50837269389E+02  0.30167250209E+02 -0.19663745053E+03  0.20533089854E+03  0.00000000000E+00 0.  1.
<scales pt_clust_5="13000.00000" pt_clust_6="13000.00000" pt_clust_7="13000.00000" pt_clust_8="13000.00000" pt_clust_9="77.40167" pt_clust_10="59.11425"></scales>
<clustering>
<clus scale="   59.114">  1 10  2 -1</clus>
<clus scale="   77.402">  1  9  2 -1</clus>
<clus scale="   91.945">  7  8 -1 -1</clus>
<clus scale="   94.199">  5  6 -1 -1</clus>
<clus scale="  150.954">  2  7  1 -1</clus>
<clus scale="   59.114">  1  5  2 -1</clus>
</clustering>
</event>
<event>
10    3  0.7209067E-005  0.1271551E+03  0.7546771E-02  0.1246294E+00
          1   -1    0    0  502    0 -0.00000000000E+00  0.00000000000E+00  0.24176167678E+03  0.24176167678E+03  0.00000000000E+00 0. -1.
         21   -1    0    0  503  502  0.00000000000E+00 -0.00000000000E+00 -0.27573091674E+03  0.27573091674E+03  0.00000000000E+00 0. -1.
         23    2    1    2    0    0 -0.27827034933E+02  0.78770060893E+01  0.14650673825E+03  0.17472272413E+03  0.90705098404E+02 0.  0.
        -24    2    1    2    0    0 -0.65395457246E+02 -0.78539536813E+02 -0.57678116796E+02  0.14240084510E+03  0.80661086377E+02 0.  0.
         11    1    4    4    0    0 -0.61926923549E+02 -0.87198111568E+02 -0.69344453864E+02  0.12746414320E+03  0.00000000000E+00 0. -1.
        -12    1    4    4    0    0 -0.34685336969E+01  0.86585747552E+01  0.11666337067E+02  0.14936701891E+02  0.00000000000E+00 0.  1.
        -11    1    3    3    0    0 -0.30955586824E+02 -0.35639244304E+02  0.10202371978E+03  0.11241549487E+03  0.00000000000E+00 0. -1.
         11    1    3    3    0    0  0.31285518909E+01  0.43516250393E+02  0.44483018466E+02  0.62307229252E+02  0.00000000000E+00 0.  1.
         21    1    1    2  503  501  0.28029995251E+02 -0.23623449612E+01 -0.94311741128E+02  0.98417304485E+02  0.00000000000E+00 0. -1.
          2    1    1    2  501    0  0.65192496928E+02  0.73024875684E+02 -0.28486120281E+02  0.10195171981E+03  0.00000000000E+00 0. -1.
<scales pt_clust_5="13000.00000" pt_clust_6="13000.00000" pt_clust_7="13000.00000" pt_clust_8="13000.00000" pt_clust_9="28.12937" pt_clust_10="98.29658"></scales>
<clustering>
<clus scale="   28.129">  2  9  1 -1</clus>
<clus scale="   80.661">  5  6 -1 -1</clus>
<clus scale="   90.705">  7  8 -1 -1</clus>
<clus scale="   94.568">  1  7  2 -1</clus>
<clus scale="   98.297">  2 10  1 -1</clus>
<clus scale="   28.129">  2  5  1 -1</clus>
</clustering>
</event>
<event>
10    3  0.7209067E-005  0.1082597E+03  0.7546771E-02  0.1273654E+00
         -4   -1    0    0    0  501 -0.00000000000E+00  0.00000000000E+00  0.19647055114E+03  0.19647055114E+03  0.00000000000E+00 0.  1.
         21   -1    0    0  503  502  0.00000000000E+00 -0.00000000000E+00 -0.11066349635E+03  0.11066349635E+03  0.00000000000E+00 0.  1.
         23    2    1    2    0    0  0.36819295186E+02 -0.39863131016E+02  0.83721938652E+02  0.14213340176E+03  0.10123147323E+03 0.  0.
        -24    2    1    2    0    0 -0.30691671186E+02 -0.79742962413E+01  0.21145487945E+02  0.89377983683E+02  0.80843826147E+02 0.  0.
         13    1    4    4    0    0 -0.13344835115E+02  0.31416137950E+02  0.29991665696E+02  0.45437411449E+02  0.00000000000E+00 0. -1.
        -14    1    4    4    0    0 -0.17346836071E+02 -0.39390434191E+02 -0.88461777511E+01  0.43940572234E+02  0.00000000000E+00 0.  1.
        -13    1    3    3    0    0  0.61623351199E+01 -0.56629392160E+02  0.90116687574E+02  0.10661088035E+03  0.00000000000E+00 0. -1.
         13    1    3    3    0    0  0.30656960066E+02  0.16766261144E+02 -0.63947489211E+01  0.35522521406E+02  0.00000000000E+00 0.  1.
         21    1    1    2  503  501  0.16759390154E+02  0.12459156206E+02 -0.25540560610E+02  0.32991331709E+02  0.00000000000E+00 0.  1.
         -3    1    1    2    0  502 -0.22887014154E+02  0.35378271052E+02  0.64801888008E+01  0.42631330338E+02  0.00000000000E+00 0.  1.
<scales pt_clust_5="13000.00000" pt_clust_6="13000.00000" pt_clust_7="13000.00000" pt_clust_8="13000.00000" pt_clust_9="20.88319" pt_clust_10="42.68902"></scales>
<clustering>
<clus scale="   20.883">  2  9  1 -1</clus>
<clus scale="   42.689">  2 10  1 -1</clus>
<clus scale="   80.844">  5  6 -1 -1</clus>
<clus scale="   89.488">  2  5  1 -1</clus>
<clus scale="  101.231">  7  8 -1 -1</clus>
<clus scale="   20.883">  2  5  1 -1</clus>
</clustering>
</event>
<event>
10    3  0.7209067E-005  0.2522893E+03  0.7546771E-02  0.1152896E+00
          1   -1    0    0  503    0 -0.00000000000E+00  0.00000000000E+00  0.10601598921E+04  0.10601598921E+04  0.00000000000E+00 0. -1.
         21   -1    0    0  501  502  0.00000000000E+00 -0.00000000000E+00 -0.13190076291E+03  0.13190076291E+03  0.00000000000E+00 0. -1.
        -24    2    1    2    0    0  0.43907339734E+02  0.91379525867E+01  0.18131879766E+03  0.20316941474E+03  0.79937150569E+02 0.  0.
         23    2    1    2    0    0 -0.22842163262E+03 -0.11097412336E+03  0.20065228186E+03  0.33644406962E+03  0.91878046670E+02 0.  0.
         13    1    3    3    0    0  0.33072794703E+02  0.44060711565E+02  0.10956413712E+03  0.12263546060E+03  0.00000000000E+00 0. -1.
        -14    1    3    3    0    0  0.10834545031E+02 -0.34922758979E+02  0.71754660539E+02  0.80533954142E+02  0.00000000000E+00 0.  1.
        -11    1    4    4    0    0 -0.11964003313E+03 -0.10364579899E+03  0.94931760596E+02  0.18457580650E+03  0.00000000000E+00 0. -1.
         11    1    4    4    0    0 -0.10878159949E+03 -0.73283243726E+01  0.10572052126E+03  0.15186826312E+03  0.00000000000E+00 0.  1.
         21    1    1    2  503  502  0.17586795998E+02 -0.15633341021E+02 -0.31698126550E+02  0.39477436235E+02  0.00000000000E+00 0. -1.
          2    1    1    2  501    0  0.16692749689E+03  0.11746951179E+03  0.57798617625E+03  0.61296973446E+03  0.00000000000E+00 0. -1.
<scales pt_clust_5="13000.00000" pt_clust_6="13000.00000" pt_clust_7="13000.00000" pt_clust_8="13000.00000" pt_clust_9="23.53076" pt_clust_10="234.96465"></scales>
<clustering>
<clus scale="   23.531">  2  9  1 -1</clus>
<clus scale="   79.937">  5  6 -1 -1</clus>
<clus scale="   91.878">  7  8 -1 -1</clus>
<clus scale="   92.473">  1  5  2 -1</clus>
<clus scale="  234.965">  2 10  1 -1</clus>
<clus scale="   23.531">  2  5  1 -1</clus>
</clustering>
</event>
<event>
10    3  0.7209067E-005  0.1307396E+03  0.7546771E-02  0.1241027E+00
         21   -1    0    0  503  502  0.00000000000E+00  0.00000000000E+00  0.15901347473E+03  0.15901347473E+03  0.00000000000E+00 0. -1.
          1   -1    0    0  502    0 -0.00000000000E+00 -0.00000000000E+00 -0.29197893804E+03  0.29197893804E+03  0.00000000000E+00 0. -1.
        -24    2    1    2    0    0 -0.92386090595E+01 -0.52587499753E+02 -0.15147261295E+03  0.18022978671E+03  0.81780355315E+02 0.  0.
         23    2    1    2    0    0 -0.40454025892E+01 -0.78659081986E+02  0.77263827651E+01  0.12123830649E+03  0.91844507240E+02 0.  0.
         11    1    3    3    0    0 -0.21794525478E+02 -0.59771844728E+02 -0.15298325953E+03  0.16568510029E+03  0.00000000000E+00 0. -1.
        -12    1    3    3    0    0  0.12555916418E+02  0.71843449756E+01  0.15106465792E+01  0.14544686415E+02  0.00000000000E+00 0.  1.
        -11    1    4    4    0    0  0.33662725181E+02 -0.57829191307E+02 -0.20204376762E+02  0.69897147826E+02  0.00000000000E+00 0.  1.
         11    1    4    4    0    0 -0.37708127771E+02 -0.20829890678E+02  0.27930759528E+02  0.51341158668E+02  0.00000000000E+00 0. -1.
         21    1    1    2  503  501 -0.15692489033E+02  0.18726668512E+02  0.21888914229E+02  0.32803458534E+02  0.00000000000E+00 0. -1.
          2    1    1    2  501    0  0.28976500682E+02  0.11251991323E+03 -0.11108147355E+02  0.11672086104E+03  0.00000000000E+00 0. -1.
<scales pt_clust_5="13000.00000" pt_clust_6="13000.00000" pt_clust_7="13000.00000" pt_clust_8="13000.00000" pt_clust_9="24.43240" pt_clust_10="93.04538"></scales>
<clustering>
<clus scale="   24.432">  1  9  2 -1</clus>
<clus scale="   81.780">  5  6 -1 -1</clus>
<clus scale="   91.845">  7  8 -1 -1</clus>
<clus scale="   96.760">  2  5  1 -1</clus>
<clus scale="   93.045">  1 10  2 -1</clus>
<clus scale="   24.432">  1  5  2 -1</clus>
</clustering>
</event>
<event>
10    3  0.7209067E-005  0.1870822E+03  0.7546771E-02  0.1185661E+00
         21   -1    0    0  503  502  0.00000000000E+00  0.00000000000E+00  0.53330602941E+02  0.53330602941E+02  0.00000000000E+00 0.  1.
          1   -1    0    0  502    0 -0.00000000000E+00 -0.00000000000E+00 -0.20813569005E+04  0.20813569005E+04  0.00000000000E+00 0. -1.
         23    2    1    2    0    0 -0.48220524504E+02  0.26865664914E+02 -0.32600242122E+03  0.34313399654E+03  0.91740819713E+02 0.  0.
        -24    2    1    2    0    0  0.55626815471E+02  0.12377056417E+03 -0.33909947317E+03  0.37400124878E+03  0.80467299157E+02 0.  0.
         11    1    4    4    0    0  0.36275583260E+02  0.10603208212E+03 -0.32587757594E+03  0.34460834998E+03  0.00000000000E+00 0. -1.
        -12    1    4    4    0    0  0.19351232211E+02  0.17738482050E+02 -0.13221897234E+02  0.29392898802E+02  0.00000000000E+00 0.  1.
        -13    1    3    3    0    0 -0.46480613703E+02  0.58808975792E+02 -0.23568533846E+03  0.24731866458E+03  0.00000000000E+00 0.  1.
         13    1    3    3    0    0 -0.17399108009E+01 -0.31943310879E+02 -0.90317082759E+02  0.95815331954E+02  0.00000000000E+00 0. -1.
         21    1    1    2  503  501  0.11381336694E+03 -0.66690998111E+01 -0.14150711615E+03  0.18172017859E+03  0.00000000000E+00 0.  1.
          2    1    1    2  501    0 -0.12121965790E+03 -0.14396712927E+03 -0.12214172870E+04  0.12358320795E+04  0.00000000000E+00 0. -1.
<scales pt_clust_5="13000.00000" pt_clust_6="13000.00000" pt_clust_7="13000.00000" pt_clust_8="13000.00000" pt_clust_9="109.43198" pt_clust_10="168.89286"></scales>
<clustering>
<clus scale="   80.467">  5  6 -1 -1</clus>
<clus scale="   91.741">  7  8 -1 -1</clus>
<clus scale="  107.067">  2  7  1 -1</clus>
<clus scale="  109.432">  1  9  2 -1</clus>
<clus scale="  168.893">  1 10  2 -1</clus>
<clus scale="  109.432">  1  5  2 -1</clus>
</clustering>
</event>
<event>
10    3  0.7209067E-005  0.1882098E+03  0.7546771E-02  0.1191408E+00
          3   -1    0    0  502    0 -0.00000000000E+00  0.00000000000E+00  0.63488198073E+02  0.63488198073E+02  0.00000000000E+00 0. -1.
         21   -1    0    0  503  502  0.00000000000E+00 -0.00000000000E+00 -0.99203617111E+03  0.99203617111E+03  0.00000000000E+00 0. -1.
         23    2    1    2    0    0  0.19029915169E+02  0.10203951811E+02 -0.18967210990E+03  0.21136138480E+03  0.90729639076E+02 0.  0.
        -24    2    1    2    0    0  0.72544226165E+02 -0.14714393475E+03 -0.21561733399E+03  0.28250435131E+03  0.80024193302E+02 0.  0.
         13    1    4    4    0    0  0.52845568565E+02 -0.10595624342E+03 -0.89637833465E+02  0.14850697231E+03  0.00000000000E+00 0. -1.
        -14    1    4    4    0    0  0.19698657600E+02 -0.41187691324E+02 -0.12597950052E+03  0.13399737900E+03  0.00000000000E+00 0.  1.
        -11    1    3    3    0    0  0.38095403458E+02 -0.38069484790E+01 -0.18273900346E+03  0.18670644340E+03  0.00000000000E+00 0.  1.
         11    1    3    3    0    0 -0.19065488289E+02  0.14010900290E+02 -0.69331064418E+01  0.24654941402E+02  0.00000000000E+00 0. -1.
         21    1    1    2  503  501 -0.65465876365E+01 -0.20330101153E+02 -0.98839749031E+02  0.10112105029E+03  0.00000000000E+00 0.  1.
          4    1    1    2  501    0 -0.85027553698E+02  0.15727008409E+03 -0.42441878012E+03  0.46053758279E+03  0.00000000000E+00 0. -1.
<scales pt_clust_5="13000.00000" pt_clust_6="13000.00000" pt_clust_7="13000.00000" pt_clust_8="13000.00000" pt_clust_9="21.35816" pt_clust_10="170.34979"></scales>
<clustering>
<clus scale="   21.358">  2  9  1 -1</clus>
<clus scale="   80.024">  5  6 -1 -1</clus>
<clus scale="   90.730">  7  8 -1 -1</clus>
<clus scale="   92.585">  1  7  2 -1</clus>
<clus scale="  170.350">  2 10  1 -1</clus>
<clus scale="   21.358">  2  5  1 -1</clus>
</clustering>
</event>
<event>
10    3  0.7209067E-005  0.9829784E+02  0.7546771E-02  0.1297478E+00
         -2   -1    0    0    0  501 -0.00000000000E+00  0.00000000000E+00  0.46926271518E+03  0.46926271518E+03  0.00000000000E+00 0.  1.
         21   -1    0    0  503  502  0.00000000000E+00 -0.00000000000E+00 -0.18508423585E+03  0.18508423585E+03  0.00000000000E+00 0.  1.
         23    2    1    2    0    0 -0.70487999641E+01  0.32782437036E+02  0.31609916729E+03  0.33067713920E+03  0.91128003779E+02 0.  0.
        -24    2    1    2    0    0 -0.28394440810E+02 -0.42594579459E+02  0.12755691494E+03  0.15280747796E+03  0.66774368591E+02 0.  0.
         11    1    4    4    0    0 -0.11402983733E+02 -0.45984400274E+02  0.35676592328E+02  0.59307776444E+02  0.00000000000E+00 0. -1.
        -12    1    4    4    0    0 -0.16991457077E+02  0.33898208142E+01  0.91880322616E+02  0.93499701512E+02  0.00000000000E+00 0.  1.
        -11    1    3    3    0    0 -0.37013676904E+01 -0.26675460912E+02  0.39950030199E+02  0.48179718249E+02  0.00000000000E+00 0. -1.
         11    1    3    3    0    0 -0.33474322737E+01  0.59457897948E+02  0.27614913709E+03  0.28249742095E+03  0.00000000000E+00 0.  1.
         21    1    1    2  503  501  0.18463356618E+02  0.29368388503E+02 -0.10409604102E+03  0.10972412469E+03  0.00000000000E+00 0.  1.
         -1    1    1    2    0  502  0.16979884156E+02 -0.19556246080E+02 -0.55381561872E+02  0.61138209182E+02  0.00000000000E+00 0.  1.
<scales pt_clust_5="13000.00000" pt_clust_6="13000.00000" pt_clust_7="13000.00000" pt_clust_8="13000.00000" pt_clust_9="35.21793" pt_clust_10="25.89910"></scales>
<clustering>
<clus scale="   25.899">  2 10  1 -1</clus>
<clus scale="   35.218">  2  9  1 -1</clus>
<clus scale="   66.774">  5  6 -1 -1</clus>
<clus scale="   76.269">  2  5  1 -1</clus>
<clus scale="   91.128">  7  8 -1 -1</clus>
<clus scale="   25.899">  2  5  1 -1</clus>
</clustering>
</event>
<event>
10    3  0.7209067E-005  0.1117742E+03  0.7546771E-02  0.1263738E+00
         21   -1    0    0  503  502  0.00000000000E+00  0.00000000000E+00  0.75991077018E+02  0.75991077018E+02  0.00000000000E+00 0.  1.
          3   -1    0    0  502    0 -0.00000000000E+00 -0.00000000000E+00 -0.45359214924E+03  0.45359214924E+03  0.00000000000E+00 0. -1.
         23    2    1    2    0    0  0.71126662257E+02  0.54836890722E+02 -0.15365846066E+03  0.20187693501E+03  0.95274800903E+02 0.  0.
        -24    2    1    2    0    0 -0.29760507173E+02 -0.10617023070E+02 -0.63304459125E+02  0.10629769271E+03  0.79330548742E+02 0.  0.
         13    1    4    4    0    0 -0.34616944470E+02  0.27763120006E+02 -0.46008722921E+02  0.63921250471E+02  0.00000000000E+00 0. -1.
        -14    1    4    4    0    0  0.48564372973E+01 -0.38380143077E+02 -0.17295736205E+02  0.42376442237E+02  0.00000000000E+00 0.  1.
        -13    1    3    3    0    0  0.73900693680E+02  0.10520349369E+01 -0.66500610960E+02  0.99422082869E+02  0.00000000000E+00 0. -1.
         13    1    3    3    0    0 -0.27740314230E+01  0.53784855785E+02 -0.87157849702E+02  0.10245485214E+03  0.00000000000E+00 0.  1.
         21    1    1    2  503  501  0.15690029723E+02 -0.39857623692E+02  0.77793624486E+01  0.43535338280E+02  0.00000000000E+00 0.  1.
          4    1    1    2  501    0 -0.57056184807E+02 -0.43622439595E+01 -0.16841751489E+03  0.17787326027E+03  0.00000000000E+00 0. -1.
<scales pt_clust_5="13000.00000" pt_clust_6="13000.00000" pt_clust_7="13000.00000" pt_clust_8="13000.00000" pt_clust_9="42.83465" pt_clust_10="56.17042"></scales>
<clustering>
<clus scale="   42.835">  1  9  2 -1</clus>
<clus scale="   56.170">  1 10  2 -1</clus>
<clus scale="   79.331">  5  6 -1 -1</clus>
<clus scale="   95.275">  7  8 -1 -1</clus>
<clus scale="   98.537">  1  5  2 -1</clus>
<clus scale="   42.835">  1  5  2 -1</clus>
</clustering>
</event>
<event>
10    3  0.7209067E-005  0.2189457E+03  0.7546771E-02  0.1161709E+00
         21   -1    0    0  503  502  0.00000000000E+00  0.00000000000E+00  0.57170988429E+03  0.57170988429E+03  0.00000000000E+00 0.  1.
         -2   -1    0    0    0  501 -0.00000000000E+00 -0.00000000000E+00 -0.16010036053E+03  0.16010036053E+03  0.00000000000E+00 0.  1.
         23    2    1    2    0    0  0.82548708717E+02  0.17352380253E+02  0.10559873083E+03  0.15410625396E+03  0.74042225416E+02 0.  0.
        -24    2    1    2    0    0  0.12877557044E+03 -0.88929743457E+02  0.30954368090E+02  0.17832334025E+03  0.79683084530E+02 0.  0.
         11    1    4    4    0    0  0.30124477835E+02 -0.11279153288E+02  0.41304140180E+02  0.52352033960E+02  0.00000000000E+00 0. -1.
        -12    1    4    4    0    0  0.98651092606E+02 -0.77650590169E+02 -0.10349772090E+02  0.12597130629E+03  0.00000000000E+00 0.  1.
        -13    1    3    3    0    0  0.82836554795E+01 -0.25283031103E+02  0.25203910997E+02  0.36648161474E+02  0.00000000000E+00 0.  1.
         13    1    3    3    0    0  0.74265053237E+02  0.42635411356E+02  0.80394819836E+02  0.11745809249E+03  0.00000000000E+00 0. -1.
         21    1    1    2  503  501  0.18495426411E+02 -0.22491210877E+02  0.75129961631E+02  0.80575719045E+02  0.00000000000E+00 0. -1.
         -1    1    1    2    0  502 -0.22981970557E+03  0.94068574081E+02  0.19992646320E+03  0.31880493156E+03  0.00000000000E+00 0.  1.
<scales pt_clust_5="13000.00000" pt_clust_6="13000.00000" pt_clust_7="13000.00000" pt_clust_8="13000.00000" pt_clust_9="29.11933" pt_clust_10="203.93098"></scales>
<clustering>
<clus scale="   29.119">  1  9  2 -1</clus>
<clus scale="   74.042">  7  8 -1 -1</clus>
<clus scale="   79.683">  5  6 -1 -1</clus>
<clus scale="  115.126">  2  7  1 -1</clus>
<clus scale="  203.931">  1 10  2 -1</clus>
<clus scale="   29.119">  1  5  2 -1</clus>
</clustering>
</event>
<event>
10    3  0.7209067E-005  0.2955699E+03  0.7546771E-02  0.1111287E+00
         21   -1    0    0  501  502  0.00000000000E+00  0.00000000000E+00  0.15157700149E+03  0.15157700149E+03  0.00000000000E+00 0. -1.
          1   -1    0    0  503    0 -0.00000000000E+00 -0.00000000000E+00 -0.30206549830E+04  0.30206549830E+04  0.00000000000E+00 0. -1.
         23    2    1    2    0    0  0.12099815091E+03 -0.17784611598E+03 -0.83276640037E+02  0.24803901222E+03  0.91206136397E+02 0.  0.
        -24    2    1    2    0    0 -0.24804475528E+02  0.30775673085E+03 -0.92915638433E+03  0.98243134669E+03  0.80686411672E+02 0.  0.
         11    1    4    4    0    0 -0.50615810997E+02  0.13976966303E+03 -0.46137981092E+03  0.48473585482E+03  0.00000000000E+00 0. -1.
        -12    1    4    4    0    0  0.25811335469E+02  0.16798706782E+03 -0.46777657341E+03  0.49769549187E+03  0.00000000000E+00 0.  1.
        -13    1    3    3    0    0  0.39429105300E+01 -0.78850574057E+02 -0.15666554988E+02  0.80488511712E+02  0.00000000000E+00 0.  1.
         13    1    3    3    0    0  0.11705524038E+03 -0.98995541923E+02 -0.67610085049E+02  0.16755050051E+03  0.00000000000E+00 0. -1.
         21    1    1    2  503  502 -0.80951380076E+02  0.89581683343E+02 -0.65904183831E+02  0.13755495401E+03  0.00000000000E+00 0. -1.
          2    1    1    2  501    0 -0.15242295309E+02 -0.21949229822E+03 -0.17907407733E+04  0.18042066716E+04  0.00000000000E+00 0. -1.
<scales pt_clust_5="13000.00000" pt_clust_6="13000.00000" pt_clust_7="13000.00000" pt_clust_8="13000.00000" pt_clust_9="120.73941" pt_clust_10="284.34368"></scales>
<clustering>
<clus scale="   80.686">  5  6 -1 -1</clus>
<clus scale="   91.206">  7  8 -1 -1</clus>
<clus scale="  120.739">  1  9  2 -1</clus>
<clus scale="  159.226">  2  7  1 -1</clus>
<clus scale="  284.344">  1 10  2 -1</clus>
<clus scale="  120.739">  1  5  2 -1</clus>
</clustering>
</event>
<event>
10    3  0.7209067E-005  0.9866796E+02  0.7546771E-02  0.1288295E+00
          1   -1    0    0  503    0 -0.00000000000E+00  0.00000000000E+00  0.63150514303E+03  0.63150514303E+03  0.00000000000E+00 0. -1.
         21   -1    0    0  501  502  0.00000000000E+00 -0.00000000000E+00 -0.11104299049E+03  0.11104299049E+03  0.00000000000E+00 0. -1.
         23    2    1    2    0    0 -0.11568664115E+02 -0.38179229880E+02  0.38061359377E+03  0.39353932322E+03  0.91733328571E+02 0.  0.
        -24    2    1    2    0    0 -0.16493993109E+02  0.31806837088E+02  0.12256195663E+03  0.15163942334E+03  0.81788475980E+02 0.  0.
         13    1    4    4    0    0 -0.17498638982E+02  0.58516166539E+02  0.97182106662E+02  0.11478112200E+03  0.00000000000E+00 0. -1.
        -14    1    4    4    0    0  0.10046458725E+01 -0.26709329451E+02  0.25379849966E+02  0.36858301336E+02  0.00000000000E+00 0.  1.
        -11    1    3    3    0    0  0.24509935815E+02  0.19954505703E+02  0.11803620852E+03  0.12219437702E+03  0.00000000000E+00 0.  1.
         11    1    3    3    0    0 -0.36078599930E+02 -0.58133735582E+02  0.26257738525E+03  0.27134494620E+03  0.00000000000E+00 0. -1.
         21    1    1    2  503  502 -0.76061332126E+02  0.38141352245E+02 -0.84457978754E+01  0.85506844741E+02  0.00000000000E+00 0. -1.
          2    1    1    2  501    0  0.10412398935E+03 -0.31768959453E+02  0.25732400014E+02  0.11186254223E+03  0.00000000000E+00 0. -1.
<scales pt_clust_5="13000.00000" pt_clust_6="13000.00000" pt_clust_7="13000.00000" pt_clust_8="13000.00000" pt_clust_9="85.08871" pt_clust_10="53.34963"></scales>
<clustering>
<clus scale="   81.788">  5  6 -1 -1</clus>
<clus scale="   85.089">  2  9  1 -1</clus>
<clus scale="   53.350">  2 10  1 -1</clus>
<clus scale="   89.497">  2  5  1 -1</clus>
<clus scale="   91.733">  7  8 -1 -1</clus>
<clus scale="   85.089">  2  5  1 -1</clus>
</clustering>
</event>
<event>
10    3  0.7209067E-005  0.1546194E+03  0.7546771E-02  0.1220898E+00
         21   -1    0    0  501  502  0.00000000000E+00  0.00000000000E+00  0.22021341258E+03  0.22021341258E+03  0.00000000000E+00 0.  1.
          1   -1    0    0  503    0 -0.00000000000E+00 -0.00000000000E+00 -0.30489319270E+03  0.30489319270E+03  0.00000000000E+00 0. -1.
        -24    2    1    2    0    0  0.32453100986E+02 -0.25089186099E+02 -0.68778197389E+02  0.11278479497E+03  0.79418502369E+02 0.  0.
         23    2    1    2    0    0 -0.58321779729E+02  0.10009400503E+03  0.12847638245E+03  0.19519053898E+03  0.90404235672E+02 0.  0.
         13    1    3    3    0    0  0.41353167207E+02  0.17313039935E+02 -0.25640948817E+02  0.51645755354E+02  0.00000000000E+00 0. -1.
        -14    1    3    3    0    0 -0.89000662208E+01 -0.42402226033E+02 -0.43137248572E+02  0.61139039620E+02  0.00000000000E+00 0.  1.
        -11    1    4    4    0    0 -0.79740773950E+02  0.91139271845E+02  0.11997640760E+03  0.17046787464E+03  0.00000000000E+00 0.  1.
         11    1    4    4    0    0  0.21418994221E+02  0.89547331850E+01  0.84999748446E+01  0.24722664343E+02  0.00000000000E+00 0. -1.
         21    1    1    2  503  502 -0.42841709945E+01  0.21084514975E+02  0.16649061104E+02  0.27204818111E+02  0.00000000000E+00 0.  1.
          2    1    1    2  501    0  0.30152849737E+02 -0.96089333906E+02 -0.16102702628E+03  0.18992645321E+03  0.00000000000E+00 0. -1.
<scales pt_clust_5="13000.00000" pt_clust_6="13000.00000" pt_clust_7="13000.00000" pt_clust_8="13000.00000" pt_clust_9="21.51536" pt_clust_10="125.43619"></scales>
<clustering>
<clus scale="   21.515">  1  9  2 -1</clus>
<clus scale="   79.419">  5  6 -1 -1</clus>
<clus scale="   88.586">  2  5  1 -1</clus>
<clus scale="   90.404">  7  8 -1 -1</clus>
<clus scale="  125.436">  1 10  2 -1</clus>
<clus scale="   21.515">  1  5  2 -1</clus>
</clustering>
</event>
<event>
10    3  0.7209067E-005  0.4371175E+03  0.7546771E-02  0.1068396E+00
          1   -1    0    0  503    0 -0.00000000000E+00  0.00000000000E+00  0.10241730018E+04  0.10241730018E+04  0.00000000000E+00 0. -1.
         21   -1    0    0  501  502  0.00000000000E+00 -0.00000000000E+00 -0.37350749963E+03  0.37350749963E+03  0.00000000000E+00 0. -1.
        -24    2    1    2    0    0 -0.43981762227E+02  0.12639535159E+03 -0.61846954865E+02  0.16832000982E+03  0.81218221881E+02 0.  0.
         23    2    1    2    0    0 -0.22863187960E+03 -0.40780885093E+03  0.24488351095E+03  0.53566131544E+03  0.91567000878E+02 0.  0.
         13    1    3    3    0    0 -0.56828623310E+02  0.13099492390E+03 -0.58196976645E+02  0.15419484624E+03  0.00000000000E+00 0. -1.
        -14    1    3    3    0    0  0.12846861083E+02 -0.45995723098E+01 -0.36499782199E+01  0.14125163578E+02  0.00000000000E+00 0.  1.
        -11    1    4    4    0    0 -0.12366467179E+03 -0.30648845667E+03  0.16753337823E+03  0.37053415219E+03  0.00000000000E+00 0. -1.
         11    1    4    4    0    0 -0.10496720781E+03 -0.10132039427E+03  0.77350132716E+02  0.16512716324E+03  0.00000000000E+00 0.  1.
         21    1    1    2  503  502  0.26186114014E+02 -0.37094360411E+01 -0.48135897913E+02  0.54923011123E+02  0.00000000000E+00 0. -1.
          2    1    1    2  501    0  0.24642752781E+03  0.28512293538E+03  0.51576484399E+03  0.63877616505E+03  0.00000000000E+00 0. -1.
<scales pt_clust_5="13000.00000" pt_clust_6="13000.00000" pt_clust_7="13000.00000" pt_clust_8="13000.00000" pt_clust_9="26.44754" pt_clust_10="427.41943"></scales>
<clustering>
<clus scale="   26.448">  2  9  1 -1</clus>
<clus scale="   81.218">  5  6 -1 -1</clus>
<clus scale="   91.567">  7  8 -1 -1</clus>
<clus scale="  153.093">  1  5  2 -1</clus>
<clus scale="  427.419">  2 10  1 -1</clus>
<clus scale="   26.448">  2  5  1 -1</clus>
</clustering>
</event>
<event>
10    3  0.7209067E-005  0.1227060E+03  0.7546771E-02  0.1249630E+00
         21   -1    0    0  501  502  0.00000000000E+00  0.00000000000E+00  0.15222041823E+03  0.15222041823E+03  0.00000000000E+00 0. -1.
          3   -1    0    0  503    0 -0.00000000000E+00 -0.00000000000E+00 -0.98111242440E+03  0.98111242440E+03  0.00000000000E+00 0. -1.
        -24    2    1    2    0    0 -0.66206995711E+02  0.26463960950E+02 -0.59210015915E+03  0.60180896418E+03  0.80670461669E+02 0.  0.
         23    2    1    2    0    0 -0.81340695818E+01 -0.58603343992E+02 -0.34927216945E+03  0.37063268440E+03  0.10898175708E+03 0.  0.
         11    1    3    3    0    0 -0.21582032857E+02 -0.24871877343E+02 -0.10669694864E+03  0.11166303450E+03  0.00000000000E+00 0. -1.
        -12    1    3    3    0    0 -0.44624962855E+02  0.51335838293E+02 -0.48540321051E+03  0.49014592968E+03  0.00000000000E+00 0.  1.
        -11    1    4    4    0    0 -0.51966208298E+02 -0.50844118534E+01 -0.11375488192E+03  0.12516593470E+03  0.00000000000E+00 0.  1.
         11    1    4    4    0    0  0.43832138717E+02 -0.53518932139E+02 -0.23551728753E+03  0.24546674970E+03  0.00000000000E+00 0. -1.
         21    1    1    2  503  502  0.23285527256E+02  0.42735250395E+02  0.93487322408E+02  0.10539637971E+03  0.00000000000E+00 0. -1.
          4    1    1    2  501    0  0.51055538037E+02 -0.10595867352E+02  0.18993000020E+02  0.55494814343E+02  0.00000000000E+00 0. -1.
<scales pt_clust_5="13000.00000" pt_clust_6="13000.00000" pt_clust_7="13000.00000" pt_clust_8="13000.00000" pt_clust_9="48.66742" pt_clust_10="70.26493"></scales>
<clustering>
<clus scale="   48.667">  1  9  2 -1</clus>
<clus scale="   70.265">  1 10  2 -1</clus>
<clus scale="   80.670">  5  6 -1 -1</clus>
<clus scale="   98.425">  2  5  1 -1</clus>
<clus scale="  108.982">  7  8 -1 -1</clus>
<clus scale="   48.667">  1  5  2 -1</clus>
</clustering>
</event>
<event>
10    3  0.7209067E-005  0.1749318E+03  0.7546771E-02  0.1186060E+00
         21   -1    0    0  501  502  0.00000000000E+00  0.00000000000E+00  0.16366492783E+03  0.16366492783E+03  0.00000000000E+00 0. -1.
          1   -1    0    0  503    0 -0.00000000000E+00 -0.00000000000E+00 -0.80826007714E+03  0.80826007714E+03  0.00000000000E+00 0. -1.
        -24    2    1    2    0    0 -0.68141260046E+01 -0.11208608435E+03 -0.34769597741E+03  0.37316305775E+03  0.75818548789E+02 0.  0.
         23    2    1    2    0    0 -0.62940748926E+01 -0.13727509897E+03 -0.79003869072E+02  0.18471389337E+03  0.94834291798E+02 0.  0.
         11    1    3    3    0    0  0.32306034106E+02 -0.73160813898E+02 -0.21836384278E+03  0.23254881716E+03  0.00000000000E+00 0. -1.
        -12    1    3    3    0    0 -0.39120160110E+02 -0.38925270454E+02 -0.12933213463E+03  0.14061424059E+03  0.00000000000E+00 0.  1.
        -11    1    4    4    0    0  0.36688524729E+02 -0.10642449483E+03 -0.64977823282E+02  0.12997822304E+03  0.00000000000E+00 0.  1.
         11    1    4    4    0    0 -0.42982599621E+02 -0.30850604134E+02 -0.14026045790E+02  0.54735670327E+02  0.00000000000E+00 0. -1.
         21    1    1    2  503  502  0.82527271070E+02  0.55483495588E+02  0.17840767825E+02  0.10103198379E+03  0.00000000000E+00 0. -1.
          2    1    1    2  501    0 -0.69419070173E+02  0.19387768773E+03 -0.23573607065E+03  0.31301607005E+03  0.00000000000E+00 0. -1.
<scales pt_clust_5="13000.00000" pt_clust_6="13000.00000" pt_clust_7="13000.00000" pt_clust_8="13000.00000" pt_clust_9="99.44430" pt_clust_10="146.99528"></scales>
<clustering>
<clus scale="   75.819">  5  6 -1 -1</clus>
<clus scale="   94.834">  7  8 -1 -1</clus>
<clus scale="   99.444">  1  9  2 -1</clus>
<clus scale="  129.803">  2  5  1 -1</clus>
<clus scale="  146.995">  1 10  2 -1</clus>
<clus scale="   99.444">  1  5  2 -1</clus>
</clustering>
</event>
<event>
10    3  0.7209067E-005  0.2647337E+03  0.7546771E-02  0.1138561E+00
          1   -1    0    0  502    0 -0.00000000000E+00  0.00000000000E+00  0.16595655468E+04  0.16595655468E+04  0.00000000000E+00 0. -1.
         21   -1    0    0  503  502  0.00000000000E+00 -0.00000000000E+00 -0.48686947712E+03  0.48686947712E+03  0.00000000000E+00 0. -1.
        -24    2    1    2    0    0 -0.20242070775E+02  0.36895927809E+02  0.11297057588E+04  0.11353256794E+04  0.10468164099E+03 0.  0.
         23    2    1    2    0    0 -0.89789198440E+02  0.19569506566E+03  0.44835220212E+03  0.50583436027E+03  0.92141434786E+02 0.  0.
         11    1    3    3    0    0 -0.50534061135E+02  0.10004239625E+02  0.28292541165E+03  0.28757705872E+03  0.00000000000E+00 0. -1.
        -12    1    3    3    0    0  0.30291990360E+02  0.26891688185E+02  0.84678034711E+03  0.84774862065E+03  0.00000000000E+00 0.  1.
        -11    1    4    4    0    0 -0.10880030337E+01  0.85878295226E+02  0.23313158111E+03  0.24844838388E+03  0.00000000000E+00 0. -1.
         11    1    4    4    0    0 -0.88701195406E+02  0.10981677043E+03  0.21522062101E+03  0.25738597639E+03  0.00000000000E+00 0.  1.
         21    1    1    2  503  501 -0.16880693962E+02 -0.50045866280E+02 -0.18442349878E+03  0.19183736201E+03  0.00000000000E+00 0. -1.
          2    1    1    2  501    0  0.12691196318E+03 -0.18254512719E+03 -0.22093839237E+03  0.31343762231E+03  0.00000000000E+00 0. -1.
<scales pt_clust_5="13000.00000" pt_clust_6="13000.00000" pt_clust_7="13000.00000" pt_clust_8="13000.00000" pt_clust_9="52.81616" pt_clust_10="248.18113"></scales>
<clustering>
<clus scale="   52.816">  2  9  1 -1</clus>
<clus scale="   92.141">  7  8 -1 -1</clus>
<clus scale="  104.682">  5  6 -1 -1</clus>
<clus scale="  112.700">  1  5  2 -1</clus>
<clus scale="  248.181">  2 10  1 -1</clus>
<clus scale="   52.816">  2  5  1 -1</clus>
</clustering>
</event>
<event>
10    3  0.7209067E-005  0.1246943E+03  0.7546771E-02  0.1239518E+00
         21   -1    0    0  503  502  0.00000000000E+00  0.00000000000E+00  0.27425266695E+03  0.27425266695E+03  0.00000000000E+00 0. -1.
         -4   -1    0    0    0  501 -0.00000000000E+00 -0.00000000000E+00 -0.35355305205E+03  0.35355305205E+03  0.00000000000E+00 0.  1.
         23    2    1    2    0    0  0.58318256103E+02  0.63147946735E+02 -0.25953725886E+03  0.28899098714E+03  0.93635034797E+02 0.  0.
        -24    2    1    2    0    0 -0.63169868980E+02 -0.37339702165E+02 -0.16968449178E+02  0.11007008227E+03  0.80267110572E+02 0.  0.
         13    1    4    4    0    0 -0.51817346551E+02  0.15097091916E+02 -0.59316651583E+00  0.53975100134E+02  0.00000000000E+00 0. -1.
        -14    1    4    4    0    0 -0.11352522429E+02 -0.52436794081E+02 -0.16375282662E+02  0.56094982140E+02  0.00000000000E+00 0.  1.
        -13    1    3    3    0    0  0.34656236892E+02  0.83033112310E+02 -0.14757446581E+03  0.17284031779E+03  0.00000000000E+00 0.  1.
         13    1    3    3    0    0  0.23662019212E+02 -0.19885165575E+02 -0.11196279305E+03  0.11615066935E+03  0.00000000000E+00 0. -1.
         21    1    1    2  503  501 -0.19252327738E+02  0.37907020852E+02  0.11105533297E+03  0.11891543775E+03  0.00000000000E+00 0. -1.
         -3    1    1    2    0  502  0.24103940614E+02 -0.63715265422E+02  0.86149989966E+02  0.10982921183E+03  0.00000000000E+00 0.  1.
<scales pt_clust_5="13000.00000" pt_clust_6="13000.00000" pt_clust_7="13000.00000" pt_clust_8="13000.00000" pt_clust_9="42.51581" pt_clust_10="42.21214"></scales>
<clustering>
<clus scale="   42.516">  1  9  2 -1</clus>
<clus scale="   42.212">  1 10  2 -1</clus>
<clus scale="   80.267">  5  6 -1 -1</clus>
<clus scale="   93.635">  7  8 -1 -1</clus>
<clus scale="  114.996">  1  5  2 -1</clus>
<clus scale="   42.516">  1  5  2 -1</clus>
</clustering>
</event>
<event>
10    3  0.7209067E-005  0.1022926E+03  0.7546771E-02  0.1282642E+00
          1   -1    0    0  502    0 -0.00000000000E+00  0.00000000000E+00  0.96058640748E+03  0.96058640748E+03  0.00000000000E+00 0. -1.
         21   -1    0    0  503  502  0.00000000000E+00 -0.00000000000E+00 -0.48087920112E+02  0.48087920112E+02  0.00000000000E+00 0.  1.
        -24    2    1    2    0    0  0.14549741830E+02 -0.41610672306E+02  0.47855508565E+03  0.48685227474E+03  0.77891105923E+02 0.  0.
         23    2    1    2    0    0 -0.46756231826E+02  0.25171627340E+02  0.21832017330E+03  0.24296018981E+03  0.92445658233E+02 0.  0.
         13    1    3    3    0    0  0.80620402225E+01 -0.52214838152E+02  0.16941155888E+03  0.17745890256E+03  0.00000000000E+00 0. -1.
        -14    1    3    3    0    0  0.64877016080E+01  0.10604165847E+02  0.30914352677E+03  0.30939337218E+03  0.00000000000E+00 0.  1.
        -13    1    4    4    0    0  0.16003410216E+02  0.27333684036E+02  0.13476916579E+03  0.13844120582E+03  0.00000000000E+00 0.  1.
         13    1    4    4    0    0 -0.62759642042E+02 -0.21620566967E+01  0.83551007508E+02  0.10451898399E+03  0.00000000000E+00 0. -1.
         21    1    1    2  503  501  0.15809199732E+00 -0.33344268713E+02 -0.17972403524E+02  0.37879711423E+02  0.00000000000E+00 0.  1.
          2    1    1    2  501    0  0.32048397998E+02  0.49783313679E+02  0.23359563195E+03  0.24098215162E+03  0.00000000000E+00 0. -1.
<scales pt_clust_5="13000.00000" pt_clust_6="13000.00000" pt_clust_7="13000.00000" pt_clust_8="13000.00000" pt_clust_9="33.34464" pt_clust_10="54.18940"></scales>
<clustering>
<clus scale="   33.345">  2  9  1 -1</clus>
<clus scale="   54.189">  2 10  1 -1</clus>
<clus scale="   77.891">  5  6 -1 -1</clus>
<clus scale="   89.357">  1  5  2 -1</clus>
<clus scale="   92.446">  7  8 -1 -1</clus>
<clus scale="   33.345">  2  5  1 -1</clus>
</clustering>
</event>
<event>
10    3  0.7209067E-005  0.1134928E+03  0.7546771E-02  0.1258970E+00
         21   -1    0    0  503  502  0.00000000000E+00  0.00000000000E+00  0.60065434919E+03  0.60065434919E+03  0.00000000000E+00 0. -1.
         -4   -1    0    0    0  501 -0.00000000000E+00 -0.00000000000E+00 -0.67176814222E+02  0.67176814222E+02  0.00000000000E+00 0.  1.
         23    2    1    2    0    0 -0.23509964933E+01 -0.46615828897E+02  0.10750464076E+03  0.14923153334E+03  0.92380950786E+02 0.  0.
        -24    2    1    2    0    0 -0.81049907219E+02  0.90710943113E+02  0.24419092784E+03  0.28418756775E+03  0.79597749723E+02 0.  0.
         11    1    4    4    0    0 -0.94692152067E+02  0.90209319307E+02  0.21029087940E+03  0.24764203785E+03  0.00000000000E+00 0. -1.
        -12    1    4    4    0    0  0.13642244847E+02  0.50162380604E+00  0.33900048443E+02  0.36545529896E+02  0.00000000000E+00 0.  1.
        -11    1    3    3    0    0  0.30595665121E+02  0.14646931813E+02  0.33814307410E+02  0.47896082526E+02  0.00000000000E+00 0. -1.
         11    1    3    3    0    0 -0.32946661614E+02 -0.61262760710E+02  0.73690333353E+02  0.10133545081E+03  0.00000000000E+00 0.  1.
         21    1    1    2  503  501 -0.60688117095E+00 -0.61021831974E+02  0.91038047843E+02  0.10959908046E+03  0.00000000000E+00 0. -1.
         -3    1    1    2    0  502  0.84007784884E+02  0.16926717758E+02  0.90743918524E+02  0.12481298187E+03  0.00000000000E+00 0.  1.
<scales pt_clust_5="13000.00000" pt_clust_6="13000.00000" pt_clust_7="13000.00000" pt_clust_8="13000.00000" pt_clust_9="61.02485" pt_clust_10="83.96231"></scales>
<clustering>
<clus scale="   61.025">  1  9  2 -1</clus>
<clus scale="   79.598">  5  6 -1 -1</clus>
<clus scale="   83.962">  1 10  2 -1</clus>
<clus scale="   92.381">  7  8 -1 -1</clus>
<clus scale="  103.355">  1  5  2 -1</clus>
<clus scale="   61.025">  1  5  2 -1</clus>
</clustering>
</event>
<event>
10    3  0.7209067E-005  0.2193115E+03  0.7546771E-02  0.1150517E+00
         21   -1    0    0  501  502  0.00000000000E+00  0.00000000000E+00  0.75373593390E+03  0.75373593390E+03  0.00000000000E+00 0. -1.
          3   -1    0    0  503    0 -0.00000000000E+00 -0.00000000000E+00 -0.24683957268E+03  0.24683957268E+03  0.00000000000E+00 0. -1.
        -24    2    1    2    0    0 -0.10742339418E+03  0.18515473830E+02  0.17421124580E+03  0.22321400832E+03  0.87133959846E+02 0.  0.
         23    2    1    2    0    0 -0.45005851572E+02  0.11211970296E+03 -0.15388381923E+03  0.21559607709E+03  0.90581919663E+02 0.  0.
         11    1    3    3    0    0 -0.11691234873E+03  0.31793290188E+02  0.13891649246E+03  0.18432878903E+03  0.00000000000E+00 0. -1.
        -12    1    3    3    0    0  0.94889545561E+01 -0.13277816358E+02  0.35294753346E+02  0.38885219294E+02  0.00000000000E+00 0.  1.
        -11    1    4    4    0    0  0.23978817342E+02  0.59644884433E+02 -0.68060488348E+02  0.93620115329E+02  0.00000000000E+00 0. -1.
         11    1    4    4    0    0 -0.68984668914E+02  0.52474818524E+02 -0.85823330882E+02  0.12197596176E+03  0.00000000000E+00 0.  1.
         21    1    1    2  503  502 -0.38249088130E+02  0.14683457497E+02  0.67087441435E+02  0.78608660242E+02  0.00000000000E+00 0.  1.
          4    1    1    2  501    0  0.19067833388E+03 -0.14531863428E+03  0.41948149321E+03  0.48315676092E+03  0.00000000000E+00 0. -1.
<scales pt_clust_5="13000.00000" pt_clust_6="13000.00000" pt_clust_7="13000.00000" pt_clust_8="13000.00000" pt_clust_9="40.97068" pt_clust_10="199.73095"></scales>
<clustering>
<clus scale="   40.971">  1  9  2 -1</clus>
<clus scale="   87.134">  5  6 -1 -1</clus>
<clus scale="   90.582">  7  8 -1 -1</clus>
<clus scale="  148.912">  2  5  1 -1</clus>
<clus scale="  199.731">  1 10  2 -1</clus>
<clus scale="   40.971">  1  5  2 -1</clus>
</clustering>
</event>
<event>
10    3  0.7209067E-005  0.9445168E+02  0.7546771E-02  0.1299695E+00
         21   -1    0    0  501  502  0.00000000000E+00  0.00000000000E+00  0.21111566227E+03  0.21111566227E+03  0.00000000000E+00 0. -1.
          1   -1    0    0  503    0 -0.00000000000E+00 -0.00000000000E+00 -0.30826822510E+03  0.30826822510E+03  0.00000000000E+00 0. -1.
         23    2    1    2    0    0  0.38014001555E+01  0.96369411833E+01 -0.12053776338E+03  0.15338959040E+03  0.94295772780E+02 0.  0.
        -24    2    1    2    0    0  0.62890506151E+02  0.41792614072E+02  0.14189392918E+03  0.18059888713E+03  0.82342167444E+02 0.  0.
         13    1    4    4    0    0  0.60930902147E+02  0.62422339160E+02  0.93065532887E+02  0.12755515150E+03  0.00000000000E+00 0. -1.
        -14    1    4    4    0    0  0.19596040041E+01 -0.20629725088E+02  0.48828396289E+02  0.53043735626E+02  0.00000000000E+00 0.  1.
        -13    1    3    3    0    0 -0.25000746523E+02  0.41148605627E+02 -0.41525511969E+02  0.63581547763E+02  0.00000000000E+00 0. -1.
         13    1    3    3    0    0  0.28802146678E+02 -0.31511664444E+02 -0.79012251413E+02  0.89808042639E+02  0.00000000000E+00 0.  1.
         21    1    1    2  503  502 -0.31876051005E+02  0.19710500948E+02  0.58752102983E+01  0.37935531779E+02  0.00000000000E+00 0. -1.
          2    1    1    2  501    0 -0.34815855301E+02 -0.71140056203E+02 -0.12438393892E+03  0.14745987806E+03  0.00000000000E+00 0. -1.
<scales pt_clust_5="13000.00000" pt_clust_6="13000.00000" pt_clust_7="13000.00000" pt_clust_8="13000.00000" pt_clust_9="37.47781" pt_clust_10="79.01024"></scales>
<clustering>
<clus scale="   37.478">  1  9  2 -1</clus>
<clus scale="   79.010">  1 10  2 -1</clus>
<clus scale="   82.342">  5  6 -1 -1</clus>
<clus scale="   82.521">  1  5  2 -1</clus>
<clus scale="   94.296">  7  8 -1 -1</clus>
<clus scale="   37.478">  1  5  2 -1</clus>
</clustering>
</event>
<event>
10    3  0.7209067E-005  0.1133833E+03  0.7546771E-02  0.1295600E+00
         21   -1    0    0  501  502  0.00000000000E+00  0.00000000000E+00  0.84401549740E+02  0.84401549740E+02  0.00000000000E+00 0. -1.
          3   -1    0    0  503    0 -0.00000000000E+00 -0.00000000000E+00 -0.30700993544E+03  0.30700993544E+03  0.00000000000E+00 0. -1.
        -24    2    1    2    0    0 -0.13211322287E+01 -0.10069720765E+02 -0.89478423317E+02  0.10312614675E+03  0.50254046978E+02 0.  0.
         23    2    1    2    0    0  0.75994825961E+02 -0.34898022107E+01 -0.70276720348E+02  0.14154682940E+03  0.96484688927E+02 0.  0.
         11    1    3    3    0    0 -0.17119556866E+02 -0.23229969601E+02 -0.38164952970E+02  0.47846361932E+02  0.00000000000E+00 0. -1.
        -12    1    3    3    0    0  0.15798424638E+02  0.13160248836E+02 -0.51313470348E+02  0.55279784819E+02  0.00000000000E+00 0.  1.
        -11    1    4    4    0    0  0.59233028561E+02 -0.39185928630E+02 -0.13303912789E+02  0.72257060351E+02  0.00000000000E+00 0. -1.
         11    1    4    4    0    0  0.16761797400E+02  0.35696126419E+02 -0.56972807559E+02  0.69289769047E+02  0.00000000000E+00 0.  1.
         21    1    1    2  503  502 -0.40963616603E+02  0.15802953397E+02  0.26450396951E+02  0.51257923486E+02  0.00000000000E+00 0. -1.
          4    1    1    2  501    0 -0.33710077129E+02 -0.22434304211E+01 -0.89303638988E+02  0.95480585549E+02  0.00000000000E+00 0. -1.
<scales pt_clust_5="13000.00000" pt_clust_6="13000.00000" pt_clust_7="13000.00000" pt_clust_8="13000.00000" pt_clust_9="59.55223" pt_clust_10="33.78466"></scales>
<clustering>
<clus scale="   33.785">  1 10  2 -1</clus>
<clus scale="   50.254">  5  6 -1 -1</clus>
<clus scale="   51.458">  2  5  1 -1</clus>
<clus scale="   59.552">  1  9  2 -1</clus>
<clus scale="   96.485">  7  8 -1 -1</clus>
<clus scale="   33.785">  1  5  2 -1</clus>
</clustering>
</event>
<event>
10    3  0.7209067E-005  0.9344308E+02  0.7546771E-02  0.1303340E+00
         21   -1    0    0  503  502  0.00000000000E+00  0.00000000000E+00  0.69061173955E+02  0.69061173955E+02  0.00000000000E+00 0. -1.
          1   -1    0    0  502    0 -0.00000000000E+00 -0.00000000000E+00 -0.32427110412E+03  0.32427110412E+03  0.00000000000E+00 0. -1.
        -24    2    1    2    0    0  0.12132471431E+02 -0.98203662237E+01 -0.21089099828E+03  0.22511116163E+03  0.77177622909E+02 0.  0.
         23    2    1    2    0    0 -0.14562775339E+02  0.52973070714E+02 -0.13499650384E+02  0.10741000786E+03  0.91304154235E+02 0.  0.
         11    1    3    3    0    0 -0.12015226115E+02 -0.33750862791E+02 -0.55601786816E+02  0.66144123661E+02  0.00000000000E+00 0. -1.
        -12    1    3    3    0    0  0.24147697546E+02  0.23930496567E+02 -0.15528921147E+03  0.15896703797E+03  0.00000000000E+00 0.  1.
        -11    1    4    4    0    0  0.11741036509E+02  0.49904986321E+02  0.27822276461E+02  0.58330426584E+02  0.00000000000E+00 0.  1.
         11    1    4    4    0    0 -0.26303811848E+02  0.30680843934E+01 -0.41321926845E+02  0.49079581271E+02  0.00000000000E+00 0. -1.
         21    1    1    2  503  501 -0.86785115522E+01 -0.18250482716E+02 -0.75476931662E+00  0.20222916676E+02  0.00000000000E+00 0.  1.
          2    1    1    2  501    0  0.11108815460E+02 -0.24902221774E+02 -0.30064512186E+02  0.40588191918E+02  0.00000000000E+00 0. -1.
<scales pt_clust_5="13000.00000" pt_clust_6="13000.00000" pt_clust_7="13000.00000" pt_clust_8="13000.00000" pt_clust_9="20.20883" pt_clust_10="28.46499"></scales>
<clustering>
<clus scale="   20.209">  1  9  2 -1</clus>
<clus scale="   28.465">  1 10  2 -1</clus>
<clus scale="   77.178">  5  6 -1 -1</clus>
<clus scale="   79.697">  2  5  1 -1</clus>
<clus scale="   91.304">  7  8 -1 -1</clus>
<clus scale="   20.209">  1  5  2 -1</clus>
</clustering>
</event>
<event>
10    3  0.7209067E-005  0.2253180E+03  0.7546771E-02  0.1129979E+00
          1   -1    0    0  503    0 -0.00000000000E+00  0.00000000000E+00  0.93355421586E+03  0.93355421586E+03  0.00000000000E+00 0. -1.
         21   -1    0    0  501  502  0.00000000000E+00 -0.00000000000E+00 -0.81258573511E+02  0.81258573511E+02  0.00000000000E+00 0. -1.
        -24    2    1    2    0    0  0.89996792051E+02  0.92693769983E+02  0.12571788590E+03  0.19391779642E+03  0.71467246747E+02 0.  0.
         23    2    1    2    0    0 -0.73201768231E+01  0.33782522407E+02  0.11483223737E+03  0.15015080864E+03  0.90354738589E+02 0.  0.
         11    1    3    3    0    0  0.73013428637E+02  0.10365055816E+03  0.11431909260E+03  0.17071395345E+03  0.00000000000E+00 0. -1.
        -12    1    3    3    0    0  0.16983363414E+02 -0.10956788172E+02  0.11398793299E+02  0.23203842970E+02  0.00000000000E+00 0.  1.
        -11    1    4    4    0    0 -0.56708897409E+01 -0.28660144836E+02  0.16210972803E+02  0.33411951929E+02  0.00000000000E+00 0.  1.
         11    1    4    4    0    0 -0.16492870822E+01  0.62442667243E+02  0.98621264570E+02  0.11673885671E+03  0.00000000000E+00 0. -1.
         21    1    1    2  503  502  0.31278853683E+02 -0.10898343745E+03  0.11771613969E+03  0.16344064937E+03  0.00000000000E+00 0. -1.
          2    1    1    2  501    0 -0.11395546891E+03 -0.17492854944E+02  0.49402937939E+03  0.50730353494E+03  0.00000000000E+00 0. -1.
<scales pt_clust_5="13000.00000" pt_clust_6="13000.00000" pt_clust_7="13000.00000" pt_clust_8="13000.00000" pt_clust_9="113.38323" pt_clust_10="114.37243"></scales>
<clustering>
<clus scale="   71.467">  5  6 -1 -1</clus>
<clus scale="   90.355">  7  8 -1 -1</clus>
<clus scale="   96.100">  5  7 -1 -1</clus>
<clus scale="  113.383">  2  9  1 -1</clus>
<clus scale="  114.372">  2 10  1 -1</clus>
<clus scale="  113.383">  2  5  1 -1</clus>
</clustering>
</event>
<event>
10    3  0.7209067E-005  0.1419069E+03  0.7546771E-02  0.1213519E+00
         21   -1    0    0  501  502  0.00000000000E+00  0.00000000000E+00  0.52803894910E+02  0.52803894910E+02  0.00000000000E+00 0.  1.
          1   -1    0    0  503    0 -0.00000000000E+00 -0.00000000000E+00 -0.93509624669E+03  0.93509624669E+03  0.00000000000E+00 0. -1.
        -24    2    1    2    0    0 -0.84396300898E+02 -0.67953449611E+02 -0.56276582371E+03  0.57829629378E+03  0.77335788268E+02 0.  0.
         23    2    1    2    0    0  0.86923923009E+02  0.72604776946E+02 -0.12981260620E+03  0.19460194171E+03  0.90506248184E+02 0.  0.
         13    1    3    3    0    0 -0.84556901381E+02 -0.77307875217E+02 -0.55311006720E+03  0.56485141726E+03  0.00000000000E+00 0. -1.
        -14    1    3    3    0    0  0.16060048309E+00  0.93544256068E+01 -0.96557565115E+01  0.13444876524E+02  0.00000000000E+00 0.  1.
        -13    1    4    4    0    0  0.43301025717E+02  0.81219678055E+02 -0.54003480984E+02  0.10671452989E+03  0.00000000000E+00 0.  1.
         13    1    4    4    0    0  0.43622897292E+02 -0.86149011085E+01 -0.75809125219E+02  0.87887411816E+02  0.00000000000E+00 0. -1.
         21    1    1    2  503  502  0.47353987610E+01  0.27001860988E+02 -0.55164781515E+01  0.27963476705E+02  0.00000000000E+00 0. -1.
          2    1    1    2  501    0 -0.72630208720E+01 -0.31653188324E+02 -0.18419744371E+03  0.18703842940E+03  0.00000000000E+00 0. -1.
<scales pt_clust_5="13000.00000" pt_clust_6="13000.00000" pt_clust_7="13000.00000" pt_clust_8="13000.00000" pt_clust_9="27.41395" pt_clust_10="31.54056"></scales>
<clustering>
<clus scale="   27.414">  1  9  2 -1</clus>
<clus scale="   31.541">  1 10  2 -1</clus>
<clus scale="   77.336">  5  6 -1 -1</clus>
<clus scale="   90.506">  7  8 -1 -1</clus>
<clus scale="  133.892">  2  5  1 -1</clus>
<clus scale="   27.414">  1  5  2 -1</clus>
</clustering>
</event>
<event>
10    3  0.7209067E-005  0.1871652E+03  0.7546771E-02  0.1162183E+00
         21   -1    0    0  503  502  0.00000000000E+00  0.00000000000E+00  0.50985832226E+03  0.50985832226E+03  0.00000000000E+00 0.  1.
          1   -1    0    0  502    0 -0.00000000000E+00 -0.00000000000E+00 -0.23465133083E+03  0.23465133083E+03  0.00000000000E+00 0. -1.
         23    2    1    2    0    0 -0.42959061894E+02  0.17385390373E+03 -0.10813264548E+03  0.22794442648E+03  0.90528071345E+02 0.  0.
        -24    2    1    2    0    0 -0.31091863689E+02 -0.12708314859E+03  0.14352636061E+03  0.21001647450E+03  0.79939181417E+02 0.  0.
         11    1    4    4    0    0 -0.38725999831E+02 -0.67077356204E+02  0.33352817217E+02  0.84329622284E+02  0.00000000000E+00 0. -1.
        -12    1    4    4    0    0  0.76341361426E+01 -0.60005792388E+02  0.11017354340E+03  0.12568685221E+03  0.00000000000E+00 0.  1.
        -13    1    3    3    0    0 -0.65658284909E+02  0.11544521253E+03 -0.48350996273E+02  0.14133798610E+03  0.00000000000E+00 0.  1.
         13    1    3    3    0    0  0.22699223015E+02  0.58408691204E+02 -0.59781649206E+02  0.86606440381E+02  0.00000000000E+00 0. -1.
         21    1    1    2  503  501  0.25766819651E+02  0.12703165556E+02  0.22708190838E+03  0.22889187954E+03  0.00000000000E+00 0.  1.
          2    1    1    2  501    0  0.48284105932E+02 -0.59473920696E+02  0.12731367917E+02  0.77656872572E+02  0.00000000000E+00 0. -1.
<scales pt_clust_5="13000.00000" pt_clust_6="13000.00000" pt_clust_7="13000.00000" pt_clust_8="13000.00000" pt_clust_9="28.72802" pt_clust_10="77.75864"></scales>
<clustering>
<clus scale="   28.728">  1  9  2 -1</clus>
<clus scale="   77.759">  1 10  2 -1</clus>
<clus scale="   79.939">  5  6 -1 -1</clus>
<clus scale="   90.528">  7  8 -1 -1</clus>
<clus scale="  182.279">  1  5  2 -1</clus>
<clus scale="   28.728">  1  5  2 -1</clus>
</clustering>
</event>
<event>
10    3  0.7209067E-005  0.3461058E+03  0.7546771E-02  0.1113307E+00
          1   -1    0    0  502    0 -0.00000000000E+00  0.00000000000E+00  0.54330202323E+03  0.54330202323E+03  0.00000000000E+00 0. -1.
         21   -1    0    0  503  502  0.00000000000E+00 -0.00000000000E+00 -0.66320394443E+03  0.66320394443E+03  0.00000000000E+00 0. -1.
         23    2    1    2    0    0  0.22243222868E+02  0.91273034085E+01  0.59136375661E+02  0.11144730878E+03  0.91352739847E+02 0.  0.
        -24    2    1    2    0    0  0.16020565266E+02  0.32892367235E+03  0.33027793438E+03  0.47341916299E+03  0.81208061194E+02 0.  0.
         13    1    4    4    0    0  0.14634695980E+02  0.23290991428E+03  0.28169428269E+03  0.36580441686E+03  0.00000000000E+00 0. -1.
        -14    1    4    4    0    0  0.13858692867E+01  0.96013758066E+02  0.48583651691E+02  0.10761474612E+03  0.00000000000E+00 0.  1.
        -11    1    3    3    0    0 -0.35407139280E+02  0.10040157683E+02  0.23473006608E+02  0.43651487002E+02  0.00000000000E+00 0. -1.
         11    1    3    3    0    0  0.57650362148E+02 -0.91285427483E+00  0.35663369053E+02  0.67795821780E+02  0.00000000000E+00 0.  1.
         21    1    1    2  503  501 -0.19344367917E+02 -0.12212519795E+02 -0.74633096961E+02  0.78060549395E+02  0.00000000000E+00 0. -1.
          2    1    1    2  501    0 -0.18919420217E+02 -0.32583845596E+03 -0.43468313428E+03  0.54357894649E+03  0.00000000000E+00 0. -1.
<scales pt_clust_5="13000.00000" pt_clust_6="13000.00000" pt_clust_7="13000.00000" pt_clust_8="13000.00000" pt_clust_9="22.87685" pt_clust_10="336.44389"></scales>
<clustering>
<clus scale="   22.877">  2  9  1 -1</clus>
<clus scale="   81.208">  5  6 -1 -1</clus>
<clus scale="   91.353">  7  8 -1 -1</clus>
<clus scale="   94.213">  1  7  2 -1</clus>
<clus scale="  336.444">  2 10  1 -1</clus>
<clus scale="   22.877">  2  5  1 -1</clus>
</clustering>
</event>
<event>
10    3  0.7209067E-005  0.8785444E+02  0.7546771E-02  0.1314014E+00
         21   -1    0    0  503  502  0.00000000000E+00  0.00000000000E+00  0.35491851926E+02  0.35491851926E+02  0.00000000000E+00 0. -1.
          1   -1    0    0  502    0 -0.00000000000E+00 -0.00000000000E+00 -0.81768197553E+03  0.81768197553E+03  0.00000000000E+00 0. -1.
        -24    2    1    2    0    0  0.10503019580E+02  0.19746500781E+02 -0.25864670747E+03  0.27080705640E+03  0.77059099374E+02 0.  0.
         23    2    1    2    0    0 -0.18567457262E+02  0.17186423370E+01 -0.26939606707E+03  0.28344601263E+03  0.86137662651E+02 0.  0.
         11    1    3    3    0    0  0.17221020332E+02 -0.26965215597E+02 -0.12660771798E+03  0.13058790390E+03  0.00000000000E+00 0. -1.
        -12    1    3    3    0    0 -0.67180007527E+01  0.46711716377E+02 -0.13203898950E+03  0.14021915250E+03  0.00000000000E+00 0.  1.
        -13    1    4    4    0    0  0.91483947492E+01 -0.33890744441E+02 -0.62473561848E+02  0.71660460613E+02  0.00000000000E+00 0.  1.
         13    1    4    4    0    0 -0.27715852011E+02  0.35609386778E+02 -0.20692250522E+03  0.21178555202E+03  0.00000000000E+00 0. -1.
         21    1    1    2  503  501 -0.31764829357E+02  0.25630145991E+01  0.78544938053E+01  0.32821738236E+02  0.00000000000E+00 0. -1.
          2    1    1    2  501    0  0.39829267040E+02 -0.24028157717E+02 -0.26200184287E+03  0.26609902018E+03  0.00000000000E+00 0. -1.
<scales pt_clust_5="13000.00000" pt_clust_6="13000.00000" pt_clust_7="13000.00000" pt_clust_8="13000.00000" pt_clust_9="31.86806" pt_clust_10="42.70322"></scales>
<clustering>
<clus scale="   31.868">  1  9  2 -1</clus>
<clus scale="   42.703">  1 10  2 -1</clus>
<clus scale="   77.059">  5  6 -1 -1</clus>
<clus scale="   78.973">  2  5  1 -1</clus>
<clus scale="   86.138">  7  8 -1 -1</clus>
<clus scale="   31.868">  1  5  2 -1</clus>
</clustering>
</event>
<event>
10    3  0.7209067E-005  0.1660976E+03  0.7546771E-02  0.1183163E+00
          3   -1    0    0  503    0 -0.00000000000E+00  0.00000000000E+00  0.21855689270E+03  0.21855689270E+03  0.00000000000E+00 0. -1.
         21   -1    0    0  501  502  0.00000000000E+00 -0.00000000000E+00 -0.70854314243E+03  0.70854314243E+03  0.00000000000E+00 0.  1.
         23    2    1    2    0    0  0.14142637024E+03 -0.77014040403E+02 -0.14678148051E+03  0.23645600674E+03  0.91837135639E+02 0.  0.
        -24    2    1    2    0    0 -0.99584156610E+02  0.31442253194E+02 -0.28417097449E+03  0.31411730670E+03  0.83731237253E+02 0.  0.
         11    1    4    4    0    0 -0.10939146228E+03  0.44000793848E+02 -0.25152469877E+03  0.27778991337E+03  0.00000000000E+00 0. -1.
        -12    1    4    4    0    0  0.98073056667E+01 -0.12558540654E+02 -0.32646275717E+02  0.36327393328E+02  0.00000000000E+00 0.  1.
        -13    1    3    3    0    0  0.86242951936E+02 -0.67001282059E+02 -0.14342485442E+03  0.18027120520E+03  0.00000000000E+00 0.  1.
         13    1    3    3    0    0  0.55183418305E+02 -0.10012758344E+02 -0.33566260857E+01  0.56184801541E+02  0.00000000000E+00 0. -1.
         21    1    1    2  503  502  0.73550806304E+02  0.72617695987E+02 -0.17975387556E+03  0.20735116748E+03  0.00000000000E+00 0.  1.
          4    1    1    2  501    0 -0.11539301994E+03 -0.27045908778E+02  0.12072008083E+03  0.16917555422E+03  0.00000000000E+00 0. -1.
<scales pt_clust_5="13000.00000" pt_clust_6="13000.00000" pt_clust_7="13000.00000" pt_clust_8="13000.00000" pt_clust_9="103.35885" pt_clust_10="114.39986"></scales>
<clustering>
<clus scale="   83.731">  5  6 -1 -1</clus>
<clus scale="   91.837">  7  8 -1 -1</clus>
<clus scale="  103.359">  2  9  1 -1</clus>
<clus scale="  114.400">  2 10  1 -1</clus>
<clus scale="  161.757">  2  5  1 -1</clus>
<clus scale="  103.359">  2  5  1 -1</clus>
</clustering>
</event>
<event>
10    3  0.7209067E-005  0.2278900E+03  0.7546771E-02  0.1128683E+00
          3   -1    0    0  503    0 -0.00000000000E+00  0.00000000000E+00  0.27222619015E+03  0.27222619015E+03  0.00000000000E+00 0. -1.
         21   -1    0    0  501  502  0.00000000000E+00 -0.00000000000E+00 -0.62493747855E+03  0.62493747855E+03  0.00000000000E+00 0. -1.
        -24    2    1    2    0    0 -0.19012670780E+03 -0.11215201117E+03  0.57152466014E+02  0.24177477524E+03  0.80389047413E+02 0.  0.
         23    2    1    2    0    0  0.16019561973E+03  0.83571909889E+02 -0.21243233982E+03  0.29261267300E+03  0.88587678028E+02 0.  0.
         13    1    3    3    0    0 -0.19604580749E+03 -0.11559357344E+03  0.58038403766E+02  0.23487079249E+03  0.00000000000E+00 0. -1.
        -14    1    3    3    0    0  0.59190996919E+01  0.34415622741E+01 -0.88593775277E+00  0.69039827455E+01  0.00000000000E+00 0.  1.
        -13    1    4    4    0    0  0.13709075420E+03  0.40789822294E+02 -0.19306634452E+03  0.24027546249E+03  0.00000000000E+00 0. -1.
         13    1    4    4    0    0  0.23104865531E+02  0.42782087596E+02 -0.19365995299E+02  0.52337210512E+02  0.00000000000E+00 0.  1.
         21    1    1    2  503  502  0.81450562801E+02 -0.10635604804E+03 -0.16885299541E+03  0.21553917787E+03  0.00000000000E+00 0. -1.
          4    1    1    2  501    0 -0.51519474731E+02  0.13493614932E+03 -0.28578419186E+02  0.14723704259E+03  0.00000000000E+00 0. -1.
<scales pt_clust_5="13000.00000" pt_clust_6="13000.00000" pt_clust_7="13000.00000" pt_clust_8="13000.00000" pt_clust_9="133.96195" pt_clust_10="118.60447"></scales>
<clustering>
<clus scale="   80.389">  5  6 -1 -1</clus>
<clus scale="   88.588">  7  8 -1 -1</clus>
<clus scale="  133.962">  2  9  1 -1</clus>
<clus scale="  118.604">  2 10  1 -1</clus>
<clus scale="  224.830">  1  5  2 -1</clus>
<clus scale="  133.962">  2  5  1 -1</clus>
</clustering>
</event>
<event>
10    3  0.7209067E-005  0.1112190E+03  0.7546771E-02  0.1262513E+00
         21   -1    0    0  501  502  0.00000000000E+00  0.00000000000E+00  0.79321211834E+03  0.79321211834E+03  0.00000000000E+00 0.  1.
         -4   -1    0    0    0  501 -0.00000000000E+00 -0.00000000000E+00 -0.44882223702E+02  0.44882223702E+02  0.00000000000E+00 0.  1.
         23    2    1    2    0    0 -0.44331165147E+02 -0.33352519679E+02  0.11465651008E+03  0.15715653113E+03  0.92056597803E+02 0.  0.
        -24    2    1    2    0    0  0.94125753747E+02 -0.24179842011E+02  0.26239578432E+03  0.29136825943E+03  0.81237877233E+02 0.  0.
         13    1    4    4    0    0  0.50507305789E+02  0.26907508069E+02  0.14840253754E+03  0.15905444061E+03  0.00000000000E+00 0. -1.
        -14    1    4    4    0    0  0.43618447958E+02 -0.51087350080E+02  0.11399324678E+03  0.13231381882E+03  0.00000000000E+00 0.  1.
        -11    1    3    3    0    0 -0.71000720120E+02 -0.97619518229E+01  0.71946480879E+02  0.10155143560E+03  0.00000000000E+00 0. -1.
         11    1    3    3    0    0  0.26669554973E+02 -0.23590567856E+02  0.42710029203E+02  0.55605095529E+02  0.00000000000E+00 0.  1.
         21    1    1    2  503  502  0.23449869539E+02  0.11913925967E+02  0.14562387976E+03  0.14798024317E+03  0.00000000000E+00 0. -1.
         -3    1    1    2    0  503 -0.73244458140E+02  0.45618435724E+02  0.22565372048E+03  0.24158930831E+03  0.00000000000E+00 0.  1.
<scales pt_clust_5="13000.00000" pt_clust_6="13000.00000" pt_clust_7="13000.00000" pt_clust_8="13000.00000" pt_clust_9="26.30281" pt_clust_10="81.77716"></scales>
<clustering>
<clus scale="   26.303">  1  9  2 -1</clus>
<clus scale="   81.238">  5  6 -1 -1</clus>
<clus scale="   81.777">  1 10  2 -1</clus>
<clus scale="   92.057">  7  8 -1 -1</clus>
<clus scale="  102.444">  1  5  2 -1</clus>
<clus scale="   26.303">  1  5  2 -1</clus>
</clustering>
</event>
<event>
10    3  0.7209067E-005  0.1249978E+03  0.7546771E-02  0.1239109E+00
         21   -1    0    0  503  502  0.00000000000E+00  0.00000000000E+00  0.49604422276E+02  0.49604422276E+02  0.00000000000E+00 0. -1.
          3   -1    0    0  502    0 -0.00000000000E+00 -0.00000000000E+00 -0.76040017989E+03  0.76040017989E+03  0.00000000000E+00 0. -1.
        -24    2    1    2    0    0 -0.66031419406E+01  0.87223862738E+02 -0.32098669666E+03  0.34222114603E+03  0.80195072412E+02 0.  0.
         23    2    1    2    0    0 -0.38986440120E+02 -0.71717608626E+02 -0.15413809233E+03  0.19805627854E+03  0.93831658102E+02 0.  0.
         13    1    3    3    0    0 -0.81356738820E+01  0.88808376736E+02 -0.32534006364E+03  0.33734147977E+03  0.00000000000E+00 0. -1.
        -14    1    3    3    0    0  0.15325319414E+01 -0.15845139978E+01  0.43533669731E+01  0.48796662553E+01  0.00000000000E+00 0.  1.
        -13    1    4    4    0    0 -0.62094090236E+02 -0.28443939660E+02 -0.12071095450E+03  0.13869343273E+03  0.00000000000E+00 0. -1.
         13    1    4    4    0    0  0.23107650116E+02 -0.43273668966E+02 -0.33427137835E+02  0.59362845817E+02  0.00000000000E+00 0.  1.
         21    1    1    2  503  501  0.20791671886E+01 -0.47506014562E+02 -0.28076483796E+02  0.55221674170E+02  0.00000000000E+00 0. -1.
          4    1    1    2  501    0  0.43510414872E+02  0.31999760450E+02 -0.20759448482E+03  0.21450550342E+03  0.00000000000E+00 0. -1.
<scales pt_clust_5="13000.00000" pt_clust_6="13000.00000" pt_clust_7="13000.00000" pt_clust_8="13000.00000" pt_clust_9="47.55149" pt_clust_10="51.61120"></scales>
<clustering>
<clus scale="   47.551">  1  9  2 -1</clus>
<clus scale="   51.611">  1 10  2 -1</clus>
<clus scale="   80.195">  5  6 -1 -1</clus>
<clus scale="   93.832">  7  8 -1 -1</clus>
<clus scale="  115.114">  2  5  1 -1</clus>
<clus scale="   47.551">  1  5  2 -1</clus>
</clustering>
</event>
<event>
10    3  0.7209067E-005  0.1280950E+03  0.7546771E-02  0.1233539E+00
          1   -1    0    0  503    0 -0.00000000000E+00  0.00000000000E+00  0.87840842131E+03  0.87840842131E+03  0.00000000000E+00 0. -1.
         21   -1    0    0  501  502  0.00000000000E+00 -0.00000000000E+00 -0.74248161348E+02  0.74248161348E+02  0.00000000000E+00 0. -1.
         23    2    1    2    0    0 -0.35836877701E+02  0.61222250151E+02  0.41402551866E+03  0.43003105065E+03  0.92071324025E+02 0.  0.
        -24    2    1    2    0    0 -0.21198448174E+02 -0.17081352571E+03  0.30282774762E+03  0.35744362250E+03  0.80216355995E+02 0.  0.
         11    1    4    4    0    0 -0.32136643109E+01 -0.16902381938E+03  0.25159335043E+03  0.30311481841E+03  0.00000000000E+00 0. -1.
        -12    1    4    4    0    0 -0.17984783863E+02 -0.17897063289E+01  0.51234397183E+02  0.54328804092E+02  0.00000000000E+00 0.  1.
        -13    1    3    3    0    0 -0.50511577276E+02  0.76855896847E+02  0.36699601667E+03  0.37834418797E+03  0.00000000000E+00 0. -1.
         13    1    3    3    0    0  0.14674699575E+02 -0.15633646696E+02  0.47029501986E+02  0.51686862680E+02  0.00000000000E+00 0.  1.
         21    1    1    2  503  502  0.97219558872E+01  0.32559663004E+02 -0.68376791745E+01  0.34661245472E+02  0.00000000000E+00 0. -1.
          2    1    1    2  501    0  0.47313369988E+02  0.77031612553E+02  0.94144672863E+02  0.13052066404E+03  0.00000000000E+00 0. -1.
<scales pt_clust_5="13000.00000" pt_clust_6="13000.00000" pt_clust_7="13000.00000" pt_clust_8="13000.00000" pt_clust_9="33.98011" pt_clust_10="101.60716"></scales>
<clustering>
<clus scale="   33.980">  2  9  1 -1</clus>
<clus scale="   80.216">  5  6 -1 -1</clus>
<clus scale="   92.071">  7  8 -1 -1</clus>
<clus scale="  101.607">  2 10  1 -1</clus>
<clus scale="  119.858">  2  5  1 -1</clus>
<clus scale="   33.980">  2  5  1 -1</clus>
</clustering>
</event>
<event>
10    3  0.7209067E-005  0.9634775E+02  0.7546771E-02  0.1293810E+00
         21   -1    0    0  501  502  0.00000000000E+00  0.00000000000E+00  0.31924353084E+02  0.31924353084E+02  0.00000000000E+00 0. -1.
          1   -1    0    0  503    0 -0.00000000000E+00 -0.00000000000E+00 -0.61749192194E+03  0.61749192194E+03  0.00000000000E+00 0. -1.
        -24    2    1    2    0    0  0.38868470917E+02 -0.22731283757E+02 -0.35867943114E+03  0.37141677158E+03  0.85276107995E+02 0.  0.
         23    2    1    2    0    0 -0.36131577585E+02  0.26019145639E+02 -0.10176188287E+03  0.13358255189E+03  0.74204652989E+02 0.  0.
         11    1    3    3    0    0  0.13504100690E+02  0.31203561592E+02 -0.90054055828E+02  0.96258796806E+02  0.00000000000E+00 0. -1.
        -12    1    3    3    0    0  0.25364370227E+02 -0.53934845349E+02 -0.26862537531E+03  0.27515797478E+03  0.00000000000E+00 0.  1.
        -13    1    4    4    0    0 -0.43599404491E+02  0.46262269235E+02 -0.85605298911E+02  0.10662726119E+03  0.00000000000E+00 0.  1.
         13    1    4    4    0    0  0.74678269051E+01 -0.20243123596E+02 -0.16156583963E+02  0.26955290704E+02  0.00000000000E+00 0. -1.
         21    1    1    2  503  502  0.14956401056E+02  0.18079835624E+02 -0.91770317372E+01  0.25195084844E+02  0.00000000000E+00 0. -1.
          2    1    1    2  501    0 -0.17693294388E+02 -0.21367697507E+02 -0.11594922310E+03  0.11922186670E+03  0.00000000000E+00 0. -1.
<scales pt_clust_5="13000.00000" pt_clust_6="13000.00000" pt_clust_7="13000.00000" pt_clust_8="13000.00000" pt_clust_9="23.46432" pt_clust_10="26.13678"></scales>
<clustering>
<clus scale="   23.464">  1  9  2 -1</clus>
<clus scale="   26.137">  1 10  2 -1</clus>
<clus scale="   74.205">  7  8 -1 -1</clus>
<clus scale="   85.276">  5  6 -1 -1</clus>
<clus scale="   86.702">  1  7  2 -1</clus>
<clus scale="   23.464">  1  5  2 -1</clus>
</clustering>
</event>
<event>
10    3  0.7209067E-005  0.1559468E+03  0.7546771E-02  0.1214215E+00
         21   -1    0    0  503  502  0.00000000000E+00  0.00000000000E+00  0.45955014202E+02  0.45955014202E+02  0.00000000000E+00 0. -1.
          1   -1    0    0  502    0 -0.00000000000E+00 -0.00000000000E+00 -0.99695302082E+03  0.99695302082E+03  0.00000000000E+00 0. -1.
         23    2    1    2    0    0 -0.27989935661E+02  0.25175112465E+02 -0.15889738559E+03  0.18743076048E+03  0.92003739275E+02 0.  0.
        -24    2    1    2    0    0 -0.71849594312E+02  0.80866499494E+02 -0.53992726063E+03  0.55662039015E+03  0.81259196529E+02 0.  0.
         11    1    4    4    0    0 -0.67131625911E+02  0.43247617799E+02 -0.47305732292E+03  0.47975018751E+03  0.00000000000E+00 0. -1.
        -12    1    4    4    0    0 -0.47179684007E+01  0.37618881695E+02 -0.66869937703E+02  0.76870202642E+02  0.00000000000E+00 0.  1.
        -11    1    3    3    0    0 -0.30331070148E+02 -0.27807875336E+02 -0.10021383557E+03  0.10833311861E+03  0.00000000000E+00 0.  1.
         11    1    3    3    0    0  0.23411344874E+01  0.52982987801E+02 -0.58683550016E+02  0.79097641871E+02  0.00000000000E+00 0. -1.
         21    1    1    2  503  501  0.47010090028E+02 -0.25648812383E+02 -0.43197577912E+02  0.68802913300E+02  0.00000000000E+00 0. -1.
          2    1    1    2  501    0  0.52829439945E+02 -0.80392799576E+02 -0.20897578249E+03  0.23005397110E+03  0.00000000000E+00 0. -1.
<scales pt_clust_5="13000.00000" pt_clust_6="13000.00000" pt_clust_7="13000.00000" pt_clust_8="13000.00000" pt_clust_9="50.11360" pt_clust_10="149.08933"></scales>
<clustering>
<clus scale="   50.114">  9 10 -1 -1</clus>
<clus scale="   81.259">  5  6 -1 -1</clus>
<clus scale="   92.004">  7  8 -1 -1</clus>
<clus scale="   99.408">  2  7  1 -1</clus>
<clus scale="  149.089">  1  9  2 -1</clus>
<clus scale="  149.089">  1  5  2 -1</clus>
</clustering>
</event>
<event>
10    3  0.7209067E-005  0.2895441E+03  0.7546771E-02  0.1138877E+00
         21   -1    0    0  501  502  0.00000000000E+00  0.00000000000E+00  0.64166836897E+03  0.64166836897E+03  0.00000000000E+00 0. -1.
          1   -1    0    0  503    0 -0.00000000000E+00 -0.00000000000E+00 -0.48803068972E+03  0.48803068972E+03  0.00000000000E+00 0. -1.
        -24    2    1    2    0    0  0.23386102953E+02 -0.11630571631E+02 -0.58174635503E+02  0.10340233439E+03  0.81397632241E+02 0.  0.
         23    2    1    2    0    0 -0.53412696831E+02 -0.25749159481E+03  0.19018112827E+01  0.27782589468E+03  0.89603422325E+02 0.  0.
         13    1    3    3    0    0  0.25421837631E+02 -0.42600384370E+02 -0.51788498519E+02  0.71715487559E+02  0.00000000000E+00 0. -1.
        -14    1    3    3    0    0 -0.20357346781E+01  0.30969812739E+02 -0.63861369841E+01  0.31686846835E+02  0.00000000000E+00 0.  1.
        -13    1    4    4    0    0 -0.49532315041E+02 -0.11740354451E+03 -0.36441911101E+02  0.13253322369E+03  0.00000000000E+00 0. -1.
         13    1    4    4    0    0 -0.38803817901E+01 -0.14008805029E+03  0.38343722384E+02  0.14529267099E+03  0.00000000000E+00 0.  1.
         21    1    1    2  503  502 -0.94850284320E+02  0.31794547253E+03  0.39757164785E+03  0.51783116468E+03  0.00000000000E+00 0. -1.
          2    1    1    2  501    0  0.12487687820E+03 -0.48823306098E+02 -0.18766114439E+03  0.23063966493E+03  0.00000000000E+00 0. -1.
<scales pt_clust_5="13000.00000" pt_clust_6="13000.00000" pt_clust_7="13000.00000" pt_clust_8="13000.00000" pt_clust_9="275.33076" pt_clust_10="147.44780"></scales>
<clustering>
<clus scale="   81.398">  5  6 -1 -1</clus>
<clus scale="   85.485">  2  5  1 -1</clus>
<clus scale="   89.603">  7  8 -1 -1</clus>
<clus scale="  147.448">  1 10  2 -1</clus>
<clus scale="  275.331">  1  9  2 -1</clus>
<clus scale="  147.448">  1  5  2 -1</clus>
</clustering>
</event>
<event>
10    3  0.7209067E-005  0.1593518E+03  0.7546771E-02  0.1191220E+00
          1   -1    0    0  503    0 -0.00000000000E+00  0.00000000000E+00  0.55263101351E+02  0.55263101351E+02  0.00000000000E+00 0. -1.
         21   -1    0    0  501  502  0.00000000000E+00 -0.00000000000E+00 -0.12698495758E+04  0.12698495758E+04  0.00000000000E+00 0. -1.
        -24    2    1    2    0    0 -0.89062886603E+02  0.13205243560E+03 -0.16014426000E+03  0.23942942287E+03  0.79436899508E+02 0.  0.
         23    2    1    2    0    0  0.97446075718E+01 -0.83318687828E+02 -0.37475998024E+03  0.39461548483E+03  0.90771013851E+02 0.  0.
         11    1    3    3    0    0 -0.99104448480E+02  0.87825603449E+02 -0.11403721920E+03  0.17475558845E+03  0.00000000000E+00 0. -1.
        -12    1    3    3    0    0  0.10041561876E+02  0.44226832153E+02 -0.46107040799E+02  0.64673834419E+02  0.00000000000E+00 0.  1.
        -11    1    4    4    0    0 -0.29891600898E+02 -0.21800103818E+00 -0.66712789575E+02  0.73103704568E+02  0.00000000000E+00 0.  1.
         11    1    4    4    0    0  0.39636208470E+02 -0.83100686790E+02 -0.30804719067E+03  0.32151178026E+03  0.00000000000E+00 0. -1.
         21    1    1    2  503  502  0.43104423003E+02 -0.58903808144E+02 -0.57910705554E+03  0.58368881407E+03  0.00000000000E+00 0. -1.
          2    1    1    2  501    0  0.36213856028E+02  0.10170060370E+02 -0.10057517866E+03  0.10737895538E+03  0.00000000000E+00 0. -1.
<scales pt_clust_5="13000.00000" pt_clust_6="13000.00000" pt_clust_7="13000.00000" pt_clust_8="13000.00000" pt_clust_9="81.47937" pt_clust_10="37.61480"></scales>
<clustering>
<clus scale="   37.615">  2 10  1 -1</clus>
<clus scale="   79.437">  5  6 -1 -1</clus>
<clus scale="   81.479">  2  9  1 -1</clus>
<clus scale="   90.771">  7  8 -1 -1</clus>
<clus scale="  153.179">  1  5  2 -1</clus>
<clus scale="   37.615">  2  5  1 -1</clus>
</clustering>
</event>
<event>
10    3  0.7209067E-005  0.1918167E+03  0.7546771E-02  0.1196548E+00
         21   -1    0    0  501  502  0.00000000000E+00  0.00000000000E+00  0.97209380357E+02  0.97209380357E+02  0.00000000000E+00 0. -1.
          1   -1    0    0  503    0 -0.00000000000E+00 -0.00000000000E+00 -0.85735074218E+03  0.85735074218E+03  0.00000000000E+00 0. -1.
        -24    2    1    2    0    0  0.12780831558E+02 -0.14997432748E+02 -0.29169398194E+02  0.83626773363E+02  0.75857173608E+02 0.  0.
         23    2    1    2    0    0 -0.84432093984E+02 -0.13020371242E+03 -0.14947831008E+03  0.23382944265E+03  0.90833131841E+02 0.  0.
         11    1    3    3    0    0  0.36586589732E+02 -0.12227396091E+02  0.80039184066E+01  0.39397340941E+02  0.00000000000E+00 0. -1.
        -12    1    3    3    0    0 -0.23805758174E+02 -0.27700366564E+01 -0.37173316601E+02  0.44229432422E+02  0.00000000000E+00 0.  1.
        -13    1    4    4    0    0 -0.26287657493E+02 -0.21249314294E+02 -0.91216505141E+02  0.97278081316E+02  0.00000000000E+00 0.  1.
         13    1    4    4    0    0 -0.58144436491E+02 -0.10895439813E+03 -0.58261804944E+02  0.13655136133E+03  0.00000000000E+00 0. -1.
         21    1    1    2  503  502 -0.51032407640E+02 -0.19137455946E+02 -0.10352105551E+03  0.11699212702E+03  0.00000000000E+00 0. -1.
          2    1    1    2  501    0  0.12268367007E+03  0.16433860111E+03 -0.47797259803E+03  0.52011177951E+03  0.00000000000E+00 0. -1.
<scales pt_clust_5="13000.00000" pt_clust_6="13000.00000" pt_clust_7="13000.00000" pt_clust_8="13000.00000" pt_clust_9="54.50274" pt_clust_10="168.94680"></scales>
<clustering>
<clus scale="   54.503">  2  9  1 -1</clus>
<clus scale="   75.857">  5  6 -1 -1</clus>
<clus scale="   78.131">  2  5  1 -1</clus>
<clus scale="   90.833">  7  8 -1 -1</clus>
<clus scale="  168.947">  1 10  2 -1</clus>
<clus scale="  168.947">  1  5  2 -1</clus>
</clustering>
</event>
<event>
10    3  0.7209067E-005  0.2029780E+03  0.7546771E-02  0.1162196E+00
          1   -1    0    0  503    0 -0.00000000000E+00  0.00000000000E+00  0.81236706263E+03  0.81236706263E+03  0.00000000000E+00 0. -1.
         21   -1    0    0  501  502  0.00000000000E+00 -0.00000000000E+00 -0.12154471710E+03  0.12154471710E+03  0.00000000000E+00 0. -1.
        -24    2    1    2    0    0 -0.10750586979E+03  0.24843089576E+02  0.81713885189E+02  0.15895288339E+03  0.80088507077E+02 0.  0.
         23    2    1    2    0    0 -0.57925458284E+02 -0.12953056452E+03  0.25986879796E+03  0.30995023610E+03  0.91672410499E+02 0.  0.
         13    1    3    3    0    0 -0.11083070357E+03  0.19400949895E+02  0.44176560320E+02  0.12087766622E+03  0.00000000000E+00 0. -1.
        -14    1    3    3    0    0  0.33248337750E+01  0.54421396804E+01  0.37537324870E+02  0.38075217167E+02  0.00000000000E+00 0.  1.
        -11    1    4    4    0    0 -0.36537537073E+02 -0.36590942887E+02  0.27053769004E+02  0.58359190656E+02  0.00000000000E+00 0.  1.
         11    1    4    4    0    0 -0.21387921211E+02 -0.92939621633E+02  0.23281502895E+03  0.25159104545E+03  0.00000000000E+00 0. -1.
         21    1    1    2  503  502 -0.26998269097E+02 -0.36942474315E+02  0.50754769686E+01  0.46037087323E+02  0.00000000000E+00 0. -1.
          2    1    1    2  501    0  0.19242959717E+03  0.14162994926E+03  0.34416418541E+03  0.41897157291E+03  0.00000000000E+00 0. -1.
<scales pt_clust_5="13000.00000" pt_clust_6="13000.00000" pt_clust_7="13000.00000" pt_clust_8="13000.00000" pt_clust_9="45.75645" pt_clust_10="181.09739"></scales>
<clustering>
<clus scale="   45.756">  2  9  1 -1</clus>
<clus scale="   80.089">  5  6 -1 -1</clus>
<clus scale="   91.672">  7  8 -1 -1</clus>
<clus scale="  142.869">  1  5  2 -1</clus>
<clus scale="  181.097">  2 10  1 -1</clus>
<clus scale="   45.756">  2  5  1 -1</clus>
</clustering>
</event>
<event>
10    3  0.7209067E-005  0.2675192E+03  0.7546771E-02  0.1103379E+00
         -2   -1    0    0    0  501 -0.00000000000E+00  0.00000000000E+00  0.19091187276E+04  0.19091187276E+04  0.00000000000E+00 0.  1.
         21   -1    0    0  501  502  0.00000000000E+00 -0.00000000000E+00 -0.14125666779E+03  0.14125666779E+03  0.00000000000E+00 0.  1.
        -24    2    1    2    0    0  0.28019709571E+03  0.15069444394E+03  0.65735404351E+03  0.73434149834E+03  0.76966679679E+02 0.  0.
         23    2    1    2    0    0 -0.15873077269E+03  0.14441470312E+02  0.64838161421E+02  0.19485496182E+03  0.91435522112E+02 0.  0.
         11    1    3    3    0    0  0.10549460710E+03  0.31835225680E+02  0.29458703751E+03  0.31452204437E+03  0.00000000000E+00 0. -1.
        -12    1    3    3    0    0  0.17470248861E+03  0.11885921826E+03  0.36276700600E+03  0.41981945397E+03  0.00000000000E+00 0.  1.
        -11    1    4    4    0    0 -0.84462815423E+02  0.27656091265E+02 -0.89592196661E+01  0.89325775620E+02  0.00000000000E+00 0.  1.
         11    1    4    4    0    0 -0.74267957268E+02 -0.13214620953E+02  0.73797381087E+02  0.10552918620E+03  0.00000000000E+00 0. -1.
         21    1    1    2  503  502 -0.21910476412E+02 -0.29418079961E+02 -0.20353426244E+02  0.41949426279E+02  0.00000000000E+00 0.  1.
         -1    1    1    2    0  503 -0.99555846603E+02 -0.13571783429E+03  0.10660232811E+04  0.10792295090E+04  0.00000000000E+00 0.  1.
<scales pt_clust_5="13000.00000" pt_clust_6="13000.00000" pt_clust_7="13000.00000" pt_clust_8="13000.00000" pt_clust_9="36.68095" pt_clust_10="170.51707"></scales>
<clustering>
<clus scale="   36.681">  2  9  1 -1</clus>
<clus scale="   76.967">  5  6 -1 -1</clus>
<clus scale="   91.436">  7  8 -1 -1</clus>
<clus scale="  170.517">  2 10  1 -1</clus>
<clus scale="  262.926">  1  5  2 -1</clus>
<clus scale="   36.681">  2  5  1 -1</clus>
</clustering>
</event>
<event>
10    3  0.7209067E-005  0.2358832E+03  0.7546771E-02  0.1123262E+00
          3   -1    0    0  502    0 -0.00000000000E+00  0.00000000000E+00  0.72802198525E+03  0.72802198525E+03  0.00000000000E+00 0. -1.
         21   -1    0    0  503  502  0.00000000000E+00 -0.00000000000E+00 -0.17381085892E+03  0.17381085892E+03  0.00000000000E+00 0. -1.
        -24    2    1    2    0    0  0.25937042719E+03 -0.25537317350E+02  0.31868372596E+03  0.41943173896E+03  0.80240222937E+02 0.  0.
         23    2    1    2    0    0 -0.17307496934E+03  0.50274711478E+01  0.13168485366E+03  0.23591045259E+03  0.91283188358E+02 0.  0.
         11    1    3    3    0    0  0.15831308379E+03 -0.36669646104E+01  0.13255591504E+03  0.20651283190E+03  0.00000000000E+00 0. -1.
        -12    1    3    3    0    0  0.10105734340E+03 -0.21870352740E+02  0.18612781092E+03  0.21291890706E+03  0.00000000000E+00 0.  1.
        -13    1    4    4    0    0 -0.95263356293E+02 -0.13273528723E+02  0.12205364636E+03  0.15539751030E+03  0.00000000000E+00 0.  1.
         13    1    4    4    0    0 -0.77811613048E+02  0.18300999871E+02  0.96312072985E+01  0.80512942286E+02  0.00000000000E+00 0. -1.
         21    1    1    2  503  501  0.92654808859E+01 -0.38903664138E+02 -0.44804286893E+02  0.60056376376E+02  0.00000000000E+00 0. -1.
          4    1    1    2  501    0 -0.95560938731E+02  0.59413510340E+02  0.14864683360E+03  0.18643427625E+03  0.00000000000E+00 0. -1.
<scales pt_clust_5="13000.00000" pt_clust_6="13000.00000" pt_clust_7="13000.00000" pt_clust_8="13000.00000" pt_clust_9="39.99180" pt_clust_10="108.19152"></scales>
<clustering>
<clus scale="   39.992">  2  9  1 -1</clus>
<clus scale="   80.240">  5  6 -1 -1</clus>
<clus scale="   91.283">  7  8 -1 -1</clus>
<clus scale="  108.192">  2 10  1 -1</clus>
<clus scale="  231.833">  1  5  2 -1</clus>
<clus scale="   39.992">  2  5  1 -1</clus>
</clustering>
</event>
<event>
10    3  0.7209067E-005  0.1302666E+03  0.7546771E-02  0.1232109E+00
         21   -1    0    0  501  502  0.00000000000E+00  0.00000000000E+00  0.41576359404E+03  0.41576359404E+03  0.00000000000E+00 0. -1.
          1   -1    0    0  503    0 -0.00000000000E+00 -0.00000000000E+00 -0.61608219452E+03  0.61608219452E+03  0.00000000000E+00 0. -1.
         23    2    1    2    0    0  0.75043021783E+02  0.18917430465E+02 -0.58983749406E+02  0.13290298594E+03  0.90525116310E+02 0.  0.
        -24    2    1    2    0    0  0.11936316845E+03  0.33864538870E+02  0.32126483496E+03  0.35373843838E+03  0.80780044775E+02 0.  0.
         13    1    4    4    0    0  0.84950786004E+02  0.89690986808E+01  0.28615206339E+03  0.29863034701E+03  0.00000000000E+00 0. -1.
        -14    1    4    4    0    0  0.34412382441E+02  0.24895440189E+02  0.35112771574E+02  0.55108091376E+02  0.00000000000E+00 0.  1.
        -11    1    3    3    0    0  0.26743546360E+02  0.53386454016E+02 -0.27676237878E+02  0.65812649904E+02  0.00000000000E+00 0. -1.
         11    1    3    3    0    0  0.48299475423E+02 -0.34469023552E+02 -0.31307511528E+02  0.67090336031E+02  0.00000000000E+00 0.  1.
         21    1    1    2  503  502 -0.26175867633E+02 -0.12600100197E+02  0.18172367846E+02  0.34266215496E+02  0.00000000000E+00 0.  1.
          2    1    1    2  501    0 -0.16823032259E+03 -0.40181869137E+02 -0.48077205388E+03  0.51093814875E+03  0.00000000000E+00 0. -1.
<scales pt_clust_5="13000.00000" pt_clust_6="13000.00000" pt_clust_7="13000.00000" pt_clust_8="13000.00000" pt_clust_9="29.05062" pt_clust_10="102.19586"></scales>
<clustering>
<clus scale="   29.051">  1  9  2 -1</clus>
<clus scale="   80.780">  5  6 -1 -1</clus>
<clus scale="   90.525">  7  8 -1 -1</clus>
<clus scale="  117.362">  2  7  1 -1</clus>
<clus scale="  102.196">  1 10  2 -1</clus>
<clus scale="   29.051">  1  5  2 -1</clus>
</clustering>
</event>
<event>
10    3  0.7209067E-005  0.1377750E+03  0.7546771E-02  0.1241725E+00
         21   -1    0    0  501  502  0.00000000000E+00  0.00000000000E+00  0.18536668029E+03  0.18536668029E+03  0.00000000000E+00 0. -1.
          1   -1    0    0  503    0 -0.00000000000E+00 -0.00000000000E+00 -0.26669312305E+03  0.26669312305E+03  0.00000000000E+00 0. -1.
        -24    2    1    2    0    0  0.99087204187E+01  0.88650270622E+01  0.35619744853E+02  0.87405779775E+02  0.78703447635E+02 0.  0.
         23    2    1    2    0    0  0.87239892966E+02 -0.50685946099E+02 -0.17218913225E+03  0.21942608193E+03  0.91207697642E+02 0.  0.
         13    1    3    3    0    0 -0.31139384285E+01 -0.29297450273E+02  0.36706261890E+02  0.47067896352E+02  0.00000000000E+00 0. -1.
        -14    1    3    3    0    0  0.13022658847E+02  0.38162477335E+02 -0.10865170367E+01  0.40337883424E+02  0.00000000000E+00 0.  1.
        -11    1    4    4    0    0  0.72838415083E+02 -0.70972480373E+02 -0.16447900633E+03  0.19338012102E+03  0.00000000000E+00 0. -1.
         11    1    4    4    0    0  0.14401477883E+02  0.20286534274E+02 -0.77101259204E+01  0.26045960911E+02  0.00000000000E+00 0.  1.
         21    1    1    2  503  502  0.50967444586E+01  0.21233316105E+02  0.31388997743E+02  0.38237412258E+02  0.00000000000E+00 0. -1.
          2    1    1    2  501    0 -0.10224535784E+03  0.20587602932E+02  0.23853946891E+02  0.10699052938E+03  0.00000000000E+00 0. -1.
<scales pt_clust_5="13000.00000" pt_clust_6="13000.00000" pt_clust_7="13000.00000" pt_clust_8="13000.00000" pt_clust_9="21.83645" pt_clust_10="103.26235"></scales>
<clustering>
<clus scale="   21.836">  1  9  2 -1</clus>
<clus scale="   78.703">  5  6 -1 -1</clus>
<clus scale="   81.521">  2  5  1 -1</clus>
<clus scale="   91.208">  7  8 -1 -1</clus>
<clus scale="  103.262">  1 10  2 -1</clus>
<clus scale="   21.836">  1  5  2 -1</clus>
</clustering>
</event>
<event>
10    3  0.7209067E-005  0.1421564E+03  0.7546771E-02  0.1222870E+00
         -2   -1    0    0    0  501 -0.00000000000E+00  0.00000000000E+00  0.21627680661E+03  0.21627680661E+03  0.00000000000E+00 0.  1.
         21   -1    0    0  501  502  0.00000000000E+00 -0.00000000000E+00 -0.28960605098E+03  0.28960605098E+03  0.00000000000E+00 0. -1.
         23    2    1    2    0    0  0.11076193990E+02 -0.61755379459E+02 -0.72076888928E+01  0.11038440095E+03  0.90533729778E+02 0.  0.
        -24    2    1    2    0    0  0.12928721198E+03  0.11091523045E+02 -0.30554069350E+02  0.15571596932E+03  0.80471776930E+02 0.  0.
         13    1    4    4    0    0  0.12848353773E+03 -0.10649114065E+02 -0.16890993811E+02  0.13002587731E+03  0.00000000000E+00 0. -1.
        -14    1    4    4    0    0  0.80367424808E+00  0.21740637110E+02 -0.13663075538E+02  0.25690092009E+02  0.00000000000E+00 0.  1.
        -13    1    3    3    0    0 -0.19596779095E+02 -0.74215129877E+02 -0.86581104431E+01  0.77245596185E+02  0.00000000000E+00 0. -1.
         13    1    3    3    0    0  0.30672973084E+02  0.12459750418E+02  0.14504215503E+01  0.33138804761E+02  0.00000000000E+00 0.  1.
         21    1    1    2  503  502 -0.27178901500E+02  0.14026761015E+01 -0.97818770961E+02  0.10153409348E+03  0.00000000000E+00 0. -1.
         -1    1    1    2    0  503 -0.11318450447E+03  0.49261180313E+02  0.62251284837E+02  0.13824839385E+03  0.00000000000E+00 0.  1.
<scales pt_clust_5="13000.00000" pt_clust_6="13000.00000" pt_clust_7="13000.00000" pt_clust_8="13000.00000" pt_clust_9="27.21507" pt_clust_10="117.18677"></scales>
<clustering>
<clus scale="   27.215">  2  9  1 -1</clus>
<clus scale="   80.472">  5  6 -1 -1</clus>
<clus scale="   90.534">  7  8 -1 -1</clus>
<clus scale="  109.379">  1  7  2 -1</clus>
<clus scale="  117.187">  2 10  1 -1</clus>
<clus scale="   27.215">  2  5  1 -1</clus>
</clustering>
</event>
<event>
10    3  0.7209067E-005  0.1460091E+03  0.7546771E-02  0.1225644E+00
         -4   -1    0    0    0  501 -0.00000000000E+00  0.00000000000E+00  0.41045076966E+03  0.41045076966E+03  0.00000000000E+00 0.  1.
         21   -1    0    0  503  502  0.00000000000E+00 -0.00000000000E+00 -0.86704494851E+03  0.86704494851E+03  0.00000000000E+00 0. -1.
         23    2    1    2    0    0 -0.40136774734E+00 -0.24451565660E+02 -0.35299028938E+02  0.10088237278E+03  0.91286316249E+02 0.  0.
        -24    2    1    2    0    0 -0.11537737320E+03  0.39913957786E+02 -0.60342651902E+02  0.15841162712E+03  0.80919377753E+02 0.  0.
         11    1    4    4    0    0 -0.12779017752E+03  0.40438184042E+02 -0.55706339479E+02  0.14515086103E+03  0.00000000000E+00 0. -1.
        -12    1    4    4    0    0  0.12412804325E+02 -0.52422625557E+00 -0.46363124234E+01  0.13260766089E+02  0.00000000000E+00 0.  1.
        -13    1    3    3    0    0 -0.25227901687E+00  0.30699745344E+02  0.68660068797E+01  0.31459180844E+02  0.00000000000E+00 0. -1.
         13    1    3    3    0    0 -0.14908873046E+00 -0.55151311004E+02 -0.42165035817E+02  0.69423191935E+02  0.00000000000E+00 0.  1.
         21    1    1    2  503  501  0.13395260501E+03  0.19663818955E+02 -0.68170550145E+03  0.69501968093E+03  0.00000000000E+00 0. -1.
         -3    1    1    2    0  502 -0.18173864064E+02 -0.35126211081E+02  0.32075300344E+03  0.32318203734E+03  0.00000000000E+00 0.  1.
<scales pt_clust_5="13000.00000" pt_clust_6="13000.00000" pt_clust_7="13000.00000" pt_clust_8="13000.00000" pt_clust_9="121.53480" pt_clust_10="39.54923"></scales>
<clustering>
<clus scale="   39.549">  2 10  1 -1</clus>
<clus scale="   80.919">  5  6 -1 -1</clus>
<clus scale="   91.286">  7  8 -1 -1</clus>
<clus scale="   95.274">  1  7  2 -1</clus>
<clus scale="  121.535">  2  9  1 -1</clus>
<clus scale="   39.549">  2  5  1 -1</clus>
</clustering>
</event>
<event>
10    3  0.7209067E-005  0.1509851E+03  0.7546771E-02  0.1219469E+00
          1   -1    0    0  503    0 -0.00000000000E+00  0.00000000000E+00  0.67063136790E+03  0.67063136790E+03  0.00000000000E+00 0. -1.
         21   -1    0    0  501  502  0.00000000000E+00 -0.00000000000E+00 -0.20186319328E+03  0.20186319328E+03  0.00000000000E+00 0. -1.
         23    2    1    2    0    0  0.18620791113E+02 -0.26947686938E+02  0.23163221218E+02  0.99693353950E+02  0.91265099088E+02 0.  0.
        -24    2    1    2    0    0 -0.68436666633E+02  0.13581423833E+03  0.44191077649E+03  0.47492528512E+03  0.84497380975E+02 0.  0.
         11    1    4    4    0    0 -0.73059765215E+02  0.14556751246E+03  0.42066576264E+03  0.45109568146E+03  0.00000000000E+00 0. -1.
        -12    1    4    4    0    0  0.46230985814E+01 -0.97532741311E+01  0.21245013850E+02  0.23829603653E+02  0.00000000000E+00 0.  1.
        -11    1    3    3    0    0  0.11900206092E+02 -0.61024560382E+02  0.16507553055E+02  0.64328152334E+02  0.00000000000E+00 0.  1.
         11    1    3    3    0    0  0.67205850214E+01  0.34076873443E+02  0.66556681626E+01  0.35365201616E+02  0.00000000000E+00 0. -1.
         21    1    1    2  503  502 -0.18727882197E+02 -0.15357300663E+02 -0.12345186119E+03  0.12580517591E+03  0.00000000000E+00 0. -1.
          2    1    1    2  501    0  0.68543757717E+02 -0.93509250726E+02  0.12714603810E+03  0.17207074620E+03  0.00000000000E+00 0. -1.
<scales pt_clust_5="13000.00000" pt_clust_6="13000.00000" pt_clust_7="13000.00000" pt_clust_8="13000.00000" pt_clust_9="24.21942" pt_clust_10="125.12665"></scales>
<clustering>
<clus scale="   24.219">  2  9  1 -1</clus>
<clus scale="   84.497">  5  6 -1 -1</clus>
<clus scale="   91.265">  7  8 -1 -1</clus>
<clus scale="   98.034">  1  7  2 -1</clus>
<clus scale="  125.127">  2 10  1 -1</clus>
<clus scale="   24.219">  2  5  1 -1</clus>
</clustering>
</event>
<event>
10    3  0.7209067E-005  0.1544388E+03  0.7546771E-02  0.1223593E+00
         21   -1    0    0  503  502  0.00000000000E+00  0.00000000000E+00  0.15435678459E+03  0.15435678459E+03  0.00000000000E+00 0. -1.
          3   -1    0    0  502    0 -0.00000000000E+00 -0.00000000000E+00 -0.34052403889E+03  0.34052403889E+03  0.00000000000E+00 0. -1.
        -24    2    1    2    0    0 -0.25328191728E+02  0.37317876451E+02  0.32115844151E+02  0.92181702185E+02  0.73701408216E+02 0.  0.
         23    2    1    2    0    0  0.38053366549E+02  0.11181527452E+03 -0.16156044290E+03  0.21941136175E+03  0.89938059971E+02 0.  0.
         11    1    3    3    0    0 -0.70697478156E+01  0.34744120568E+02  0.53350994465E+02  0.64058284855E+02  0.00000000000E+00 0. -1.
        -12    1    3    3    0    0 -0.18258443912E+02  0.25737558823E+01 -0.21235150313E+02  0.28123417329E+02  0.00000000000E+00 0.  1.
        -11    1    4    4    0    0 -0.21071259390E+02  0.52067731258E+02 -0.10182811104E+03  0.11629278055E+03  0.00000000000E+00 0.  1.
         11    1    4    4    0    0  0.59124625939E+02  0.59747543259E+02 -0.59732331867E+02  0.10311858120E+03  0.00000000000E+00 0. -1.
         21    1    1    2  503  501 -0.74859582496E+01 -0.18961914446E+02  0.22857699264E+02  0.30627898818E+02  0.00000000000E+00 0. -1.
          4    1    1    2  501    0 -0.52392165710E+01 -0.13017123652E+03 -0.79580354813E+02  0.15265986074E+03  0.00000000000E+00 0. -1.
<scales pt_clust_5="13000.00000" pt_clust_6="13000.00000" pt_clust_7="13000.00000" pt_clust_8="13000.00000" pt_clust_9="20.38612" pt_clust_10="125.54874"></scales>
<clustering>
<clus scale="   20.386">  1  9  2 -1</clus>
<clus scale="   73.701">  5  6 -1 -1</clus>
<clus scale="   84.024">  2  5  1 -1</clus>
<clus scale="   89.938">  7  8 -1 -1</clus>
<clus scale="  125.549">  1 10  2 -1</clus>
<clus scale="   20.386">  1  5  2 -1</clus>
</clustering>
</event>
<event>
10    3  0.7209067E-005  0.2009934E+03  0.7546771E-02  0.1176385E+00
         21   -1    0    0  501  502  0.00000000000E+00  0.00000000000E+00  0.31176914897E+03  0.31176914897E+03  0.00000000000E+00 0.  1.
          1   -1    0    0  503    0 -0.00000000000E+00 -0.00000000000E+00 -0.71211421157E+03  0.71211421157E+03  0.00000000000E+00 0. -1.
         23    2    1    2    0    0  0.13230152395E+02 -0.50448238673E+02 -0.31108885116E+03  0.32934790290E+03  0.94729647492E+02 0.  0.
        -24    2    1    2    0    0 -0.79541083709E+02  0.13534438404E+03  0.32176947215E+02  0.17956826637E+03  0.81021725879E+02 0.  0.
         11    1    4    4    0    0 -0.42707758692E+02  0.11253917493E+02 -0.61021742700E+01  0.44585197569E+02  0.00000000000E+00 0. -1.
        -12    1    4    4    0    0 -0.36833325017E+02  0.12409046655E+03  0.38279121485E+02  0.13498306880E+03  0.00000000000E+00 0.  1.
        -13    1    3    3    0    0  0.15736114216E+02 -0.74199126409E+02 -0.16866038442E+03  0.18493096258E+03  0.00000000000E+00 0.  1.
         13    1    3    3    0    0 -0.25059618217E+01  0.23750887736E+02 -0.14242846674E+03  0.14441694032E+03  0.00000000000E+00 0. -1.
         21    1    1    2  503  502  0.85005299767E+01  0.62070197612E+02  0.17127446107E+03  0.18237299541E+03  0.00000000000E+00 0.  1.
          2    1    1    2  501    0  0.57810401338E+02 -0.14696634298E+03 -0.29270761972E+03  0.33259419586E+03  0.00000000000E+00 0. -1.
<scales pt_clust_5="13000.00000" pt_clust_6="13000.00000" pt_clust_7="13000.00000" pt_clust_8="13000.00000" pt_clust_9="62.64957" pt_clust_10="183.93986"></scales>
<clustering>
<clus scale="   62.650">  1  9  2 -1</clus>
<clus scale="   81.022">  5  6 -1 -1</clus>
<clus scale="   94.730">  7  8 -1 -1</clus>
<clus scale="  106.317">  2  7  1 -1</clus>
<clus scale="  183.940">  1 10  2 -1</clus>
<clus scale="   62.650">  1  5  2 -1</clus>
</clustering>
</event>
<event>
10    3  0.7209067E-005  0.1830174E+03  0.7546771E-02  0.1191475E+00
         21   -1    0    0  501  502  0.00000000000E+00  0.00000000000E+00  0.11599150626E+03  0.11599150626E+03  0.00000000000E+00 0.  1.
          1   -1    0    0  503    0 -0.00000000000E+00 -0.00000000000E+00 -0.65180674577E+03  0.65180674577E+03  0.00000000000E+00 0. -1.
         23    2    1    2    0    0 -0.36443531166E+02  0.27466402663E+02 -0.59531709798E+02  0.11770567620E+03  0.90708695834E+02 0.  0.
        -24    2    1    2    0    0 -0.62044027988E+02  0.13154370921E+03 -0.34735427239E+03  0.38475797206E+03  0.78933501593E+02 0.  0.
         11    1    4    4    0    0 -0.71239945700E+02  0.83468054143E+02 -0.28561023390E+03  0.30596609556E+03  0.00000000000E+00 0. -1.
        -12    1    4    4    0    0  0.91959177128E+01  0.48075655066E+02 -0.61744038490E+02  0.78791876495E+02  0.00000000000E+00 0.  1.
        -11    1    3    3    0    0 -0.45269741545E+02 -0.87942549043E+01 -0.65300802738E+02  0.79943000051E+02  0.00000000000E+00 0.  1.
         11    1    3    3    0    0  0.88262103792E+01  0.36260657567E+02  0.57690929394E+01  0.37762676153E+02  0.00000000000E+00 0. -1.
         21    1    1    2  503  502 -0.48017656499E+01 -0.19856951219E+02  0.25871619146E+02  0.32965074584E+02  0.00000000000E+00 0.  1.
          2    1    1    2  501    0  0.10328932480E+03 -0.13915316065E+03 -0.15480087647E+03  0.23236952919E+03  0.00000000000E+00 0. -1.
<scales pt_clust_5="13000.00000" pt_clust_6="13000.00000" pt_clust_7="13000.00000" pt_clust_8="13000.00000" pt_clust_9="20.42928" pt_clust_10="165.12073"></scales>
<clustering>
<clus scale="   20.429">  1  9  2 -1</clus>
<clus scale="   78.934">  5  6 -1 -1</clus>
<clus scale="   90.709">  7  8 -1 -1</clus>
<clus scale="  100.543">  2  7  1 -1</clus>
<clus scale="  165.121">  1 10  2 -1</clus>
<clus scale="   20.429">  1  5  2 -1</clus>
</clustering>
</event>
<event>
10    3  0.7209067E-005  0.9509768E+02  0.7546771E-02  0.1296266E+00
         21   -1    0    0  501  502  0.00000000000E+00  0.00000000000E+00  0.39694221142E+02  0.39694221142E+02  0.00000000000E+00 0. -1.
          3   -1    0    0  503    0 -0.00000000000E+00 -0.00000000000E+00 -0.97411314096E+03  0.97411314096E+03  0.00000000000E+00 0. -1.
         23    2    1    2    0    0 -0.13769111844E+01 -0.11631672279E+02 -0.43671196649E+03  0.44621936867E+03  0.90869090563E+02 0.  0.
        -24    2    1    2    0    0  0.65574959059E+02  0.84959667427E+02 -0.18865976777E+03  0.23183002135E+03  0.81452013332E+02 0.  0.
         13    1    4    4    0    0  0.42779657098E+02  0.21617469038E+02 -0.14213278712E+03  0.14999714399E+03  0.00000000000E+00 0. -1.
        -14    1    4    4    0    0  0.22795301961E+02  0.63342198389E+02 -0.46526980650E+02  0.81832877358E+02  0.00000000000E+00 0.  1.
        -13    1    3    3    0    0 -0.44420458718E+02  0.12892522729E+01 -0.26622864206E+03  0.26991207676E+03  0.00000000000E+00 0. -1.
         13    1    3    3    0    0  0.43043547534E+02 -0.12920924552E+02 -0.17048332442E+03  0.17630729191E+03  0.00000000000E+00 0.  1.
         21    1    1    2  503  502  0.11297347963E+02 -0.22124562070E+02 -0.17804378910E+02  0.30563413196E+02  0.00000000000E+00 0.  1.
          4    1    1    2  501    0 -0.75495395838E+02 -0.51203433078E+02 -0.29124280664E+03  0.30519455888E+03  0.00000000000E+00 0. -1.
<scales pt_clust_5="13000.00000" pt_clust_6="13000.00000" pt_clust_7="13000.00000" pt_clust_8="13000.00000" pt_clust_9="24.84203" pt_clust_10="92.00899"></scales>
<clustering>
<clus scale="   24.842">  1  9  2 -1</clus>
<clus scale="   81.452">  5  6 -1 -1</clus>
<clus scale="   90.869">  7  8 -1 -1</clus>
<clus scale="   92.009">  1 10  2 -1</clus>
<clus scale="   86.144">  1  5  2 -1</clus>
<clus scale="   24.842">  1  5  2 -1</clus>
</clustering>
</event>
<event>
10    3  0.7209067E-005  0.1714284E+03  0.7546771E-02  0.1193369E+00
          1   -1    0    0  503    0 -0.00000000000E+00  0.00000000000E+00  0.73846559461E+03  0.73846559461E+03  0.00000000000E+00 0. -1.
         21   -1    0    0  501  502  0.00000000000E+00 -0.00000000000E+00 -0.14293016399E+03  0.14293016399E+03  0.00000000000E+00 0. -1.
         23    2    1    2    0    0 -0.37947741710E+02 -0.63497553526E+02  0.34514335233E+03  0.36418386406E+03  0.89632487288E+02 0.  0.
        -24    2    1    2    0    0 -0.10788517255E+03 -0.29429374756E+02  0.23827291348E+03  0.27525253995E+03  0.80527516390E+02 0.  0.
         13    1    4    4    0    0 -0.98321924532E+02 -0.12742482336E+02  0.23588282439E+03  0.25587160558E+03  0.00000000000E+00 0. -1.
        -14    1    4    4    0    0 -0.95632480151E+01 -0.16686892420E+02  0.23900890928E+01  0.19380934372E+02  0.00000000000E+00 0.  1.
        -11    1    3    3    0    0  0.13474330943E+02 -0.39193932453E+02  0.56966169624E+02  0.70447614701E+02  0.00000000000E+00 0.  1.
         11    1    3    3    0    0 -0.51422072653E+02 -0.24303621073E+02  0.28817718271E+03  0.29373624936E+03  0.00000000000E+00 0. -1.
         21    1    1    2  503  502  0.21105126534E+02 -0.31780467989E+02 -0.42699306024E+02  0.57259542843E+02  0.00000000000E+00 0.  1.
          2    1    1    2  501    0  0.12472778772E+03  0.12470739627E+03  0.54818470835E+02  0.18469981175E+03  0.00000000000E+00 0. -1.
<scales pt_clust_5="13000.00000" pt_clust_6="13000.00000" pt_clust_7="13000.00000" pt_clust_8="13000.00000" pt_clust_9="38.15003" pt_clust_10="151.33747"></scales>
<clustering>
<clus scale="   38.150">  2  9  1 -1</clus>
<clus scale="   80.528">  5  6 -1 -1</clus>
<clus scale="   89.632">  7  8 -1 -1</clus>
<clus scale="  117.348">  1  7  2 -1</clus>
<clus scale="  151.337">  2 10  1 -1</clus>
<clus scale="   38.150">  2  5  1 -1</clus>
</clustering>
</event>
<event>
10    3  0.7209067E-005  0.8817425E+02  0.7546771E-02  0.1313121E+00
         21   -1    0    0  501  502  0.00000000000E+00  0.00000000000E+00  0.58380852927E+03  0.58380852927E+03  0.00000000000E+00 0.  1.
          3   -1    0    0  503    0 -0.00000000000E+00 -0.00000000000E+00 -0.15637957655E+03  0.15637957655E+03  0.00000000000E+00 0. -1.
         23    2    1    2    0    0 -0.48399179318E+01 -0.54580546132E+01 -0.10030096830E+03  0.13364526911E+03  0.88020216704E+02 0.  0.
        -24    2    1    2    0    0  0.50701614526E+01 -0.17741663581E+02  0.71710347870E+02  0.10843382896E+03  0.79215201245E+02 0.  0.
         11    1    4    4    0    0  0.29026939732E+02 -0.33579707072E+01 -0.23130075928E+01  0.29311929339E+02  0.00000000000E+00 0. -1.
        -12    1    4    4    0    0 -0.23956778279E+02 -0.14383692873E+02  0.74023355463E+02  0.79121899625E+02  0.00000000000E+00 0.  1.
        -11    1    3    3    0    0 -0.46187592813E+02  0.23311353466E+01 -0.52262449690E+02  0.69786041365E+02  0.00000000000E+00 0. -1.
         11    1    3    3    0    0  0.41347674881E+02 -0.77891899598E+01 -0.48038518608E+02  0.63859227746E+02  0.00000000000E+00 0.  1.
         21    1    1    2  503  502 -0.28905278385E+02  0.48864985319E+02  0.45610570100E+03  0.45962562199E+03  0.00000000000E+00 0.  1.
          4    1    1    2  501    0  0.28675034864E+02 -0.25665267125E+02 -0.86127854549E-01  0.38483385753E+02  0.00000000000E+00 0. -1.
<scales pt_clust_5="13000.00000" pt_clust_6="13000.00000" pt_clust_7="13000.00000" pt_clust_8="13000.00000" pt_clust_9="28.61558" pt_clust_10="38.48331"></scales>
<clustering>
<clus scale="   38.483">  1 10  2 -1</clus>
<clus scale="   28.616">  1  9  2 -1</clus>
<clus scale="   79.215">  5  6 -1 -1</clus>
<clus scale="   79.386">  1  5  2 -1</clus>
<clus scale="   88.020">  7  8 -1 -1</clus>
<clus scale="   38.483">  1  5  2 -1</clus>
</clustering>
</event>
<event>
10    3  0.7209067E-005  0.1046594E+03  0.7546771E-02  0.1274146E+00
         -4   -1    0    0    0  501 -0.00000000000E+00  0.00000000000E+00  0.57320369074E+03  0.57320369074E+03  0.00000000000E+00 0.  1.
         21   -1    0    0  503  502  0.00000000000E+00 -0.00000000000E+00 -0.97573666882E+02  0.97573666882E+02  0.00000000000E+00 0.  1.
         23    2    1    2    0    0  0.45552227404E+01  0.50490702078E+02  0.28947016128E+03  0.30745210887E+03  0.90353549587E+02 0.  0.
        -24    2    1    2    0    0 -0.47969872872E+01 -0.56346244232E+02  0.14296586059E+03  0.17456545345E+03  0.82679803549E+02 0.  0.
         13    1    4    4    0    0  0.35868159653E+02 -0.42082584019E+02  0.63772367091E+02  0.84406063520E+02  0.00000000000E+00 0. -1.
        -14    1    4    4    0    0 -0.40665146940E+02 -0.14263660213E+02  0.79193493504E+02  0.90159389925E+02  0.00000000000E+00 0.  1.
        -13    1    3    3    0    0  0.30219543153E+02  0.65380620370E+02  0.17602731300E+03  0.19019322078E+03  0.00000000000E+00 0.  1.
         13    1    3    3    0    0 -0.25664320413E+02 -0.14889918292E+02  0.11344284828E+03  0.11725888809E+03  0.00000000000E+00 0. -1.
         21    1    1    2  503  501  0.21386419978E+02  0.57719212616E+02 -0.50488574080E+02  0.79611447525E+02  0.00000000000E+00 0.  1.
         -3    1    1    2    0  502 -0.21144655431E+02 -0.51863670461E+02  0.93682576061E+02  0.10914834779E+03  0.00000000000E+00 0.  1.
<scales pt_clust_5="13000.00000" pt_clust_6="13000.00000" pt_clust_7="13000.00000" pt_clust_8="13000.00000" pt_clust_9="21.06242" pt_clust_10="56.00839"></scales>
<clustering>
<clus scale="   56.008">  2 10  1 -1</clus>
<clus scale="   21.062">  2  9  1 -1</clus>
<clus scale="   82.680">  5  6 -1 -1</clus>
<clus scale="   90.354">  7  8 -1 -1</clus>
<clus scale="   98.111">  2  5  1 -1</clus>
<clus scale="   56.008">  2  5  1 -1</clus>
</clustering>
</event>
<event>
10    3  0.7209067E-005  0.1482438E+03  0.7546771E-02  0.1204703E+00
         21   -1    0    0  503  502  0.00000000000E+00  0.00000000000E+00  0.37136934265E+03  0.37136934265E+03  0.00000000000E+00 0.  1.
         -2   -1    0    0    0  501 -0.00000000000E+00 -0.00000000000E+00 -0.25044543719E+03  0.25044543719E+03  0.00000000000E+00 0.  1.
        -24    2    1    2    0    0 -0.23945532704E+02 -0.99510127443E+02 -0.32514465369E+02  0.13401722307E+03  0.80173384737E+02 0.  0.
         23    2    1    2    0    0 -0.43912784853E+02  0.19982933812E+03  0.20295590126E+03  0.30223256162E+03  0.91067702290E+02 0.  0.
         11    1    3    3    0    0  0.22698479633E+02 -0.19782763273E+02 -0.28657638325E+02  0.41567282022E+02  0.00000000000E+00 0. -1.
        -12    1    3    3    0    0 -0.46644012337E+02 -0.79727364170E+02 -0.38568270441E+01  0.92449941045E+02  0.00000000000E+00 0.  1.
        -11    1    4    4    0    0 -0.23732235614E+02  0.15121026844E+03  0.89869642929E+02  0.17749455487E+03  0.00000000000E+00 0.  1.
         11    1    4    4    0    0 -0.20180549239E+02  0.48619069679E+02  0.11308625833E+03  0.12473800675E+03  0.00000000000E+00 0. -1.
         21    1    1    2  503  501 -0.23270886535E+02 -0.45826164752E+02  0.23691429198E+02  0.56593774865E+02  0.00000000000E+00 0.  1.
         -1    1    1    2    0  502  0.91129204092E+02 -0.54493045923E+02 -0.73208959629E+02  0.12897122029E+03  0.00000000000E+00 0.  1.
<scales pt_clust_5="13000.00000" pt_clust_6="13000.00000" pt_clust_7="13000.00000" pt_clust_8="13000.00000" pt_clust_9="51.39622" pt_clust_10="106.56521"></scales>
<clustering>
<clus scale="   51.396">  1  9  2 -1</clus>
<clus scale="   80.173">  5  6 -1 -1</clus>
<clus scale="   91.068">  7  8 -1 -1</clus>
<clus scale="  106.565">  1 10  2 -1</clus>
<clus scale="  141.812">  2  5  1 -1</clus>
<clus scale="   51.396">  1  5  2 -1</clus>
</clustering>
</event>
<event>
10    3  0.7209067E-005  0.1662727E+03  0.7546771E-02  0.1205606E+00
         21   -1    0    0  503  502  0.00000000000E+00  0.00000000000E+00  0.68839211849E+03  0.68839211849E+03  0.00000000000E+00 0. -1.
          3   -1    0    0  502    0 -0.00000000000E+00 -0.00000000000E+00 -0.88275450964E+02  0.88275450964E+02  0.00000000000E+00 0. -1.
         23    2    1    2    0    0 -0.47055886987E+01  0.23461938885E+02  0.73216088614E+02  0.12231953096E+03  0.95020349828E+02 0.  0.
        -24    2    1    2    0    0  0.16068521266E+03  0.33886232795E+02  0.22431946993E+03  0.28911844619E+03  0.79386629836E+02 0.  0.
         13    1    4    4    0    0  0.10609048946E+03  0.52485263279E+02  0.11248500784E+03  0.16328739022E+03  0.00000000000E+00 0. -1.
        -14    1    4    4    0    0  0.54594723203E+02 -0.18599030484E+02  0.11183446209E+03  0.12583105597E+03  0.00000000000E+00 0.  1.
        -13    1    3    3    0    0  0.28338148372E+02 -0.25992749807E+02  0.26749463493E+02  0.46842368566E+02  0.00000000000E+00 0.  1.
         13    1    3    3    0    0 -0.33043737070E+02  0.49454688692E+02  0.46466625120E+02  0.75477162395E+02  0.00000000000E+00 0. -1.
         21    1    1    2  503  501 -0.33334383348E+02  0.14403031593E+01  0.17698217363E+03  0.18009982057E+03  0.00000000000E+00 0. -1.
          4    1    1    2  501    0 -0.12264524062E+03 -0.58788474839E+02  0.12559893535E+03  0.18512977173E+03  0.00000000000E+00 0. -1.
<scales pt_clust_5="13000.00000" pt_clust_6="13000.00000" pt_clust_7="13000.00000" pt_clust_8="13000.00000" pt_clust_9="33.36548" pt_clust_10="146.09723"></scales>
<clustering>
<clus scale="   33.365">  1  9  2 -1</clus>
<clus scale="   79.387">  5  6 -1 -1</clus>
<clus scale="   95.020">  7  8 -1 -1</clus>
<clus scale="   98.567">  2  7  1 -1</clus>
<clus scale="  146.097">  1 10  2 -1</clus>
<clus scale="   33.365">  1  5  2 -1</clus>
</clustering>
</event>
<event>
10    3  0.7209067E-005  0.1636869E+03  0.7546771E-02  0.1209901E+00
          1   -1    0    0  503    0 -0.00000000000E+00  0.00000000000E+00  0.53642893449E+03  0.53642893449E+03  0.00000000000E+00 0. -1.
         21   -1    0    0  501  502  0.00000000000E+00 -0.00000000000E+00 -0.99711357352E+02  0.99711357352E+02  0.00000000000E+00 0. -1.
         23    2    1    2    0    0 -0.13292336918E+02  0.29101374460E+02  0.11152757037E+03  0.14688711409E+03  0.90076906678E+02 0.  0.
        -24    2    1    2    0    0  0.36152057773E+02 -0.13000510762E+03  0.57810014061E+02  0.16761721937E+03  0.80902627989E+02 0.  0.
         11    1    4    4    0    0  0.41794256780E+02 -0.13575413034E+03  0.39220264583E+02  0.14735729693E+03  0.00000000000E+00 0. -1.
        -12    1    4    4    0    0 -0.56421990062E+01  0.57490227172E+01  0.18589749479E+02  0.20259922446E+02  0.00000000000E+00 0.  1.
        -13    1    3    3    0    0  0.29158975363E+02  0.95357526046E+01  0.57102350490E+01  0.31205499615E+02  0.00000000000E+00 0. -1.
         13    1    3    3    0    0 -0.42451312281E+02  0.19565621856E+02  0.10581733532E+03  0.11568161447E+03  0.00000000000E+00 0.  1.
         21    1    1    2  503  502 -0.94248311827E+01 -0.29935908805E+02  0.10592706146E+02  0.33123881147E+02  0.00000000000E+00 0. -1.
          2    1    1    2  501    0 -0.13434889673E+02  0.13083964196E+03  0.25678728656E+03  0.28851207723E+03  0.00000000000E+00 0. -1.
<scales pt_clust_5="13000.00000" pt_clust_6="13000.00000" pt_clust_7="13000.00000" pt_clust_8="13000.00000" pt_clust_9="31.38449" pt_clust_10="142.29609"></scales>
<clustering>
<clus scale="   31.384">  2  9  1 -1</clus>
<clus scale="   80.903">  5  6 -1 -1</clus>
<clus scale="   90.077">  7  8 -1 -1</clus>
<clus scale="   94.226">  1  7  2 -1</clus>
<clus scale="  142.296">  2 10  1 -1</clus>
<clus scale="   31.384">  2  5  1 -1</clus>
</clustering>
</event>
<event>
10    3  0.7209067E-005  0.1030615E+03  0.7546771E-02  0.1278646E+00
         21   -1    0    0  503  502  0.00000000000E+00  0.00000000000E+00  0.11441466518E+04  0.11441466518E+04  0.00000000000E+00 0.  1.
          1   -1    0    0  502    0 -0.00000000000E+00 -0.00000000000E+00 -0.25242732774E+03  0.25242732774E+03  0.00000000000E+00 0. -1.
         23    2    1    2    0    0 -0.17170111855E+02 -0.37789287550E+02 -0.19221995798E+03  0.21693073227E+03  0.91583772380E+02 0.  0.
        -24    2    1    2    0    0  0.15402802523E+02  0.12951349478E+03  0.13267461481E+03  0.20267730999E+03  0.80402406132E+02 0.  0.
         11    1    4    4    0    0 -0.31850560052E+02  0.65642100286E+02  0.73908762091E+02  0.10385494027E+03  0.00000000000E+00 0. -1.
        -12    1    4    4    0    0  0.47253362575E+02  0.63871394497E+02  0.58765852719E+02  0.98822369712E+02  0.00000000000E+00 0.  1.
        -13    1    3    3    0    0  0.16758227733E+02  0.20572147826E+02 -0.94542648657E+02  0.98195538992E+02  0.00000000000E+00 0.  1.
         13    1    3    3    0    0 -0.33928339588E+02 -0.58361435376E+02 -0.97677309320E+02  0.11873519328E+03  0.00000000000E+00 0. -1.
         21    1    1    2  503  501  0.87976707329E+02 -0.33856145701E+02  0.68010707516E+03  0.68660889400E+03  0.00000000000E+00 0.  1.
          2    1    1    2  501    0 -0.86209397998E+02 -0.57868061532E+02  0.27115759209E+03  0.29035704330E+03  0.00000000000E+00 0. -1.
<scales pt_clust_5="13000.00000" pt_clust_6="13000.00000" pt_clust_7="13000.00000" pt_clust_8="13000.00000" pt_clust_9="94.26632" pt_clust_10="84.99893"></scales>
<clustering>
<clus scale="   80.402">  5  6 -1 -1</clus>
<clus scale="   91.584">  7  8 -1 -1</clus>
<clus scale="   94.266">  1  9  2 -1</clus>
<clus scale="   84.999">  1 10  2 -1</clus>
<clus scale="   94.266">  1  5  2 -1</clus>
<clus scale="   94.266">  1  5  2 -1</clus>
</clustering>
</event>
<event>
10    3  0.7209067E-005  0.1849740E+03  0.7546771E-02  0.1183094E+00
         21   -1    0    0  501  502  0.00000000000E+00  0.00000000000E+00  0.16128719569E+03  0.16128719569E+03  0.00000000000E+00 0. -1.
          1   -1    0    0  503    0 -0.00000000000E+00 -0.00000000000E+00 -0.40606941694E+03  0.40606941694E+03  0.00000000000E+00 0. -1.
         23    2    1    2    0    0  0.36451818592E+01  0.78942561605E+02 -0.30959022547E+02  0.12405944015E+03  0.90482419447E+02 0.  0.
        -24    2    1    2    0    0 -0.98182515418E+02  0.93066670872E+02 -0.14697775942E+03  0.21476738618E+03  0.78875578222E+02 0.  0.
         11    1    4    4    0    0 -0.34283919854E+02  0.75768204071E+02 -0.11315445214E+03  0.14042840862E+03  0.00000000000E+00 0. -1.
        -12    1    4    4    0    0 -0.63898595563E+02  0.17298466802E+02 -0.33823307280E+02  0.74338977556E+02  0.00000000000E+00 0.  1.
        -13    1    3    3    0    0 -0.17943902203E+02  0.91201477856E+02 -0.34157613274E+02  0.99027449396E+02  0.00000000000E+00 0. -1.
         13    1    3    3    0    0  0.21589084063E+02 -0.12258916251E+02  0.31985907268E+01  0.25031990751E+02  0.00000000000E+00 0.  1.
         21    1    1    2  503  502 -0.16620418876E+02 -0.13694870285E+02  0.51195412428E+01  0.22135887113E+02  0.00000000000E+00 0. -1.
          2    1    1    2  501    0  0.11115775243E+03 -0.15831436219E+03 -0.71964980524E+02  0.20639389919E+03  0.00000000000E+00 0. -1.
<scales pt_clust_5="13000.00000" pt_clust_6="13000.00000" pt_clust_7="13000.00000" pt_clust_8="13000.00000" pt_clust_9="21.53573" pt_clust_10="167.31411"></scales>
<clustering>
<clus scale="   21.536">  1  9  2 -1</clus>
<clus scale="   78.876">  5  6 -1 -1</clus>
<clus scale="   90.482">  7  8 -1 -1</clus>
<clus scale="  117.297">  2  7  1 -1</clus>
<clus scale="  167.314">  1 10  2 -1</clus>
<clus scale="   21.536">  1  5  2 -1</clus>
</clustering>
</event>
<event>
10    3  0.7209067E-005  0.2150523E+03  0.7546771E-02  0.1177376E+00
         21   -1    0    0  501  502  0.00000000000E+00  0.00000000000E+00  0.41389172185E+03  0.41389172185E+03  0.00000000000E+00 0.  1.
          1   -1    0    0  503    0 -0.00000000000E+00 -0.00000000000E+00 -0.41481015838E+03  0.41481015838E+03  0.00000000000E+00 0. -1.
        -24    2    1    2    0    0  0.28453992097E+02  0.15057331539E+02 -0.31139065500E+02  0.89600881496E+02  0.77603631780E+02 0.  0.
         23    2    1    2    0    0  0.16326109891E+03  0.66028730793E+02 -0.80759867306E+02  0.21231743259E+03  0.86847891777E+02 0.  0.
         11    1    3    3    0    0  0.27636952027E+02  0.68679347096E+00 -0.55101479600E+02  0.61647756299E+02  0.00000000000E+00 0. -1.
        -12    1    3    3    0    0  0.81704006997E+00  0.14370538068E+02  0.23962414099E+02  0.27953125198E+02  0.00000000000E+00 0.  1.
        -13    1    4    4    0    0  0.16615938015E+03  0.44718749629E+02 -0.82330842199E+02  0.19075396132E+03  0.00000000000E+00 0.  1.
         13    1    4    4    0    0 -0.28982812366E+01  0.21309981165E+02  0.15709748924E+01  0.21563471276E+02  0.00000000000E+00 0. -1.
         21    1    1    2  503  502  0.27282250015E+02 -0.41189079007E+02  0.25625300697E+03  0.26097215364E+03  0.00000000000E+00 0.  1.
          2    1    1    2  501    0 -0.21899734103E+03 -0.39896983325E+02 -0.14527251069E+03  0.26581141250E+03  0.00000000000E+00 0. -1.
<scales pt_clust_5="13000.00000" pt_clust_6="13000.00000" pt_clust_7="13000.00000" pt_clust_8="13000.00000" pt_clust_9="49.40507" pt_clust_10="196.73578"></scales>
<clustering>
<clus scale="   49.405">  1  9  2 -1</clus>
<clus scale="   77.604">  5  6 -1 -1</clus>
<clus scale="   84.876">  2  5  1 -1</clus>
<clus scale="   86.848">  7  8 -1 -1</clus>
<clus scale="  196.736">  1 10  2 -1</clus>
<clus scale="   49.405">  1  5  2 -1</clus>
</clustering>
</event>
<event>
10    3  0.7209067E-005  0.4209021E+03  0.7546771E-02  0.1056404E+00
         21   -1    0    0  501  502  0.00000000000E+00  0.00000000000E+00  0.22992663198E+03  0.22992663198E+03  0.00000000000E+00 0. -1.
          1   -1    0    0  503    0 -0.00000000000E+00 -0.00000000000E+00 -0.18462129252E+04  0.18462129252E+04  0.00000000000E+00 0. -1.
        -24    2    1    2    0    0  0.13291689338E+03 -0.18720119985E+03 -0.67546942255E+03  0.71773014561E+03  0.78526628274E+02 0.  0.
         23    2    1    2    0    0 -0.17935317147E+03 -0.29352130817E+03 -0.56241643432E+03  0.66431562897E+03  0.81735493039E+02 0.  0.
         13    1    3    3    0    0  0.13369456516E+03 -0.18278960879E+03 -0.67626856133E+03  0.71317981245E+03  0.00000000000E+00 0. -1.
        -14    1    3    3    0    0 -0.77767178186E+00 -0.44115910600E+01  0.79913878541E+00  0.45503331614E+01  0.00000000000E+00 0.  1.
        -11    1    4    4    0    0 -0.18639408917E+03 -0.26508008241E+03 -0.52175591189E+03  0.61419820755E+03  0.00000000000E+00 0. -1.
         11    1    4    4    0    0  0.70409176913E+01 -0.28441225761E+02 -0.40660522438E+02  0.50117421418E+02  0.00000000000E+00 0.  1.
         21    1    1    2  503  502 -0.44729778288E+02  0.42932282668E+01  0.34842287869E+02  0.56860969906E+02  0.00000000000E+00 0.  1.
          2    1    1    2  501    0  0.91166056381E+02  0.47642927975E+03 -0.41324272420E+03  0.63723281267E+03  0.00000000000E+00 0. -1.
<scales pt_clust_5="13000.00000" pt_clust_6="13000.00000" pt_clust_7="13000.00000" pt_clust_8="13000.00000" pt_clust_9="44.93534" pt_clust_10="412.88970"></scales>
<clustering>
<clus scale="   44.935">  1  9  2 -1</clus>
<clus scale="   78.527">  5  6 -1 -1</clus>
<clus scale="   81.735">  7  8 -1 -1</clus>
<clus scale="  239.489">  2  5  1 -1</clus>
<clus scale="  412.890">  1 10  2 -1</clus>
<clus scale="   44.935">  1  5  2 -1</clus>
</clustering>
</event>
<event>
10    3  0.7209067E-005  0.2380497E+03  0.7546771E-02  0.1129034E+00
          1   -1    0    0  503    0 -0.00000000000E+00  0.00000000000E+00  0.72944089570E+03  0.72944089570E+03  0.00000000000E+00 0. -1.
         21   -1    0    0  501  502  0.00000000000E+00 -0.00000000000E+00 -0.73637915113E+03  0.73637915113E+03  0.00000000000E+00 0. -1.
        -24    2    1    2    0    0  0.17642588016E+03  0.93848777287E+01 -0.13852862133E+03  0.23863883612E+03  0.80895908787E+02 0.  0.
         23    2    1    2    0    0  0.74029118726E+02  0.18141968764E+03 -0.42347717864E+03  0.47538363311E+03  0.90902498924E+02 0.  0.
         13    1    3    3    0    0  0.17230068030E+03  0.24776218413E+02 -0.13890230970E+03  0.22269988117E+03  0.00000000000E+00 0. -1.
        -14    1    3    3    0    0  0.41251998519E+01 -0.15391340684E+02  0.37368837549E+00  0.15938954950E+02  0.00000000000E+00 0.  1.
        -11    1    4    4    0    0 -0.18887220253E+02  0.35475731263E+02 -0.53145210960E+02  0.66630834044E+02  0.00000000000E+00 0.  1.
         11    1    4    4    0    0  0.92916338979E+02  0.14594395638E+03 -0.37033196768E+03  0.40875279906E+03  0.00000000000E+00 0. -1.
         21    1    1    2  503  502  0.24926813289E+01  0.31544387670E+02 -0.50085098169E+02  0.59243387076E+02  0.00000000000E+00 0. -1.
          2    1    1    2  501    0 -0.25294768021E+03 -0.22234895304E+03  0.60515264271E+03  0.69255419053E+03  0.00000000000E+00 0. -1.
<scales pt_clust_5="13000.00000" pt_clust_6="13000.00000" pt_clust_7="13000.00000" pt_clust_8="13000.00000" pt_clust_9="31.64272" pt_clust_10="220.01011"></scales>
<clustering>
<clus scale="   31.643">  2  9  1 -1</clus>
<clus scale="   80.896">  5  6 -1 -1</clus>
<clus scale="   90.902">  7  8 -1 -1</clus>
<clus scale="  195.556">  1  5  2 -1</clus>
<clus scale="  220.010">  2 10  1 -1</clus>
<clus scale="   31.643">  2  5  1 -1</clus>
</clustering>
</event>
<event>
10    3  0.7209067E-005  0.9353485E+02  0.7546771E-02  0.1298923E+00
          1   -1    0    0  503    0 -0.00000000000E+00  0.00000000000E+00  0.44883491293E+03  0.44883491293E+03  0.00000000000E+00 0. -1.
         21   -1    0    0  501  502  0.00000000000E+00 -0.00000000000E+00 -0.21084256547E+03  0.21084256547E+03  0.00000000000E+00 0. -1.
         23    2    1    2    0    0 -0.31109092928E+01  0.10061820588E+02  0.33455538684E+03  0.34711660946E+03  0.91933213287E+02 0.  0.
        -24    2    1    2    0    0 -0.69846090879E+01 -0.61193429750E+02  0.30963510804E+02  0.10901380814E+03  0.84450285708E+02 0.  0.
         11    1    4    4    0    0 -0.43899436826E+02 -0.47912915582E+02  0.23349131401E+02  0.69050633382E+02  0.00000000000E+00 0. -1.
        -12    1    4    4    0    0  0.36914827738E+02 -0.13280514167E+02  0.76143794029E+01  0.39963174763E+02  0.00000000000E+00 0.  1.
        -13    1    3    3    0    0  0.75260662013E+01  0.50228325687E+02  0.19512947384E+03  0.20163094488E+03  0.00000000000E+00 0.  1.
         13    1    3    3    0    0 -0.10636975494E+02 -0.40166505099E+02  0.13942591300E+03  0.14548566457E+03  0.00000000000E+00 0. -1.
         21    1    1    2  503  502 -0.83293727997E+01  0.29967548250E+02 -0.15863343831E+03  0.16165395185E+03  0.00000000000E+00 0. -1.
          2    1    1    2  501    0  0.18424891180E+02  0.21164060912E+02  0.31106888114E+02  0.41893108949E+02  0.00000000000E+00 0. -1.
<scales pt_clust_5="13000.00000" pt_clust_6="13000.00000" pt_clust_7="13000.00000" pt_clust_8="13000.00000" pt_clust_9="46.85446" pt_clust_10="28.06056"></scales>
<clustering>
<clus scale="   28.061">  2 10  1 -1</clus>
<clus scale="   46.854">  2  9  1 -1</clus>
<clus scale="   84.450">  5  6 -1 -1</clus>
<clus scale="   86.191">  2  5  1 -1</clus>
<clus scale="   91.933">  7  8 -1 -1</clus>
<clus scale="   28.061">  2  5  1 -1</clus>
</clustering>
</event>
<event>
10    3  0.7209067E-005  0.5496659E+03  0.7546771E-02  0.1040345E+00
          3   -1    0    0  503    0 -0.00000000000E+00  0.00000000000E+00  0.56027344249E+03  0.56027344249E+03  0.00000000000E+00 0. -1.
         21   -1    0    0  501  502  0.00000000000E+00 -0.00000000000E+00 -0.13439700148E+04  0.13439700148E+04  0.00000000000E+00 0. -1.
        -24    2    1    2    0    0 -0.10184752465E+03  0.10895090075E+03  0.22814927392E+03  0.28408397789E+03  0.80052471875E+02 0.  0.
         23    2    1    2    0    0 -0.38012260419E+03  0.24926141807E+03 -0.25696722533E+03  0.53006879425E+03  0.91193875838E+02 0.  0.
         13    1    3    3    0    0  0.12550716320E+02  0.22798730907E+02  0.33101688218E+02  0.42107295971E+02  0.00000000000E+00 0. -1.
        -14    1    3    3    0    0 -0.11439824097E+03  0.86152169845E+02  0.19504758570E+03  0.24197668192E+03  0.00000000000E+00 0.  1.
        -11    1    4    4    0    0 -0.94959587317E+02  0.23275435557E+02 -0.75176681399E+02  0.12333127158E+03  0.00000000000E+00 0.  1.
         11    1    4    4    0    0 -0.28516301688E+03  0.22598598251E+03 -0.18179054393E+03  0.40673752267E+03  0.00000000000E+00 0. -1.
         21    1    1    2  503  502 -0.30625323454E+02  0.29990095740E+02 -0.29856327649E+03  0.30162451218E+03  0.00000000000E+00 0. -1.
          4    1    1    2  501    0  0.51259545229E+03 -0.38820241456E+03 -0.45631534443E+03  0.78846617299E+03  0.00000000000E+00 0. -1.
<scales pt_clust_5="13000.00000" pt_clust_6="13000.00000" pt_clust_7="13000.00000" pt_clust_8="13000.00000" pt_clust_9="42.86393" pt_clust_10="542.04854"></scales>
<clustering>
<clus scale="   42.864">  2  9  1 -1</clus>
<clus scale="   80.052">  5  6 -1 -1</clus>
<clus scale="   91.194">  7  8 -1 -1</clus>
<clus scale="  170.280">  1  5  2 -1</clus>
<clus scale="  542.049">  2 10  1 -1</clus>
<clus scale="   42.864">  2  5  1 -1</clus>
</clustering>
</event>
<event>
10    3  0.9989995E-005  0.2102377E+03  0.7546771E-02  0.1172986E+00
          1   -1    0    0  502    0 -0.00000000000E+00  0.00000000000E+00  0.14865136863E+04  0.14865136863E+04  0.00000000000E+00 0. -1.
         21   -1    0    0  503  502  0.00000000000E+00 -0.00000000000E+00 -0.92447936512E+02  0.92447936512E+02  0.00000000000E+00 0. -1.
        -24    2    1    2    0    0 -0.34231701976E+02 -0.48588512707E+02  0.24378790343E+03  0.26308884889E+03  0.79060404525E+02 0.  0.
         23    2    1    2    0    0  0.12033693721E+03  0.17848645465E+03  0.14448224022E+03  0.27436938566E+03  0.89805618408E+02 0.  0.
         13    1    3    3    0    0 -0.44337479137E+02  0.80389999903E+00  0.15235761808E+03  0.15867987301E+03  0.00000000000E+00 0. -1.
        -14    1    3    3    0    0  0.10105777161E+02 -0.49392412706E+02  0.91430285353E+02  0.10440897588E+03  0.00000000000E+00 0.  1.
        -11    1    4    4    0    0 -0.12267355657E+02  0.29937005937E+02  0.91953726920E+01  0.33634316081E+02  0.00000000000E+00 0.  1.
         11    1    4    4    0    0  0.13260429286E+03  0.14854944871E+03  0.13528686753E+03  0.24073506958E+03  0.00000000000E+00 0. -1.
         21    1    1    2  503  501 -0.18993881352E+02 -0.10234946577E+02 -0.44115270934E+01  0.22022334834E+02  0.00000000000E+00 0. -1.
          2    1    1    2  501    0 -0.67111353880E+02 -0.11966299536E+03  0.10102071332E+04  0.10194810534E+04  0.00000000000E+00 0. -1.
<scales pt_clust_5="13000.00000" pt_clust_6="13000.00000" pt_clust_7="13000.00000" pt_clust_8="13000.00000" pt_clust_9="21.57595" pt_clust_10="190.09178"></scales>
<clustering>
<clus scale="   21.576">  2  9  1 -1</clus>
<clus scale="   79.060">  5  6 -1 -1</clus>
<clus scale="   89.806">  7  8 -1 -1</clus>
<clus scale="  100.348">  1  5  2 -1</clus>
<clus scale="  190.092">  2 10  1 -1</clus>
<clus scale="   21.576">  2  5  1 -1</clus>
</clustering>
</event>
<event>
10    3  0.7209067E-005  0.3188254E+03  0.7546771E-02  0.1112710E+00
         21   -1    0    0  503  502  0.00000000000E+00  0.00000000000E+00  0.59632129575E+03  0.59632129575E+03  0.00000000000E+00 0.  1.
         -2   -1    0    0    0  501 -0.00000000000E+00 -0.00000000000E+00 -0.30263625698E+03  0.30263625698E+03  0.00000000000E+00 0.  1.
        -24    2    1    2    0    0  0.10460719483E+01  0.94483902722E+02  0.43451868950E+02  0.13255893070E+03  0.82191867314E+02 0.  0.
         23    2    1    2    0    0 -0.26538571802E+03 -0.16519997652E+03  0.87514689933E+02  0.33726038533E+03  0.91461111901E+02 0.  0.
         11    1    3    3    0    0  0.11905965788E+02  0.18801886436E+02 -0.22456145091E+02  0.31615524782E+02  0.00000000000E+00 0. -1.
        -12    1    3    3    0    0 -0.10859893839E+02  0.75682016286E+02  0.65908014040E+02  0.10094340592E+03  0.00000000000E+00 0.  1.
        -13    1    4    4    0    0 -0.34108087646E+02 -0.64784496111E+02  0.26344538747E+02  0.77810200494E+02  0.00000000000E+00 0. -1.
         13    1    4    4    0    0 -0.23127763037E+03 -0.10041548041E+03  0.61170151186E+02  0.25945018484E+03  0.00000000000E+00 0.  1.
         21    1    1    2  503  501 -0.23732410433E+02 -0.21031217814E+02  0.11962075599E+03  0.12375243308E+03  0.00000000000E+00 0. -1.
         -1    1    1    2    0  502  0.28807205650E+03  0.91747291610E+02  0.43097723895E+02  0.30538580363E+03  0.00000000000E+00 0.  1.
<scales pt_clust_5="13000.00000" pt_clust_6="13000.00000" pt_clust_7="13000.00000" pt_clust_8="13000.00000" pt_clust_9="31.71024" pt_clust_10="305.42510"></scales>
<clustering>
<clus scale="   31.710">  1  9  2 -1</clus>
<clus scale="   82.192">  5  6 -1 -1</clus>
<clus scale="   91.461">  7  8 -1 -1</clus>
<clus scale="  122.361">  2  5  1 -1</clus>
<clus scale="  305.425">  1 10  2 -1</clus>
<clus scale="   31.710">  1  5  2 -1</clus>
</clustering>
</event>
<event>
10    3  0.7209067E-005  0.2606264E+03  0.7546771E-02  0.1108101E+00
         21   -1    0    0  501  502  0.00000000000E+00  0.00000000000E+00  0.15742168509E+03  0.15742168509E+03  0.00000000000E+00 0.  1.
          1   -1    0    0  503    0 -0.00000000000E+00 -0.00000000000E+00 -0.31406449159E+04  0.31406449159E+04  0.00000000000E+00 0. -1.
        -24    2    1    2    0    0 -0.35575206134E+02 -0.25850462469E+03 -0.76473796673E+03  0.81202704498E+03  0.80458235957E+02 0.  0.
         23    2    1    2    0    0 -0.24571593773E+03  0.15792232112E+03 -0.12174728766E+04  0.12550017007E+04  0.86448146788E+02 0.  0.
         13    1    3    3    0    0 -0.10614438026E+02 -0.22198899229E+03 -0.69285010710E+03  0.72762150182E+03  0.00000000000E+00 0. -1.
        -14    1    3    3    0    0 -0.24960768108E+02 -0.36515632400E+02 -0.71887859632E+02  0.84405543162E+02  0.00000000000E+00 0.  1.
        -13    1    4    4    0    0 -0.67176754382E+02  0.68297423555E+02 -0.26447615070E+03  0.28129146571E+03  0.00000000000E+00 0.  1.
         13    1    4    4    0    0 -0.17853918335E+03  0.89624897567E+02 -0.95299672589E+03  0.97371023504E+03  0.00000000000E+00 0. -1.
         21    1    1    2  503  502  0.43714536126E+02  0.48206840625E+02  0.91212249230E+02  0.11204701942E+03  0.00000000000E+00 0.  1.
          2    1    1    2  501    0  0.23757660774E+03  0.52375462943E+02 -0.10922246367E+04  0.11189908358E+04  0.00000000000E+00 0. -1.
<scales pt_clust_5="13000.00000" pt_clust_6="13000.00000" pt_clust_7="13000.00000" pt_clust_8="13000.00000" pt_clust_9="65.07580" pt_clust_10="245.87168"></scales>
<clustering>
<clus scale="   65.076">  1  9  2 -1</clus>
<clus scale="   80.458">  5  6 -1 -1</clus>
<clus scale="   86.448">  7  8 -1 -1</clus>
<clus scale="  251.881">  2  5  1 -1</clus>
<clus scale="  245.872">  1 10  2 -1</clus>
<clus scale="   65.076">  1  5  2 -1</clus>
</clustering>
</event>
<event>
10    3  0.7209067E-005  0.1263056E+03  0.7546771E-02  0.1236005E+00
         21   -1    0    0  503  502  0.00000000000E+00  0.00000000000E+00  0.26016667419E+03  0.26016667419E+03  0.00000000000E+00 0.  1.
          1   -1    0    0  502    0 -0.00000000000E+00 -0.00000000000E+00 -0.17170207938E+03  0.17170207938E+03  0.00000000000E+00 0. -1.
        -24    2    1    2    0    0 -0.20310857109E+02 -0.66790609009E+02  0.36081975348E+02  0.11211753363E+03  0.79968218895E+02 0.  0.
         23    2    1    2    0    0 -0.23344160558E+02  0.13226611783E+03  0.11616502793E+03  0.19937998689E+03  0.90657540775E+02 0.  0.
         11    1    3    3    0    0 -0.28446028009E+02 -0.76070647014E+02  0.82020953609E+01  0.81628390986E+02  0.00000000000E+00 0. -1.
        -12    1    3    3    0    0  0.81351709003E+01  0.92800380043E+01  0.27879879987E+02  0.30489142642E+02  0.00000000000E+00 0.  1.
        -11    1    4    4    0    0 -0.22861230101E+02  0.12257089424E+02  0.62980212956E+02  0.68112989267E+02  0.00000000000E+00 0.  1.
         11    1    4    4    0    0 -0.48293045691E+00  0.12000902841E+03  0.53184814978E+02  0.13126699762E+03  0.00000000000E+00 0. -1.
         21    1    1    2  503  501  0.15806500935E+02 -0.16950673225E+02  0.12058850674E+02  0.26126359757E+02  0.00000000000E+00 0.  1.
          2    1    1    2  501    0  0.27848516732E+02 -0.48524835595E+02 -0.75841259150E+02  0.94244873298E+02  0.00000000000E+00 0. -1.
<scales pt_clust_5="13000.00000" pt_clust_6="13000.00000" pt_clust_7="13000.00000" pt_clust_8="13000.00000" pt_clust_9="23.17695" pt_clust_10="56.81005"></scales>
<clustering>
<clus scale="   23.177">  1  9  2 -1</clus>
<clus scale="   56.810">  1 10  2 -1</clus>
<clus scale="   79.968">  5  6 -1 -1</clus>
<clus scale="   90.658">  7  8 -1 -1</clus>
<clus scale="  118.866">  2  5  1 -1</clus>
<clus scale="   23.177">  1  5  2 -1</clus>
</clustering>
</event>
<event>
10    3  0.7209067E-005  0.1039125E+03  0.7546771E-02  0.1277100E+00
         21   -1    0    0  501  502  0.00000000000E+00  0.00000000000E+00  0.58493275823E+03  0.58493275823E+03  0.00000000000E+00 0.  1.
          1   -1    0    0  503    0 -0.00000000000E+00 -0.00000000000E+00 -0.56352294177E+02  0.56352294177E+02  0.00000000000E+00 0. -1.
         23    2    1    2    0    0 -0.29435124100E+02  0.51897668907E+02  0.10977767444E+03  0.15451843410E+03  0.90912122970E+02 0.  0.
        -24    2    1    2    0    0  0.41530993456E+02 -0.18609449623E+02  0.12856892227E+03  0.15824406358E+03  0.80250114326E+02 0.  0.
         11    1    4    4    0    0  0.26937117141E+02 -0.33631820239E+02  0.13028902457E+03  0.13722950679E+03  0.00000000000E+00 0. -1.
        -12    1    4    4    0    0  0.14593876315E+02  0.15022370616E+02 -0.17201022919E+01  0.21014556781E+02  0.00000000000E+00 0.  1.
        -11    1    3    3    0    0 -0.23763641875E+02  0.23375257769E+02  0.11933843393E+03  0.12390631608E+03  0.00000000000E+00 0. -1.
         11    1    3    3    0    0 -0.56714822248E+01  0.28522411137E+02 -0.95607594929E+01  0.30612118022E+02  0.00000000000E+00 0.  1.
         21    1    1    2  503  502 -0.13418708722E+02 -0.63519347023E+02  0.29109857543E+03  0.29825014637E+03  0.00000000000E+00 0.  1.
          2    1    1    2  501    0  0.13228393656E+01  0.30231127739E+02 -0.86470808584E+00  0.30272408368E+02  0.00000000000E+00 0. -1.
<scales pt_clust_5="13000.00000" pt_clust_6="13000.00000" pt_clust_7="13000.00000" pt_clust_8="13000.00000" pt_clust_9="49.56109" pt_clust_10="30.26007"></scales>
<clustering>
<clus scale="   30.260">  1 10  2 -1</clus>
<clus scale="   49.561">  1  9  2 -1</clus>
<clus scale="   80.250">  5  6 -1 -1</clus>
<clus scale="   90.912">  7  8 -1 -1</clus>
<clus scale="   94.725">  1  5  2 -1</clus>
<clus scale="   30.260">  1  5  2 -1</clus>
</clustering>
</event>
<event>
10    3  0.7209067E-005  0.1399866E+03  0.7546771E-02  0.1225760E+00
          1   -1    0    0  502    0 -0.00000000000E+00  0.00000000000E+00  0.10605794495E+04  0.10605794495E+04  0.00000000000E+00 0. -1.
         21   -1    0    0  503  502  0.00000000000E+00 -0.00000000000E+00 -0.74371880892E+02  0.74371880892E+02  0.00000000000E+00 0. -1.
        -24    2    1    2    0    0 -0.38303500756E+02 -0.51864106289E+02  0.24402241946E+03  0.26535102710E+03  0.81897391253E+02 0.  0.
         23    2    1    2    0    0  0.62272706996E+02 -0.68887466942E+02  0.52345686964E+03  0.53951413129E+03  0.91896846294E+02 0.  0.
         11    1    3    3    0    0 -0.58912166926E+02 -0.38411561439E+02  0.12154434405E+03  0.14042478070E+03  0.00000000000E+00 0. -1.
        -12    1    3    3    0    0  0.20608666170E+02 -0.13452544850E+02  0.12247807541E+03  0.12492624640E+03  0.00000000000E+00 0.  1.
        -11    1    4    4    0    0  0.54103054397E+02  0.33778726219E+00  0.14660694558E+03  0.15627172197E+03  0.00000000000E+00 0.  1.
         11    1    4    4    0    0  0.81696525988E+01 -0.69225254204E+02  0.37684992406E+03  0.38324240932E+03  0.00000000000E+00 0. -1.
         21    1    1    2  503  501 -0.26994295824E+02 -0.61515508031E-01 -0.37839160780E+02  0.46481156178E+02  0.00000000000E+00 0. -1.
          2    1    1    2  501    0  0.30250895837E+01  0.12081308874E+03  0.25656744027E+03  0.28360501579E+03  0.00000000000E+00 0. -1.
<scales pt_clust_5="13000.00000" pt_clust_6="13000.00000" pt_clust_7="13000.00000" pt_clust_8="13000.00000" pt_clust_9="26.99437" pt_clust_10="105.59928"></scales>
<clustering>
<clus scale="   26.994">  2  9  1 -1</clus>
<clus scale="   81.897">  5  6 -1 -1</clus>
<clus scale="   91.897">  7  8 -1 -1</clus>
<clus scale="  107.846">  1  5  2 -1</clus>
<clus scale="  105.599">  2 10  1 -1</clus>
<clus scale="   26.994">  2  5  1 -1</clus>
</clustering>
</event>
<event>
10    3  0.7209067E-005  0.9237615E+02  0.7546771E-02  0.1304796E+00
         21   -1    0    0  501  502  0.00000000000E+00  0.00000000000E+00  0.29618620640E+02  0.29618620640E+02  0.00000000000E+00 0. -1.
          1   -1    0    0  503    0 -0.00000000000E+00 -0.00000000000E+00 -0.72509370529E+03  0.72509370529E+03  0.00000000000E+00 0. -1.
         23    2    1    2    0    0  0.24949064981E+02  0.10702669981E+02 -0.37415065286E+03  0.38619347367E+03  0.91758841997E+02 0.  0.
        -24    2    1    2    0    0  0.40040698689E+02 -0.89434264328E+01 -0.15354786216E+03  0.17775728473E+03  0.79608189739E+02 0.  0.
         13    1    4    4    0    0  0.58950771891E+02  0.47253295839E+01 -0.13679943840E+03  0.14903559505E+03  0.00000000000E+00 0. -1.
        -14    1    4    4    0    0 -0.18910073202E+02 -0.13668756017E+02 -0.16748423758E+02  0.28721689678E+02  0.00000000000E+00 0.  1.
        -11    1    3    3    0    0 -0.50074458535E+01 -0.35903747713E+02 -0.96847389311E+02  0.10340972116E+03  0.00000000000E+00 0.  1.
         11    1    3    3    0    0  0.29956510835E+02  0.46606417694E+02 -0.27730326355E+03  0.28278375252E+03  0.00000000000E+00 0. -1.
         21    1    1    2  503  502  0.19984298855E+00  0.20636930860E+02 -0.26702318941E+02  0.33748136088E+02  0.00000000000E+00 0. -1.
          2    1    1    2  501    0 -0.65189606659E+02 -0.22396174408E+02 -0.14107425070E+03  0.15701343144E+03  0.00000000000E+00 0. -1.
<scales pt_clust_5="13000.00000" pt_clust_6="13000.00000" pt_clust_7="13000.00000" pt_clust_8="13000.00000" pt_clust_9="20.63790" pt_clust_10="67.08754"></scales>
<clustering>
<clus scale="   20.638">  1  9  2 -1</clus>
<clus scale="   67.088">  1 10  2 -1</clus>
<clus scale="   79.608">  5  6 -1 -1</clus>
<clus scale="   80.319">  1  5  2 -1</clus>
<clus scale="   91.759">  7  8 -1 -1</clus>
<clus scale="   20.638">  1  5  2 -1</clus>
</clustering>
</event>
<event>
10    3  0.7209067E-005  0.1884536E+03  0.7546771E-02  0.1163485E+00
         21   -1    0    0  503  502  0.00000000000E+00  0.00000000000E+00  0.60057978210E+02  0.60057978210E+02  0.00000000000E+00 0. -1.
          1   -1    0    0  502    0 -0.00000000000E+00 -0.00000000000E+00 -0.14527348897E+04  0.14527348897E+04  0.00000000000E+00 0. -1.
        -24    2    1    2    0    0  0.16674526688E+03  0.78162835860E+02 -0.50135367628E+03  0.54002469357E+03  0.79735487751E+02 0.  0.
         23    2    1    2    0    0 -0.13866834383E+03  0.61964545197E+02 -0.38818069705E+03  0.43081987911E+03  0.10887148494E+03 0.  0.
         13    1    3    3    0    0  0.12568753882E+03  0.34630159313E+02 -0.25361779818E+03  0.28516415080E+03  0.00000000000E+00 0. -1.
        -14    1    3    3    0    0  0.41057728060E+02  0.43532676547E+02 -0.24773587810E+03  0.25486054277E+03  0.00000000000E+00 0.  1.
        -11    1    4    4    0    0 -0.11380050600E+03  0.20394764112E+02 -0.35159599963E+03  0.37011653371E+03  0.00000000000E+00 0. -1.
         11    1    4    4    0    0 -0.24867837831E+02  0.41569781085E+02 -0.36584697419E+02  0.60703345403E+02  0.00000000000E+00 0.  1.
         21    1    1    2  503  501  0.30602459747E+02 -0.53627012186E+02 -0.58052084205E+02  0.84749108898E+02  0.00000000000E+00 0. -1.
          2    1    1    2  501    0 -0.58679382804E+02 -0.86500368871E+02 -0.44509045396E+03  0.45719918634E+03  0.00000000000E+00 0. -1.
<scales pt_clust_5="13000.00000" pt_clust_6="13000.00000" pt_clust_7="13000.00000" pt_clust_8="13000.00000" pt_clust_9="61.74437" pt_clust_10="108.28969"></scales>
<clustering>
<clus scale="   61.744">  1  9  2 -1</clus>
<clus scale="   79.735">  5  6 -1 -1</clus>
<clus scale="  108.290">  1 10  2 -1</clus>
<clus scale="  108.871">  7  8 -1 -1</clus>
<clus scale="  173.261">  2  5  1 -1</clus>
<clus scale="   61.744">  1  5  2 -1</clus>
</clustering>
</event>
<event>
10    3  0.7209067E-005  0.1038788E+03  0.7546771E-02  0.1276937E+00
         21   -1    0    0  501  502  0.00000000000E+00  0.00000000000E+00  0.22289269924E+03  0.22289269924E+03  0.00000000000E+00 0.  1.
          1   -1    0    0  503    0 -0.00000000000E+00 -0.00000000000E+00 -0.12406033752E+03  0.12406033752E+03  0.00000000000E+00 0. -1.
         23    2    1    2    0    0 -0.47934183298E+02  0.55195533531E+02 -0.89909778600E+01  0.11668212573E+03  0.90496673594E+02 0.  0.
        -24    2    1    2    0    0 -0.38620088143E+02 -0.37767366482E+02  0.62964738209E+02  0.11544622619E+03  0.80283171982E+02 0.  0.
         13    1    4    4    0    0  0.51456883401E+01 -0.26559379232E+02  0.64810739670E+02  0.70230411577E+02  0.00000000000E+00 0. -1.
        -14    1    4    4    0    0 -0.43765776483E+02 -0.11207987250E+02 -0.18460014604E+01  0.45215814609E+02  0.00000000000E+00 0.  1.
        -13    1    3    3    0    0 -0.21378559139E+02 -0.97319282642E+01 -0.34758292491E+02  0.41951068110E+02  0.00000000000E+00 0. -1.
         13    1    3    3    0    0 -0.26555624159E+02  0.64927461795E+02  0.25767314631E+02  0.74731057620E+02  0.00000000000E+00 0.  1.
         21    1    1    2  503  502  0.57863213444E+01 -0.19979908837E+02  0.23209653725E+02  0.31166749877E+02  0.00000000000E+00 0. -1.
          2    1    1    2  501    0  0.80767950096E+02  0.25517417875E+01  0.21648947647E+02  0.83657934968E+02  0.00000000000E+00 0. -1.
<scales pt_clust_5="13000.00000" pt_clust_6="13000.00000" pt_clust_7="13000.00000" pt_clust_8="13000.00000" pt_clust_9="20.80092" pt_clust_10="82.37319"></scales>
<clustering>
<clus scale="   20.801">  1  9  2 -1</clus>
<clus scale="   80.283">  5  6 -1 -1</clus>
<clus scale="   82.373">  1 10  2 -1</clus>
<clus scale="   90.497">  7  8 -1 -1</clus>
<clus scale="   95.113">  1  5  2 -1</clus>
<clus scale="   20.801">  1  5  2 -1</clus>
</clustering>
</event>
<event>
10    3  0.7209067E-005  0.4658936E+03  0.7546771E-02  0.1023086E+00
         21   -1    0    0  503  502  0.00000000000E+00  0.00000000000E+00  0.53461714611E+03  0.53461714611E+03  0.00000000000E+00 0. -1.
          1   -1    0    0  502    0 -0.00000000000E+00 -0.00000000000E+00 -0.79972177583E+03  0.79972177583E+03  0.00000000000E+00 0. -1.
        -24    2    1    2    0    0  0.24895173082E+03 -0.12860414428E+03 -0.29704103677E+03  0.41616686708E+03  0.80283831027E+02 0.  0.
         23    2    1    2    0    0  0.14859299401E+03 -0.73279769429E+01 -0.13350630367E+03  0.21971253359E+03  0.91192582950E+02 0.  0.
         13    1    3    3    0    0  0.24926936683E+03 -0.13497862247E+03 -0.28209454288E+03  0.39991471201E+03  0.00000000000E+00 0. -1.
        -14    1    3    3    0    0 -0.31763600383E+00  0.63744781849E+01 -0.14946493891E+02  0.16252155070E+02  0.00000000000E+00 0.  1.
        -13    1    4    4    0    0  0.35475202765E+02 -0.34727960333E+01  0.99264488906E+01  0.37001144726E+02  0.00000000000E+00 0. -1.
         13    1    4    4    0    0  0.11311779124E+03 -0.38551809095E+01 -0.14343275256E+03  0.18271138887E+03  0.00000000000E+00 0.  1.
         21    1    1    2  503  501 -0.19705504042E+02 -0.36919454643E+02  0.26738217825E+03  0.27063736302E+03  0.00000000000E+00 0. -1.
          2    1    1    2  501    0 -0.37783922079E+03  0.17285157587E+03 -0.10193946753E+03  0.42782215824E+03  0.00000000000E+00 0. -1.
<scales pt_clust_5="13000.00000" pt_clust_6="13000.00000" pt_clust_7="13000.00000" pt_clust_8="13000.00000" pt_clust_9="41.84917" pt_clust_10="417.85717"></scales>
<clustering>
<clus scale="   41.849">  1  9  2 -1</clus>
<clus scale="   80.284">  5  6 -1 -1</clus>
<clus scale="   91.193">  7  8 -1 -1</clus>
<clus scale="  113.078">  5  7 -1 -1</clus>
<clus scale="  417.857">  1 10  2 -1</clus>
<clus scale="   41.849">  1  5  2 -1</clus>
</clustering>
</event>
<event>
10    3  0.7209067E-005  0.2611059E+03  0.7546771E-02  0.1141346E+00
         21   -1    0    0  503  502  0.00000000000E+00  0.00000000000E+00  0.70436407901E+03  0.70436407901E+03  0.00000000000E+00 0. -1.
          1   -1    0    0  502    0 -0.00000000000E+00 -0.00000000000E+00 -0.18412911527E+03  0.18412911527E+03  0.00000000000E+00 0. -1.
        -24    2    1    2    0    0  0.12947031792E+00  0.68154101425E+02  0.14902984188E+03  0.18231176771E+03  0.79891730301E+02 0.  0.
         23    2    1    2    0    0  0.12735899267E+03 -0.25958741725E+03  0.16608515095E+03  0.34593761823E+03  0.92101129929E+02 0.  0.
         11    1    3    3    0    0  0.16322025870E+02  0.45305675354E+02  0.14647851459E+03  0.15419133563E+03  0.00000000000E+00 0. -1.
        -12    1    3    3    0    0 -0.16192555552E+02  0.22848426071E+02  0.25513272909E+01  0.28120432077E+02  0.00000000000E+00 0.  1.
        -13    1    4    4    0    0  0.35115184720E+02 -0.15433547291E+03  0.11988110961E+03  0.19855476533E+03  0.00000000000E+00 0.  1.
         13    1    4    4    0    0  0.92243807949E+02 -0.10525194434E+03  0.46204041346E+02  0.14738285290E+03  0.00000000000E+00 0. -1.
         21    1    1    2  503  501 -0.42616456687E+01  0.24459504821E+02  0.14081591085E+03  0.14298793567E+03  0.00000000000E+00 0. -1.
          2    1    1    2  501    0 -0.12322681732E+03  0.16697381100E+03  0.64304060066E+02  0.21725587267E+03  0.00000000000E+00 0. -1.
<scales pt_clust_5="13000.00000" pt_clust_6="13000.00000" pt_clust_7="13000.00000" pt_clust_8="13000.00000" pt_clust_9="24.82799" pt_clust_10="244.32303"></scales>
<clustering>
<clus scale="   24.828">  1  9  2 -1</clus>
<clus scale="   79.892">  5  6 -1 -1</clus>
<clus scale="   92.101">  7  8 -1 -1</clus>
<clus scale="  109.831">  2  5  1 -1</clus>
<clus scale="  244.323">  1 10  2 -1</clus>
<clus scale="   24.828">  1  5  2 -1</clus>
</clustering>
</event>
<event>
10    3  0.7209067E-005  0.1795185E+03  0.7546771E-02  0.1197684E+00
         21   -1    0    0  503  502  0.00000000000E+00  0.00000000000E+00  0.29112487764E+03  0.29112487764E+03  0.00000000000E+00 0. -1.
         -4   -1    0    0    0  501 -0.00000000000E+00 -0.00000000000E+00 -0.72184260606E+03  0.72184260606E+03  0.00000000000E+00 0.  1.
        -24    2    1    2    0    0 -0.11342133212E+02  0.48044891772E+02 -0.12855108461E+03  0.15914025290E+03  0.79770189458E+02 0.  0.
         23    2    1    2    0    0  0.68442022400E+02 -0.13375505353E+03  0.91928297262E+02  0.19649028824E+03  0.87079829811E+02 0.  0.
         13    1    3    3    0    0 -0.19912076264E+02 -0.16746045692E+02 -0.54379678022E+02  0.60283249823E+02  0.00000000000E+00 0. -1.
        -14    1    3    3    0    0  0.85699430514E+01  0.64790937464E+02 -0.74171406591E+02  0.98857003075E+02  0.00000000000E+00 0.  1.
        -11    1    4    4    0    0 -0.14354729604E+02 -0.52156996926E+02  0.11987780000E+02  0.55408640659E+02  0.00000000000E+00 0.  1.
         11    1    4    4    0    0  0.82796752004E+02 -0.81598056604E+02  0.79940517262E+02  0.14108164758E+03  0.00000000000E+00 0. -1.
         21    1    1    2  503  501 -0.21613194907E+02 -0.23583712091E+02  0.12327578655E+03  0.12735871082E+03  0.00000000000E+00 0. -1.
         -3    1    1    2    0  502 -0.35486694281E+02  0.10929387385E+03 -0.51737072762E+03  0.52997823175E+03  0.00000000000E+00 0.  1.
<scales pt_clust_5="13000.00000" pt_clust_6="13000.00000" pt_clust_7="13000.00000" pt_clust_8="13000.00000" pt_clust_9="31.98940" pt_clust_10="156.98418"></scales>
<clustering>
<clus scale="   31.989">  1  9  2 -1</clus>
<clus scale="   79.770">  5  6 -1 -1</clus>
<clus scale="   87.080">  7  8 -1 -1</clus>
<clus scale="   92.979">  2  5  1 -1</clus>
<clus scale="  156.984">  1 10  2 -1</clus>
<clus scale="   31.989">  1  5  2 -1</clus>
</clustering>
</event>
<event>
10    3  0.7209067E-005  0.1110963E+03  0.7546771E-02  0.1267353E+00
          1   -1    0    0  503    0 -0.00000000000E+00  0.00000000000E+00  0.15925151963E+04  0.15925151963E+04  0.00000000000E+00 0. -1.
         21   -1    0    0  501  502  0.00000000000E+00 -0.00000000000E+00 -0.26144445956E+02  0.26144445956E+02  0.00000000000E+00 0.  1.
        -24    2    1    2    0    0  0.61555860678E+02  0.72745764238E+01  0.62199356075E+03  0.63042805244E+03  0.81984731801E+02 0.  0.
         23    2    1    2    0    0  0.10089621855E+02 -0.24765875359E+02  0.20835815158E+03  0.23333340739E+03  0.10156874828E+03 0.  0.
         13    1    3    3    0    0  0.11280922844E+02 -0.34675793382E+02  0.18542472569E+03  0.18897618570E+03  0.00000000000E+00 0. -1.
        -14    1    3    3    0    0  0.50274937834E+02  0.41950369805E+02  0.43656883506E+03  0.44145186674E+03  0.00000000000E+00 0.  1.
        -13    1    4    4    0    0 -0.60730488759E+01 -0.59129475658E+02  0.81234390297E+02  0.10065884453E+03  0.00000000000E+00 0.  1.
         13    1    4    4    0    0  0.16162670731E+02  0.34363600299E+02  0.12712376128E+03  0.13267456287E+03  0.00000000000E+00 0. -1.
         21    1    1    2  503  502  0.43850536543E+01 -0.53485084196E+02  0.14120376674E+03  0.15105756078E+03  0.00000000000E+00 0. -1.
          2    1    1    2  501    0 -0.76030536187E+02  0.70976383132E+02  0.59481527133E+03  0.60384062169E+03  0.00000000000E+00 0. -1.
<scales pt_clust_5="13000.00000" pt_clust_6="13000.00000" pt_clust_7="13000.00000" pt_clust_8="13000.00000" pt_clust_9="53.66454" pt_clust_10="95.87474"></scales>
<clustering>
<clus scale="   53.665">  2  9  1 -1</clus>
<clus scale="   81.985">  5  6 -1 -1</clus>
<clus scale="   95.875">  2 10  1 -1</clus>
<clus scale="   93.529">  1  5  2 -1</clus>
<clus scale="  101.569">  7  8 -1 -1</clus>
<clus scale="   53.665">  2  5  1 -1</clus>
</clustering>
</event>
<event>
10    3  0.7209067E-005  0.3878317E+03  0.7546771E-02  0.1070363E+00
          1   -1    0    0  503    0 -0.00000000000E+00  0.00000000000E+00  0.21421135547E+04  0.21421135547E+04  0.00000000000E+00 0. -1.
         21   -1    0    0  501  502  0.00000000000E+00 -0.00000000000E+00 -0.20043422723E+03  0.20043422723E+03  0.00000000000E+00 0. -1.
        -24    2    1    2    0    0 -0.42282001289E+02 -0.18579117051E+03  0.83157619323E+03  0.85683215542E+03  0.79600570017E+02 0.  0.
         23    2    1    2    0    0  0.36375958062E+03 -0.11037397080E+03  0.19385963160E+03  0.43626273584E+03  0.90775393132E+02 0.  0.
         13    1    3    3    0    0 -0.92239926711E+01 -0.16859102132E+03  0.70055757526E+03  0.72061704862E+03  0.00000000000E+00 0. -1.
        -14    1    3    3    0    0 -0.33058008618E+02 -0.17200149188E+02  0.13101861797E+03  0.13621510680E+03  0.00000000000E+00 0.  1.
        -13    1    4    4    0    0  0.10222064215E+03 -0.47732746885E+02  0.16272157170E+02  0.11398358612E+03  0.00000000000E+00 0.  1.
         13    1    4    4    0    0  0.26153893848E+03 -0.62641223915E+02  0.17758747443E+03  0.32227914972E+03  0.00000000000E+00 0. -1.
         21    1    1    2  503  502 -0.20627228512E+02 -0.13669734800E+02 -0.10609541671E+02  0.26924089215E+02  0.00000000000E+00 0. -1.
          2    1    1    2  501    0 -0.30085035082E+03  0.30983487611E+03  0.92685304432E+03  0.10225288015E+04  0.00000000000E+00 0. -1.
<scales pt_clust_5="13000.00000" pt_clust_6="13000.00000" pt_clust_7="13000.00000" pt_clust_8="13000.00000" pt_clust_9="24.74559" pt_clust_10="377.05892"></scales>
<clustering>
<clus scale="   24.746">  2  9  1 -1</clus>
<clus scale="   79.601">  5  6 -1 -1</clus>
<clus scale="   90.775">  7  8 -1 -1</clus>
<clus scale="  207.653">  1  5  2 -1</clus>
<clus scale="  377.059">  2 10  1 -1</clus>
<clus scale="   24.746">  2  5  1 -1</clus>
</clustering>
</event>
<event>
10    3  0.7209067E-005  0.1332055E+03  0.7546771E-02  0.1235554E+00
          1   -1    0    0  502    0 -0.00000000000E+00  0.00000000000E+00  0.88421825614E+03  0.88421825614E+03  0.00000000000E+00 0. -1.
         21   -1    0    0  503  502  0.00000000000E+00 -0.00000000000E+00 -0.75794405983E+02  0.75794405983E+02  0.00000000000E+00 0. -1.
        -24    2    1    2    0    0 -0.62633089694E+02 -0.14389586487E+02  0.46378504839E+03  0.47496655819E+03  0.79791579563E+02 0.  0.
         23    2    1    2    0    0 -0.30512092096E+02  0.71795281317E+02  0.10635004742E+03  0.16080643467E+03  0.91993622938E+02 0.  0.
         13    1    3    3    0    0 -0.54650919892E+02 -0.39837152281E+02  0.40232198995E+03  0.40796654930E+03  0.00000000000E+00 0. -1.
        -14    1    3    3    0    0 -0.79821698024E+01  0.25447565794E+02  0.61463058434E+02  0.67000008893E+02  0.00000000000E+00 0.  1.
        -11    1    4    4    0    0 -0.17713470515E+02 -0.17215768875E+02  0.46894464353E+02  0.53002269032E+02  0.00000000000E+00 0.  1.
         11    1    4    4    0    0 -0.12798621580E+02  0.89011050192E+02  0.59455583062E+02  0.10780416563E+03  0.00000000000E+00 0. -1.
         21    1    1    2  503  501 -0.17784350768E+01  0.20069100233E+02 -0.26021892456E+02  0.32910036501E+02  0.00000000000E+00 0. -1.
          2    1    1    2  501    0  0.94923616867E+02 -0.77474795063E+02  0.26431064681E+03  0.29132963276E+03  0.00000000000E+00 0. -1.
<scales pt_clust_5="13000.00000" pt_clust_6="13000.00000" pt_clust_7="13000.00000" pt_clust_8="13000.00000" pt_clust_9="20.14774" pt_clust_10="96.33739"></scales>
<clustering>
<clus scale="   20.148">  2  9  1 -1</clus>
<clus scale="   79.792">  5  6 -1 -1</clus>
<clus scale="   91.994">  7  8 -1 -1</clus>
<clus scale="  102.273">  1  5  2 -1</clus>
<clus scale="   96.337">  2 10  1 -1</clus>
<clus scale="   20.148">  2  5  1 -1</clus>
</clustering>
</event>
<event>
10    3  0.7209067E-005  0.3572766E+03  0.7546771E-02  0.1059667E+00
          1   -1    0    0  503    0 -0.00000000000E+00  0.00000000000E+00  0.67160458881E+03  0.67160458881E+03  0.00000000000E+00 0. -1.
         21   -1    0    0  501  502  0.00000000000E+00 -0.00000000000E+00 -0.40502975213E+03  0.40502975213E+03  0.00000000000E+00 0. -1.
        -24    2    1    2    0    0  0.10503399011E+03 -0.94266968589E+02  0.18943247001E+03  0.24945248808E+03  0.80146632290E+02 0.  0.
         23    2    1    2    0    0  0.13287697479E+03 -0.11387793125E+03  0.54068906829E+02  0.20502232120E+03  0.92120746029E+02 0.  0.
         13    1    3    3    0    0  0.11574035065E+03 -0.79802939830E+02  0.18201943528E+03  0.22999002760E+03  0.00000000000E+00 0. -1.
        -14    1    3    3    0    0 -0.10706360541E+02 -0.14464028759E+02  0.74130347310E+01  0.19462460479E+02  0.00000000000E+00 0.  1.
        -11    1    4    4    0    0  0.66912483683E+02 -0.57634783196E+01  0.38518149546E+02  0.77421870292E+02  0.00000000000E+00 0.  1.
         11    1    4    4    0    0  0.65964491108E+02 -0.10811445293E+03  0.15550757283E+02  0.12760045091E+03  0.00000000000E+00 0. -1.
         21    1    1    2  503  502 -0.28336241161E+02  0.25435830555E+03 -0.19076095068E+03  0.31920343117E+03  0.00000000000E+00 0.  1.
          2    1    1    2  501    0 -0.20957472374E+03 -0.46213405708E+02  0.21383441053E+03  0.30295610049E+03  0.00000000000E+00 0. -1.
<scales pt_clust_5="13000.00000" pt_clust_6="13000.00000" pt_clust_7="13000.00000" pt_clust_8="13000.00000" pt_clust_9="283.40438" pt_clust_10="214.60962"></scales>
<clustering>
<clus scale="   80.147">  5  6 -1 -1</clus>
<clus scale="   92.121">  7  8 -1 -1</clus>
<clus scale="  149.821">  5  7 -1 -1</clus>
<clus scale="  214.610">  2 10  1 -1</clus>
<clus scale="  283.404">  2  9  1 -1</clus>
<clus scale="  214.610">  2  5  1 -1</clus>
</clustering>
</event>
<event>
10    3  0.7209067E-005  0.1537047E+03  0.7546771E-02  0.1196585E+00
         21   -1    0    0  501  502  0.00000000000E+00  0.00000000000E+00  0.94695860448E+02  0.94695860448E+02  0.00000000000E+00 0. -1.
          3   -1    0    0  503    0 -0.00000000000E+00 -0.00000000000E+00 -0.93574942595E+03  0.93574942595E+03  0.00000000000E+00 0. -1.
         23    2    1    2    0    0 -0.24065753996E+02  0.10905129651E+03 -0.28947469342E+03  0.32378713280E+03  0.92580578144E+02 0.  0.
        -24    2    1    2    0    0  0.10376995410E+03 -0.52286937772E+02 -0.11800287534E+03  0.18387792934E+03  0.79901733861E+02 0.  0.
         13    1    4    4    0    0  0.11234899140E+03 -0.28797484256E+02 -0.95580149915E+02  0.15029023929E+03  0.00000000000E+00 0. -1.
        -14    1    4    4    0    0 -0.85790372983E+01 -0.23489453516E+02 -0.22422725428E+02  0.33587690052E+02  0.00000000000E+00 0.  1.
        -13    1    3    3    0    0  0.19434435496E+01  0.91420990314E+02 -0.11710591386E+03  0.14857782305E+03  0.00000000000E+00 0. -1.
         13    1    3    3    0    0 -0.26009197546E+02  0.17630306193E+02 -0.17236877956E+03  0.17520930974E+03  0.00000000000E+00 0.  1.
         21    1    1    2  503  502  0.61411964431E+02  0.42772888716E+02 -0.24499481634E+02  0.78747533197E+02  0.00000000000E+00 0. -1.
          4    1    1    2  501    0 -0.14111616453E+03 -0.99537247451E+02 -0.40907651511E+03  0.44403269107E+03  0.00000000000E+00 0. -1.
<scales pt_clust_5="13000.00000" pt_clust_6="13000.00000" pt_clust_7="13000.00000" pt_clust_8="13000.00000" pt_clust_9="74.83949" pt_clust_10="131.30450"></scales>
<clustering>
<clus scale="   74.839">  1  9  2 -1</clus>
<clus scale="   79.902">  5  6 -1 -1</clus>
<clus scale="   92.581">  7  8 -1 -1</clus>
<clus scale="  151.729">  2  7  1 -1</clus>
<clus scale="  131.304">  1 10  2 -1</clus>
<clus scale="   74.839">  1  5  2 -1</clus>
</clustering>
</event>
<event>
10    3  0.7209067E-005  0.1522898E+03  0.7546771E-02  0.1199415E+00
          1   -1    0    0  503    0 -0.00000000000E+00  0.00000000000E+00  0.66623738123E+03  0.66623738123E+03  0.00000000000E+00 0. -1.
         21   -1    0    0  501  502  0.00000000000E+00 -0.00000000000E+00 -0.22214627701E+03  0.22214627701E+03  0.00000000000E+00 0. -1.
        -24    2    1    2    0    0  0.41324253506E+02 -0.13062082239E+03  0.50875968208E+03  0.53304288229E+03  0.80801033902E+02 0.  0.
         23    2    1    2    0    0 -0.46802532238E+02  0.60610259421E+02  0.43398717891E+02  0.12632264051E+03  0.90608389352E+02 0.  0.
         13    1    3    3    0    0  0.39976597636E+01 -0.85332469796E+02  0.40429381285E+03  0.41322039978E+03  0.00000000000E+00 0. -1.
        -14    1    3    3    0    0  0.37326593743E+02 -0.45288352590E+02  0.10446586923E+03  0.11982248251E+03  0.00000000000E+00 0.  1.
        -11    1    4    4    0    0 -0.55880870797E+02 -0.51362638128E+00  0.28619679292E+02  0.62785520431E+02  0.00000000000E+00 0. -1.
         11    1    4    4    0    0  0.90783385584E+01  0.61123885802E+02  0.14779038599E+02  0.63537120083E+02  0.00000000000E+00 0.  1.
         21    1    1    2  503  502 -0.86959614764E+02  0.19262478148E+02 -0.80420997856E+02  0.12000231065E+03  0.00000000000E+00 0. -1.
          2    1    1    2  501    0  0.92437893496E+02  0.50748084817E+02 -0.27646297904E+02  0.10901582479E+03  0.00000000000E+00 0. -1.
<scales pt_clust_5="13000.00000" pt_clust_6="13000.00000" pt_clust_7="13000.00000" pt_clust_8="13000.00000" pt_clust_9="89.06749" pt_clust_10="75.48345"></scales>
<clustering>
<clus scale="   80.801">  5  6 -1 -1</clus>
<clus scale="   89.067">  2  9  1 -1</clus>
<clus scale="   75.483">  2 10  1 -1</clus>
<clus scale="   90.608">  7  8 -1 -1</clus>
<clus scale="  146.667">  1  5  2 -1</clus>
<clus scale="   89.067">  2  5  1 -1</clus>
</clustering>
</event>
<event>
10    3  0.7209067E-005  0.1784994E+03  0.7546771E-02  0.1193274E+00
          1   -1    0    0  502    0 -0.00000000000E+00  0.00000000000E+00  0.97794500668E+03  0.97794500668E+03  0.00000000000E+00 0. -1.
         21   -1    0    0  503  502  0.00000000000E+00 -0.00000000000E+00 -0.82890003001E+02  0.82890003001E+02  0.00000000000E+00 0. -1.
         23    2    1    2    0    0  0.17198993874E+02  0.43326113656E+02  0.19039012863E+03  0.21638554067E+03  0.91658843632E+02 0.  0.
        -24    2    1    2    0    0 -0.19915267303E+03 -0.99449429508E+01  0.26761050512E+03  0.34289483400E+03  0.78745131079E+02 0.  0.
         13    1    4    4    0    0 -0.16572489723E+03 -0.37669165273E+02  0.22579170617E+03  0.28260502853E+03  0.00000000000E+00 0. -1.
        -14    1    4    4    0    0 -0.33427775795E+02  0.27724222322E+02  0.41818798950E+02  0.60289805470E+02  0.00000000000E+00 0.  1.
        -13    1    3    3    0    0  0.28681621417E+02  0.68354697490E+02  0.12335237033E+03  0.14391249891E+03  0.00000000000E+00 0.  1.
         13    1    3    3    0    0 -0.11482627542E+02 -0.25028583835E+02  0.67037758299E+02  0.72473041759E+02  0.00000000000E+00 0. -1.
         21    1    1    2  503  501  0.48299337121E+02 -0.10190887098E+02  0.60798545369E+01  0.49735749490E+02  0.00000000000E+00 0. -1.
          2    1    1    2  501    0  0.13365434203E+03 -0.23190283607E+02  0.43097451539E+03  0.45181888552E+03  0.00000000000E+00 0. -1.
<scales pt_clust_5="13000.00000" pt_clust_6="13000.00000" pt_clust_7="13000.00000" pt_clust_8="13000.00000" pt_clust_9="49.36274" pt_clust_10="160.19138"></scales>
<clustering>
<clus scale="   49.363">  2  9  1 -1</clus>
<clus scale="   78.745">  5  6 -1 -1</clus>
<clus scale="   91.659">  7  8 -1 -1</clus>
<clus scale="  104.165">  1  7  2 -1</clus>
<clus scale="  160.191">  2 10  1 -1</clus>
<clus scale="   49.363">  2  5  1 -1</clus>
</clustering>
</event>
<event>
10    3  0.7209067E-005  0.1256847E+03  0.7546771E-02  0.1251983E+00
         21   -1    0    0  501  502  0.00000000000E+00  0.00000000000E+00  0.91722793914E+03  0.91722793914E+03  0.00000000000E+00 0. -1.
         -4   -1    0    0    0  501 -0.00000000000E+00 -0.00000000000E+00 -0.29658841805E+03  0.29658841805E+03  0.00000000000E+00 0.  1.
        -24    2    1    2    0    0  0.25395837307E+02 -0.18816486876E+02 -0.24640721046E+03  0.26142933894E+03  0.81423443576E+02 0.  0.
         23    2    1    2    0    0  0.50689027640E+02 -0.20292506268E+02  0.79276965661E+02  0.13376107601E+03  0.92876395475E+02 0.  0.
         11    1    3    3    0    0 -0.12503952365E+02 -0.22613889035E+02 -0.22372886998E+02  0.34180153227E+02  0.00000000000E+00 0. -1.
        -12    1    3    3    0    0  0.37899789672E+02  0.37974021591E+01 -0.22403432346E+03  0.22724918571E+03  0.00000000000E+00 0.  1.
        -13    1    4    4    0    0  0.14244637728E+02  0.32861895952E+02  0.62419017147E+01  0.36356227067E+02  0.00000000000E+00 0. -1.
         13    1    4    4    0    0  0.36444389911E+02 -0.53154402219E+02  0.73035063946E+02  0.97404848940E+02  0.00000000000E+00 0.  1.
         21    1    1    2  503  502  0.46234270225E+02  0.52906394806E+02  0.50981465516E+03  0.51463353658E+03  0.00000000000E+00 0. -1.
         -3    1    1    2    0  503 -0.12231913517E+03 -0.13797401662E+02  0.27795511073E+03  0.30399240567E+03  0.00000000000E+00 0.  1.
<scales pt_clust_5="13000.00000" pt_clust_6="13000.00000" pt_clust_7="13000.00000" pt_clust_8="13000.00000" pt_clust_9="70.26161" pt_clust_10="84.67951"></scales>
<clustering>
<clus scale="   70.262">  1  9  2 -1</clus>
<clus scale="   81.423">  5  6 -1 -1</clus>
<clus scale="   87.391">  2  5  1 -1</clus>
<clus scale="   84.680">  1 10  2 -1</clus>
<clus scale="   92.876">  7  8 -1 -1</clus>
<clus scale="   70.262">  1  5  2 -1</clus>
</clustering>
</event>
<event>
10    3  0.7209067E-005  0.4206775E+03  0.7546771E-02  0.1090430E+00
          1   -1    0    0  502    0 -0.00000000000E+00  0.00000000000E+00  0.61630587540E+03  0.61630587540E+03  0.00000000000E+00 0. -1.
         21   -1    0    0  503  502  0.00000000000E+00 -0.00000000000E+00 -0.51668563213E+03  0.51668563213E+03  0.00000000000E+00 0.  1.
        -24    2    1    2    0    0 -0.34765205844E+02  0.37989264748E+02  0.12757189884E+02  0.95656508183E+02  0.79596594717E+02 0.  0.
         23    2    1    2    0    0 -0.33643021045E+03 -0.96957275935E+02 -0.14154490607E+03  0.38858636691E+03  0.91533623605E+02 0.  0.
         13    1    3    3    0    0 -0.59368646355E+02  0.28974918463E+02  0.18961200537E+02  0.68729245564E+02  0.00000000000E+00 0. -1.
        -14    1    3    3    0    0  0.24603440511E+02  0.90143462844E+01 -0.62040106532E+01  0.26927262618E+02  0.00000000000E+00 0.  1.
        -13    1    4    4    0    0 -0.89023263377E+02 -0.68960924527E+02 -0.51392430438E+02  0.12378179365E+03  0.00000000000E+00 0.  1.
         13    1    4    4    0    0 -0.24740694708E+03 -0.27996351408E+02 -0.90152475634E+02  0.26480457325E+03  0.00000000000E+00 0. -1.
         21    1    1    2  503  501 -0.92132401729E+02  0.40766621761E+02 -0.45127839090E+02  0.11039392537E+03  0.00000000000E+00 0.  1.
          2    1    1    2  501    0  0.46332781803E+03  0.18201389427E+02  0.27353579855E+03  0.53835470707E+03  0.00000000000E+00 0. -1.
<scales pt_clust_5="13000.00000" pt_clust_6="13000.00000" pt_clust_7="13000.00000" pt_clust_8="13000.00000" pt_clust_9="103.49377" pt_clust_10="410.59870"></scales>
<clustering>
<clus scale="   79.597">  5  6 -1 -1</clus>
<clus scale="   91.534">  7  8 -1 -1</clus>
<clus scale="   94.802">  1  5  2 -1</clus>
<clus scale="  103.494">  2  9  1 -1</clus>
<clus scale="  410.599">  2 10  1 -1</clus>
<clus scale="  103.494">  2  5  1 -1</clus>
</clustering>
</event>
<event>
10    3  0.7209067E-005  0.2918573E+03  0.7546771E-02  0.1127608E+00
          1   -1    0    0  502    0 -0.00000000000E+00  0.00000000000E+00  0.65384816749E+03  0.65384816749E+03  0.00000000000E+00 0. -1.
         21   -1    0    0  503  502  0.00000000000E+00 -0.00000000000E+00 -0.29601513781E+03  0.29601513781E+03  0.00000000000E+00 0. -1.
         23    2    1    2    0    0  0.58956630783E+02  0.13884338557E+02  0.17029403636E+03  0.20213569368E+03  0.90499285474E+02 0.  0.
        -24    2    1    2    0    0  0.15155380720E+03 -0.21298589730E+03  0.28662518114E+03  0.39664023785E+03  0.82691806673E+02 0.  0.
         11    1    4    4    0    0  0.14934622517E+03 -0.20045700982E+03  0.23368492393E+03  0.34219285708E+03  0.00000000000E+00 0. -1.
        -12    1    4    4    0    0  0.22075820330E+01 -0.12528887479E+02  0.52940257213E+02  0.54447380779E+02  0.00000000000E+00 0.  1.
        -11    1    3    3    0    0  0.99108606119E+01  0.23949115501E+02  0.13777749246E+01  0.25955414755E+02  0.00000000000E+00 0.  1.
         11    1    3    3    0    0  0.49045770171E+02 -0.10064776944E+02  0.16891626143E+03  0.17618027893E+03  0.00000000000E+00 0. -1.
         21    1    1    2  503  501  0.21517742477E+02  0.27523548299E+02 -0.45847454025E+02  0.57641547454E+02  0.00000000000E+00 0.  1.
          2    1    1    2  501    0 -0.23202818047E+03  0.17157801045E+03 -0.53238733798E+02  0.29344582630E+03  0.00000000000E+00 0. -1.
<scales pt_clust_5="13000.00000" pt_clust_6="13000.00000" pt_clust_7="13000.00000" pt_clust_8="13000.00000" pt_clust_9="34.93650" pt_clust_10="279.89776"></scales>
<clustering>
<clus scale="   34.936">  2  9  1 -1</clus>
<clus scale="   82.692">  5  6 -1 -1</clus>
<clus scale="   90.499">  7  8 -1 -1</clus>
<clus scale="  109.905">  1  7  2 -1</clus>
<clus scale="  279.898">  2 10  1 -1</clus>
<clus scale="   34.936">  2  5  1 -1</clus>
</clustering>
</event>
<event>
10    3  0.7209067E-005  0.1383822E+03  0.7546771E-02  0.1232327E+00
          1   -1    0    0  503    0 -0.00000000000E+00  0.00000000000E+00  0.47997055451E+03  0.47997055451E+03  0.00000000000E+00 0. -1.
         21   -1    0    0  501  502  0.00000000000E+00 -0.00000000000E+00 -0.53946777059E+03  0.53946777059E+03  0.00000000000E+00 0.  1.
        -24    2    1    2    0    0  0.20166960207E+02  0.54554188987E+02  0.99568499858E+02  0.14043449911E+03  0.80156700010E+02 0.  0.
         23    2    1    2    0    0  0.42876481474E+02  0.12655209495E+03 -0.37181667206E+03  0.40632065744E+03  0.94842045720E+02 0.  0.
         11    1    3    3    0    0  0.38731105542E+02  0.64880985755E+02  0.64086232101E+02  0.99079190519E+02  0.00000000000E+00 0. -1.
        -12    1    3    3    0    0 -0.18564145336E+02 -0.10326796768E+02  0.35482267757E+02  0.41355308591E+02  0.00000000000E+00 0.  1.
        -13    1    4    4    0    0  0.47081492224E+02  0.30857278870E+02 -0.70920262052E+02  0.90545690890E+02  0.00000000000E+00 0.  1.
         13    1    4    4    0    0 -0.42050107504E+01  0.95694816083E+02 -0.30089641001E+03  0.31577496655E+03  0.00000000000E+00 0. -1.
         21    1    1    2  503  502 -0.71834839618E+02 -0.35270464570E+02 -0.99650458081E+02  0.12780635215E+03  0.00000000000E+00 0.  1.
          2    1    1    2  501    0  0.87913979373E+01 -0.14583581937E+03  0.31240141421E+03  0.34487681640E+03  0.00000000000E+00 0. -1.
<scales pt_clust_5="13000.00000" pt_clust_6="13000.00000" pt_clust_7="13000.00000" pt_clust_8="13000.00000" pt_clust_9="80.02656" pt_clust_10="100.77024"></scales>
<clustering>
<clus scale="   80.027">  2  9  1 -1</clus>
<clus scale="   80.157">  5  6 -1 -1</clus>
<clus scale="   94.842">  7  8 -1 -1</clus>
<clus scale="   97.463">  1  5  2 -1</clus>
<clus scale="  100.770">  2 10  1 -1</clus>
<clus scale="   80.027">  2  5  1 -1</clus>
</clustering>
</event>
<event>
10    3  0.7209067E-005  0.2065781E+03  0.7546771E-02  0.1179166E+00
          1   -1    0    0  503    0 -0.00000000000E+00  0.00000000000E+00  0.83305206215E+03  0.83305206215E+03  0.00000000000E+00 0. -1.
         21   -1    0    0  501  502  0.00000000000E+00 -0.00000000000E+00 -0.11445636557E+03  0.11445636557E+03  0.00000000000E+00 0. -1.
        -24    2    1    2    0    0  0.33301077927E+02 -0.30977655880E+02  0.15253182337E+03  0.17811291714E+03  0.79935456200E+02 0.  0.
         23    2    1    2    0    0  0.16691673513E+03 -0.44759514280E+02  0.23348627846E+03  0.30449967217E+03  0.91321396919E+02 0.  0.
         11    1    3    3    0    0  0.39283508979E+02 -0.53777319629E+02  0.95750744820E+02  0.11663361144E+03  0.00000000000E+00 0. -1.
        -12    1    3    3    0    0 -0.59824310520E+01  0.22799663749E+02  0.56781078551E+02  0.61479305704E+02  0.00000000000E+00 0.  1.
        -13    1    4    4    0    0  0.12913388870E+03 -0.24612495123E+02  0.10251106598E+03  0.16670289372E+03  0.00000000000E+00 0. -1.
         13    1    4    4    0    0  0.37782846425E+02 -0.20147019158E+02  0.13097521248E+03  0.13779677844E+03  0.00000000000E+00 0.  1.
         21    1    1    2  503  502 -0.14263045570E+03  0.15014335813E+03  0.13827362590E+03  0.24901018153E+03  0.00000000000E+00 0. -1.
          2    1    1    2  501    0 -0.57587357351E+02 -0.74406187971E+02  0.19430396884E+03  0.21588565687E+03  0.00000000000E+00 0. -1.
<scales pt_clust_5="13000.00000" pt_clust_6="13000.00000" pt_clust_7="13000.00000" pt_clust_8="13000.00000" pt_clust_9="185.29687" pt_clust_10="96.36188"></scales>
<clustering>
<clus scale="   79.935">  5  6 -1 -1</clus>
<clus scale="   91.321">  7  8 -1 -1</clus>
<clus scale="   91.969">  1  5  2 -1</clus>
<clus scale="   96.362">  2 10  1 -1</clus>
<clus scale="  185.297">  2  9  1 -1</clus>
<clus scale="   96.362">  2  5  1 -1</clus>
</clustering>
</event>
<event>
10    3  0.7209067E-005  0.1591352E+03  0.7546771E-02  0.1209823E+00
          1   -1    0    0  503    0 -0.00000000000E+00  0.00000000000E+00  0.33420435452E+03  0.33420435452E+03  0.00000000000E+00 0. -1.
         21   -1    0    0  501  502  0.00000000000E+00 -0.00000000000E+00 -0.45112152596E+03  0.45112152596E+03  0.00000000000E+00 0.  1.
        -24    2    1    2    0    0 -0.60375089401E+02  0.20469703319E+02  0.10980394089E+03  0.14991270604E+03  0.79704164407E+02 0.  0.
         23    2    1    2    0    0  0.16874613088E+03  0.79515342130E+01  0.93868635635E+01  0.19159631330E+03  0.89903005941E+02 0.  0.
         13    1    3    3    0    0 -0.66821307292E+02  0.34873910944E+02  0.56160347099E+02  0.93996070977E+02  0.00000000000E+00 0. -1.
        -14    1    3    3    0    0  0.64462178913E+01 -0.14404207624E+02  0.53643593786E+02  0.55916635062E+02  0.00000000000E+00 0.  1.
        -11    1    4    4    0    0  0.15689435005E+03 -0.18693913075E+02  0.22542142619E+02  0.15960403396E+03  0.00000000000E+00 0. -1.
         11    1    4    4    0    0  0.11851780839E+02  0.26645447288E+02 -0.13155279056E+02  0.31992279339E+02  0.00000000000E+00 0.  1.
         21    1    1    2  503  502 -0.86288690314E+02 -0.35884669639E+02 -0.33211909177E+03  0.34501672236E+03  0.00000000000E+00 0.  1.
          2    1    1    2  501    0 -0.22082351170E+02  0.74634321071E+01  0.96011115874E+02  0.98800138782E+02  0.00000000000E+00 0. -1.
<scales pt_clust_5="13000.00000" pt_clust_6="13000.00000" pt_clust_7="13000.00000" pt_clust_8="13000.00000" pt_clust_9="131.30679" pt_clust_10="23.30952"></scales>
<clustering>
<clus scale="   23.310">  2 10  1 -1</clus>
<clus scale="   79.704">  5  6 -1 -1</clus>
<clus scale="   89.903">  7  8 -1 -1</clus>
<clus scale="  102.716">  1  5  2 -1</clus>
<clus scale="  131.307">  2  9  1 -1</clus>
<clus scale="   23.310">  2  5  1 -1</clus>
</clustering>
</event>
<event>
10    3  0.7209067E-005  0.1292838E+03  0.7546771E-02  0.1234791E+00
          3   -1    0    0  502    0 -0.00000000000E+00  0.00000000000E+00  0.26445939071E+03  0.26445939071E+03  0.00000000000E+00 0. -1.
         21   -1    0    0  503  502  0.00000000000E+00 -0.00000000000E+00 -0.17293985203E+03  0.17293985203E+03  0.00000000000E+00 0.  1.
         23    2    1    2    0    0 -0.56319373837E+02 -0.77341886892E+02  0.74636899638E+02  0.15800070732E+03  0.10119247694E+03 0.  0.
        -24    2    1    2    0    0 -0.30932197263E+02  0.65516090733E+02 -0.77834328564E+02  0.13320618900E+03  0.80228094280E+02 0.  0.
         13    1    4    4    0    0  0.26035567824E+02  0.27514171507E+02 -0.16660282889E+02  0.41381704310E+02  0.00000000000E+00 0. -1.
        -14    1    4    4    0    0 -0.56967765088E+02  0.38001919226E+02 -0.61174045675E+02  0.91824484688E+02  0.00000000000E+00 0.  1.
        -11    1    3    3    0    0 -0.83792199726E+02 -0.48091726036E+02  0.65854457918E+02  0.11692201023E+03  0.00000000000E+00 0. -1.
         11    1    3    3    0    0  0.27472825888E+02 -0.29250160856E+02  0.87824417199E+01  0.41078697094E+02  0.00000000000E+00 0.  1.
         21    1    1    2  503  501  0.25341910236E+02  0.65838537643E+01 -0.69081402076E+01  0.27079179196E+02  0.00000000000E+00 0.  1.
          4    1    1    2  501    0  0.61909660864E+02  0.52419423951E+01  0.10162510781E+03  0.11911316722E+03  0.00000000000E+00 0. -1.
<scales pt_clust_5="13000.00000" pt_clust_6="13000.00000" pt_clust_7="13000.00000" pt_clust_8="13000.00000" pt_clust_9="26.18319" pt_clust_10="63.57872"></scales>
<clustering>
<clus scale="   26.183">  2  9  1 -1</clus>
<clus scale="   63.579">  2 10  1 -1</clus>
<clus scale="   80.228">  5  6 -1 -1</clus>
<clus scale="  101.192">  7  8 -1 -1</clus>
<clus scale="  113.626">  2  5  1 -1</clus>
<clus scale="   26.183">  2  5  1 -1</clus>
</clustering>
</event>
<event>
10    3  0.7209067E-005  0.2067262E+03  0.7546771E-02  0.1178956E+00
          3   -1    0    0  502    0 -0.00000000000E+00  0.00000000000E+00  0.26880993110E+03  0.26880993110E+03  0.00000000000E+00 0. -1.
         21   -1    0    0  503  502  0.00000000000E+00 -0.00000000000E+00 -0.54704729293E+03  0.54704729293E+03  0.00000000000E+00 0.  1.
        -24    2    1    2    0    0 -0.72876731984E+02 -0.44258584884E+02 -0.15879898021E+03  0.19763470025E+03  0.81071068975E+02 0.  0.
         23    2    1    2    0    0 -0.18941204694E+03 -0.27202283601E+02  0.70452246675E+02  0.22402940100E+03  0.92783434360E+02 0.  0.
         13    1    3    3    0    0 -0.52850216241E+02 -0.67899306319E+02 -0.12536456494E+03  0.15205175204E+03  0.00000000000E+00 0. -1.
        -14    1    3    3    0    0 -0.20026515744E+02  0.23640721436E+02 -0.33434415273E+02  0.45582948210E+02  0.00000000000E+00 0.  1.
        -13    1    4    4    0    0 -0.15295560747E+03 -0.55420155405E+02  0.71989687051E+02  0.17790257593E+03  0.00000000000E+00 0. -1.
         13    1    4    4    0    0 -0.36456439469E+02  0.28217871803E+02 -0.15374403760E+01  0.46126825067E+02  0.00000000000E+00 0.  1.
         21    1    1    2  503  501  0.95632098783E+02  0.12930922785E+02 -0.19490392482E+03  0.21748619954E+03  0.00000000000E+00 0.  1.
          4    1    1    2  501    0  0.16665668014E+03  0.58529945700E+02  0.50132965325E+01  0.17670692324E+03  0.00000000000E+00 0. -1.
<scales pt_clust_5="13000.00000" pt_clust_6="13000.00000" pt_clust_7="13000.00000" pt_clust_8="13000.00000" pt_clust_9="96.50237" pt_clust_10="184.73490"></scales>
<clustering>
<clus scale="   81.071">  5  6 -1 -1</clus>
<clus scale="   92.783">  7  8 -1 -1</clus>
<clus scale="   96.502">  2  9  1 -1</clus>
<clus scale="   92.205">  1  5  2 -1</clus>
<clus scale="  184.735">  2 10  1 -1</clus>
<clus scale="   96.502">  2  5  1 -1</clus>
</clustering>
</event>
<event>
10    3  0.1640301E-004  0.1189718E+03  0.7546771E-02  0.1250138E+00
         21   -1    0    0  501  502  0.00000000000E+00  0.00000000000E+00  0.23968244380E+03  0.23968244380E+03  0.00000000000E+00 0. -1.
          1   -1    0    0  503    0 -0.00000000000E+00 -0.00000000000E+00 -0.59686069567E+03  0.59686069567E+03  0.00000000000E+00 0. -1.
        -24    2    1    2    0    0 -0.27056701530E+02  0.65628664658E+02 -0.26137703314E+03  0.28198127048E+03  0.78462071911E+02 0.  0.
         23    2    1    2    0    0  0.74233081268E+02 -0.82848342329E+02  0.18404683574E+03  0.23480106072E+03  0.94254454476E+02 0.  0.
         13    1    3    3    0    0 -0.46574481188E+02  0.50307498853E+02 -0.11797407525E+03  0.13644745937E+03  0.00000000000E+00 0. -1.
        -14    1    3    3    0    0  0.19517779659E+02  0.15321165805E+02 -0.14340295789E+03  0.14553381111E+03  0.00000000000E+00 0.  1.
        -11    1    4    4    0    0  0.14741211646E+02  0.14071998653E+02  0.24389532752E+01  0.20524935078E+02  0.00000000000E+00 0.  1.
         11    1    4    4    0    0  0.59491869621E+02 -0.96920340982E+02  0.18160788246E+03  0.21427612564E+03  0.00000000000E+00 0. -1.
         21    1    1    2  503  502  0.21967291433E+02  0.15887800322E+02  0.41833396175E+01  0.27431449512E+02  0.00000000000E+00 0.  1.
          2    1    1    2  501    0 -0.69143671171E+02  0.13318773491E+01 -0.28403139409E+03  0.29232935875E+03  0.00000000000E+00 0. -1.
<scales pt_clust_5="13000.00000" pt_clust_6="13000.00000" pt_clust_7="13000.00000" pt_clust_8="13000.00000" pt_clust_9="27.11059" pt_clust_10="68.75583"></scales>
<clustering>
<clus scale="   27.111">  1  9  2 -1</clus>
<clus scale="   68.756">  1 10  2 -1</clus>
<clus scale="   78.462">  5  6 -1 -1</clus>
<clus scale="   94.254">  7  8 -1 -1</clus>
<clus scale="  106.896">  2  5  1 -1</clus>
<clus scale="   27.111">  1  5  2 -1</clus>
</clustering>
</event>
<event>
10    3  0.7209067E-005  0.3423933E+03  0.7546771E-02  0.1111281E+00
          3   -1    0    0  502    0 -0.00000000000E+00  0.00000000000E+00  0.10161151883E+03  0.10161151883E+03  0.00000000000E+00 0. -1.
         21   -1    0    0  503  502  0.00000000000E+00 -0.00000000000E+00 -0.18627761138E+04  0.18627761138E+04  0.00000000000E+00 0. -1.
         23    2    1    2    0    0 -0.23330604879E+01  0.45825463356E+02 -0.31143140273E+03  0.32784738096E+03  0.91591322386E+02 0.  0.
        -24    2    1    2    0    0  0.65848597759E+02  0.28799439743E+03 -0.28069677555E+03  0.41497022344E+03  0.78312168620E+02 0.  0.
         13    1    4    4    0    0  0.42001934377E+01  0.18033457072E+03 -0.18405443541E+03  0.25770959279E+03  0.00000000000E+00 0. -1.
        -14    1    4    4    0    0  0.61648404322E+02  0.10765982672E+03 -0.96642340140E+02  0.15726063065E+03  0.00000000000E+00 0.  1.
        -13    1    3    3    0    0 -0.19406124085E+02 -0.15667815266E+02 -0.28793545801E+02  0.38093915091E+02  0.00000000000E+00 0.  1.
         13    1    3    3    0    0  0.17073063597E+02  0.61493278623E+02 -0.28263785693E+03  0.28975346587E+03  0.00000000000E+00 0. -1.
         21    1    1    2  503  501 -0.39061748102E+02 -0.53703238142E+02 -0.33173581949E+03  0.33831717645E+03  0.00000000000E+00 0. -1.
          4    1    1    2  501    0 -0.24453789170E+02 -0.28011662265E+03 -0.83730059716E+03  0.88325285173E+03  0.00000000000E+00 0. -1.
<scales pt_clust_5="13000.00000" pt_clust_6="13000.00000" pt_clust_7="13000.00000" pt_clust_8="13000.00000" pt_clust_9="48.88144" pt_clust_10="48.88144"></scales>
<clustering>
<clus scale="   48.881">  9 10 -1 -1</clus>
<clus scale="   78.312">  5  6 -1 -1</clus>
<clus scale="   91.591">  7  8 -1 -1</clus>
<clus scale="  102.442">  1  7  2 -1</clus>
<clus scale="  336.524">  1  5  2 -1</clus>
<clus scale="  342.393">  2  5  1 -1</clus>
</clustering>
</event>
<event>
10    3  0.7209067E-005  0.1437760E+03  0.7546771E-02  0.1212693E+00
         21   -1    0    0  501  502  0.00000000000E+00  0.00000000000E+00  0.24386094065E+03  0.24386094065E+03  0.00000000000E+00 0. -1.
          1   -1    0    0  503    0 -0.00000000000E+00 -0.00000000000E+00 -0.35539582748E+03  0.35539582748E+03  0.00000000000E+00 0. -1.
        -24    2    1    2    0    0  0.86528614152E+02 -0.88788352005E+02 -0.21825929164E+03  0.26049926211E+03  0.69657552763E+02 0.  0.
         23    2    1    2    0    0  0.12103540472E+02  0.56760213435E+02  0.10195357868E+03  0.14873319062E+03  0.91426540278E+02 0.  0.
         11    1    3    3    0    0  0.65008368464E+02 -0.20385788212E+02 -0.82761796371E+02  0.10719693685E+03  0.00000000000E+00 0. -1.
        -12    1    3    3    0    0  0.21520245688E+02 -0.68402563793E+02 -0.13549749526E+03  0.15330232526E+03  0.00000000000E+00 0.  1.
        -13    1    4    4    0    0 -0.13286637873E+02 -0.19598165773E+02  0.42616890464E+02  0.48752663522E+02  0.00000000000E+00 0. -1.
         13    1    4    4    0    0  0.25390178345E+02  0.76358379208E+02  0.59336688213E+02  0.99980527102E+02  0.00000000000E+00 0.  1.
         21    1    1    2  503  502 -0.41172445979E+02  0.11895000968E+02  0.81495608518E+02  0.92077117482E+02  0.00000000000E+00 0. -1.
          2    1    1    2  501    0 -0.57459708644E+02  0.20133137602E+02 -0.76724782387E+02  0.97947197915E+02  0.00000000000E+00 0. -1.
<scales pt_clust_5="13000.00000" pt_clust_6="13000.00000" pt_clust_7="13000.00000" pt_clust_8="13000.00000" pt_clust_9="42.85629" pt_clust_10="63.77572"></scales>
<clustering>
<clus scale="   42.856">  1  9  2 -1</clus>
<clus scale="   63.776">  1 10  2 -1</clus>
<clus scale="   69.658">  5  6 -1 -1</clus>
<clus scale="   91.427">  7  8 -1 -1</clus>
<clus scale="  131.015">  2  5  1 -1</clus>
<clus scale="   42.856">  1  5  2 -1</clus>
</clustering>
</event>
<event>
10    3  0.7209067E-005  0.1888961E+03  0.7546771E-02  0.1173509E+00
         21   -1    0    0  501  502  0.00000000000E+00  0.00000000000E+00  0.70732102287E+02  0.70732102287E+02  0.00000000000E+00 0. -1.
          1   -1    0    0  503    0 -0.00000000000E+00 -0.00000000000E+00 -0.17482741163E+04  0.17482741163E+04  0.00000000000E+00 0. -1.
        -24    2    1    2    0    0  0.54945339104E+02 -0.15326300514E+03 -0.67179353405E+03  0.69605046466E+03  0.81677156743E+02 0.  0.
         23    2    1    2    0    0  0.10671507659E+03 -0.31860279391E+02 -0.22985534223E+03  0.27207800908E+03  0.93753824968E+02 0.  0.
         13    1    3    3    0    0  0.59736600090E+02 -0.15936489195E+03 -0.66215513065E+03  0.68367759011E+03  0.00000000000E+00 0. -1.
        -14    1    3    3    0    0 -0.47912609860E+01  0.61018868135E+01 -0.96384033971E+01  0.12372874547E+02  0.00000000000E+00 0.  1.
        -13    1    4    4    0    0  0.11040122507E+03 -0.24381682174E+00 -0.19994285775E+03  0.22839797790E+03  0.00000000000E+00 0. -1.
         13    1    4    4    0    0 -0.36861484732E+01 -0.31616462569E+02 -0.29912484480E+02  0.43680031178E+02  0.00000000000E+00 0.  1.
         21    1    1    2  503  502 -0.25000586309E+02  0.18882364570E+03 -0.29679757671E+03  0.35265875862E+03  0.00000000000E+00 0. -1.
          2    1    1    2  501    0 -0.13665982939E+03 -0.37003611720E+01 -0.47909556098E+03  0.49821898619E+03  0.00000000000E+00 0. -1.
<scales pt_clust_5="13000.00000" pt_clust_6="13000.00000" pt_clust_7="13000.00000" pt_clust_8="13000.00000" pt_clust_9="170.32491" pt_clust_10="136.70999"></scales>
<clustering>
<clus scale="   81.677">  5  6 -1 -1</clus>
<clus scale="   93.754">  7  8 -1 -1</clus>
<clus scale="  136.710">  1 10  2 -1</clus>
<clus scale="  136.710">  1  7  2 -1</clus>
<clus scale="  170.325">  1  9  2 -1</clus>
<clus scale="  136.710">  1  5  2 -1</clus>
</clustering>
</event>
<event>
10    3  0.7209067E-005  0.1051289E+03  0.7546771E-02  0.1274454E+00
         -2   -1    0    0    0  501 -0.00000000000E+00  0.00000000000E+00  0.38008290257E+03  0.38008290257E+03  0.00000000000E+00 0.  1.
         21   -1    0    0  503  502  0.00000000000E+00 -0.00000000000E+00 -0.31263788239E+03  0.31263788239E+03  0.00000000000E+00 0. -1.
        -24    2    1    2    0    0 -0.37036849918E+02  0.25280163913E+02 -0.14460176411E+01  0.92381790219E+02  0.80755738234E+02 0.  0.
         23    2    1    2    0    0  0.38512459890E+02 -0.95971932470E+02 -0.22293811933E+03  0.26212233893E+03  0.91175074032E+02 0.  0.
         13    1    3    3    0    0  0.25608687606E+02  0.46147552714E+01 -0.42015921379E+01  0.26358190826E+02  0.00000000000E+00 0. -1.
        -14    1    3    3    0    0 -0.62645537524E+02  0.20665408641E+02  0.27555744968E+01  0.66023599393E+02  0.00000000000E+00 0.  1.
        -13    1    4    4    0    0  0.24908332527E+02 -0.48590193147E+02 -0.20078556358E+03  0.20807756833E+03  0.00000000000E+00 0. -1.
         13    1    4    4    0    0  0.13604127363E+02 -0.47381739323E+02 -0.22152555749E+02  0.54044770596E+02  0.00000000000E+00 0.  1.
         21    1    1    2  503  501  0.22852403116E+02  0.31680013305E+02 -0.36034311683E+01  0.39228054851E+02  0.00000000000E+00 0. -1.
         -1    1    1    2    0  502 -0.24328013088E+02  0.39011755252E+02  0.29543258832E+03  0.29898860097E+03  0.00000000000E+00 0.  1.
<scales pt_clust_5="13000.00000" pt_clust_6="13000.00000" pt_clust_7="13000.00000" pt_clust_8="13000.00000" pt_clust_9="39.06220" pt_clust_10="46.06659"></scales>
<clustering>
<clus scale="   39.062">  2  9  1 -1</clus>
<clus scale="   46.067">  2 10  1 -1</clus>
<clus scale="   80.756">  5  6 -1 -1</clus>
<clus scale="   91.175">  7  8 -1 -1</clus>
<clus scale="   96.232">  1  5  2 -1</clus>
<clus scale="   39.062">  2  5  1 -1</clus>
</clustering>
</event>
<event>
10    3  0.7209067E-005  0.1543169E+03  0.7546771E-02  0.1198640E+00
          1   -1    0    0  503    0 -0.00000000000E+00  0.00000000000E+00  0.13516276183E+04  0.13516276183E+04  0.00000000000E+00 0. -1.
         21   -1    0    0  501  502  0.00000000000E+00 -0.00000000000E+00 -0.51717991262E+02  0.51717991262E+02  0.00000000000E+00 0. -1.
         23    2    1    2    0    0 -0.88672809275E+02 -0.53632668872E+02  0.51988772476E+03  0.53915121980E+03  0.98292732109E+02 0.  0.
        -24    2    1    2    0    0  0.10336240954E+03  0.10588192598E+03  0.40977487479E+03  0.44295619621E+03  0.79999836220E+02 0.  0.
         11    1    4    4    0    0  0.83002804736E+02  0.75151098500E+02  0.19348770578E+03  0.22355009615E+03  0.00000000000E+00 0. -1.
        -12    1    4    4    0    0  0.20359604803E+02  0.30730827481E+02  0.21628716901E+03  0.21940610006E+03  0.00000000000E+00 0.  1.
        -11    1    3    3    0    0 -0.10961778932E+03 -0.52984778787E+02  0.45120829888E+03  0.46734609819E+03  0.00000000000E+00 0. -1.
         11    1    3    3    0    0  0.20944980041E+02 -0.64789008488E+00  0.68679425879E+02  0.71805121611E+02  0.00000000000E+00 0.  1.
         21    1    1    2  503  502 -0.98087116178E+02 -0.48755079086E+02  0.15025332340E+03  0.18594139209E+03  0.00000000000E+00 0. -1.
          2    1    1    2  501    0  0.83397515914E+02 -0.34941780235E+01  0.21999370405E+03  0.23529680142E+03  0.00000000000E+00 0. -1.
<scales pt_clust_5="13000.00000" pt_clust_6="13000.00000" pt_clust_7="13000.00000" pt_clust_8="13000.00000" pt_clust_9="81.56990" pt_clust_10="83.47072"></scales>
<clustering>
<clus scale="   80.000">  5  6 -1 -1</clus>
<clus scale="   83.471">  2 10  1 -1</clus>
<clus scale="   81.570">  2  9  1 -1</clus>
<clus scale="   98.293">  7  8 -1 -1</clus>
<clus scale="  143.360">  2  5  1 -1</clus>
<clus scale="   83.471">  2  5  1 -1</clus>
</clustering>
</event>
<event>
10    3  0.7209067E-005  0.1569255E+03  0.7546771E-02  0.1219563E+00
         21   -1    0    0  503  502  0.00000000000E+00  0.00000000000E+00  0.24619414119E+03  0.24619414119E+03  0.00000000000E+00 0. -1.
          1   -1    0    0  502    0 -0.00000000000E+00 -0.00000000000E+00 -0.34416403223E+03  0.34416403223E+03  0.00000000000E+00 0. -1.
        -24    2    1    2    0    0  0.28973579544E+02 -0.23128724852E+02 -0.30942359574E+02  0.92476189863E+02  0.78867039064E+02 0.  0.
         23    2    1    2    0    0  0.11982206504E+03  0.52499168093E+02 -0.79077584209E+02  0.17712680796E+03  0.89482690235E+02 0.  0.
         11    1    3    3    0    0  0.37343024888E+02 -0.28738365227E+02 -0.51364146921E+02  0.69704165820E+02  0.00000000000E+00 0. -1.
        -12    1    3    3    0    0 -0.83694453438E+01  0.56096403759E+01  0.20421787348E+02  0.22772024043E+02  0.00000000000E+00 0.  1.
        -13    1    4    4    0    0  0.40623408165E+02  0.65590744475E+02 -0.28495262766E+02  0.82245893830E+02  0.00000000000E+00 0. -1.
         13    1    4    4    0    0  0.79198656876E+02 -0.13091576382E+02 -0.50582321443E+02  0.94880914128E+02  0.00000000000E+00 0.  1.
         21    1    1    2  503  501 -0.13854812482E+02 -0.11394624161E+03  0.87691939529E+02  0.14444922313E+03  0.00000000000E+00 0. -1.
          2    1    1    2  501    0 -0.13494083210E+03  0.84575798367E+02 -0.75641886783E+02  0.17630595246E+03  0.00000000000E+00 0. -1.
<scales pt_clust_5="13000.00000" pt_clust_6="13000.00000" pt_clust_7="13000.00000" pt_clust_8="13000.00000" pt_clust_9="116.78392" pt_clust_10="128.91263"></scales>
<clustering>
<clus scale="   78.867">  5  6 -1 -1</clus>
<clus scale="   87.146">  2  5  1 -1</clus>
<clus scale="   89.483">  7  8 -1 -1</clus>
<clus scale="  116.784">  1  9  2 -1</clus>
<clus scale="  128.913">  1 10  2 -1</clus>
<clus scale="  116.784">  1  5  2 -1</clus>
</clustering>
</event>
<event>
10    3  0.7209067E-005  0.1434301E+03  0.7546771E-02  0.1228499E+00
         21   -1    0    0  501  502  0.00000000000E+00  0.00000000000E+00  0.43689023935E+03  0.43689023935E+03  0.00000000000E+00 0. -1.
          1   -1    0    0  503    0 -0.00000000000E+00 -0.00000000000E+00 -0.61196807966E+03  0.61196807966E+03  0.00000000000E+00 0. -1.
        -24    2    1    2    0    0 -0.46163810741E+02  0.24781857977E+01 -0.24438296387E+03  0.26197392247E+03  0.82280399846E+02 0.  0.
         23    2    1    2    0    0 -0.43916038969E+02 -0.59361988527E+02  0.17874197770E+03  0.21519893768E+03  0.94389745351E+02 0.  0.
         11    1    3    3    0    0 -0.85784496595E+01  0.39840769752E+02 -0.12140732039E+03  0.12806488269E+03  0.00000000000E+00 0. -1.
        -12    1    3    3    0    0 -0.37585361082E+02 -0.37362583954E+02 -0.12297564348E+03  0.13390903978E+03  0.00000000000E+00 0.  1.
        -13    1    4    4    0    0  0.28235817590E+02 -0.21965300846E+02  0.77629895926E+02  0.85475941514E+02  0.00000000000E+00 0.  1.
         13    1    4    4    0    0 -0.72151856559E+02 -0.37396687681E+02  0.10111208177E+03  0.12972299617E+03  0.00000000000E+00 0. -1.
         21    1    1    2  503  502 -0.18877643291E+02 -0.30558964612E+02  0.21524536134E+03  0.21822186259E+03  0.00000000000E+00 0. -1.
          2    1    1    2  501    0  0.10895749300E+03  0.87442767341E+02 -0.32468221548E+03  0.35346359627E+03  0.00000000000E+00 0. -1.
<scales pt_clust_5="13000.00000" pt_clust_6="13000.00000" pt_clust_7="13000.00000" pt_clust_8="13000.00000" pt_clust_9="35.91957" pt_clust_10="107.99438"></scales>
<clustering>
<clus scale="   35.920">  1  9  2 -1</clus>
<clus scale="   82.280">  5  6 -1 -1</clus>
<clus scale="   94.390">  7  8 -1 -1</clus>
<clus scale="   94.726">  2  5  1 -1</clus>
<clus scale="  107.994">  1 10  2 -1</clus>
<clus scale="   35.920">  1  5  2 -1</clus>
</clustering>
</event>
<event>
10    3  0.7209067E-005  0.1191257E+03  0.7546771E-02  0.1248261E+00
         -2   -1    0    0    0  501 -0.00000000000E+00  0.00000000000E+00  0.93436614410E+02  0.93436614410E+02  0.00000000000E+00 0.  1.
         21   -1    0    0  501  502  0.00000000000E+00 -0.00000000000E+00 -0.64881496818E+03  0.64881496818E+03  0.00000000000E+00 0.  1.
        -24    2    1    2    0    0  0.32149646667E+02 -0.71646681949E+02 -0.44469023584E+01  0.11179262705E+03  0.79441611936E+02 0.  0.
         23    2    1    2    0    0  0.28809249600E+02  0.84944628335E+02 -0.10902966380E+03  0.16796527763E+03  0.90990681699E+02 0.  0.
         11    1    3    3    0    0  0.58305614833E+02 -0.57112002409E+02 -0.56594152833E+00  0.81618906083E+02  0.00000000000E+00 0. -1.
        -12    1    3    3    0    0 -0.26155968167E+02 -0.14534679540E+02 -0.38809608300E+01  0.30173720968E+02  0.00000000000E+00 0.  1.
        -11    1    4    4    0    0 -0.94351107280E+00  0.89224625406E+02 -0.51420021042E+02  0.10298515697E+03  0.00000000000E+00 0.  1.
         11    1    4    4    0    0  0.29752760673E+02 -0.42799970716E+01 -0.57609642757E+02  0.64980120661E+02  0.00000000000E+00 0. -1.
         21    1    1    2  503  502  0.28685228113E+02  0.37781962729E+01 -0.22951947632E+03  0.23133591829E+03  0.00000000000E+00 0.  1.
         -1    1    1    2    0  503 -0.89644124380E+02 -0.17076142658E+02 -0.21238231129E+03  0.23115775962E+03  0.00000000000E+00 0.  1.
<scales pt_clust_5="13000.00000" pt_clust_6="13000.00000" pt_clust_7="13000.00000" pt_clust_8="13000.00000" pt_clust_9="28.93298" pt_clust_10="75.95006"></scales>
<clustering>
<clus scale="   28.933">  2  9  1 -1</clus>
<clus scale="   75.950">  2 10  1 -1</clus>
<clus scale="   79.442">  5  6 -1 -1</clus>
<clus scale="   90.991">  7  8 -1 -1</clus>
<clus scale="  110.556">  1  5  2 -1</clus>
<clus scale="   28.933">  2  5  1 -1</clus>
</clustering>
</event>
<event>
10    3  0.7209067E-005  0.1275306E+03  0.7546771E-02  0.1233563E+00
          1   -1    0    0  503    0 -0.00000000000E+00  0.00000000000E+00  0.28078205512E+03  0.28078205512E+03  0.00000000000E+00 0. -1.
         21   -1    0    0  501  502  0.00000000000E+00 -0.00000000000E+00 -0.19783573454E+03  0.19783573454E+03  0.00000000000E+00 0. -1.
         23    2    1    2    0    0 -0.38192197124E+02  0.92014008464E+02  0.18698923028E+03  0.22935416380E+03  0.87824475723E+02 0.  0.
        -24    2    1    2    0    0  0.68780923842E+02 -0.45469960271E+02 -0.11036925516E+02  0.11448258789E+03  0.78651868599E+02 0.  0.
         13    1    4    4    0    0  0.75173189567E+02 -0.35834759462E+02 -0.33067134632E+02  0.89602309167E+02  0.00000000000E+00 0. -1.
        -14    1    4    4    0    0 -0.63922657245E+01 -0.96352008091E+01  0.22030209117E+02  0.24880278725E+02  0.00000000000E+00 0.  1.
        -13    1    3    3    0    0 -0.64877995532E+02  0.75080404428E+02  0.12342763503E+03  0.15836856545E+03  0.00000000000E+00 0. -1.
         13    1    3    3    0    0  0.26685798408E+02  0.16933604035E+02  0.63561595247E+02  0.70985598347E+02  0.00000000000E+00 0.  1.
         21    1    1    2  503  502  0.24774463237E+02 -0.14028258588E+02 -0.49889715723E+02  0.57441707867E+02  0.00000000000E+00 0.  1.
          2    1    1    2  501    0 -0.55363189955E+02 -0.32515789605E+02 -0.43116268461E+02  0.77339330109E+02  0.00000000000E+00 0. -1.
<scales pt_clust_5="13000.00000" pt_clust_6="13000.00000" pt_clust_7="13000.00000" pt_clust_8="13000.00000" pt_clust_9="28.47044" pt_clust_10="59.15190"></scales>
<clustering>
<clus scale="   28.470">  2  9  1 -1</clus>
<clus scale="   59.152">  2 10  1 -1</clus>
<clus scale="   78.652">  5  6 -1 -1</clus>
<clus scale="   87.824">  7  8 -1 -1</clus>
<clus scale="  121.396">  2  5  1 -1</clus>
<clus scale="   28.470">  2  5  1 -1</clus>
</clustering>
</event>
<event>
10    3  0.7209067E-005  0.1518889E+03  0.7546771E-02  0.1221085E+00
         21   -1    0    0  503  502  0.00000000000E+00  0.00000000000E+00  0.20080587390E+03  0.20080587390E+03  0.00000000000E+00 0.  1.
         -2   -1    0    0    0  501 -0.00000000000E+00 -0.00000000000E+00 -0.34641491107E+03  0.34641491107E+03  0.00000000000E+00 0.  1.
         23    2    1    2    0    0  0.12194302966E+02  0.58812568060E+01 -0.13472311680E+03  0.16346005643E+03  0.91572821526E+02 0.  0.
        -24    2    1    2    0    0  0.12557045794E+03 -0.94835678161E+02 -0.37261735149E+02  0.17888963598E+03  0.76493916066E+02 0.  0.
         13    1    4    4    0    0  0.10234656774E+03 -0.72871673273E+02 -0.60425215229E+02  0.13941415756E+03  0.00000000000E+00 0. -1.
        -14    1    4    4    0    0  0.23223890201E+02 -0.21964004888E+02  0.23163480080E+02  0.39475478417E+02  0.00000000000E+00 0.  1.
        -13    1    3    3    0    0  0.25873425351E+02 -0.21681893998E+02 -0.12744534026E+03  0.13184025721E+03  0.00000000000E+00 0.  1.
         13    1    3    3    0    0 -0.13679122385E+02  0.27563150804E+02 -0.72777765370E+01  0.31619799221E+02  0.00000000000E+00 0. -1.
         21    1    1    2  503  501 -0.19617411214E+02  0.70934665139E+02  0.41358265204E+02  0.84422009227E+02  0.00000000000E+00 0.  1.
         -1    1    1    2    0  502 -0.11814734969E+03  0.18019756216E+02 -0.14982450425E+02  0.12044908333E+03  0.00000000000E+00 0.  1.
<scales pt_clust_5="13000.00000" pt_clust_6="13000.00000" pt_clust_7="13000.00000" pt_clust_8="13000.00000" pt_clust_9="73.59735" pt_clust_10="131.22089"></scales>
<clustering>
<clus scale="   73.597">  1  9  2 -1</clus>
<clus scale="   76.494">  5  6 -1 -1</clus>
<clus scale="   91.573">  7  8 -1 -1</clus>
<clus scale="   93.085">  2  7  1 -1</clus>
<clus scale="  131.221">  1 10  2 -1</clus>
<clus scale="   73.597">  1  5  2 -1</clus>
</clustering>
</event>
<event>
10    3  0.7209067E-005  0.1075277E+03  0.7546771E-02  0.1266466E+00
          1   -1    0    0  503    0 -0.00000000000E+00  0.00000000000E+00  0.18282455633E+03  0.18282455633E+03  0.00000000000E+00 0. -1.
         21   -1    0    0  501  502  0.00000000000E+00 -0.00000000000E+00 -0.20837926369E+03  0.20837926369E+03  0.00000000000E+00 0. -1.
        -24    2    1    2    0    0 -0.84895312214E+02  0.22696653714E+02  0.90751807451E+02  0.15053883388E+03  0.81876112662E+02 0.  0.
         23    2    1    2    0    0  0.19438817637E+02 -0.21439351770E+02 -0.17737934221E+02  0.91674124508E+02  0.85158659915E+02 0.  0.
         13    1    3    3    0    0 -0.74397754202E+02 -0.18984859036E+02  0.63567282012E+02  0.99680740594E+02  0.00000000000E+00 0. -1.
        -14    1    3    3    0    0 -0.10497558012E+02  0.41681512750E+02  0.27184525438E+02  0.50858093286E+02  0.00000000000E+00 0.  1.
        -11    1    4    4    0    0 -0.39047929906E+01 -0.36664498294E+02 -0.41166517769E+02  0.55264952987E+02  0.00000000000E+00 0. -1.
         11    1    4    4    0    0  0.23343610628E+02  0.15225146524E+02  0.23428583548E+02  0.36409171521E+02  0.00000000000E+00 0.  1.
         21    1    1    2  503  502  0.42785809364E+02 -0.35875936828E+02 -0.91234526874E+02  0.10696470081E+03  0.00000000000E+00 0. -1.
          2    1    1    2  501    0  0.22670685212E+02  0.34618634884E+02 -0.73340537120E+01  0.42026160818E+02  0.00000000000E+00 0. -1.
<scales pt_clust_5="13000.00000" pt_clust_6="13000.00000" pt_clust_7="13000.00000" pt_clust_8="13000.00000" pt_clust_9="57.64200" pt_clust_10="41.38127"></scales>
<clustering>
<clus scale="   41.381">  2 10  1 -1</clus>
<clus scale="   57.642">  2  9  1 -1</clus>
<clus scale="   81.876">  5  6 -1 -1</clus>
<clus scale="   85.159">  7  8 -1 -1</clus>
<clus scale="  104.947">  1  5  2 -1</clus>
<clus scale="   41.381">  2  5  1 -1</clus>
</clustering>
</event>
