<event>
 9    1  0.1982680E-005  0.9349857E+02  0.7546771E-02  0.1295580E+00
          2   -1    0    0  502    0  0.00000000000E+00  0.00000000000E+00  0.45667293710E+03  0.45667293710E+03  0.00000000000E+00 0. -1.
         -2   -1    0    0    0  501 -0.00000000000E+00 -0.00000000000E+00 -0.65305035255E+02  0.65305035255E+02  0.00000000000E+00 0.  1.
         23    2    1    2    0    0 -0.41867416699E+02  0.59321642122E+01  0.25723225813E+02  0.10492382245E+03  0.92516231101E+02 0.  0.
         23    2    1    2    0    0  0.95659020779E+01  0.47964865880E+00  0.37240602265E+03  0.38343547951E+03  0.90800796801E+02 0.  0.
        -11    1    4    4    0    0 -0.22893062959E+02 -0.34888055062E+02  0.13829316991E+03  0.14445161668E+03  0.00000000000E+00 0.  1.
         11    1    4    4    0    0  0.32458965037E+02  0.35367703720E+02  0.23411285274E+03  0.23898386283E+03  0.00000000000E+00 0. -1.
        -13    1    3    3    0    0 -0.71557908152E+02  0.69248138607E+01  0.20531394648E+02  0.74766472648E+02  0.00000000000E+00 0.  1.
         13    1    3    3    0    0  0.29690491452E+02 -0.99264964852E+00  0.51918311651E+01  0.30157349798E+02  0.00000000000E+00 0. -1.
         21    1    1    2  502  501  0.32301514622E+02 -0.64118128710E+01 -0.67613466160E+01  0.33618670396E+02  0.00000000000E+00 0.  1.
<scales pt_clust_5="13000.00000" pt_clust_6="13000.00000" pt_clust_7="13000.00000" pt_clust_8="13000.00000" pt_clust_9="32.93174"></scales>
<clustering>
<clus scale="   32.932">  2  9  1 -1</clus>
<clus scale="   90.801">  5  6 -1 -1</clus>
<clus scale="   91.801">  1  5  2 -1</clus>
<clus scale="   92.516">  7  8 -1 -1</clus>
<clus scale="   91.801">  1  5  2 -1</clus>
</clustering>
</event>
<event>
 9    1  0.1175034E-005  0.9231750E+02  0.7546771E-02  0.1299388E+00
          1   -1    0    0  502    0  0.00000000000E+00  0.00000000000E+00  0.18708294582E+03  0.18708294582E+03  0.00000000000E+00 0. -1.
         -1   -1    0    0    0  501 -0.00000000000E+00 -0.00000000000E+00 -0.10140315093E+03  0.10140315093E+03  0.00000000000E+00 0.  1.
         23    2    1    2    0    0  0.12295754391E+02 -0.43957951841E+02 -0.25421512089E+02  0.10193845640E+03  0.87531185933E+02 0.  0.
         23    2    1    2    0    0 -0.69586391184E+01  0.54822816083E+01  0.11564948471E+03  0.14743820517E+03  0.91020563389E+02 0.  0.
        -11    1    3    3    0    0  0.49605765488E+02 -0.31759717565E+02 -0.99011628396E+01  0.59728089330E+02  0.00000000000E+00 0.  1.
         11    1    3    3    0    0 -0.37310011097E+02 -0.12198234276E+02 -0.15520349250E+02  0.42210367072E+02  0.00000000000E+00 0. -1.
        -13    1    4    4    0    0  0.44958338281E+01 -0.40981335050E+02  0.37116738314E+02  0.55473728983E+02  0.00000000000E+00 0.  1.
         13    1    4    4    0    0 -0.11454472946E+02  0.46463616658E+02  0.78532746397E+02  0.91964476186E+02  0.00000000000E+00 0. -1.
         21    1    1    2  502  501 -0.53371152723E+01  0.38475670233E+02 -0.45481777315E+01  0.39109435178E+02  0.00000000000E+00 0. -1.
<scales pt_clust_5="13000.00000" pt_clust_6="13000.00000" pt_clust_7="13000.00000" pt_clust_8="13000.00000" pt_clust_9="38.84407"></scales>
<clustering>
<clus scale="   38.844">  2  9  1 -1</clus>
<clus scale="   87.531">  5  6 -1 -1</clus>
<clus scale="   88.879">  2  5  1 -1</clus>
<clus scale="   91.021">  7  8 -1 -1</clus>
<clus scale="   92.318">  1  5  2 -1</clus>
</clustering>
</event>
<event>
 9    1  0.1175034E-005  0.9754660E+02  0.7546771E-02  0.1286448E+00
         -3   -1    0    0    0  501 -0.00000000000E+00  0.00000000000E+00  0.11199567067E+03  0.11199567067E+03  0.00000000000E+00 0.  1.
          3   -1    0    0  502    0  0.00000000000E+00 -0.00000000000E+00 -0.16786062122E+03  0.16786062122E+03  0.00000000000E+00 0. -1.
         23    2    1    2    0    0 -0.21972233885E+01  0.11349800434E+02  0.23103614088E+02  0.96028996529E+02  0.92488623246E+02 0.  0.
         23    2    1    2    0    0 -0.10012718231E+02 -0.28484593864E+02 -0.10897628627E+03  0.14717832297E+03  0.94201917015E+02 0.  0.
        -11    1    3    3    0    0 -0.21910748846E+02 -0.34158939682E+02 -0.16170226784E+01  0.40614392000E+02  0.00000000000E+00 0. -1.
         11    1    3    3    0    0  0.19713525458E+02  0.45508740116E+02  0.24720636767E+02  0.55414604529E+02  0.00000000000E+00 0.  1.
        -13    1    4    4    0    0  0.33830323999E+02 -0.73241538117E+01 -0.86713882566E+01  0.35683708120E+02  0.00000000000E+00 0.  1.
         13    1    4    4    0    0 -0.43843042230E+02 -0.21160440052E+02 -0.10030489801E+03  0.11149461485E+03  0.00000000000E+00 0. -1.
         21    1    1    2  502  501  0.12209941620E+02  0.17134793430E+02  0.30007721633E+02  0.36648972398E+02  0.00000000000E+00 0.  1.
<scales pt_clust_5="13000.00000" pt_clust_6="13000.00000" pt_clust_7="13000.00000" pt_clust_8="13000.00000" pt_clust_9="21.04005"></scales>
<clustering>
<clus scale="   21.040">  1  9  2 -1</clus>
<clus scale="   92.489">  5  6 -1 -1</clus>
<clus scale="   94.202">  7  8 -1 -1</clus>
<clus scale="   95.893">  1  5  2 -1</clus>
<clus scale="   97.547">  2  5  1 -1</clus>
</clustering>
</event>
<event>
 9    1  0.1175034E-005  0.9224997E+02  0.7546771E-02  0.1298005E+00
          2   -1    0    0  502    0  0.00000000000E+00  0.00000000000E+00  0.54290569793E+02  0.54290569793E+02  0.00000000000E+00 0. -1.
         -2   -1    0    0    0  501 -0.00000000000E+00 -0.00000000000E+00 -0.32419707091E+03  0.32419707091E+03  0.00000000000E+00 0.  1.
         23    2    1    2    0    0 -0.24276171612E+02  0.12858398829E+02 -0.92790653886E+02  0.13357295453E+03  0.92070395917E+02 0.  0.
         23    2    1    2    0    0 -0.19412584426E+02  0.18556708376E+02 -0.51196679120E+02  0.10797947061E+03  0.91199047472E+02 0.  0.
        -11    1    4    4    0    0  0.33813494734E+02 -0.11813765977E+01 -0.38386403994E+01  0.34051185543E+02  0.00000000000E+00 0. -1.
         11    1    4    4    0    0 -0.53226079159E+02  0.19738084974E+02 -0.47358038721E+02  0.73928285064E+02  0.00000000000E+00 0.  1.
        -11    1    3    3    0    0 -0.56753883066E+02  0.10088853347E+01 -0.76753190968E+02  0.95462418870E+02  0.00000000000E+00 0.  1.
         11    1    3    3    0    0  0.32477711454E+02  0.11849513494E+02 -0.16037462917E+02  0.38110535658E+02  0.00000000000E+00 0. -1.
         21    1    1    2  502  501  0.43688756038E+02 -0.31415107205E+02 -0.12591916811E+03  0.13693521557E+03  0.00000000000E+00 0.  1.
<scales pt_clust_5="13000.00000" pt_clust_6="13000.00000" pt_clust_7="13000.00000" pt_clust_8="13000.00000" pt_clust_9="53.81093"></scales>
<clustering>
<clus scale="   53.811">  2  9  1 -1</clus>
<clus scale="   91.199">  5  6 -1 -1</clus>
<clus scale="   91.380">  1  5  2 -1</clus>
<clus scale="   92.070">  7  8 -1 -1</clus>
<clus scale="   91.380">  1  5  2 -1</clus>
</clustering>
</event>
<event>
 9    1  0.1175034E-005  0.9271648E+02  0.7546771E-02  0.1297163E+00
          1   -1    0    0  502    0  0.00000000000E+00  0.00000000000E+00  0.45437506221E+03  0.45437506221E+03  0.00000000000E+00 0. -1.
         -1   -1    0    0    0  501 -0.00000000000E+00 -0.00000000000E+00 -0.47972071165E+02  0.47972071165E+02  0.00000000000E+00 0.  1.
         23    2    1    2    0    0 -0.26941662633E+02 -0.12163824756E+02  0.42317029847E+02  0.10538496077E+03  0.91877348261E+02 0.  0.
         23    2    1    2    0    0 -0.12961875016E+02 -0.15899716869E+02  0.31231120316E+03  0.32582511999E+03  0.90569917700E+02 0.  0.
        -13    1    4    4    0    0 -0.45794826755E+02 -0.22500189663E+02  0.24929067952E+03  0.25445877384E+03  0.00000000000E+00 0.  1.
         13    1    4    4    0    0  0.32832951739E+02  0.66004727940E+01  0.63020523647E+02  0.71366346143E+02  0.00000000000E+00 0. -1.
        -13    1    3    3    0    0  0.26647235711E+02  0.19212006006E+02  0.23860800459E+02  0.40601898285E+02  0.00000000000E+00 0. -1.
         13    1    3    3    0    0 -0.53588898344E+02 -0.31375830762E+02  0.18456229388E+02  0.64783062485E+02  0.00000000000E+00 0.  1.
         21    1    1    2  502  501  0.39903537649E+02  0.28063541625E+02  0.51774758032E+02  0.71137052615E+02  0.00000000000E+00 0. -1.
<scales pt_clust_5="13000.00000" pt_clust_6="13000.00000" pt_clust_7="13000.00000" pt_clust_8="13000.00000" pt_clust_9="48.78375"></scales>
<clustering>
<clus scale="   48.784">  2  9  1 -1</clus>
<clus scale="   90.570">  5  6 -1 -1</clus>
<clus scale="   91.421">  1  5  2 -1</clus>
<clus scale="   91.877">  7  8 -1 -1</clus>
<clus scale="   91.421">  1  5  2 -1</clus>
</clustering>
</event>
<event>
 9    1  0.1175034E-005  0.1318303E+03  0.7546771E-02  0.1226054E+00
         -2   -1    0    0    0  501 -0.00000000000E+00  0.00000000000E+00  0.24452715506E+03  0.24452715506E+03  0.00000000000E+00 0.  1.
          2   -1    0    0  502    0  0.00000000000E+00 -0.00000000000E+00 -0.16266745905E+03  0.16266745905E+03  0.00000000000E+00 0. -1.
         23    2    1    2    0    0 -0.58946320453E+02 -0.51004711084E+02  0.13835338741E+03  0.18388730667E+03  0.92718566099E+02 0.  0.
         23    2    1    2    0    0  0.85424005091E+02  0.46154066526E+02 -0.10505240222E+03  0.16778663621E+03  0.87686313500E+02 0.  0.
        -13    1    3    3    0    0 -0.83041098211E+02 -0.31873450905E+02  0.89713940672E+02  0.12633420762E+03  0.00000000000E+00 0.  1.
         13    1    3    3    0    0  0.24094777758E+02 -0.19131260179E+02  0.48639446739E+02  0.57553099050E+02  0.00000000000E+00 0. -1.
        -13    1    4    4    0    0  0.40889914882E+02  0.45926705196E+02 -0.93090665500E+01  0.62192492386E+02  0.00000000000E+00 0. -1.
         13    1    4    4    0    0  0.44534090209E+02  0.22736132988E+00 -0.95743335674E+02  0.10559414382E+03  0.00000000000E+00 0.  1.
         21    1    1    2  502  501 -0.26477684638E+02  0.48506445577E+01  0.48558710827E+02  0.55520671228E+02  0.00000000000E+00 0.  1.
<scales pt_clust_5="13000.00000" pt_clust_6="13000.00000" pt_clust_7="13000.00000" pt_clust_8="13000.00000" pt_clust_9="26.91833"></scales>
<clustering>
<clus scale="   26.918">  1  9  2 -1</clus>
<clus scale="   87.686">  7  8 -1 -1</clus>
<clus scale="   92.719">  5  6 -1 -1</clus>
<clus scale="  128.341">  2  7  1 -1</clus>
<clus scale="  128.341">  2  5  1 -1</clus>
</clustering>
</event>
<event>
 9    1  0.1175034E-005  0.9736886E+02  0.7546771E-02  0.1286856E+00
         -2   -1    0    0    0  501 -0.00000000000E+00  0.00000000000E+00  0.79914874939E+02  0.79914874939E+02  0.00000000000E+00 0.  1.
          2   -1    0    0  502    0  0.00000000000E+00 -0.00000000000E+00 -0.14948948503E+03  0.14948948503E+03  0.00000000000E+00 0. -1.
         23    2    1    2    0    0 -0.42590496213E+02 -0.37390154061E+01 -0.30089791397E+02  0.10350224330E+03  0.89327421425E+02 0.  0.
         23    2    1    2    0    0  0.24736077198E+02  0.14625924996E+02 -0.42846055974E+02  0.10472186656E+03  0.91132286404E+02 0.  0.
        -11    1    3    3    0    0 -0.18285446037E+02 -0.45670025061E+02 -0.65716913705E+01  0.49631601357E+02  0.00000000000E+00 0.  1.
         11    1    3    3    0    0 -0.24305050176E+02  0.41931009655E+02 -0.23518100027E+02  0.53870641945E+02  0.00000000000E+00 0. -1.
        -11    1    4    4    0    0  0.57917887091E+02  0.14518072406E+02 -0.38999393475E+02  0.71317660947E+02  0.00000000000E+00 0.  1.
         11    1    4    4    0    0 -0.33181809893E+02  0.10785258919E+00 -0.38466624982E+01  0.33404205609E+02  0.00000000000E+00 0. -1.
         21    1    1    2  502  501  0.17854419015E+02 -0.10886909589E+02  0.33612372780E+01  0.21180250112E+02  0.00000000000E+00 0.  1.
<scales pt_clust_5="13000.00000" pt_clust_6="13000.00000" pt_clust_7="13000.00000" pt_clust_8="13000.00000" pt_clust_9="20.91184"></scales>
<clustering>
<clus scale="   20.912">  1  9  2 -1</clus>
<clus scale="   89.327">  5  6 -1 -1</clus>
<clus scale="   91.132">  7  8 -1 -1</clus>
<clus scale="   95.682">  1  5  2 -1</clus>
<clus scale="   97.369">  2  5  1 -1</clus>
</clustering>
</event>
<event>
 9    1  0.1175034E-005  0.1629608E+03  0.7546771E-02  0.1186850E+00
         -1   -1    0    0    0  501 -0.00000000000E+00  0.00000000000E+00  0.10077984952E+03  0.10077984952E+03  0.00000000000E+00 0.  1.
          1   -1    0    0  502    0  0.00000000000E+00 -0.00000000000E+00 -0.57642912653E+03  0.57642912653E+03  0.00000000000E+00 0. -1.
         23    2    1    2    0    0 -0.95692181606E+02 -0.43876400970E+02 -0.44805599641E+01  0.13608418687E+03  0.86120254966E+02 0.  0.
         23    2    1    2    0    0  0.10626197970E+03  0.89596922505E+02 -0.46399568497E+03  0.49365333344E+03  0.95301632160E+02 0.  0.
        -11    1    3    3    0    0 -0.77173715434E+02 -0.26981995278E+02 -0.41258946994E+02  0.91575712556E+02  0.00000000000E+00 0. -1.
         11    1    3    3    0    0 -0.18518466172E+02 -0.16894405692E+02  0.36778387030E+02  0.44508474312E+02  0.00000000000E+00 0.  1.
        -13    1    4    4    0    0  0.11974436361E+03  0.68275597171E+02 -0.33564061581E+03  0.36284279346E+03  0.00000000000E+00 0. -1.
         13    1    4    4    0    0 -0.13482383912E+02  0.21321325334E+02 -0.12835506916E+03  0.13081053998E+03  0.00000000000E+00 0.  1.
         21    1    1    2  502  501 -0.10569798095E+02 -0.45720521534E+02 -0.71730320731E+01  0.47471455742E+02  0.00000000000E+00 0. -1.
<scales pt_clust_5="13000.00000" pt_clust_6="13000.00000" pt_clust_7="13000.00000" pt_clust_8="13000.00000" pt_clust_9="46.92640"></scales>
<clustering>
<clus scale="   46.926">  1  9  2 -1</clus>
<clus scale="   86.120">  5  6 -1 -1</clus>
<clus scale="   95.302">  7  8 -1 -1</clus>
<clus scale="  157.767">  1  5  2 -1</clus>
<clus scale="  162.961">  2  5  1 -1</clus>
</clustering>
</event>
<event>
 9    1  0.1175034E-005  0.1008957E+03  0.7546771E-02  0.1278437E+00
         -1   -1    0    0    0  501 -0.00000000000E+00  0.00000000000E+00  0.84911851365E+03  0.84911851365E+03  0.00000000000E+00 0.  1.
          1   -1    0    0  502    0  0.00000000000E+00 -0.00000000000E+00 -0.21202939072E+02  0.21202939072E+02  0.00000000000E+00 0. -1.
         23    2    1    2    0    0 -0.24244998972E+02 -0.12846930264E+02  0.47146033658E+03  0.48118767126E+03  0.92270593407E+02 0.  0.
         23    2    1    2    0    0  0.44671023737E+02 -0.24120185937E+02  0.18836917629E+03  0.21582274803E+03  0.92299665563E+02 0.  0.
        -13    1    4    4    0    0 -0.13988563982E+02 -0.23310998638E+02  0.11571956701E+02  0.29546450915E+02  0.00000000000E+00 0.  1.
         13    1    4    4    0    0  0.58659587719E+02 -0.80918729881E+00  0.17679721958E+03  0.18627629712E+03  0.00000000000E+00 0. -1.
        -13    1    3    3    0    0  0.22822301154E+02 -0.35830251702E+02  0.17112961541E+03  0.17632359354E+03  0.00000000000E+00 0.  1.
         13    1    3    3    0    0 -0.47067300126E+02  0.22983321438E+02  0.30033072117E+03  0.30486407772E+03  0.00000000000E+00 0. -1.
         21    1    1    2  502  501 -0.20426024765E+02  0.36967116201E+02  0.16808606171E+03  0.17331103344E+03  0.00000000000E+00 0. -1.
<scales pt_clust_5="13000.00000" pt_clust_6="13000.00000" pt_clust_7="13000.00000" pt_clust_8="13000.00000" pt_clust_9="42.23494"></scales>
<clustering>
<clus scale="   42.235">  1  9  2 -1</clus>
<clus scale="   92.271">  7  8 -1 -1</clus>
<clus scale="   92.300">  5  6 -1 -1</clus>
<clus scale="  100.869">  1  7  2 -1</clus>
<clus scale="  100.896">  2  5  1 -1</clus>
</clustering>
</event>
<event>
 9    1  0.1175034E-005  0.1036435E+03  0.7546771E-02  0.1278922E+00
          1   -1    0    0  502    0  0.00000000000E+00  0.00000000000E+00  0.11164637841E+03  0.11164637841E+03  0.00000000000E+00 0. -1.
         -1   -1    0    0    0  501 -0.00000000000E+00 -0.00000000000E+00 -0.25569340468E+03  0.25569340468E+03  0.00000000000E+00 0.  1.
         23    2    1    2    0    0 -0.13663404682E+02 -0.40783596948E+02 -0.14375619407E+03  0.18128486592E+03  0.10172693286E+03 0.  0.
         23    2    1    2    0    0  0.77516985902E+01  0.14668219231E+02  0.67117418182E+02  0.11352331411E+03  0.90041932108E+02 0.  0.
        -11    1    4    4    0    0  0.37487396340E+02 -0.18692577756E+02  0.51042265501E+02  0.66030524873E+02  0.00000000000E+00 0.  1.
         11    1    4    4    0    0 -0.29735697749E+02  0.33360796987E+02  0.16075152681E+02  0.47492789242E+02  0.00000000000E+00 0. -1.
        -11    1    3    3    0    0 -0.45879638121E+02 -0.37465741689E+02 -0.13547183064E+03  0.14785546960E+03  0.00000000000E+00 0.  1.
         11    1    3    3    0    0  0.32216233439E+02 -0.33178552595E+01 -0.82843634318E+01  0.33429396315E+02  0.00000000000E+00 0. -1.
         21    1    1    2  502  501  0.59117060913E+01  0.26115377717E+02 -0.67408250387E+02  0.72531603060E+02  0.00000000000E+00 0.  1.
<scales pt_clust_5="13000.00000" pt_clust_6="13000.00000" pt_clust_7="13000.00000" pt_clust_8="13000.00000" pt_clust_9="26.77613"></scales>
<clustering>
<clus scale="   26.776">  2  9  1 -1</clus>
<clus scale="   90.042">  5  6 -1 -1</clus>
<clus scale="   92.202">  1  5  2 -1</clus>
<clus scale="  101.727">  7  8 -1 -1</clus>
<clus scale="   92.202">  1  5  2 -1</clus>
</clustering>
</event>
<event>
 9    1  0.1175034E-005  0.9864487E+02  0.7546771E-02  0.1286441E+00
         -3   -1    0    0    0  501 -0.00000000000E+00  0.00000000000E+00  0.34300289313E+03  0.34300289313E+03  0.00000000000E+00 0.  1.
          3   -1    0    0  502    0  0.00000000000E+00 -0.00000000000E+00 -0.40955063855E+02  0.40955063855E+02  0.00000000000E+00 0. -1.
         23    2    1    2    0    0 -0.95753837999E+01  0.43514595440E+01  0.10485818054E+03  0.14286748387E+03  0.96463758718E+02 0.  0.
         23    2    1    2    0    0  0.29697553722E+02 -0.26737343762E+01  0.86686180141E+02  0.12875733884E+03  0.90414959635E+02 0.  0.
        -13    1    3    3    0    0 -0.31052656714E+02 -0.37072837963E+02  0.38849068298E+02  0.62031547710E+02  0.00000000000E+00 0. -1.
         13    1    3    3    0    0  0.21477272914E+02  0.41424297507E+02  0.66009112242E+02  0.80835936159E+02  0.00000000000E+00 0.  1.
        -13    1    4    4    0    0 -0.29543290097E+02  0.13904392851E+02  0.39372040936E+02  0.51149738394E+02  0.00000000000E+00 0.  1.
         13    1    4    4    0    0  0.59240843818E+02 -0.16578127228E+02  0.47314139204E+02  0.77607600448E+02  0.00000000000E+00 0. -1.
         21    1    1    2  502  501 -0.20122169922E+02 -0.16777251678E+01  0.11050346860E+03  0.11233313428E+03  0.00000000000E+00 0.  1.
<scales pt_clust_5="13000.00000" pt_clust_6="13000.00000" pt_clust_7="13000.00000" pt_clust_8="13000.00000" pt_clust_9="20.19199"></scales>
<clustering>
<clus scale="   20.192">  1  9  2 -1</clus>
<clus scale="   90.415">  7  8 -1 -1</clus>
<clus scale="   92.738">  2  7  1 -1</clus>
<clus scale="   96.464">  5  6 -1 -1</clus>
<clus scale="   92.738">  2  5  1 -1</clus>
</clustering>
</event>
<event>
 9    1  0.1175034E-005  0.1326827E+03  0.7546771E-02  0.1224435E+00
         -1   -1    0    0    0  501 -0.00000000000E+00  0.00000000000E+00  0.39119147428E+02  0.39119147428E+02  0.00000000000E+00 0.  1.
          1   -1    0    0  502    0  0.00000000000E+00 -0.00000000000E+00 -0.61496087177E+03  0.61496087177E+03  0.00000000000E+00 0. -1.
         23    2    1    2    0    0 -0.68149948758E+02  0.76464734510E+02 -0.15381861240E+03  0.20627063770E+03  0.91630449736E+02 0.  0.
         23    2    1    2    0    0  0.45116159401E+02 -0.57758905970E+02 -0.33978340290E+03  0.36038036333E+03  0.95129839327E+02 0.  0.
        -11    1    3    3    0    0 -0.61044882459E+02  0.53613834956E+02 -0.41119540431E+02  0.91058978571E+02  0.00000000000E+00 0.  1.
         11    1    3    3    0    0 -0.71050662985E+01  0.22850899554E+02 -0.11269907197E+03  0.11521165913E+03  0.00000000000E+00 0. -1.
        -11    1    4    4    0    0 -0.30186642872E+01 -0.70071334264E+02 -0.21060738007E+03  0.22197876646E+03  0.00000000000E+00 0.  1.
         11    1    4    4    0    0  0.48134823688E+02  0.12312428294E+02 -0.12917602283E+03  0.13840159687E+03  0.00000000000E+00 0. -1.
         21    1    1    2  502  501  0.23033789357E+02 -0.18705828540E+02 -0.82239709037E+02  0.87429018158E+02  0.00000000000E+00 0. -1.
<scales pt_clust_5="13000.00000" pt_clust_6="13000.00000" pt_clust_7="13000.00000" pt_clust_8="13000.00000" pt_clust_9="29.67260"></scales>
<clustering>
<clus scale="   29.673">  2  9  1 -1</clus>
<clus scale="   91.630">  5  6 -1 -1</clus>
<clus scale="   95.130">  7  8 -1 -1</clus>
<clus scale="  130.197">  1  5  2 -1</clus>
<clus scale="   29.673">  2  5  1 -1</clus>
</clustering>
</event>
<event>
 9    1  0.1175034E-005  0.9711882E+02  0.7546771E-02  0.1287726E+00
          2   -1    0    0  502    0  0.00000000000E+00  0.00000000000E+00  0.46147031153E+03  0.46147031153E+03  0.00000000000E+00 0. -1.
         -2   -1    0    0    0  501 -0.00000000000E+00 -0.00000000000E+00 -0.53566262943E+02  0.53566262943E+02  0.00000000000E+00 0.  1.
         23    2    1    2    0    0  0.25595629595E+01 -0.22558171543E+02  0.16072379112E+03  0.18691876865E+03  0.92688006650E+02 0.  0.
         23    2    1    2    0    0 -0.23814847923E+02  0.25640624798E+02  0.27581260259E+03  0.29232535070E+03  0.90315725617E+02 0.  0.
        -11    1    3    3    0    0 -0.17142101151E+02 -0.44555988264E+02  0.14661355464E+03  0.15419021410E+03  0.00000000000E+00 0.  1.
         11    1    3    3    0    0  0.19701664110E+02  0.21997816721E+02  0.14110236481E+02  0.32728554547E+02  0.00000000000E+00 0. -1.
        -13    1    4    4    0    0  0.20695413284E+02 -0.21931705058E+02  0.11320948187E+03  0.11715667545E+03  0.00000000000E+00 0.  1.
         13    1    4    4    0    0 -0.44510261207E+02  0.47572329856E+02  0.16260312072E+03  0.17516867525E+03  0.00000000000E+00 0. -1.
         21    1    1    2  502  501  0.21255284964E+02 -0.30824532550E+01 -0.28632345117E+02  0.35792455124E+02  0.00000000000E+00 0. -1.
<scales pt_clust_5="13000.00000" pt_clust_6="13000.00000" pt_clust_7="13000.00000" pt_clust_8="13000.00000" pt_clust_9="21.47763"></scales>
<clustering>
<clus scale="   21.478">  2  9  1 -1</clus>
<clus scale="   90.316">  7  8 -1 -1</clus>
<clus scale="   92.688">  5  6 -1 -1</clus>
<clus scale="   94.857">  1  7  2 -1</clus>
<clus scale="   94.857">  1  5  2 -1</clus>
</clustering>
</event>
<event>
 9    1  0.1175034E-005  0.1060078E+03  0.7546771E-02  0.1272929E+00
          3   -1    0    0  502    0  0.00000000000E+00  0.00000000000E+00  0.16114668332E+03  0.16114668332E+03  0.00000000000E+00 0. -1.
         -3   -1    0    0    0  501 -0.00000000000E+00 -0.00000000000E+00 -0.14047847851E+03  0.14047847851E+03  0.00000000000E+00 0.  1.
         23    2    1    2    0    0 -0.42518321559E+01 -0.42239617389E+02 -0.77442261356E+02  0.13550845081E+03  0.10277632531E+03 0.  0.
         23    2    1    2    0    0 -0.84378654175E+01  0.22122364846E+02  0.10403922061E+03  0.14160380822E+03  0.93096092700E+02 0.  0.
        -13    1    3    3    0    0 -0.14613077329E+02  0.28426815838E+02 -0.26198135671E+01  0.32070068769E+02  0.00000000000E+00 0. -1.
         13    1    3    3    0    0  0.10361245173E+02 -0.70666433228E+02 -0.74822447789E+02  0.10343838204E+03  0.00000000000E+00 0.  1.
        -13    1    4    4    0    0  0.13193180947E+02  0.55042558030E+02  0.58726864184E+02  0.81563397397E+02  0.00000000000E+00 0. -1.
         13    1    4    4    0    0 -0.21631046364E+02 -0.32920193184E+02  0.45312356429E+02  0.60040410818E+02  0.00000000000E+00 0.  1.
         21    1    1    2  502  501  0.12689697573E+02  0.20117252543E+02 -0.59287544511E+01  0.24512902801E+02  0.00000000000E+00 0. -1.
<scales pt_clust_5="13000.00000" pt_clust_6="13000.00000" pt_clust_7="13000.00000" pt_clust_8="13000.00000" pt_clust_9="23.78513"></scales>
<clustering>
<clus scale="   23.785">  2  9  1 -1</clus>
<clus scale="   93.096">  7  8 -1 -1</clus>
<clus scale="   96.652">  1  7  2 -1</clus>
<clus scale="  102.776">  5  6 -1 -1</clus>
<clus scale="   96.652">  1  5  2 -1</clus>
</clustering>
</event>
<event>
 9    1  0.1175034E-005  0.1057358E+03  0.7546771E-02  0.1268745E+00
         -2   -1    0    0    0  501 -0.00000000000E+00  0.00000000000E+00  0.72958466188E+02  0.72958466188E+02  0.00000000000E+00 0.  1.
          2   -1    0    0  502    0  0.00000000000E+00 -0.00000000000E+00 -0.23337255659E+03  0.23337255659E+03  0.00000000000E+00 0. -1.
         23    2    1    2    0    0  0.55782794928E+02 -0.46333908114E+01 -0.79958938229E+02  0.13398162681E+03  0.91784835353E+02 0.  0.
         23    2    1    2    0    0 -0.39611302879E+02  0.37882347888E+02 -0.82759959756E+02  0.13530452534E+03  0.91945505826E+02 0.  0.
        -11    1    3    3    0    0  0.62365431868E+02 -0.37012129190E+02 -0.66191942410E+02  0.98187158220E+02  0.00000000000E+00 0.  1.
         11    1    3    3    0    0 -0.65826369394E+01  0.32378738379E+02 -0.13766995818E+02  0.35794468594E+02  0.00000000000E+00 0. -1.
        -11    1    4    4    0    0 -0.13707934880E+02 -0.29196884424E+02 -0.11983224097E+02  0.34408766303E+02  0.00000000000E+00 0.  1.
         11    1    4    4    0    0 -0.25903367999E+02  0.67079232311E+02 -0.70776735659E+02  0.10089575904E+03  0.00000000000E+00 0. -1.
         21    1    1    2  502  501 -0.16171492049E+02 -0.33248957076E+02  0.23048075804E+01  0.37044870626E+02  0.00000000000E+00 0.  1.
<scales pt_clust_5="13000.00000" pt_clust_6="13000.00000" pt_clust_7="13000.00000" pt_clust_8="13000.00000" pt_clust_9="36.97310"></scales>
<clustering>
<clus scale="   36.973">  1  9  2 -1</clus>
<clus scale="   91.785">  5  6 -1 -1</clus>
<clus scale="   91.946">  7  8 -1 -1</clus>
<clus scale="  105.596">  1  5  2 -1</clus>
<clus scale="  105.736">  2  5  1 -1</clus>
</clustering>
</event>
<event>
 9    1  0.1175034E-005  0.1040713E+03  0.7546771E-02  0.1277751E+00
          1   -1    0    0  502    0  0.00000000000E+00  0.00000000000E+00  0.36540198674E+03  0.36540198674E+03  0.00000000000E+00 0. -1.
         -1   -1    0    0    0  501 -0.00000000000E+00 -0.00000000000E+00 -0.38844458687E+02  0.38844458687E+02  0.00000000000E+00 0.  1.
         23    2    1    2    0    0  0.33774246089E+00  0.67731182579E+01  0.12262850439E+03  0.16004438808E+03  0.10261806306E+03 0.  0.
         23    2    1    2    0    0  0.18617175954E+02 -0.16072385028E+02  0.20185736869E+03  0.22298750929E+03  0.91499241557E+02 0.  0.
        -11    1    3    3    0    0  0.42320572806E+02 -0.23012991102E+02  0.79181451523E+02  0.92684038040E+02  0.00000000000E+00 0. -1.
         11    1    3    3    0    0 -0.41982830345E+02  0.29786109360E+02  0.43447052871E+02  0.67360350042E+02  0.00000000000E+00 0.  1.
        -13    1    4    4    0    0 -0.13509645878E+02  0.20883423482E+02  0.13359525431E+02  0.28233044962E+02  0.00000000000E+00 0.  1.
         13    1    4    4    0    0  0.32126821832E+02 -0.36955808511E+02  0.18849784326E+03  0.19475446433E+03  0.00000000000E+00 0. -1.
         21    1    1    2  502  501 -0.18954918415E+02  0.92992667703E+01  0.20716549663E+01  0.21214548048E+02  0.00000000000E+00 0.  1.
<scales pt_clust_5="13000.00000" pt_clust_6="13000.00000" pt_clust_7="13000.00000" pt_clust_8="13000.00000" pt_clust_9="21.11315"></scales>
<clustering>
<clus scale="   21.113">  2  9  1 -1</clus>
<clus scale="   91.499">  7  8 -1 -1</clus>
<clus scale="   93.126">  1  7  2 -1</clus>
<clus scale="  102.618">  5  6 -1 -1</clus>
<clus scale="   93.126">  1  5  2 -1</clus>
</clustering>
</event>
<event>
 9    1  0.1175034E-005  0.1033339E+03  0.7546771E-02  0.1275738E+00
          1   -1    0    0  502    0  0.00000000000E+00  0.00000000000E+00  0.55989616425E+02  0.55989616425E+02  0.00000000000E+00 0. -1.
         -1   -1    0    0    0  501 -0.00000000000E+00 -0.00000000000E+00 -0.25811505709E+03  0.25811505709E+03  0.00000000000E+00 0.  1.
         23    2    1    2    0    0  0.12044268972E+02 -0.38191622538E+02 -0.13174860842E+03  0.16488909346E+03  0.90703102898E+02 0.  0.
         23    2    1    2    0    0  0.30996418576E+01  0.54927672097E+02 -0.35661551322E+02  0.10780804306E+03  0.85581370428E+02 0.  0.
        -11    1    3    3    0    0 -0.13065561550E+02 -0.57595807083E+02 -0.11434496859E+03  0.12869637809E+03  0.00000000000E+00 0.  1.
         11    1    3    3    0    0  0.25109830521E+02  0.19404184545E+02 -0.17403639832E+02  0.36192715373E+02  0.00000000000E+00 0. -1.
        -11    1    4    4    0    0  0.19099221216E+01 -0.22143275326E+02 -0.18316510256E+02  0.28800468618E+02  0.00000000000E+00 0.  1.
         11    1    4    4    0    0  0.11897197359E+01  0.77070947423E+02 -0.17345041066E+02  0.79007574443E+02  0.00000000000E+00 0. -1.
         21    1    1    2  502  501 -0.15143910829E+02 -0.16736049559E+02 -0.34715280917E+02  0.41407536985E+02  0.00000000000E+00 0. -1.
<scales pt_clust_5="13000.00000" pt_clust_6="13000.00000" pt_clust_7="13000.00000" pt_clust_8="13000.00000" pt_clust_9="22.57063"></scales>
<clustering>
<clus scale="   22.571">  2  9  1 -1</clus>
<clus scale="   85.581">  7  8 -1 -1</clus>
<clus scale="   90.703">  5  6 -1 -1</clus>
<clus scale="   98.869">  1  7  2 -1</clus>
<clus scale="   98.869">  1  5  2 -1</clus>
</clustering>
</event>
<event>
 9    1  0.1175034E-005  0.9916043E+02  0.7546771E-02  0.1288457E+00
          2   -1    0    0  502    0  0.00000000000E+00  0.00000000000E+00  0.20292751405E+03  0.20292751405E+03  0.00000000000E+00 0. -1.
         -2   -1    0    0    0  501 -0.00000000000E+00 -0.00000000000E+00 -0.12005373189E+03  0.12005373189E+03  0.00000000000E+00 0.  1.
         23    2    1    2    0    0 -0.14684750170E+02 -0.43815524874E+02 -0.56787580814E+02  0.10842299657E+03  0.79970461686E+02 0.  0.
         23    2    1    2    0    0 -0.12283438888E+02 -0.10515643426E+02  0.11692602693E+03  0.14978128916E+03  0.92202370794E+02 0.  0.
        -11    1    3    3    0    0  0.21132934341E+02 -0.33894391751E+02  0.72157904519E+00  0.39949360225E+02  0.00000000000E+00 0. -1.
         11    1    3    3    0    0 -0.35817684511E+02 -0.99211331231E+01 -0.57509159859E+02  0.68473636342E+02  0.00000000000E+00 0.  1.
        -11    1    4    4    0    0  0.29236314202E+02 -0.30684428804E+01  0.10016716003E+03  0.10439174948E+03  0.00000000000E+00 0.  1.
         11    1    4    4    0    0 -0.41519753090E+02 -0.74472005455E+01  0.16758866899E+02  0.45389539680E+02  0.00000000000E+00 0. -1.
         21    1    1    2  502  501  0.26968189058E+02  0.54331168300E+02  0.22735336037E+02  0.64776960214E+02  0.00000000000E+00 0. -1.
<scales pt_clust_5="13000.00000" pt_clust_6="13000.00000" pt_clust_7="13000.00000" pt_clust_8="13000.00000" pt_clust_9="60.65607"></scales>
<clustering>
<clus scale="   60.656">  1  9  2 -1</clus>
<clus scale="   79.970">  5  6 -1 -1</clus>
<clus scale="   87.902">  2  5  1 -1</clus>
<clus scale="   92.202">  7  8 -1 -1</clus>
<clus scale="   60.656">  1  5  2 -1</clus>
</clustering>
</event>
<event>
 9    1  0.1175034E-005  0.9298092E+02  0.7546771E-02  0.1297375E+00
          2   -1    0    0  502    0  0.00000000000E+00  0.00000000000E+00  0.22323624460E+03  0.22323624460E+03  0.00000000000E+00 0. -1.
         -2   -1    0    0    0  501 -0.00000000000E+00 -0.00000000000E+00 -0.10792930022E+03  0.10792930022E+03  0.00000000000E+00 0.  1.
         23    2    1    2    0    0  0.24525380112E+02 -0.22653183987E+02 -0.29094103280E+02  0.10192584354E+03  0.91802776214E+02 0.  0.
         23    2    1    2    0    0  0.22298472067E+02 -0.17872584846E+01  0.15025266508E+03  0.17609791182E+03  0.89074098563E+02 0.  0.
        -11    1    4    4    0    0 -0.15989012951E+02 -0.36442848394E+02  0.57321820942E+02  0.69781952468E+02  0.00000000000E+00 0. -1.
         11    1    4    4    0    0  0.38287485017E+02  0.34655589909E+02  0.92930844138E+02  0.10631595935E+03  0.00000000000E+00 0.  1.
        -13    1    3    3    0    0 -0.22307786285E+02 -0.34795892754E+02  0.65277716416E+01  0.41844991147E+02  0.00000000000E+00 0. -1.
         13    1    3    3    0    0  0.46833166397E+02  0.12142708767E+02 -0.35621874921E+02  0.60080852390E+02  0.00000000000E+00 0.  1.
         21    1    1    2  502  501 -0.46823852179E+02  0.24440442471E+02 -0.58516174260E+01  0.53141789465E+02  0.00000000000E+00 0. -1.
<scales pt_clust_5="13000.00000" pt_clust_6="13000.00000" pt_clust_7="13000.00000" pt_clust_8="13000.00000" pt_clust_9="52.81864"></scales>
<clustering>
<clus scale="   52.819">  2  9  1 -1</clus>
<clus scale="   89.074">  5  6 -1 -1</clus>
<clus scale="   90.288">  1  5  2 -1</clus>
<clus scale="   91.803">  7  8 -1 -1</clus>
<clus scale="   90.288">  1  5  2 -1</clus>
</clustering>
</event>
<event>
 9    1  0.1175034E-005  0.1104242E+03  0.7546771E-02  0.1267723E+00
         -2   -1    0    0    0  501 -0.00000000000E+00  0.00000000000E+00  0.12168998699E+03  0.12168998699E+03  0.00000000000E+00 0.  1.
          2   -1    0    0  502    0  0.00000000000E+00 -0.00000000000E+00 -0.22583918743E+03  0.22583918743E+03  0.00000000000E+00 0. -1.
         23    2    1    2    0    0  0.18402313406E+02 -0.36225532565E+02  0.51209296571E+02  0.11228685741E+03  0.91296286575E+02 0.  0.
         23    2    1    2    0    0 -0.19231478368E+02  0.11546971426E+02 -0.17293827437E+03  0.20493113976E+03  0.10763801834E+03 0.  0.
        -11    1    3    3    0    0 -0.37021393314E+02 -0.11058816962E+02  0.14907549497E+02  0.41413959331E+02  0.00000000000E+00 0. -1.
         11    1    3    3    0    0  0.55423706720E+02 -0.25166715603E+02  0.36301747074E+02  0.70872898074E+02  0.00000000000E+00 0.  1.
        -13    1    4    4    0    0 -0.18410452518E+02 -0.38989545997E+02 -0.13504293380E+03  0.14175938568E+03  0.00000000000E+00 0.  1.
         13    1    4    4    0    0 -0.82102584982E+00  0.50536517423E+02 -0.37895340561E+02  0.63171754075E+02  0.00000000000E+00 0. -1.
         21    1    1    2  502  501  0.82916496173E+00  0.24678561139E+02  0.17579777359E+02  0.30311177252E+02  0.00000000000E+00 0.  1.
<scales pt_clust_5="13000.00000" pt_clust_6="13000.00000" pt_clust_7="13000.00000" pt_clust_8="13000.00000" pt_clust_9="24.69249"></scales>
<clustering>
<clus scale="   24.692">  1  9  2 -1</clus>
<clus scale="   91.296">  5  6 -1 -1</clus>
<clus scale="   94.565">  1  5  2 -1</clus>
<clus scale="  107.638">  7  8 -1 -1</clus>
<clus scale="  110.424">  2  5  1 -1</clus>
</clustering>
</event>
<event>
 9    1  0.1175034E-005  0.1174817E+03  0.7546771E-02  0.1248274E+00
          2   -1    0    0  502    0  0.00000000000E+00  0.00000000000E+00  0.58587328314E+03  0.58587328314E+03  0.00000000000E+00 0. -1.
         -2   -1    0    0    0  501 -0.00000000000E+00 -0.00000000000E+00 -0.39672470712E+02  0.39672470712E+02  0.00000000000E+00 0.  1.
         23    2    1    2    0    0 -0.30695224093E+02  0.74943831474E+02  0.11336696988E+03  0.16770472412E+03  0.93348968784E+02 0.  0.
         23    2    1    2    0    0  0.45870232294E+02 -0.52140886186E+02  0.39493380425E+03  0.41107920673E+03  0.90502233366E+02 0.  0.
        -13    1    4    4    0    0  0.25629291164E+02 -0.68402237508E+02  0.36119135747E+03  0.36850362735E+03  0.00000000000E+00 0.  1.
         13    1    4    4    0    0  0.20240941130E+02  0.16261351322E+02  0.33742446781E+02  0.42575579379E+02  0.00000000000E+00 0. -1.
        -13    1    3    3    0    0 -0.18751549620E+02  0.28976407993E+02 -0.96498565101E+01  0.35838143981E+02  0.00000000000E+00 0.  1.
         13    1    3    3    0    0 -0.11943674474E+02  0.45967423481E+02  0.12301682639E+03  0.13186658014E+03  0.00000000000E+00 0. -1.
         21    1    1    2  502  501 -0.15175008201E+02 -0.22802945289E+02  0.37900038295E+02  0.46761823002E+02  0.00000000000E+00 0.  1.
<scales pt_clust_5="13000.00000" pt_clust_6="13000.00000" pt_clust_7="13000.00000" pt_clust_8="13000.00000" pt_clust_9="27.39079"></scales>
<clustering>
<clus scale="   27.391">  2  9  1 -1</clus>
<clus scale="   90.502">  5  6 -1 -1</clus>
<clus scale="   93.349">  7  8 -1 -1</clus>
<clus scale="  115.233">  1  5  2 -1</clus>
<clus scale="  115.233">  1  5  2 -1</clus>
</clustering>
</event>
<event>
 9    1  0.1175034E-005  0.9750243E+02  0.7546771E-02  0.1285736E+00
          1   -1    0    0  502    0  0.00000000000E+00  0.00000000000E+00  0.63795921446E+03  0.63795921446E+03  0.00000000000E+00 0. -1.
         -1   -1    0    0    0  501 -0.00000000000E+00 -0.00000000000E+00 -0.22711937776E+02  0.22711937776E+02  0.00000000000E+00 0.  1.
         23    2    1    2    0    0 -0.99848439885E+01 -0.17817105843E+02  0.20599111320E+03  0.22604751273E+03  0.90818461348E+02 0.  0.
         23    2    1    2    0    0  0.46825924043E+02  0.14832395817E+02  0.34836196136E+03  0.36338967623E+03  0.91012820715E+02 0.  0.
        -11    1    3    3    0    0 -0.33302057709E+02  0.19194585136E+02  0.44816923023E+02  0.59042490932E+02  0.00000000000E+00 0.  1.
         11    1    3    3    0    0  0.23317213721E+02 -0.37011690979E+02  0.16117419018E+03  0.16700502179E+03  0.00000000000E+00 0. -1.
        -13    1    4    4    0    0  0.23198416217E+02 -0.29120383826E+02  0.59061391302E+02  0.69816983691E+02  0.00000000000E+00 0.  1.
         13    1    4    4    0    0  0.23627507826E+02  0.43952779644E+02  0.28930057006E+03  0.29357269253E+03  0.00000000000E+00 0. -1.
         21    1    1    2  502  501 -0.36841080054E+02  0.29847100261E+01  0.60894202118E+02  0.71233963283E+02  0.00000000000E+00 0.  1.
<scales pt_clust_5="13000.00000" pt_clust_6="13000.00000" pt_clust_7="13000.00000" pt_clust_8="13000.00000" pt_clust_9="36.96179"></scales>
<clustering>
<clus scale="   36.962">  2  9  1 -1</clus>
<clus scale="   90.818">  5  6 -1 -1</clus>
<clus scale="   91.013">  7  8 -1 -1</clus>
<clus scale="   97.321">  2  5  1 -1</clus>
<clus scale="   97.502">  1  5  2 -1</clus>
</clustering>
</event>
<event>
 9    1  0.1175034E-005  0.1527383E+03  0.7546771E-02  0.1200241E+00
          1   -1    0    0  502    0  0.00000000000E+00  0.00000000000E+00  0.27715871113E+03  0.27715871113E+03  0.00000000000E+00 0. -1.
         -1   -1    0    0    0  501 -0.00000000000E+00 -0.00000000000E+00 -0.22704501305E+03  0.22704501305E+03  0.00000000000E+00 0.  1.
         23    2    1    2    0    0 -0.11898331767E+03 -0.28443368724E+02  0.86982915623E+02  0.18194128509E+03  0.10281317281E+03 0.  0.
         23    2    1    2    0    0  0.10703177382E+03  0.48452460392E+01  0.10773138127E+03  0.17526228953E+03  0.87358700799E+02 0.  0.
        -11    1    4    4    0    0  0.47347784072E+02 -0.40550716500E+02  0.59000563356E+02  0.85832626323E+02  0.00000000000E+00 0.  1.
         11    1    4    4    0    0  0.59683989743E+02  0.45395962539E+02  0.48730817912E+02  0.89429663205E+02  0.00000000000E+00 0. -1.
        -11    1    3    3    0    0 -0.95842029384E+02 -0.49493766956E+02  0.22382518691E+02  0.11016489780E+03  0.00000000000E+00 0.  1.
         11    1    3    3    0    0 -0.23141288283E+02  0.21050398232E+02  0.64600396932E+02  0.71776387294E+02  0.00000000000E+00 0. -1.
         21    1    1    2  502  501  0.11951543852E+02  0.23598122685E+02 -0.14460059881E+03  0.14700014956E+03  0.00000000000E+00 0. -1.
<scales pt_clust_5="13000.00000" pt_clust_6="13000.00000" pt_clust_7="13000.00000" pt_clust_8="13000.00000" pt_clust_9="26.45205"></scales>
<clustering>
<clus scale="   26.452">  2  9  1 -1</clus>
<clus scale="   87.359">  5  6 -1 -1</clus>
<clus scale="  102.813">  7  8 -1 -1</clus>
<clus scale="  142.794">  1  5  2 -1</clus>
<clus scale="  142.794">  1  5  2 -1</clus>
</clustering>
</event>
<event>
 9    1  0.1175034E-005  0.3267095E+03  0.7546771E-02  0.1072631E+00
         -2   -1    0    0    0  501 -0.00000000000E+00  0.00000000000E+00  0.64973246283E+03  0.64973246283E+03  0.00000000000E+00 0.  1.
          2   -1    0    0  502    0  0.00000000000E+00 -0.00000000000E+00 -0.22832684147E+03  0.22832684147E+03  0.00000000000E+00 0. -1.
         23    2    1    2    0    0  0.13454048179E+03  0.32567100335E+03  0.20694117345E+03  0.41865195795E+03  0.91005873216E+02 0.  0.
         23    2    1    2    0    0 -0.75334864064E+02 -0.27898110179E+03  0.94343975210E+02  0.31758287724E+03  0.91936398428E+02 0.  0.
        -11    1    3    3    0    0 -0.76814040661E+01  0.77591127866E+02  0.43583532887E+02  0.89324752621E+02  0.00000000000E+00 0. -1.
         11    1    3    3    0    0  0.14222188586E+03  0.24807987548E+03  0.16335764056E+03  0.32932720533E+03  0.00000000000E+00 0.  1.
        -11    1    4    4    0    0 -0.48942873544E+02 -0.86058523519E+02 -0.47152084002E+01  0.99114618151E+02  0.00000000000E+00 0.  1.
         11    1    4    4    0    0 -0.26391990521E+02 -0.19292257827E+03  0.99059183610E+02  0.21846825909E+03  0.00000000000E+00 0. -1.
         21    1    1    2  502  501 -0.59205617727E+02 -0.46689901559E+02  0.12012047270E+03  0.14182446912E+03  0.00000000000E+00 0. -1.
<scales pt_clust_5="13000.00000" pt_clust_6="13000.00000" pt_clust_7="13000.00000" pt_clust_8="13000.00000" pt_clust_9="75.40061"></scales>
<clustering>
<clus scale="   75.401">  1  9  2 -1</clus>
<clus scale="   91.006">  5  6 -1 -1</clus>
<clus scale="   91.936">  7  8 -1 -1</clus>
<clus scale="  326.449">  1  5  2 -1</clus>
<clus scale="  326.710">  2  5  1 -1</clus>
</clustering>
</event>
<event>
 9    1  0.1175034E-005  0.1370467E+03  0.7546771E-02  0.1217432E+00
         -2   -1    0    0    0  501 -0.00000000000E+00  0.00000000000E+00  0.24016020226E+03  0.24016020226E+03  0.00000000000E+00 0.  1.
          2   -1    0    0  502    0  0.00000000000E+00 -0.00000000000E+00 -0.12917519394E+03  0.12917519394E+03  0.00000000000E+00 0. -1.
         23    2    1    2    0    0  0.12476333998E+03 -0.46064108869E+02  0.31925725437E+02  0.16419053545E+03  0.90837695144E+02 0.  0.
         23    2    1    2    0    0 -0.79835026164E+02 -0.33536455633E+01  0.39368728946E+02  0.12745311146E+03  0.91156571135E+02 0.  0.
        -11    1    3    3    0    0  0.55514868679E+01 -0.27933535986E+02  0.33016855905E+02  0.43602915189E+02  0.00000000000E+00 0.  1.
         11    1    3    3    0    0  0.11921185311E+03 -0.18130572882E+02 -0.10911304685E+01  0.12058762026E+03  0.00000000000E+00 0. -1.
        -13    1    4    4    0    0 -0.48854530242E+02 -0.46906128174E+02  0.20255916498E+02  0.70691245134E+02  0.00000000000E+00 0. -1.
         13    1    4    4    0    0 -0.30980495922E+02  0.43552482611E+02  0.19112812448E+02  0.56761866326E+02  0.00000000000E+00 0.  1.
         21    1    1    2  502  501 -0.44928313813E+02  0.49417754432E+02  0.39690553939E+02  0.77691749286E+02  0.00000000000E+00 0.  1.
<scales pt_clust_5="13000.00000" pt_clust_6="13000.00000" pt_clust_7="13000.00000" pt_clust_8="13000.00000" pt_clust_9="66.78823"></scales>
<clustering>
<clus scale="   66.788">  1  9  2 -1</clus>
<clus scale="   90.838">  5  6 -1 -1</clus>
<clus scale="   91.157">  7  8 -1 -1</clus>
<clus scale="  136.835">  1  5  2 -1</clus>
<clus scale="  137.047">  2  5  1 -1</clus>
</clustering>
</event>
<event>
 9    1  0.1175034E-005  0.1029461E+03  0.7546771E-02  0.1274912E+00
         -3   -1    0    0    0  501 -0.00000000000E+00  0.00000000000E+00  0.96135595420E+03  0.96135595420E+03  0.00000000000E+00 0.  1.
          3   -1    0    0  502    0  0.00000000000E+00 -0.00000000000E+00 -0.53116983110E+02  0.53116983110E+02  0.00000000000E+00 0. -1.
         23    2    1    2    0    0  0.51978371680E+02 -0.85142804361E+02  0.29287573190E+03  0.32326694785E+03  0.93671110700E+02 0.  0.
         23    2    1    2    0    0  0.12098928449E+02  0.28604359237E+02  0.37219223094E+02  0.10678063108E+03  0.95143256036E+02 0.  0.
        -11    1    4    4    0    0  0.83659735817E+01  0.59516618117E+02  0.25130644017E+01  0.60154242068E+02  0.00000000000E+00 0. -1.
         11    1    4    4    0    0  0.37329548671E+01 -0.30912258880E+02  0.34706158693E+02  0.46626389012E+02  0.00000000000E+00 0.  1.
        -11    1    3    3    0    0  0.70785243270E+02 -0.60955309759E+02  0.26796119918E+03  0.28377685726E+03  0.00000000000E+00 0.  1.
         11    1    3    3    0    0 -0.18806871590E+02 -0.24187494601E+02  0.24914532729E+02  0.39490090595E+02  0.00000000000E+00 0. -1.
         21    1    1    2  502  501 -0.64077300128E+02  0.56538445124E+02  0.57814401610E+03  0.58442535838E+03  0.00000000000E+00 0. -1.
<scales pt_clust_5="13000.00000" pt_clust_6="13000.00000" pt_clust_7="13000.00000" pt_clust_8="13000.00000" pt_clust_9="85.45464"></scales>
<clustering>
<clus scale="   85.455">  1  9  2 -1</clus>
<clus scale="   93.671">  7  8 -1 -1</clus>
<clus scale="   95.143">  5  6 -1 -1</clus>
<clus scale="  101.587">  1  7  2 -1</clus>
<clus scale="  102.946">  2  5  1 -1</clus>
</clustering>
</event>
<event>
 9    1  0.1175034E-005  0.1147991E+03  0.7546771E-02  0.1252411E+00
         -2   -1    0    0    0  501 -0.00000000000E+00  0.00000000000E+00  0.44411395369E+02  0.44411395369E+02  0.00000000000E+00 0.  1.
          2   -1    0    0  502    0  0.00000000000E+00 -0.00000000000E+00 -0.82230405684E+03  0.82230405684E+03  0.00000000000E+00 0. -1.
         23    2    1    2    0    0 -0.78442039111E+02 -0.47181524525E+02 -0.31023324788E+03  0.33597864187E+03  0.90872052604E+02 0.  0.
         23    2    1    2    0    0  0.24360087382E+02  0.56634079447E+02 -0.46247037940E+03  0.47559032928E+03  0.92230562584E+02 0.  0.
        -11    1    3    3    0    0 -0.97079929845E+02 -0.26990181832E+02 -0.22791215700E+03  0.24919256410E+03  0.00000000000E+00 0. -1.
         11    1    3    3    0    0  0.18637890733E+02 -0.20191342693E+02 -0.82321090876E+02  0.86786077764E+02  0.00000000000E+00 0.  1.
        -13    1    4    4    0    0  0.59194185729E+02  0.43667630286E+02 -0.29309184453E+03  0.30218147344E+03  0.00000000000E+00 0. -1.
         13    1    4    4    0    0 -0.34834098346E+02  0.12966449161E+02 -0.16937853486E+03  0.17340885584E+03  0.00000000000E+00 0.  1.
         21    1    1    2  502  501  0.54081951729E+02 -0.94525549227E+01 -0.51890341940E+01  0.55146481060E+02  0.00000000000E+00 0.  1.
<scales pt_clust_5="13000.00000" pt_clust_6="13000.00000" pt_clust_7="13000.00000" pt_clust_8="13000.00000" pt_clust_9="54.90181"></scales>
<clustering>
<clus scale="   54.902">  1  9  2 -1</clus>
<clus scale="   90.872">  5  6 -1 -1</clus>
<clus scale="   92.231">  7  8 -1 -1</clus>
<clus scale="  113.711">  1  5  2 -1</clus>
<clus scale="  114.799">  2  5  1 -1</clus>
</clustering>
</event>
<event>
 9    1  0.1175034E-005  0.1442943E+03  0.7546771E-02  0.1207728E+00
          2   -1    0    0  502    0  0.00000000000E+00  0.00000000000E+00  0.35468291414E+03  0.35468291414E+03  0.00000000000E+00 0. -1.
         -2   -1    0    0    0  501 -0.00000000000E+00 -0.00000000000E+00 -0.96385440513E+02  0.96385440513E+02  0.00000000000E+00 0.  1.
         23    2    1    2    0    0 -0.74103901757E+02  0.72880757541E+02  0.18047881992E+02  0.13961208877E+03  0.91448434704E+02 0.  0.
         23    2    1    2    0    0  0.95126592292E+02 -0.63907440924E+02  0.24742061790E+03  0.28750010706E+03  0.91137916544E+02 0.  0.
        -11    1    4    4    0    0 -0.29504621363E+01 -0.38466235862E+02  0.34733862343E+02  0.51911441142E+02  0.00000000000E+00 0.  1.
         11    1    4    4    0    0  0.98077054428E+02 -0.25441205061E+02  0.21268675555E+03  0.23558866592E+03  0.00000000000E+00 0. -1.
        -11    1    3    3    0    0 -0.37560314917E+02  0.42689004092E+02 -0.36328389802E+02  0.67475034143E+02  0.00000000000E+00 0.  1.
         11    1    3    3    0    0 -0.36543586840E+02  0.30191753449E+02  0.54376271794E+02  0.72137054623E+02  0.00000000000E+00 0. -1.
         21    1    1    2  502  501 -0.21022690535E+02 -0.89733166171E+01 -0.71710262574E+01  0.23956158833E+02  0.00000000000E+00 0.  1.
<scales pt_clust_5="13000.00000" pt_clust_6="13000.00000" pt_clust_7="13000.00000" pt_clust_8="13000.00000" pt_clust_9="22.85769"></scales>
<clustering>
<clus scale="   22.858">  2  9  1 -1</clus>
<clus scale="   91.138">  5  6 -1 -1</clus>
<clus scale="   91.448">  7  8 -1 -1</clus>
<clus scale="  144.098">  1  5  2 -1</clus>
<clus scale="  144.098">  1  5  2 -1</clus>
</clustering>
</event>
<event>
 9    1  0.1175034E-005  0.1063509E+03  0.7546771E-02  0.1270522E+00
         -1   -1    0    0    0  501 -0.00000000000E+00  0.00000000000E+00  0.58352936711E+02  0.58352936711E+02  0.00000000000E+00 0.  1.
          1   -1    0    0  502    0  0.00000000000E+00 -0.00000000000E+00 -0.56250460290E+03  0.56250460290E+03  0.00000000000E+00 0. -1.
         23    2    1    2    0    0 -0.32078331512E+02  0.25207771280E+02 -0.10954442662E+03  0.14356580633E+03  0.83346915109E+02 0.  0.
         23    2    1    2    0    0  0.12883608480E+02 -0.64404203976E+02 -0.41449540264E+03  0.42932990722E+03  0.90575060427E+02 0.  0.
        -13    1    4    4    0    0  0.37080682968E+02 -0.87678568397E+01 -0.71589476182E+02  0.81098122438E+02  0.00000000000E+00 0.  1.
         13    1    4    4    0    0 -0.24197074488E+02 -0.55636347136E+02 -0.34290592645E+03  0.34823178478E+03  0.00000000000E+00 0. -1.
        -13    1    3    3    0    0 -0.20389086016E+02  0.50442629477E+02 -0.36793869475E+02  0.65680762237E+02  0.00000000000E+00 0. -1.
         13    1    3    3    0    0 -0.11689245496E+02 -0.25234858197E+02 -0.72750557146E+02  0.77885044094E+02  0.00000000000E+00 0.  1.
         21    1    1    2  502  501  0.19194723032E+02  0.39196432696E+02  0.19888163070E+02  0.47961826056E+02  0.00000000000E+00 0.  1.
<scales pt_clust_5="13000.00000" pt_clust_6="13000.00000" pt_clust_7="13000.00000" pt_clust_8="13000.00000" pt_clust_9="43.64399"></scales>
<clustering>
<clus scale="   43.644">  1  9  2 -1</clus>
<clus scale="   83.347">  7  8 -1 -1</clus>
<clus scale="   90.575">  5  6 -1 -1</clus>
<clus scale="  100.267">  1  7  2 -1</clus>
<clus scale="  106.351">  2  5  1 -1</clus>
</clustering>
</event>
<event>
 9    1  0.1175034E-005  0.9664626E+02  0.7546771E-02  0.1289692E+00
          3   -1    0    0  502    0  0.00000000000E+00  0.00000000000E+00  0.23525479066E+03  0.23525479066E+03  0.00000000000E+00 0. -1.
         -3   -1    0    0    0  501 -0.00000000000E+00 -0.00000000000E+00 -0.56255991751E+02  0.56255991751E+02  0.00000000000E+00 0.  1.
         23    2    1    2    0    0  0.29994258669E+02 -0.16549700727E+02  0.69405525712E+02  0.11865136900E+03  0.89930374288E+02 0.  0.
         23    2    1    2    0    0 -0.17250813994E+02 -0.10965919984E+02  0.10471828930E+03  0.14214670866E+03  0.93925101456E+02 0.  0.
        -11    1    3    3    0    0  0.28244084691E+02  0.18873490894E+02  0.75384338057E+02  0.82684553593E+02  0.00000000000E+00 0. -1.
         11    1    3    3    0    0  0.17501739776E+01 -0.35423191621E+02 -0.59788123459E+01  0.35966815409E+02  0.00000000000E+00 0.  1.
        -13    1    4    4    0    0  0.12673363448E+02  0.36830409206E+02  0.34034344854E+02  0.51724557156E+02  0.00000000000E+00 0.  1.
         13    1    4    4    0    0 -0.29924177442E+02 -0.47796329189E+02  0.70683944447E+02  0.90422151501E+02  0.00000000000E+00 0. -1.
         21    1    1    2  502  501 -0.12743444675E+02  0.27515620711E+02  0.48749839009E+01  0.30712704755E+02  0.00000000000E+00 0. -1.
<scales pt_clust_5="13000.00000" pt_clust_6="13000.00000" pt_clust_7="13000.00000" pt_clust_8="13000.00000" pt_clust_9="30.32334"></scales>
<clustering>
<clus scale="   30.323">  2  9  1 -1</clus>
<clus scale="   89.930">  5  6 -1 -1</clus>
<clus scale="   92.769">  2  5  1 -1</clus>
<clus scale="   93.925">  7  8 -1 -1</clus>
<clus scale="   96.646">  1  5  2 -1</clus>
</clustering>
</event>
<event>
 9    1  0.1175034E-005  0.1097478E+03  0.7546771E-02  0.1261078E+00
         -1   -1    0    0    0  501 -0.00000000000E+00  0.00000000000E+00  0.29711735818E+02  0.29711735818E+02  0.00000000000E+00 0.  1.
          1   -1    0    0  502    0  0.00000000000E+00 -0.00000000000E+00 -0.59978993166E+03  0.59978993166E+03  0.00000000000E+00 0. -1.
         23    2    1    2    0    0 -0.12315268056E+02 -0.62926104871E+02 -0.22223089594E+03  0.24864360552E+03  0.91245333896E+02 0.  0.
         23    2    1    2    0    0 -0.15610183470E+02  0.59143573968E+02 -0.32918580149E+03  0.34705880299E+03  0.91350318360E+02 0.  0.
        -11    1    4    4    0    0  0.37653203601E+02  0.28727001758E+02 -0.16970367276E+03  0.17618836772E+03  0.00000000000E+00 0.  1.
         11    1    4    4    0    0 -0.53263387071E+02  0.30416572210E+02 -0.15948212873E+03  0.17087043528E+03  0.00000000000E+00 0. -1.
        -11    1    3    3    0    0  0.39094938847E+02 -0.18162855248E+02 -0.78153665208E+02  0.89254125617E+02  0.00000000000E+00 0.  1.
         11    1    3    3    0    0 -0.51410206904E+02 -0.44763249623E+02 -0.14407723073E+03  0.15938947991E+03  0.00000000000E+00 0. -1.
         21    1    1    2  502  501  0.27925451526E+02  0.37825309030E+01 -0.18661498412E+02  0.33799258956E+02  0.00000000000E+00 0.  1.
<scales pt_clust_5="13000.00000" pt_clust_6="13000.00000" pt_clust_7="13000.00000" pt_clust_8="13000.00000" pt_clust_9="28.18046"></scales>
<clustering>
<clus scale="   28.180">  1  9  2 -1</clus>
<clus scale="   91.245">  7  8 -1 -1</clus>
<clus scale="   91.350">  5  6 -1 -1</clus>
<clus scale="  109.660">  1  7  2 -1</clus>
<clus scale="  109.748">  2  5  1 -1</clus>
</clustering>
</event>
<event>
 9    1  0.1175034E-005  0.1169619E+03  0.7546771E-02  0.1253667E+00
          1   -1    0    0  502    0  0.00000000000E+00  0.00000000000E+00  0.51799608411E+03  0.51799608411E+03  0.00000000000E+00 0. -1.
         -1   -1    0    0    0  501 -0.00000000000E+00 -0.00000000000E+00 -0.43923886382E+02  0.43923886382E+02  0.00000000000E+00 0.  1.
         23    2    1    2    0    0  0.27060890850E+02 -0.48330810323E+02  0.80843866690E+02  0.13409098099E+03  0.91523228533E+02 0.  0.
         23    2    1    2    0    0 -0.54524408327E+02  0.86180131171E+01  0.30393092880E+03  0.32631358623E+03  0.10516351947E+03 0.  0.
        -13    1    4    4    0    0 -0.50403018257E+02 -0.40302257979E+02  0.12377945193E+03  0.13959258207E+03  0.00000000000E+00 0.  1.
         13    1    4    4    0    0 -0.41213900702E+01  0.48920271096E+02  0.18015147686E+03  0.18672100417E+03  0.00000000000E+00 0. -1.
        -13    1    3    3    0    0 -0.29980412793E+02 -0.32021889634E+02  0.17292207541E+02  0.47151320328E+02  0.00000000000E+00 0.  1.
         13    1    3    3    0    0  0.57041303643E+02 -0.16308920689E+02  0.63551659149E+02  0.86939660661E+02  0.00000000000E+00 0. -1.
         21    1    1    2  502  501  0.27463517477E+02  0.39712797206E+02  0.89297402244E+02  0.10151540327E+03  0.00000000000E+00 0. -1.
<scales pt_clust_5="13000.00000" pt_clust_6="13000.00000" pt_clust_7="13000.00000" pt_clust_8="13000.00000" pt_clust_9="48.28407"></scales>
<clustering>
<clus scale="   48.284">  1  9  2 -1</clus>
<clus scale="   91.523">  7  8 -1 -1</clus>
<clus scale="  104.868">  2  7  1 -1</clus>
<clus scale="  105.164">  5  6 -1 -1</clus>
<clus scale="   48.284">  1  5  2 -1</clus>
</clustering>
</event>
<event>
 9    1  0.1175034E-005  0.1202941E+03  0.7546771E-02  0.1242793E+00
         -1   -1    0    0    0  501 -0.00000000000E+00  0.00000000000E+00  0.36208556191E+03  0.36208556191E+03  0.00000000000E+00 0.  1.
          1   -1    0    0  502    0  0.00000000000E+00 -0.00000000000E+00 -0.66391474334E+02  0.66391474334E+02  0.00000000000E+00 0. -1.
         23    2    1    2    0    0 -0.65067975974E+02 -0.11953367771E+02  0.16233416839E+03  0.19790599835E+03  0.91856831306E+02 0.  0.
         23    2    1    2    0    0  0.69710253514E+02  0.47070892243E+02  0.40799856939E+02  0.13146424504E+03  0.92428518635E+02 0.  0.
        -11    1    3    3    0    0 -0.79802154343E+02 -0.32059299439E+02  0.14069092505E+03  0.16489426585E+03  0.00000000000E+00 0.  1.
         11    1    3    3    0    0  0.14734178369E+02  0.20105931668E+02  0.21643243339E+02  0.33011732500E+02  0.00000000000E+00 0. -1.
        -13    1    4    4    0    0 -0.20135793870E+02  0.25616529685E+02  0.96697963928E+01  0.33987670561E+02  0.00000000000E+00 0.  1.
         13    1    4    4    0    0  0.89846047384E+02  0.21454362558E+02  0.31130060546E+02  0.97476574483E+02  0.00000000000E+00 0. -1.
         21    1    1    2  502  501 -0.46422775406E+01 -0.35117524472E+02  0.92560062248E+02  0.99106792851E+02  0.00000000000E+00 0. -1.
<scales pt_clust_5="13000.00000" pt_clust_6="13000.00000" pt_clust_7="13000.00000" pt_clust_8="13000.00000" pt_clust_9="35.42303"></scales>
<clustering>
<clus scale="   35.423">  1  9  2 -1</clus>
<clus scale="   91.857">  5  6 -1 -1</clus>
<clus scale="   92.429">  7  8 -1 -1</clus>
<clus scale="  119.855">  1  5  2 -1</clus>
<clus scale="  120.294">  2  5  1 -1</clus>
</clustering>
</event>
<event>
 9    1  0.1175034E-005  0.1089076E+03  0.7546771E-02  0.1263464E+00
         -1   -1    0    0    0  501 -0.00000000000E+00  0.00000000000E+00  0.71184429960E+02  0.71184429960E+02  0.00000000000E+00 0.  1.
          1   -1    0    0  502    0  0.00000000000E+00 -0.00000000000E+00 -0.31986841164E+03  0.31986841164E+03  0.00000000000E+00 0. -1.
         23    2    1    2    0    0 -0.48060933967E+02 -0.51182569567E+00 -0.10225853736E+02  0.10364889498E+03  0.91260122763E+02 0.  0.
         23    2    1    2    0    0  0.57980240321E+02  0.25040778118E+02 -0.23694807297E+03  0.26090220306E+03  0.89088840164E+02 0.  0.
        -13    1    4    4    0    0  0.98240142571E+01 -0.22424560674E+02 -0.14610470695E+02  0.28510314475E+02  0.00000000000E+00 0.  1.
         13    1    4    4    0    0  0.48156226064E+02  0.47465338792E+02 -0.22233760228E+03  0.23239188859E+03  0.00000000000E+00 0. -1.
        -13    1    3    3    0    0 -0.11281409111E+02  0.39115997391E+02  0.15770216237E+02  0.43658116812E+02  0.00000000000E+00 0.  1.
         13    1    3    3    0    0 -0.36779524856E+02 -0.39627823086E+02 -0.25996069973E+02  0.59990778168E+02  0.00000000000E+00 0. -1.
         21    1    1    2  502  501 -0.99193063544E+01 -0.24528952422E+02 -0.15100549722E+01  0.26501743556E+02  0.00000000000E+00 0.  1.
<scales pt_clust_5="13000.00000" pt_clust_6="13000.00000" pt_clust_7="13000.00000" pt_clust_8="13000.00000" pt_clust_9="26.45869"></scales>
<clustering>
<clus scale="   26.459">  1  9  2 -1</clus>
<clus scale="   89.089">  5  6 -1 -1</clus>
<clus scale="   91.260">  7  8 -1 -1</clus>
<clus scale="  107.095">  2  5  1 -1</clus>
<clus scale="  107.095">  2  5  1 -1</clus>
</clustering>
</event>
<event>
 9    1  0.1175034E-005  0.1055401E+03  0.7546771E-02  0.1269365E+00
          1   -1    0    0  502    0  0.00000000000E+00  0.00000000000E+00  0.39035318896E+02  0.39035318896E+02  0.00000000000E+00 0. -1.
         -1   -1    0    0    0  501 -0.00000000000E+00 -0.00000000000E+00 -0.46012099724E+03  0.46012099724E+03  0.00000000000E+00 0.  1.
         23    2    1    2    0    0  0.30014327569E+02  0.44350453597E+02 -0.20298667653E+03  0.22896732700E+03  0.91403628988E+02 0.  0.
         23    2    1    2    0    0 -0.44844500182E+02 -0.26688296300E+02 -0.86873793852E+02  0.13695257885E+03  0.92117633709E+02 0.  0.
        -11    1    3    3    0    0 -0.30281322984E+02  0.19715037955E+02 -0.42607042560E+02  0.55865922699E+02  0.00000000000E+00 0. -1.
         11    1    3    3    0    0  0.60295650554E+02  0.24635415642E+02 -0.16037963397E+03  0.17310140430E+03  0.00000000000E+00 0.  1.
        -13    1    4    4    0    0  0.17700011516E+02 -0.28007016138E+02 -0.60671876267E+02  0.69128575353E+02  0.00000000000E+00 0.  1.
         13    1    4    4    0    0 -0.62544511698E+02  0.13187198377E+01 -0.26201917585E+02  0.67824003499E+02  0.00000000000E+00 0. -1.
         21    1    1    2  502  501  0.14830172613E+02 -0.17662157297E+02 -0.13122520796E+03  0.13323641028E+03  0.00000000000E+00 0.  1.
<scales pt_clust_5="13000.00000" pt_clust_6="13000.00000" pt_clust_7="13000.00000" pt_clust_8="13000.00000" pt_clust_9="23.06265"></scales>
<clustering>
<clus scale="   23.063">  2  9  1 -1</clus>
<clus scale="   91.404">  5  6 -1 -1</clus>
<clus scale="   92.118">  7  8 -1 -1</clus>
<clus scale="  104.917">  2  5  1 -1</clus>
<clus scale="  105.540">  1  5  2 -1</clus>
</clustering>
</event>
<event>
 9    1  0.1175034E-005  0.1023176E+03  0.7546771E-02  0.1276026E+00
          2   -1    0    0  502    0  0.00000000000E+00  0.00000000000E+00  0.83463868433E+03  0.83463868433E+03  0.00000000000E+00 0. -1.
         -2   -1    0    0    0  501 -0.00000000000E+00 -0.00000000000E+00 -0.27254894781E+02  0.27254894781E+02  0.00000000000E+00 0.  1.
         23    2    1    2    0    0  0.10315813972E+01  0.21639720867E+02  0.16784327920E+03  0.19345484394E+03  0.93723362048E+02 0.  0.
         23    2    1    2    0    0  0.10730881258E+01 -0.88124313471E+02  0.42897385217E+03  0.44761539350E+03  0.92595510210E+02 0.  0.
        -11    1    4    4    0    0  0.25669591483E+02 -0.26872904894E+02  0.46686647444E+02  0.59671802334E+02  0.00000000000E+00 0.  1.
         11    1    4    4    0    0 -0.24596503357E+02 -0.61251408577E+02  0.38228720473E+03  0.38794359117E+03  0.00000000000E+00 0. -1.
        -11    1    3    3    0    0 -0.41490923059E+02 -0.90406632399E+01  0.59607134718E+02  0.73186342971E+02  0.00000000000E+00 0. -1.
         11    1    3    3    0    0  0.42522504456E+02  0.30680384107E+02  0.10823614448E+03  0.12026850097E+03  0.00000000000E+00 0.  1.
         21    1    1    2  502  501 -0.21046695230E+01  0.66484592604E+02  0.21056665818E+03  0.22082334167E+03  0.00000000000E+00 0.  1.
<scales pt_clust_5="13000.00000" pt_clust_6="13000.00000" pt_clust_7="13000.00000" pt_clust_8="13000.00000" pt_clust_9="66.51790"></scales>
<clustering>
<clus scale="   66.518">  1  9  2 -1</clus>
<clus scale="   92.596">  5  6 -1 -1</clus>
<clus scale="   93.723">  7  8 -1 -1</clus>
<clus scale="  101.285">  1  5  2 -1</clus>
<clus scale="   66.518">  1  5  2 -1</clus>
</clustering>
</event>
<event>
 9    1  0.1175034E-005  0.1722568E+03  0.7546771E-02  0.1175751E+00
         -2   -1    0    0    0  501 -0.00000000000E+00  0.00000000000E+00  0.15937814163E+03  0.15937814163E+03  0.00000000000E+00 0. -1.
          2   -1    0    0  502    0  0.00000000000E+00 -0.00000000000E+00 -0.23128500945E+03  0.23128500945E+03  0.00000000000E+00 0.  1.
         23    2    1    2    0    0 -0.73854550907E+02  0.10589286066E+03 -0.22116184638E+02  0.15949931174E+03  0.91011604725E+02 0.  0.
         23    2    1    2    0    0  0.88004479159E+02 -0.13756325370E+03 -0.59074246706E+02  0.19525536100E+03  0.89254984478E+02 0.  0.
        -11    1    3    3    0    0 -0.69155125892E+02  0.75958529131E+02 -0.53546032659E+02  0.11584173341E+03  0.00000000000E+00 0.  1.
         11    1    3    3    0    0 -0.46994250147E+01  0.29934331525E+02  0.31429848021E+02  0.43657578333E+02  0.00000000000E+00 0. -1.
        -13    1    4    4    0    0  0.10176440351E+03 -0.11439586831E+03 -0.30759358557E+02  0.15616832792E+03  0.00000000000E+00 0. -1.
         13    1    4    4    0    0 -0.13759924346E+02 -0.23167385393E+02 -0.28314888149E+02  0.39087033078E+02  0.00000000000E+00 0.  1.
         21    1    1    2  502  501 -0.14149928252E+02  0.31670393044E+02  0.92835635217E+01  0.35908478340E+02  0.00000000000E+00 0.  1.
<scales pt_clust_5="13000.00000" pt_clust_6="13000.00000" pt_clust_7="13000.00000" pt_clust_8="13000.00000" pt_clust_9="34.68767"></scales>
<clustering>
<clus scale="   34.688">  1  9  2 -1</clus>
<clus scale="   89.255">  7  8 -1 -1</clus>
<clus scale="   91.012">  5  6 -1 -1</clus>
<clus scale="  171.335">  2  7  1 -1</clus>
<clus scale="  171.335">  2  5  1 -1</clus>
</clustering>
</event>
<event>
 9    1  0.1175034E-005  0.9867216E+02  0.7546771E-02  0.1285785E+00
          2   -1    0    0  502    0  0.00000000000E+00  0.00000000000E+00  0.44398567855E+03  0.44398567855E+03  0.00000000000E+00 0. -1.
         -2   -1    0    0    0  501 -0.00000000000E+00 -0.00000000000E+00 -0.31476922294E+02  0.31476922294E+02  0.00000000000E+00 0.  1.
         23    2    1    2    0    0 -0.16446404632E+02  0.28053167131E+02  0.16665665213E+03  0.19413123197E+03  0.94101174886E+02 0.  0.
         23    2    1    2    0    0 -0.22712769519E+02 -0.30384372408E+02  0.18804208525E+03  0.21146811873E+03  0.88993592067E+02 0.  0.
        -11    1    4    4    0    0 -0.34054129673E+02 -0.56476965010E+02  0.10826954417E+03  0.12677391498E+03  0.00000000000E+00 0.  1.
         11    1    4    4    0    0  0.11341360154E+02  0.26092592602E+02  0.79772541082E+02  0.84694203754E+02  0.00000000000E+00 0. -1.
        -11    1    3    3    0    0  0.35627393606E+02 -0.63745220901E+01  0.48725314388E+02  0.60696803616E+02  0.00000000000E+00 0. -1.
         11    1    3    3    0    0 -0.52073798238E+02  0.34427689221E+02  0.11793133774E+03  0.13343442835E+03  0.00000000000E+00 0.  1.
         21    1    1    2  502  501  0.39159174150E+02  0.23312052764E+01  0.57810018877E+02  0.69863250144E+02  0.00000000000E+00 0. -1.
<scales pt_clust_5="13000.00000" pt_clust_6="13000.00000" pt_clust_7="13000.00000" pt_clust_8="13000.00000" pt_clust_9="39.22850"></scales>
<clustering>
<clus scale="   39.229">  2  9  1 -1</clus>
<clus scale="   88.994">  5  6 -1 -1</clus>
<clus scale="   93.814">  1  5  2 -1</clus>
<clus scale="   94.101">  7  8 -1 -1</clus>
<clus scale="   93.814">  1  5  2 -1</clus>
</clustering>
</event>
<event>
 9    1  0.1175034E-005  0.1501751E+03  0.7546771E-02  0.1200522E+00
         -2   -1    0    0    0  501 -0.00000000000E+00  0.00000000000E+00  0.30464756196E+02  0.30464756196E+02  0.00000000000E+00 0.  1.
          2   -1    0    0  502    0  0.00000000000E+00 -0.00000000000E+00 -0.97522429604E+03  0.97522429604E+03  0.00000000000E+00 0. -1.
         23    2    1    2    0    0  0.12640240042E+03 -0.86924817316E-02 -0.41141341610E+03  0.43995898165E+03  0.91243299348E+02 0.  0.
         23    2    1    2    0    0 -0.11144555634E+03 -0.31566266723E+02 -0.48065652469E+03  0.50250919523E+03  0.89823467623E+02 0.  0.
        -11    1    3    3    0    0  0.25129357938E+02  0.13759153811E+02 -0.18815388748E+02  0.34275615206E+02  0.00000000000E+00 0.  1.
         11    1    3    3    0    0  0.10127304248E+03 -0.13767846293E+02 -0.39259802736E+03  0.40568336644E+03  0.00000000000E+00 0. -1.
        -11    1    4    4    0    0 -0.45941364218E+02 -0.54858099993E+02 -0.17535699989E+03  0.18939402707E+03  0.00000000000E+00 0. -1.
         11    1    4    4    0    0 -0.65504192122E+02  0.23291833271E+02 -0.30529952480E+03  0.31311516815E+03  0.00000000000E+00 0.  1.
         21    1    1    2  502  501 -0.14956844077E+02  0.31574959205E+02 -0.52689599045E+02  0.63220875358E+02  0.00000000000E+00 0. -1.
<scales pt_clust_5="13000.00000" pt_clust_6="13000.00000" pt_clust_7="13000.00000" pt_clust_8="13000.00000" pt_clust_9="34.93831"></scales>
<clustering>
<clus scale="   34.938">  1  9  2 -1</clus>
<clus scale="   89.823">  7  8 -1 -1</clus>
<clus scale="   91.243">  5  6 -1 -1</clus>
<clus scale="  149.317">  2  7  1 -1</clus>
<clus scale="  149.317">  2  5  1 -1</clus>
</clustering>
</event>
<event>
 9    1  0.1175034E-005  0.1144987E+03  0.7546771E-02  0.1254080E+00
         -1   -1    0    0    0  501 -0.00000000000E+00  0.00000000000E+00  0.80695990944E+02  0.80695990944E+02  0.00000000000E+00 0.  1.
          1   -1    0    0  502    0  0.00000000000E+00 -0.00000000000E+00 -0.36972785992E+03  0.36972785992E+03  0.00000000000E+00 0. -1.
         23    2    1    2    0    0 -0.41430226140E+02  0.38307785354E+01 -0.98821564403E+02  0.14256887099E+03  0.93962986766E+02 0.  0.
         23    2    1    2    0    0  0.67891797074E+02 -0.57464902841E+02 -0.20988441716E+03  0.24489543149E+03  0.89503031398E+02 0.  0.
        -11    1    3    3    0    0 -0.30626936157E+02 -0.34043443898E+02 -0.12163262766E+02  0.47380483872E+02  0.00000000000E+00 0.  1.
         11    1    3    3    0    0 -0.10803289983E+02  0.37874222434E+02 -0.86658301638E+02  0.95188387118E+02  0.00000000000E+00 0. -1.
        -13    1    4    4    0    0  0.80360369298E+02 -0.15063351561E+02 -0.12911980451E+03  0.15282871926E+03  0.00000000000E+00 0. -1.
         13    1    4    4    0    0 -0.12468572224E+02 -0.42401551280E+02 -0.80764612648E+02  0.92066712228E+02  0.00000000000E+00 0.  1.
         21    1    1    2  502  501 -0.26461570934E+02  0.53634124305E+02  0.19674112590E+02  0.62959548382E+02  0.00000000000E+00 0.  1.
<scales pt_clust_5="13000.00000" pt_clust_6="13000.00000" pt_clust_7="13000.00000" pt_clust_8="13000.00000" pt_clust_9="59.80664"></scales>
<clustering>
<clus scale="   59.807">  1  9  2 -1</clus>
<clus scale="   89.503">  7  8 -1 -1</clus>
<clus scale="   93.963">  5  6 -1 -1</clus>
<clus scale="  110.868">  2  7  1 -1</clus>
<clus scale="  110.868">  2  5  1 -1</clus>
</clustering>
</event>
<event>
 9    1  0.1175034E-005  0.1762275E+03  0.7546771E-02  0.1172048E+00
         -1   -1    0    0    0  501 -0.00000000000E+00  0.00000000000E+00  0.15372764046E+03  0.15372764046E+03  0.00000000000E+00 0.  1.
          1   -1    0    0  502    0  0.00000000000E+00 -0.00000000000E+00 -0.11172266936E+04  0.11172266936E+04  0.00000000000E+00 0. -1.
         23    2    1    2    0    0  0.18585670118E+03  0.15451550102E+03 -0.89513686750E+02  0.27444518539E+03  0.94285238709E+02 0.  0.
         23    2    1    2    0    0 -0.14162987750E+03 -0.20972705988E+02 -0.83296319944E+03  0.84997414184E+03  0.90163593439E+02 0.  0.
        -11    1    3    3    0    0  0.14933562676E+03  0.11293828913E+03 -0.24122724105E+02  0.18878054028E+03  0.00000000000E+00 0.  1.
         11    1    3    3    0    0  0.36521074418E+02  0.41577211896E+02 -0.65390962645E+02  0.85664645107E+02  0.00000000000E+00 0. -1.
        -13    1    4    4    0    0 -0.12149553090E+03 -0.51947184548E+02 -0.66389890533E+03  0.67692054963E+03  0.00000000000E+00 0. -1.
         13    1    4    4    0    0 -0.20134346597E+02  0.30974478559E+02 -0.16906429411E+03  0.17305359221E+03  0.00000000000E+00 0.  1.
         21    1    1    2  502  501 -0.44226823680E+02 -0.13354279503E+03 -0.41022166908E+02  0.14653500679E+03  0.00000000000E+00 0. -1.
<scales pt_clust_5="13000.00000" pt_clust_6="13000.00000" pt_clust_7="13000.00000" pt_clust_8="13000.00000" pt_clust_9="140.67583"></scales>
<clustering>
<clus scale="   90.164">  7  8 -1 -1</clus>
<clus scale="   94.285">  5  6 -1 -1</clus>
<clus scale="  140.676">  1  9  2 -1</clus>
<clus scale="  174.057">  2  7  1 -1</clus>
<clus scale="  174.057">  2  5  1 -1</clus>
</clustering>
</event>
<event>
 9    1  0.1175034E-005  0.1557831E+03  0.7546771E-02  0.1195230E+00
          3   -1    0    0  502    0  0.00000000000E+00  0.00000000000E+00  0.70556862150E+03  0.70556862150E+03  0.00000000000E+00 0. -1.
         -3   -1    0    0    0  501 -0.00000000000E+00 -0.00000000000E+00 -0.38714812482E+02  0.38714812482E+02  0.00000000000E+00 0.  1.
         23    2    1    2    0    0 -0.31383018561E+02 -0.10910355633E+03  0.29272401203E+03  0.32964506795E+03  0.10044920978E+03 0.  0.
         23    2    1    2    0    0  0.54848407423E+02  0.11253225792E+03  0.32655089567E+03  0.36147698607E+03  0.91423558928E+02 0.  0.
        -11    1    3    3    0    0 -0.54784299500E+02 -0.10524979057E+03  0.27657431657E+03  0.30095213984E+03  0.00000000000E+00 0. -1.
         11    1    3    3    0    0  0.23401280939E+02 -0.38537657641E+01  0.16149695457E+02  0.28692928110E+02  0.00000000000E+00 0.  1.
        -13    1    4    4    0    0  0.33534179341E+02  0.65432365337E+02  0.76371961522E+02  0.10601232063E+03  0.00000000000E+00 0.  1.
         13    1    4    4    0    0  0.21314228082E+02  0.47099892581E+02  0.25017893415E+03  0.25546466545E+03  0.00000000000E+00 0. -1.
         21    1    1    2  502  501 -0.23465388862E+02 -0.34287015878E+01  0.47578901322E+02  0.53161379967E+02  0.00000000000E+00 0. -1.
<scales pt_clust_5="13000.00000" pt_clust_6="13000.00000" pt_clust_7="13000.00000" pt_clust_8="13000.00000" pt_clust_9="23.71456"></scales>
<clustering>
<clus scale="   23.715">  2  9  1 -1</clus>
<clus scale="   91.424">  7  8 -1 -1</clus>
<clus scale="  100.449">  5  6 -1 -1</clus>
<clus scale="  150.122">  1  7  2 -1</clus>
<clus scale="  150.122">  1  5  2 -1</clus>
</clustering>
</event>
<event>
 9    1  0.1175034E-005  0.1552449E+03  0.7546771E-02  0.1194219E+00
          4   -1    0    0  502    0  0.00000000000E+00  0.00000000000E+00  0.75943549606E+02  0.75943549606E+02  0.00000000000E+00 0. -1.
         -4   -1    0    0    0  501 -0.00000000000E+00 -0.00000000000E+00 -0.47078331773E+03  0.47078331773E+03  0.00000000000E+00 0.  1.
         23    2    1    2    0    0 -0.96240869491E+02  0.79600709542E+02 -0.31156390728E+03  0.34789387250E+03  0.91430302851E+02 0.  0.
         23    2    1    2    0    0  0.11193517311E+03 -0.63225220927E+02 -0.69057054356E+02  0.17206282018E+03  0.91158245879E+02 0.  0.
        -11    1    3    3    0    0 -0.70245764887E+02  0.25011605069E+00 -0.12249770699E+03  0.14120983769E+03  0.00000000000E+00 0. -1.
         11    1    3    3    0    0 -0.25995104604E+02  0.79350593492E+02 -0.18906620029E+03  0.20668403481E+03  0.00000000000E+00 0.  1.
        -11    1    4    4    0    0  0.95458995755E+02 -0.96385638714E+01 -0.20985688832E+02  0.98212631162E+02  0.00000000000E+00 0.  1.
         11    1    4    4    0    0  0.16476177354E+02 -0.53586657056E+02 -0.48071365524E+02  0.73850189018E+02  0.00000000000E+00 0. -1.
         21    1    1    2  502  501 -0.15694303618E+02 -0.16375488615E+02 -0.14218806486E+02  0.26770174660E+02  0.00000000000E+00 0. -1.
<scales pt_clust_5="13000.00000" pt_clust_6="13000.00000" pt_clust_7="13000.00000" pt_clust_8="13000.00000" pt_clust_9="22.68188"></scales>
<clustering>
<clus scale="   22.682">  1  9  2 -1</clus>
<clus scale="   91.158">  7  8 -1 -1</clus>
<clus scale="   91.430">  5  6 -1 -1</clus>
<clus scale="  155.085">  1  7  2 -1</clus>
<clus scale="   22.682">  1  5  2 -1</clus>
</clustering>
</event>
<event>
 9    1  0.1175034E-005  0.1286326E+03  0.7546771E-02  0.1248649E+00
          2   -1    0    0  502    0  0.00000000000E+00  0.00000000000E+00  0.22095919463E+03  0.22095919463E+03  0.00000000000E+00 0. -1.
         -2   -1    0    0    0  501 -0.00000000000E+00 -0.00000000000E+00 -0.16697817030E+03  0.16697817030E+03  0.00000000000E+00 0.  1.
         23    2    1    2    0    0  0.66278472018E+02 -0.51090908046E+02  0.34440069739E+02  0.12854229355E+03  0.91290120442E+02 0.  0.
         23    2    1    2    0    0  0.17875070731E+02  0.11952535339E+02  0.10276820226E+03  0.13473390769E+03  0.84436610726E+02 0.  0.
        -11    1    3    3    0    0  0.28048476976E+02 -0.71065873175E+02  0.37871627809E+02  0.85272126652E+02  0.00000000000E+00 0.  1.
         11    1    3    3    0    0  0.38229995042E+02  0.19974965130E+02 -0.34315580698E+01  0.43270166901E+02  0.00000000000E+00 0. -1.
        -13    1    4    4    0    0 -0.19274061216E+02  0.31922027191E+02  0.76342603254E+02  0.84962923251E+02  0.00000000000E+00 0.  1.
         13    1    4    4    0    0  0.37149131946E+02 -0.19969491853E+02  0.26425599010E+02  0.49770984442E+02  0.00000000000E+00 0. -1.
         21    1    1    2  502  501 -0.84153542749E+02  0.39138372707E+02 -0.83227247673E+02  0.12466116368E+03  0.00000000000E+00 0.  1.
<scales pt_clust_5="13000.00000" pt_clust_6="13000.00000" pt_clust_7="13000.00000" pt_clust_8="13000.00000" pt_clust_9="90.62265"></scales>
<clustering>
<clus scale="   84.437">  7  8 -1 -1</clus>
<clus scale="   87.132">  1  7  2 -1</clus>
<clus scale="   90.623">  2  9  1 -1</clus>
<clus scale="   91.290">  5  6 -1 -1</clus>
<clus scale="   87.132">  1  5  2 -1</clus>
</clustering>
</event>
<event>
 9    1  0.1175034E-005  0.1034641E+03  0.7546771E-02  0.1279068E+00
          1   -1    0    0  502    0  0.00000000000E+00  0.00000000000E+00  0.28718289106E+03  0.28718289106E+03  0.00000000000E+00 0. -1.
         -1   -1    0    0    0  501 -0.00000000000E+00 -0.00000000000E+00 -0.46513702773E+02  0.46513702773E+02  0.00000000000E+00 0.  1.
         23    2    1    2    0    0 -0.27065890328E+02 -0.22390988994E+02  0.77664788305E+02  0.12372800804E+03  0.89682115404E+02 0.  0.
         23    2    1    2    0    0  0.16318243363E+02 -0.13681423536E+01  0.14782958838E+03  0.17979768682E+03  0.10102209712E+03 0.  0.
        -11    1    3    3    0    0 -0.53029378613E+02 -0.26769840944E+01  0.18593555830E+02  0.56258346566E+02  0.00000000000E+00 0. -1.
         11    1    3    3    0    0  0.25963488285E+02 -0.19714004899E+02  0.59071232474E+02  0.67469661472E+02  0.00000000000E+00 0.  1.
        -13    1    4    4    0    0 -0.79943216058E+01 -0.44028282104E+02  0.10685114333E+03  0.11584284887E+03  0.00000000000E+00 0.  1.
         13    1    4    4    0    0  0.24312564969E+02  0.42660139750E+02  0.40978445049E+02  0.63954837952E+02  0.00000000000E+00 0. -1.
         21    1    1    2  502  501  0.10747646964E+02  0.23759131347E+02  0.15174811601E+02  0.30170898972E+02  0.00000000000E+00 0. -1.
<scales pt_clust_5="13000.00000" pt_clust_6="13000.00000" pt_clust_7="13000.00000" pt_clust_8="13000.00000" pt_clust_9="26.07697"></scales>
<clustering>
<clus scale="   26.077">  2  9  1 -1</clus>
<clus scale="   89.682">  5  6 -1 -1</clus>
<clus scale="   92.424">  2  5  1 -1</clus>
<clus scale="  101.022">  7  8 -1 -1</clus>
<clus scale="  103.464">  1  5  2 -1</clus>
</clustering>
</event>
<event>
 9    1  0.1175034E-005  0.1821727E+03  0.7546771E-02  0.1166147E+00
          2   -1    0    0  502    0  0.00000000000E+00  0.00000000000E+00  0.71361080821E+03  0.71361080821E+03  0.00000000000E+00 0. -1.
         -2   -1    0    0    0  501 -0.00000000000E+00 -0.00000000000E+00 -0.88071537980E+02  0.88071537980E+02  0.00000000000E+00 0.  1.
         23    2    1    2    0    0 -0.17616510573E+03  0.69153928929E+02  0.13642992443E+03  0.24818558025E+03  0.84655464106E+02 0.  0.
         23    2    1    2    0    0  0.14717619586E+03 -0.34992630233E+02  0.47536758103E+03  0.50663326924E+03  0.88417281168E+02 0.  0.
        -11    1    4    4    0    0  0.13545124009E+03  0.18626008935E+01  0.39160565809E+03  0.41437362268E+03  0.00000000000E+00 0.  1.
         11    1    4    4    0    0  0.11724955774E+02 -0.36855231127E+02  0.83761922935E+02  0.92259646558E+02  0.00000000000E+00 0. -1.
        -13    1    3    3    0    0 -0.15364528300E+03  0.88609478851E+02  0.11292935003E+03  0.21026542946E+03  0.00000000000E+00 0.  1.
         13    1    3    3    0    0 -0.22519822728E+02 -0.19455549922E+02  0.23500574408E+02  0.37920150791E+02  0.00000000000E+00 0. -1.
         21    1    1    2  502  501  0.28988909863E+02 -0.34161298695E+02  0.13741764769E+02  0.46863496696E+02  0.00000000000E+00 0.  1.
<scales pt_clust_5="13000.00000" pt_clust_6="13000.00000" pt_clust_7="13000.00000" pt_clust_8="13000.00000" pt_clust_9="44.80347"></scales>
<clustering>
<clus scale="   44.803">  2  9  1 -1</clus>
<clus scale="   84.655">  7  8 -1 -1</clus>
<clus scale="   88.417">  5  6 -1 -1</clus>
<clus scale="  180.377">  2  7  1 -1</clus>
<clus scale="  182.173">  1  5  2 -1</clus>
</clustering>
</event>
<event>
 9    1  0.1175034E-005  0.9839837E+02  0.7546771E-02  0.1284380E+00
          2   -1    0    0  502    0  0.00000000000E+00  0.00000000000E+00  0.22001640188E+03  0.22001640188E+03  0.00000000000E+00 0. -1.
         -2   -1    0    0    0  501 -0.00000000000E+00 -0.00000000000E+00 -0.55077698424E+02  0.55077698424E+02  0.00000000000E+00 0.  1.
         23    2    1    2    0    0  0.29765119341E+02  0.66476029255E+01  0.62953249085E+02  0.11456614537E+03  0.90731125540E+02 0.  0.
         23    2    1    2    0    0 -0.38475782614E+02  0.13425283446E+02  0.92318400134E+02  0.13660624179E+03  0.92075806857E+02 0.  0.
        -11    1    4    4    0    0  0.43995825529E+01 -0.34593805112E+02  0.21811338457E+02  0.41131765876E+02  0.00000000000E+00 0.  1.
         11    1    4    4    0    0 -0.42875365167E+02  0.48019088558E+02  0.70507061677E+02  0.95474475911E+02  0.00000000000E+00 0. -1.
        -13    1    3    3    0    0  0.44710528177E+02  0.38888124117E+02  0.46907553299E+02  0.75575366911E+02  0.00000000000E+00 0. -1.
         13    1    3    3    0    0 -0.14945408835E+02 -0.32240521192E+02  0.16045695786E+02  0.38990778464E+02  0.00000000000E+00 0.  1.
         21    1    1    2  502  501  0.87106632727E+01 -0.20072886371E+02  0.96670542331E+01  0.23921713138E+02  0.00000000000E+00 0.  1.
<scales pt_clust_5="13000.00000" pt_clust_6="13000.00000" pt_clust_7="13000.00000" pt_clust_8="13000.00000" pt_clust_9="21.88142"></scales>
<clustering>
<clus scale="   21.881">  2  9  1 -1</clus>
<clus scale="   90.731">  7  8 -1 -1</clus>
<clus scale="   92.076">  5  6 -1 -1</clus>
<clus scale="   97.141">  2  7  1 -1</clus>
<clus scale="   98.398">  1  5  2 -1</clus>
</clustering>
</event>
<event>
 9    1  0.1175034E-005  0.1265596E+03  0.7546771E-02  0.1248510E+00
          3   -1    0    0  502    0  0.00000000000E+00  0.00000000000E+00  0.72109594976E+02  0.72109594976E+02  0.00000000000E+00 0. -1.
         -3   -1    0    0    0  501 -0.00000000000E+00 -0.00000000000E+00 -0.24875722441E+03  0.24875722441E+03  0.00000000000E+00 0.  1.
         23    2    1    2    0    0  0.18521705854E+02 -0.13570469411E+02 -0.11329450922E+03  0.17131085340E+03  0.12643002589E+03 0.  0.
         23    2    1    2    0    0  0.99486066895E+00 -0.10249214392E+02 -0.16671008929E+02  0.93631970960E+02  0.91558654990E+02 0.  0.
        -11    1    3    3    0    0  0.40366087643E+02  0.19969929263E+02 -0.12226125006E+03  0.13029210403E+03  0.00000000000E+00 0.  1.
         11    1    3    3    0    0 -0.21844381789E+02 -0.33540398674E+02  0.89667408390E+01  0.41018749374E+02  0.00000000000E+00 0. -1.
        -13    1    4    4    0    0  0.38176093202E+01 -0.45819821507E+02 -0.30705376947E+02  0.55288790521E+02  0.00000000000E+00 0. -1.
         13    1    4    4    0    0 -0.28227486512E+01  0.35570607115E+02  0.14034368018E+02  0.38343180438E+02  0.00000000000E+00 0.  1.
         21    1    1    2  502  501 -0.19516566523E+02  0.23819683803E+02 -0.46682111285E+02  0.55923995023E+02  0.00000000000E+00 0. -1.
<scales pt_clust_5="13000.00000" pt_clust_6="13000.00000" pt_clust_7="13000.00000" pt_clust_8="13000.00000" pt_clust_9="30.79405"></scales>
<clustering>
<clus scale="   30.794">  2  9  1 -1</clus>
<clus scale="   91.559">  7  8 -1 -1</clus>
<clus scale="   91.738">  1  7  2 -1</clus>
<clus scale="  126.430">  5  6 -1 -1</clus>
<clus scale="   91.738">  1  5  2 -1</clus>
</clustering>
</event>
<event>
 9    1  0.1175034E-005  0.1237954E+03  0.7546771E-02  0.1241381E+00
         -1   -1    0    0    0  501 -0.00000000000E+00  0.00000000000E+00  0.18590784323E+03  0.18590784323E+03  0.00000000000E+00 0.  1.
          1   -1    0    0  502    0  0.00000000000E+00 -0.00000000000E+00 -0.29046089923E+03  0.29046089923E+03  0.00000000000E+00 0. -1.
         23    2    1    2    0    0 -0.47497701685E+02 -0.76511000657E+02 -0.13163562123E+03  0.18125567949E+03  0.86114573005E+02 0.  0.
         23    2    1    2    0    0  0.21965316255E+02  0.52674209855E+02 -0.10674357269E+03  0.15680351706E+03  0.99680013794E+02 0.  0.
        -13    1    4    4    0    0  0.47450065025E+02  0.47539725348E+02 -0.26078744749E+02  0.72053001913E+02  0.00000000000E+00 0.  1.
         13    1    4    4    0    0 -0.25484748770E+02  0.51344845068E+01 -0.80664827940E+02  0.84750515146E+02  0.00000000000E+00 0. -1.
        -13    1    3    3    0    0 -0.46667848728E+00 -0.45084553552E+02 -0.11306110023E+03  0.12171954298E+03  0.00000000000E+00 0. -1.
         13    1    3    3    0    0 -0.47031023198E+02 -0.31426447105E+02 -0.18574521007E+02  0.59536136517E+02  0.00000000000E+00 0.  1.
         21    1    1    2  502  501  0.25532385430E+02  0.23836790802E+02  0.13382613792E+03  0.13830954592E+03  0.00000000000E+00 0.  1.
<scales pt_clust_5="13000.00000" pt_clust_6="13000.00000" pt_clust_7="13000.00000" pt_clust_8="13000.00000" pt_clust_9="34.92986"></scales>
<clustering>
<clus scale="   34.930">  1  9  2 -1</clus>
<clus scale="   86.115">  7  8 -1 -1</clus>
<clus scale="   99.680">  5  6 -1 -1</clus>
<clus scale="  113.159">  1  7  2 -1</clus>
<clus scale="  123.795">  2  5  1 -1</clus>
</clustering>
</event>
<event>
 9    1  0.1175034E-005  0.1667128E+03  0.7546771E-02  0.1181565E+00
          2   -1    0    0  502    0  0.00000000000E+00  0.00000000000E+00  0.46993244306E+03  0.46993244306E+03  0.00000000000E+00 0. -1.
         -2   -1    0    0    0  501 -0.00000000000E+00 -0.00000000000E+00 -0.15050410017E+03  0.15050410017E+03  0.00000000000E+00 0.  1.
         23    2    1    2    0    0  0.10657033320E+03  0.45018519467E+02  0.60593513197E+02  0.16064927877E+03  0.93555940034E+02 0.  0.
         23    2    1    2    0    0 -0.14556706071E+03 -0.28692367961E+02  0.33211738752E+03  0.37518453837E+03  0.91915491572E+02 0.  0.
        -11    1    3    3    0    0  0.57135459090E+02  0.53202375430E+02 -0.48559309407E+01  0.78221055363E+02  0.00000000000E+00 0.  1.
         11    1    3    3    0    0  0.49434874107E+02 -0.81838559627E+01  0.65449444138E+02  0.82428223409E+02  0.00000000000E+00 0. -1.
        -13    1    4    4    0    0 -0.11672242454E+03 -0.78661461441E+01  0.15317490342E+03  0.19273959552E+03  0.00000000000E+00 0.  1.
         13    1    4    4    0    0 -0.28844636168E+02 -0.20826221817E+02  0.17894248410E+03  0.18244494284E+03  0.00000000000E+00 0. -1.
         21    1    1    2  502  501  0.38996727510E+02 -0.16326151506E+02 -0.73282557836E+02  0.84602726094E+02  0.00000000000E+00 0.  1.
<scales pt_clust_5="13000.00000" pt_clust_6="13000.00000" pt_clust_7="13000.00000" pt_clust_8="13000.00000" pt_clust_9="42.27633"></scales>
<clustering>
<clus scale="   42.276">  2  9  1 -1</clus>
<clus scale="   91.915">  7  8 -1 -1</clus>
<clus scale="   93.556">  5  6 -1 -1</clus>
<clus scale="  165.798">  1  7  2 -1</clus>
<clus scale="  165.798">  1  5  2 -1</clus>
</clustering>
</event>
<event>
 9    1  0.1175034E-005  0.9783349E+02  0.7546771E-02  0.1285517E+00
          1   -1    0    0  502    0  0.00000000000E+00  0.00000000000E+00  0.53852585954E+03  0.53852585954E+03  0.00000000000E+00 0. -1.
         -1   -1    0    0    0  501 -0.00000000000E+00 -0.00000000000E+00 -0.34945386515E+02  0.34945386515E+02  0.00000000000E+00 0.  1.
         23    2    1    2    0    0  0.35985825982E+02  0.13979342806E+02  0.10621935817E+03  0.14410462359E+03  0.89404635181E+02 0.  0.
         23    2    1    2    0    0 -0.27378612489E+02  0.36168495602E+02  0.32835654598E+03  0.34363144680E+03  0.90591398312E+02 0.  0.
        -11    1    3    3    0    0  0.27067244802E+02 -0.36551908988E+02  0.42052963746E+02  0.61944568379E+02  0.00000000000E+00 0.  1.
         11    1    3    3    0    0  0.89185811799E+01  0.50531251794E+02  0.64166394427E+02  0.82160055209E+02  0.00000000000E+00 0. -1.
        -13    1    4    4    0    0 -0.31213676836E+02 -0.22448113621E+02  0.18017246643E+03  0.18422901261E+03  0.00000000000E+00 0.  1.
         13    1    4    4    0    0  0.38350643478E+01  0.58616609223E+02  0.14818407954E+03  0.15940243419E+03  0.00000000000E+00 0. -1.
         21    1    1    2  502  501 -0.86072134933E+01 -0.50147838408E+02  0.69004568873E+02  0.85735175666E+02  0.00000000000E+00 0.  1.
<scales pt_clust_5="13000.00000" pt_clust_6="13000.00000" pt_clust_7="13000.00000" pt_clust_8="13000.00000" pt_clust_9="50.88113"></scales>
<clustering>
<clus scale="   50.881">  2  9  1 -1</clus>
<clus scale="   89.405">  5  6 -1 -1</clus>
<clus scale="   90.591">  7  8 -1 -1</clus>
<clus scale="   96.736">  2  5  1 -1</clus>
<clus scale="   97.833">  1  5  2 -1</clus>
</clustering>
</event>
<event>
 9    1  0.1175034E-005  0.1021552E+03  0.7546771E-02  0.1276059E+00
         -1   -1    0    0    0  501 -0.00000000000E+00  0.00000000000E+00  0.25071992840E+03  0.25071992840E+03  0.00000000000E+00 0.  1.
          1   -1    0    0  502    0  0.00000000000E+00 -0.00000000000E+00 -0.78193420596E+02  0.78193420596E+02  0.00000000000E+00 0. -1.
         23    2    1    2    0    0 -0.41114524399E+02 -0.26942363676E+02  0.17901693184E+03  0.20704025914E+03  0.91664125708E+02 0.  0.
         23    2    1    2    0    0  0.26680633724E+02  0.10884133778E+02 -0.18181432323E+02  0.97319401292E+02  0.91160193081E+02 0.  0.
        -11    1    4    4    0    0  0.81498617715E+00  0.32582452222E+02  0.26015740629E+02  0.41702507787E+02  0.00000000000E+00 0.  1.
         11    1    4    4    0    0  0.25865647547E+02 -0.21698318443E+02 -0.44197172952E+02  0.55616893506E+02  0.00000000000E+00 0. -1.
        -13    1    3    3    0    0 -0.45453171075E+02 -0.47784708395E+02  0.70833436072E+02  0.96781944509E+02  0.00000000000E+00 0.  1.
         13    1    3    3    0    0  0.43386466758E+01  0.20842344719E+02  0.10818349577E+03  0.11025831463E+03  0.00000000000E+00 0. -1.
         21    1    1    2  502  501  0.14433890675E+02  0.16058229897E+02  0.11691008288E+02  0.24553688567E+02  0.00000000000E+00 0. -1.
<scales pt_clust_5="13000.00000" pt_clust_6="13000.00000" pt_clust_7="13000.00000" pt_clust_8="13000.00000" pt_clust_9="21.59176"></scales>
<clustering>
<clus scale="   21.592">  2  9  1 -1</clus>
<clus scale="   91.160">  5  6 -1 -1</clus>
<clus scale="   91.664">  7  8 -1 -1</clus>
<clus scale="  101.703">  2  5  1 -1</clus>
<clus scale="   21.592">  2  5  1 -1</clus>
</clustering>
</event>
<event>
 9    1  0.1175034E-005  0.9473776E+02  0.7546771E-02  0.1296061E+00
          1   -1    0    0  502    0  0.00000000000E+00  0.00000000000E+00  0.86411675741E+02  0.86411675741E+02  0.00000000000E+00 0. -1.
         -1   -1    0    0    0  501 -0.00000000000E+00 -0.00000000000E+00 -0.12753468613E+03  0.12753468613E+03  0.00000000000E+00 0.  1.
         23    2    1    2    0    0  0.11349761525E+02 -0.16560522287E+00 -0.39851881996E+02  0.10056261494E+03  0.91628721007E+02 0.  0.
         23    2    1    2    0    0 -0.31067879587E+02  0.45656783336E+01  0.98942654296E+01  0.90300617973E+02  0.84084758174E+02 0.  0.
        -11    1    3    3    0    0  0.48144506168E+02 -0.47943409634E+01 -0.33043394371E+01  0.48495338318E+02  0.00000000000E+00 0. -1.
         11    1    3    3    0    0 -0.36794744643E+02  0.46287357405E+01 -0.36547542559E+02  0.52067276624E+02  0.00000000000E+00 0.  1.
        -13    1    4    4    0    0 -0.12524203085E+02 -0.28941221327E+02 -0.23628541812E+02  0.39405049714E+02  0.00000000000E+00 0. -1.
         13    1    4    4    0    0 -0.18543676503E+02  0.33506899660E+02  0.33522807241E+02  0.50895568259E+02  0.00000000000E+00 0.  1.
         21    1    1    2  502  501  0.19718118063E+02 -0.44000731107E+01 -0.11165393825E+02  0.23083128960E+02  0.00000000000E+00 0. -1.
<scales pt_clust_5="13000.00000" pt_clust_6="13000.00000" pt_clust_7="13000.00000" pt_clust_8="13000.00000" pt_clust_9="20.20309"></scales>
<clustering>
<clus scale="   20.203">  2  9  1 -1</clus>
<clus scale="   84.085">  7  8 -1 -1</clus>
<clus scale="   87.462">  1  7  2 -1</clus>
<clus scale="   91.629">  5  6 -1 -1</clus>
<clus scale="   87.462">  1  5  2 -1</clus>
</clustering>
</event>
<event>
 9    1  0.1175034E-005  0.1118074E+03  0.7546771E-02  0.1262092E+00
         -1   -1    0    0    0  501 -0.00000000000E+00  0.00000000000E+00  0.15355585373E+03  0.15355585373E+03  0.00000000000E+00 0.  1.
          1   -1    0    0  502    0  0.00000000000E+00 -0.00000000000E+00 -0.20507531380E+03  0.20507531380E+03  0.00000000000E+00 0. -1.
         23    2    1    2    0    0 -0.60657415030E+02 -0.22090470481E+02  0.67879423420E+02  0.13816516765E+03  0.10156124528E+03 0.  0.
         23    2    1    2    0    0  0.44497185792E+02 -0.72248414692E+01 -0.14615858981E+03  0.17761016707E+03  0.90282003721E+02 0.  0.
        -11    1    4    4    0    0  0.29380284287E+02  0.36866838188E+02 -0.40586829809E+02  0.62206556059E+02  0.00000000000E+00 0.  1.
         11    1    4    4    0    0  0.15116901505E+02 -0.44091679657E+02 -0.10557176000E+03  0.11540361101E+03  0.00000000000E+00 0. -1.
        -13    1    3    3    0    0 -0.59623425911E+02  0.31003595680E+02  0.39558320082E+02  0.77981001213E+02  0.00000000000E+00 0.  1.
         13    1    3    3    0    0 -0.10339891190E+01 -0.53094066161E+02  0.28321103338E+02  0.60184166434E+02  0.00000000000E+00 0. -1.
         21    1    1    2  502  501  0.16160229237E+02  0.29315311951E+02  0.26759706314E+02  0.42855832810E+02  0.00000000000E+00 0. -1.
<scales pt_clust_5="13000.00000" pt_clust_6="13000.00000" pt_clust_7="13000.00000" pt_clust_8="13000.00000" pt_clust_9="33.47448"></scales>
<clustering>
<clus scale="   33.474">  1  9  2 -1</clus>
<clus scale="   90.282">  5  6 -1 -1</clus>
<clus scale="  101.561">  7  8 -1 -1</clus>
<clus scale="  101.671">  2  5  1 -1</clus>
<clus scale="  101.671">  2  5  1 -1</clus>
</clustering>
</event>
<event>
 9    1  0.1175034E-005  0.1004197E+03  0.7546771E-02  0.1279982E+00
          1   -1    0    0  502    0  0.00000000000E+00  0.00000000000E+00  0.51079260604E+02  0.51079260604E+02  0.00000000000E+00 0. -1.
         -1   -1    0    0    0  501 -0.00000000000E+00 -0.00000000000E+00 -0.32588899142E+03  0.32588899142E+03  0.00000000000E+00 0.  1.
         23    2    1    2    0    0  0.40664686085E+02  0.36441896723E+02 -0.16960381243E+03  0.20010184984E+03  0.91069581033E+02 0.  0.
         23    2    1    2    0    0 -0.20097119503E+02 -0.27738325978E+02 -0.37043671649E+02  0.10513866125E+03  0.92242048651E+02 0.  0.
        -13    1    3    3    0    0  0.38645890333E+02  0.56540865896E+02 -0.68005521208E+02  0.96514896626E+02  0.00000000000E+00 0.  1.
         13    1    3    3    0    0  0.20187957517E+01 -0.20098969173E+02 -0.10159829122E+03  0.10358695322E+03  0.00000000000E+00 0. -1.
        -13    1    4    4    0    0  0.11898267124E+01 -0.59795341513E+02 -0.24941199441E+02  0.64799398020E+02  0.00000000000E+00 0.  1.
         13    1    4    4    0    0 -0.21286946216E+02  0.32057015535E+02 -0.12102472208E+02  0.40339263228E+02  0.00000000000E+00 0. -1.
         21    1    1    2  502  501 -0.20567566581E+02 -0.87035707451E+01 -0.68162246740E+02  0.71727740934E+02  0.00000000000E+00 0.  1.
<scales pt_clust_5="13000.00000" pt_clust_6="13000.00000" pt_clust_7="13000.00000" pt_clust_8="13000.00000" pt_clust_9="22.33331"></scales>
<clustering>
<clus scale="   22.333">  2  9  1 -1</clus>
<clus scale="   91.070">  5  6 -1 -1</clus>
<clus scale="   92.242">  7  8 -1 -1</clus>
<clus scale="   99.344">  2  5  1 -1</clus>
<clus scale="  100.420">  1  5  2 -1</clus>
</clustering>
</event>
<event>
 9    1  0.1175034E-005  0.1278469E+03  0.7546771E-02  0.1230931E+00
         -1   -1    0    0    0  501 -0.00000000000E+00  0.00000000000E+00  0.26816672940E+02  0.26816672940E+02  0.00000000000E+00 0.  1.
          1   -1    0    0  502    0  0.00000000000E+00 -0.00000000000E+00 -0.10119797925E+04  0.10119797925E+04  0.00000000000E+00 0. -1.
         23    2    1    2    0    0 -0.95220805693E+02  0.50533235129E+02 -0.45273701554E+03  0.47414251846E+03  0.90662632223E+02 0.  0.
         23    2    1    2    0    0  0.73202074174E+02 -0.29873398278E+02 -0.51717768492E+03  0.53082839919E+03  0.89750030752E+02 0.  0.
        -11    1    4    4    0    0 -0.12747873632E+02  0.17352462579E+02 -0.91026767363E+02  0.93538701168E+02  0.00000000000E+00 0.  1.
         11    1    4    4    0    0  0.85949947806E+02 -0.47225860857E+02 -0.42615091756E+03  0.43728969802E+03  0.00000000000E+00 0. -1.
        -11    1    3    3    0    0  0.79822389402E+01  0.35444099422E+02 -0.12900489269E+03  0.13402336610E+03  0.00000000000E+00 0. -1.
         11    1    3    3    0    0 -0.10320304463E+03  0.15089135707E+02 -0.32373212285E+03  0.34011915236E+03  0.00000000000E+00 0.  1.
         21    1    1    2  502  501  0.22018731519E+02 -0.20659836851E+02 -0.15248419050E+02  0.33825547741E+02  0.00000000000E+00 0. -1.
<scales pt_clust_5="13000.00000" pt_clust_6="13000.00000" pt_clust_7="13000.00000" pt_clust_8="13000.00000" pt_clust_9="30.19360"></scales>
<clustering>
<clus scale="   30.194">  1  9  2 -1</clus>
<clus scale="   89.750">  5  6 -1 -1</clus>
<clus scale="   90.663">  7  8 -1 -1</clus>
<clus scale="  127.201">  2  5  1 -1</clus>
<clus scale="  127.201">  2  5  1 -1</clus>
</clustering>
</event>
<event>
 9    1  0.1175034E-005  0.9787064E+02  0.7546771E-02  0.1285859E+00
          1   -1    0    0  502    0  0.00000000000E+00  0.00000000000E+00  0.37764844550E+03  0.37764844550E+03  0.00000000000E+00 0. -1.
         -1   -1    0    0    0  501 -0.00000000000E+00 -0.00000000000E+00 -0.14427201945E+03  0.14427201945E+03  0.00000000000E+00 0.  1.
         23    2    1    2    0    0  0.29241955580E+02  0.97294307793E+01 -0.11535927863E+03  0.15116239756E+03  0.92696027312E+02 0.  0.
         23    2    1    2    0    0 -0.45237431036E+02  0.38736456695E+01  0.31582946926E+03  0.33172322075E+03  0.90722716168E+02 0.  0.
        -13    1    3    3    0    0  0.14460262984E+02  0.46108844394E+02 -0.29158263637E+02  0.56438719646E+02  0.00000000000E+00 0.  1.
         13    1    3    3    0    0  0.14781692596E+02 -0.36379413615E+02 -0.86201014994E+02  0.94723677911E+02  0.00000000000E+00 0. -1.
        -13    1    4    4    0    0  0.33744527489E+01 -0.34496317589E+02  0.68654016067E+02  0.76907455949E+02  0.00000000000E+00 0.  1.
         13    1    4    4    0    0 -0.48611883784E+02  0.38369963258E+02  0.24717545320E+03  0.25481576480E+03  0.00000000000E+00 0. -1.
         21    1    1    2  502  501  0.15995475456E+02 -0.13603076449E+02  0.32906235411E+02  0.39034846648E+02  0.00000000000E+00 0.  1.
<scales pt_clust_5="13000.00000" pt_clust_6="13000.00000" pt_clust_7="13000.00000" pt_clust_8="13000.00000" pt_clust_9="20.99759"></scales>
<clustering>
<clus scale="   20.998">  1  9  2 -1</clus>
<clus scale="   90.723">  7  8 -1 -1</clus>
<clus scale="   92.696">  5  6 -1 -1</clus>
<clus scale="   96.004">  1  7  2 -1</clus>
<clus scale="   20.998">  1  5  2 -1</clus>
</clustering>
</event>
<event>
 9    1  0.1175034E-005  0.1243217E+03  0.7546771E-02  0.1236789E+00
         -1   -1    0    0    0  501 -0.00000000000E+00  0.00000000000E+00  0.49332192165E+02  0.49332192165E+02  0.00000000000E+00 0.  1.
          1   -1    0    0  502    0  0.00000000000E+00 -0.00000000000E+00 -0.37054132006E+03  0.37054132006E+03  0.00000000000E+00 0. -1.
         23    2    1    2    0    0  0.81358470679E+02 -0.45894064910E+02 -0.16274366405E+03  0.20770290665E+03  0.89047915728E+02 0.  0.
         23    2    1    2    0    0 -0.70552634723E+02  0.28778939319E+02 -0.14635277337E+03  0.18858224223E+03  0.91313888307E+02 0.  0.
        -13    1    4    4    0    0 -0.54125507515E+02 -0.56743993313E+01 -0.22340891868E+02  0.58829285402E+02  0.00000000000E+00 0.  1.
         13    1    4    4    0    0 -0.16427127208E+02  0.34453338651E+02 -0.12401188150E+03  0.12975295683E+03  0.00000000000E+00 0. -1.
        -13    1    3    3    0    0  0.11073547599E+02 -0.32960567419E+02 -0.57962804238E+01  0.35250806058E+02  0.00000000000E+00 0. -1.
         13    1    3    3    0    0  0.70284923081E+02 -0.12933497491E+02 -0.15694738363E+03  0.17245210059E+03  0.00000000000E+00 0.  1.
         21    1    1    2  502  501 -0.10805835957E+02  0.17115125591E+02 -0.12112690469E+02  0.23588363341E+02  0.00000000000E+00 0.  1.
<scales pt_clust_5="13000.00000" pt_clust_6="13000.00000" pt_clust_7="13000.00000" pt_clust_8="13000.00000" pt_clust_9="20.24089"></scales>
<clustering>
<clus scale="   20.241">  1  9  2 -1</clus>
<clus scale="   89.048">  7  8 -1 -1</clus>
<clus scale="   91.314">  5  6 -1 -1</clus>
<clus scale="  122.667">  1  7  2 -1</clus>
<clus scale="  124.322">  2  5  1 -1</clus>
</clustering>
</event>
<event>
 9    1  0.1175034E-005  0.1347807E+03  0.7546771E-02  0.1220574E+00
         -1   -1    0    0    0  501 -0.00000000000E+00  0.00000000000E+00  0.46407704489E+03  0.46407704489E+03  0.00000000000E+00 0.  1.
          1   -1    0    0  502    0  0.00000000000E+00 -0.00000000000E+00 -0.89164689240E+02  0.89164689240E+02  0.00000000000E+00 0. -1.
         23    2    1    2    0    0  0.17814559971E+02 -0.67139389708E+02  0.10177757778E+03  0.15330128888E+03  0.91200623012E+02 0.  0.
         23    2    1    2    0    0 -0.94624578881E+02  0.92277996223E+02  0.58860155016E+02  0.17093096391E+03  0.91015586899E+02 0.  0.
        -13    1    4    4    0    0 -0.27431233712E+02 -0.47350936638E+01  0.43891934262E+02  0.51974951546E+02  0.00000000000E+00 0.  1.
         13    1    4    4    0    0 -0.67193345170E+02  0.97013089886E+02  0.14968220754E+02  0.11895601236E+03  0.00000000000E+00 0. -1.
        -13    1    3    3    0    0  0.48235715583E+02 -0.38018930198E+02  0.91077325997E+02  0.10985081985E+03  0.00000000000E+00 0.  1.
         13    1    3    3    0    0 -0.30421155613E+02 -0.29120459510E+02  0.10700251779E+02  0.43450469032E+02  0.00000000000E+00 0. -1.
         21    1    1    2  502  501  0.76810018911E+02 -0.25138606514E+02  0.21427462286E+03  0.22900948134E+03  0.00000000000E+00 0.  1.
<scales pt_clust_5="13000.00000" pt_clust_6="13000.00000" pt_clust_7="13000.00000" pt_clust_8="13000.00000" pt_clust_9="80.81911"></scales>
<clustering>
<clus scale="   80.819">  1  9  2 -1</clus>
<clus scale="   91.016">  5  6 -1 -1</clus>
<clus scale="   91.201">  7  8 -1 -1</clus>
<clus scale="  134.656">  2  5  1 -1</clus>
<clus scale="  134.656">  2  5  1 -1</clus>
</clustering>
</event>
<event>
 9    1  0.1175034E-005  0.1065778E+03  0.7546771E-02  0.1268945E+00
          2   -1    0    0  502    0  0.00000000000E+00  0.00000000000E+00  0.48090463397E+03  0.48090463397E+03  0.00000000000E+00 0. -1.
         -2   -1    0    0    0  501 -0.00000000000E+00 -0.00000000000E+00 -0.52908347128E+02  0.52908347128E+02  0.00000000000E+00 0.  1.
         23    2    1    2    0    0  0.33400494987E+02  0.16099097024E+02  0.11159765207E+03  0.14949218071E+03  0.92298982420E+02 0.  0.
         23    2    1    2    0    0 -0.28961379190E+02 -0.41152653598E+02  0.33535325404E+03  0.35259283106E+03  0.96579486082E+02 0.  0.
        -11    1    4    4    0    0  0.34500575676E+02 -0.14807880099E+02  0.15786328836E+03  0.16226638853E+03  0.00000000000E+00 0.  1.
         11    1    4    4    0    0 -0.63461954866E+02 -0.26344773498E+02  0.17748996569E+03  0.19032644253E+03  0.00000000000E+00 0. -1.
        -13    1    3    3    0    0  0.63193784477E+02  0.47065827573E+01  0.93099200607E+02  0.11261912569E+03  0.00000000000E+00 0.  1.
         13    1    3    3    0    0 -0.29793289491E+02  0.11392514267E+02  0.18498451466E+02  0.36873055022E+02  0.00000000000E+00 0. -1.
         21    1    1    2  502  501 -0.44391157969E+01  0.25053556574E+02 -0.18954619273E+02  0.31727969330E+02  0.00000000000E+00 0.  1.
<scales pt_clust_5="13000.00000" pt_clust_6="13000.00000" pt_clust_7="13000.00000" pt_clust_8="13000.00000" pt_clust_9="25.44379"></scales>
<clustering>
<clus scale="   25.444">  2  9  1 -1</clus>
<clus scale="   92.299">  7  8 -1 -1</clus>
<clus scale="   96.579">  5  6 -1 -1</clus>
<clus scale="  102.715">  2  7  1 -1</clus>
<clus scale="  106.578">  1  5  2 -1</clus>
</clustering>
</event>
<event>
 9    1  0.1175034E-005  0.1919791E+03  0.7546771E-02  0.1156709E+00
         -2   -1    0    0    0  501 -0.00000000000E+00  0.00000000000E+00  0.11214033297E+03  0.11214033297E+03  0.00000000000E+00 0.  1.
          2   -1    0    0  502    0  0.00000000000E+00 -0.00000000000E+00 -0.63902784349E+03  0.63902784349E+03  0.00000000000E+00 0. -1.
         23    2    1    2    0    0  0.15041046729E+03 -0.13059352156E+03 -0.22990428991E+03  0.31749865380E+03  0.90947435933E+02 0.  0.
         23    2    1    2    0    0 -0.10804573277E+03  0.10935537934E+03 -0.33049554132E+03  0.37562725311E+03  0.90752691909E+02 0.  0.
        -11    1    3    3    0    0  0.26153655424E+02 -0.58513992698E+02 -0.28571811040E+02  0.70172996371E+02  0.00000000000E+00 0. -1.
         11    1    3    3    0    0  0.12425681187E+03 -0.72079528864E+02 -0.20133247887E+03  0.24732565743E+03  0.00000000000E+00 0.  1.
        -13    1    4    4    0    0 -0.19137563483E+02 -0.14247469512E+02 -0.26661532938E+02  0.35778122675E+02  0.00000000000E+00 0.  1.
         13    1    4    4    0    0 -0.88908169292E+02  0.12360284885E+03 -0.30383400838E+03  0.33984913044E+03  0.00000000000E+00 0. -1.
         21    1    1    2  502  501 -0.42364734516E+02  0.21238142225E+02  0.33512320702E+02  0.58042269551E+02  0.00000000000E+00 0. -1.
<scales pt_clust_5="13000.00000" pt_clust_6="13000.00000" pt_clust_7="13000.00000" pt_clust_8="13000.00000" pt_clust_9="47.39018"></scales>
<clustering>
<clus scale="   47.390">  1  9  2 -1</clus>
<clus scale="   90.753">  7  8 -1 -1</clus>
<clus scale="   90.947">  5  6 -1 -1</clus>
<clus scale="  191.887">  2  7  1 -1</clus>
<clus scale="  191.887">  2  5  1 -1</clus>
</clustering>
</event>
<event>
 9    1  0.1175034E-005  0.3969760E+03  0.7546771E-02  0.1044836E+00
          2   -1    0    0  502    0  0.00000000000E+00  0.00000000000E+00  0.33317023968E+04  0.33317023968E+04  0.00000000000E+00 0. -1.
         -2   -1    0    0    0  501 -0.00000000000E+00 -0.00000000000E+00 -0.62413842556E+02  0.62413842556E+02  0.00000000000E+00 0.  1.
         23    2    1    2    0    0 -0.35931799528E+03 -0.10016563941E+03  0.10330701435E+04  0.11020179826E+04  0.89817235138E+02 0.  0.
         23    2    1    2    0    0  0.41276614866E+03  0.42812333860E+02  0.19030090033E+04  0.19497904771E+04  0.89615001224E+02 0.  0.
        -11    1    3    3    0    0 -0.27399514068E+03 -0.79542707964E+02  0.66489226109E+03  0.72352062746E+03  0.00000000000E+00 0.  1.
         11    1    3    3    0    0 -0.85322854599E+02 -0.20622931451E+02  0.36817788237E+03  0.37849735518E+03  0.00000000000E+00 0. -1.
        -11    1    4    4    0    0  0.38259548606E+03  0.44015149116E+02  0.18406268748E+04  0.18804850257E+04  0.00000000000E+00 0. -1.
         11    1    4    4    0    0  0.30170662599E+02 -0.12028152553E+01  0.62382128451E+02  0.69305451418E+02  0.00000000000E+00 0.  1.
         21    1    1    2  502  501 -0.53448153382E+02  0.57353305555E+02  0.33320940751E+03  0.34230777965E+03  0.00000000000E+00 0.  1.
<scales pt_clust_5="13000.00000" pt_clust_6="13000.00000" pt_clust_7="13000.00000" pt_clust_8="13000.00000" pt_clust_9="78.39711"></scales>
<clustering>
<clus scale="   78.397">  1  9  2 -1</clus>
<clus scale="   89.615">  7  8 -1 -1</clus>
<clus scale="   89.817">  5  6 -1 -1</clus>
<clus scale="  396.930">  1  7  2 -1</clus>
<clus scale="   78.397">  1  5  2 -1</clus>
</clustering>
</event>
<event>
 9    1  0.1743164E-005  0.9849913E+02  0.7546771E-02  0.1284215E+00
          2   -1    0    0  502    0  0.00000000000E+00  0.00000000000E+00  0.44575686961E+03  0.44575686961E+03  0.00000000000E+00 0. -1.
         -2   -1    0    0    0  501 -0.00000000000E+00 -0.00000000000E+00 -0.52269866684E+02  0.52269866684E+02  0.00000000000E+00 0.  1.
         23    2    1    2    0    0 -0.19254502056E+02 -0.92148118881E+01  0.11889762911E+02  0.94048941035E+02  0.90819536665E+02 0.  0.
         23    2    1    2    0    0  0.25922231758E+02  0.31992788159E+02  0.35476943831E+03  0.36815844620E+03  0.89352037246E+02 0.  0.
        -11    1    3    3    0    0 -0.50309417979E+02  0.54011221511E+01  0.26061446186E+02  0.56915803035E+02  0.00000000000E+00 0.  1.
         11    1    3    3    0    0  0.31054915923E+02 -0.14615934039E+02 -0.14171683275E+02  0.37133137999E+02  0.00000000000E+00 0. -1.
        -13    1    4    4    0    0 -0.20256547036E+02  0.39746756628E+02  0.10574614357E+03  0.11477098606E+03  0.00000000000E+00 0.  1.
         13    1    4    4    0    0  0.46178778794E+02 -0.77539684693E+01  0.24902329474E+03  0.25338746015E+03  0.00000000000E+00 0. -1.
         21    1    1    2  502  501 -0.66677297020E+01 -0.22777976271E+02  0.26827801707E+02  0.35819349056E+02  0.00000000000E+00 0. -1.
<scales pt_clust_5="13000.00000" pt_clust_6="13000.00000" pt_clust_7="13000.00000" pt_clust_8="13000.00000" pt_clust_9="23.73383"></scales>
<clustering>
<clus scale="   23.734">  2  9  1 -1</clus>
<clus scale="   89.352">  7  8 -1 -1</clus>
<clus scale="   90.820">  5  6 -1 -1</clus>
<clus scale="   97.148">  1  7  2 -1</clus>
<clus scale="   97.148">  1  5  2 -1</clus>
</clustering>
</event>
<event>
 9    1  0.1175034E-005  0.1002480E+03  0.7546771E-02  0.1280359E+00
         -1   -1    0    0    0  501 -0.00000000000E+00  0.00000000000E+00  0.35825996290E+02  0.35825996290E+02  0.00000000000E+00 0.  1.
          1   -1    0    0  502    0  0.00000000000E+00 -0.00000000000E+00 -0.62647856267E+03  0.62647856267E+03  0.00000000000E+00 0. -1.
         23    2    1    2    0    0  0.78077229688E+02  0.97203136211E+01 -0.24830733468E+03  0.27563290510E+03  0.90146700567E+02 0.  0.
         23    2    1    2    0    0 -0.86335552444E+00 -0.32969935081E+02 -0.21527727629E+03  0.23617649596E+03  0.91363392851E+02 0.  0.
        -11    1    4    4    0    0 -0.23193723738E+01  0.29220446295E+02 -0.11052062325E+03  0.11434169027E+03  0.00000000000E+00 0. -1.
         11    1    4    4    0    0  0.14560168494E+01 -0.62190381376E+02 -0.10475665304E+03  0.12183480569E+03  0.00000000000E+00 0.  1.
        -13    1    3    3    0    0  0.46616801057E+02 -0.37336243945E+02 -0.95056281492E+02  0.11226227284E+03  0.00000000000E+00 0.  1.
         13    1    3    3    0    0  0.31460428632E+02  0.47056557566E+02 -0.15325105319E+03  0.16337063226E+03  0.00000000000E+00 0. -1.
         21    1    1    2  502  501 -0.77213874164E+02  0.23249621460E+02 -0.12706795540E+03  0.15049515790E+03  0.00000000000E+00 0. -1.
<scales pt_clust_5="13000.00000" pt_clust_6="13000.00000" pt_clust_7="13000.00000" pt_clust_8="13000.00000" pt_clust_9="80.63825"></scales>
<clustering>
<clus scale="   80.638">  1  9  2 -1</clus>
<clus scale="   90.147">  7  8 -1 -1</clus>
<clus scale="   91.363">  5  6 -1 -1</clus>
<clus scale="   99.140">  1  7  2 -1</clus>
<clus scale="  100.248">  2  5  1 -1</clus>
</clustering>
</event>
<event>
 9    1  0.1175034E-005  0.1052868E+03  0.7546771E-02  0.1270001E+00
         -2   -1    0    0    0  501 -0.00000000000E+00  0.00000000000E+00  0.68211023981E+02  0.68211023981E+02  0.00000000000E+00 0.  1.
          2   -1    0    0  502    0  0.00000000000E+00 -0.00000000000E+00 -0.32301507087E+03  0.32301507087E+03  0.00000000000E+00 0. -1.
         23    2    1    2    0    0 -0.17259579135E+02  0.39743485515E+02 -0.19082388870E+02  0.10364628487E+03  0.92200743429E+02 0.  0.
         23    2    1    2    0    0  0.59474384575E+02 -0.49052978873E+02 -0.15130468894E+03  0.19273793562E+03  0.91166911620E+02 0.  0.
        -13    1    3    3    0    0 -0.53795458724E+02  0.13326117382E+02 -0.20785467928E+01  0.55460410569E+02  0.00000000000E+00 0.  1.
         13    1    3    3    0    0  0.36535879589E+02  0.26417368133E+02 -0.17003842077E+02  0.48185874297E+02  0.00000000000E+00 0. -1.
        -13    1    4    4    0    0  0.67080334674E+02 -0.21098424988E+02 -0.14764639418E+03  0.16353706782E+03  0.00000000000E+00 0. -1.
         13    1    4    4    0    0 -0.76059500991E+01 -0.27954553885E+02 -0.36582947657E+01  0.29200867802E+02  0.00000000000E+00 0.  1.
         21    1    1    2  502  501 -0.42214805440E+02  0.93094933579E+01 -0.84416969072E+02  0.94841874361E+02  0.00000000000E+00 0.  1.
<scales pt_clust_5="13000.00000" pt_clust_6="13000.00000" pt_clust_7="13000.00000" pt_clust_8="13000.00000" pt_clust_9="43.22912"></scales>
<clustering>
<clus scale="   43.229">  2  9  1 -1</clus>
<clus scale="   91.167">  7  8 -1 -1</clus>
<clus scale="   92.201">  5  6 -1 -1</clus>
<clus scale="  104.383">  2  7  1 -1</clus>
<clus scale="   43.229">  2  5  1 -1</clus>
</clustering>
</event>
<event>
 9    1  0.1175034E-005  0.1548124E+03  0.7546771E-02  0.1194918E+00
         -1   -1    0    0    0  501 -0.00000000000E+00  0.00000000000E+00  0.22409397965E+03  0.22409397965E+03  0.00000000000E+00 0.  1.
          1   -1    0    0  502    0  0.00000000000E+00 -0.00000000000E+00 -0.28148377897E+03  0.28148377897E+03  0.00000000000E+00 0. -1.
         23    2    1    2    0    0 -0.55106182418E+02  0.12896179560E+03  0.89784998865E+02  0.18873021844E+03  0.88825183726E+02 0.  0.
         23    2    1    2    0    0  0.60856925087E+02 -0.10725920700E+03 -0.20450447216E+03  0.25527835218E+03  0.90204518401E+02 0.  0.
        -11    1    3    3    0    0 -0.19994055657E+02 -0.10107009170E+02  0.92828952566E+01  0.24250485363E+02  0.00000000000E+00 0. -1.
         11    1    3    3    0    0 -0.35112126761E+02  0.13906880477E+03  0.80502103609E+02  0.16447973307E+03  0.00000000000E+00 0.  1.
        -11    1    4    4    0    0  0.37716043541E+02 -0.11835922700E+03 -0.18587652064E+03  0.22356539867E+03  0.00000000000E+00 0. -1.
         11    1    4    4    0    0  0.23140881546E+02  0.11100019996E+02 -0.18627951525E+02  0.31712953515E+02  0.00000000000E+00 0.  1.
         21    1    1    2  502  501 -0.57507426691E+01 -0.21702588602E+02  0.57329673974E+02  0.61569188002E+02  0.00000000000E+00 0. -1.
<scales pt_clust_5="13000.00000" pt_clust_6="13000.00000" pt_clust_7="13000.00000" pt_clust_8="13000.00000" pt_clust_9="22.45158"></scales>
<clustering>
<clus scale="   22.452">  1  9  2 -1</clus>
<clus scale="   88.825">  5  6 -1 -1</clus>
<clus scale="   90.205">  7  8 -1 -1</clus>
<clus scale="  154.013">  1  5  2 -1</clus>
<clus scale="  154.812">  2  5  1 -1</clus>
</clustering>
</event>
<event>
 9    1  0.1175034E-005  0.1110619E+03  0.7546771E-02  0.1258791E+00
         -1   -1    0    0    0  501 -0.00000000000E+00  0.00000000000E+00  0.33443301513E+03  0.33443301513E+03  0.00000000000E+00 0.  1.
          1   -1    0    0  502    0  0.00000000000E+00 -0.00000000000E+00 -0.79830157551E+02  0.79830157551E+02  0.00000000000E+00 0. -1.
         23    2    1    2    0    0 -0.68273767727E+01 -0.89759870910E+02  0.18808630533E+03  0.22679326869E+03  0.89192381800E+02 0.  0.
         23    2    1    2    0    0  0.13643296172E+02  0.58143600782E+02 -0.61713600368E+01  0.10791125967E+03  0.89665692637E+02 0.  0.
        -11    1    4    4    0    0 -0.36704263203E+02  0.29596158256E+02  0.91727350984E+01  0.48034098201E+02  0.00000000000E+00 0.  1.
         11    1    4    4    0    0  0.50347559375E+02  0.28547442526E+02 -0.15344095135E+02  0.59877161467E+02  0.00000000000E+00 0. -1.
        -13    1    3    3    0    0  0.26785691906E+02 -0.70644288112E+02  0.71726798212E+02  0.10417687995E+03  0.00000000000E+00 0.  1.
         13    1    3    3    0    0 -0.33613068679E+02 -0.19115582797E+02  0.11635950711E+03  0.12261638874E+03  0.00000000000E+00 0. -1.
         21    1    1    2  502  501 -0.68159193997E+01  0.31616270128E+02  0.72687912294E+02  0.79558644330E+02  0.00000000000E+00 0. -1.
<scales pt_clust_5="13000.00000" pt_clust_6="13000.00000" pt_clust_7="13000.00000" pt_clust_8="13000.00000" pt_clust_9="32.34262"></scales>
<clustering>
<clus scale="   32.343">  1  9  2 -1</clus>
<clus scale="   89.192">  7  8 -1 -1</clus>
<clus scale="   89.666">  5  6 -1 -1</clus>
<clus scale="  110.680">  1  7  2 -1</clus>
<clus scale="  111.062">  2  5  1 -1</clus>
</clustering>
</event>
<event>
 9    1  0.1175034E-005  0.9427458E+02  0.7546771E-02  0.1293068E+00
         -1   -1    0    0    0  501 -0.00000000000E+00  0.00000000000E+00  0.12737380538E+03  0.12737380538E+03  0.00000000000E+00 0.  1.
          1   -1    0    0  502    0  0.00000000000E+00 -0.00000000000E+00 -0.28974526608E+03  0.28974526608E+03  0.00000000000E+00 0. -1.
         23    2    1    2    0    0 -0.30824255059E+02  0.53394142256E+00 -0.83382504589E+02  0.12698102252E+03  0.90670382241E+02 0.  0.
         23    2    1    2    0    0  0.17903529936E+01 -0.32592588824E+02 -0.16646089028E+03  0.19255698721E+03  0.91123449883E+02 0.  0.
        -11    1    4    4    0    0  0.11897361410E+02  0.27552811188E+02 -0.27106031771E+02  0.40440593112E+02  0.00000000000E+00 0.  1.
         11    1    4    4    0    0 -0.10107008416E+02 -0.60145400012E+02 -0.13935485851E+03  0.15211639409E+03  0.00000000000E+00 0. -1.
        -13    1    3    3    0    0 -0.96797904261E+01  0.34106107602E+02 -0.91422060807E+00  0.35464922357E+02  0.00000000000E+00 0.  1.
         13    1    3    3    0    0 -0.21144464633E+02 -0.33572166180E+02 -0.82468283981E+02  0.91516100165E+02  0.00000000000E+00 0. -1.
         21    1    1    2  502  501  0.29033902065E+02  0.32058647401E+02  0.87471934171E+02  0.97581061738E+02  0.00000000000E+00 0.  1.
<scales pt_clust_5="13000.00000" pt_clust_6="13000.00000" pt_clust_7="13000.00000" pt_clust_8="13000.00000" pt_clust_9="43.25187"></scales>
<clustering>
<clus scale="   43.252">  1  9  2 -1</clus>
<clus scale="   90.670">  7  8 -1 -1</clus>
<clus scale="   91.123">  5  6 -1 -1</clus>
<clus scale="   93.837">  1  7  2 -1</clus>
<clus scale="   94.275">  2  5  1 -1</clus>
</clustering>
</event>
<event>
 9    1  0.1175034E-005  0.9899174E+02  0.7546771E-02  0.1286641E+00
         -1   -1    0    0    0  501 -0.00000000000E+00  0.00000000000E+00  0.12203639426E+03  0.12203639426E+03  0.00000000000E+00 0.  1.
          1   -1    0    0  502    0  0.00000000000E+00 -0.00000000000E+00 -0.15265871572E+03  0.15265871572E+03  0.00000000000E+00 0. -1.
         23    2    1    2    0    0 -0.31088430745E+02 -0.21995821273E+01  0.69000581019E+01  0.99902889894E+02  0.94665980794E+02 0.  0.
         23    2    1    2    0    0  0.23914800781E+02 -0.18698082628E+02 -0.83263412455E+02  0.12399443027E+03  0.86719587723E+02 0.  0.
        -13    1    4    4    0    0  0.11821243377E+02  0.29920151594E+02 -0.72853578247E+01  0.32985355918E+02  0.00000000000E+00 0.  1.
         13    1    4    4    0    0  0.12093557404E+02 -0.48618234223E+02 -0.75978054630E+02  0.91009074355E+02  0.00000000000E+00 0. -1.
        -13    1    3    3    0    0 -0.65092705947E+02 -0.61884880629E+00 -0.35845150543E+00  0.65096634543E+02  0.00000000000E+00 0.  1.
         13    1    3    3    0    0  0.34004275202E+02 -0.15807333210E+01  0.72585096073E+01  0.34806255351E+02  0.00000000000E+00 0. -1.
         21    1    1    2  502  501  0.71736299646E+01  0.20897664756E+02  0.45741032891E+02  0.50797789805E+02  0.00000000000E+00 0.  1.
<scales pt_clust_5="13000.00000" pt_clust_6="13000.00000" pt_clust_7="13000.00000" pt_clust_8="13000.00000" pt_clust_9="22.09465"></scales>
<clustering>
<clus scale="   22.095">  1  9  2 -1</clus>
<clus scale="   86.720">  5  6 -1 -1</clus>
<clus scale="   91.422">  2  5  1 -1</clus>
<clus scale="   94.666">  7  8 -1 -1</clus>
<clus scale="   91.422">  2  5  1 -1</clus>
</clustering>
</event>
<event>
 9    1  0.1175034E-005  0.1082147E+03  0.7546771E-02  0.1264305E+00
          2   -1    0    0  502    0  0.00000000000E+00  0.00000000000E+00  0.25076290256E+03  0.25076290256E+03  0.00000000000E+00 0. -1.
         -2   -1    0    0    0  501 -0.00000000000E+00 -0.00000000000E+00 -0.10342042777E+03  0.10342042777E+03  0.00000000000E+00 0.  1.
         23    2    1    2    0    0 -0.56851846081E+02 -0.60630669529E+01 -0.29116966347E+02  0.11304938304E+03  0.93077774435E+02 0.  0.
         23    2    1    2    0    0  0.45628289183E+02  0.32580345209E+02  0.18224927668E+03  0.21176293315E+03  0.92115803958E+02 0.  0.
        -11    1    4    4    0    0  0.47993451199E+02  0.55527417407E+02  0.17102601927E+03  0.18610901297E+03  0.00000000000E+00 0. -1.
         11    1    4    4    0    0 -0.23651620163E+01 -0.22947072198E+02  0.11223257416E+02  0.25653920185E+02  0.00000000000E+00 0.  1.
        -11    1    3    3    0    0 -0.16851808220E+02  0.13772313009E+02 -0.56586727167E+02  0.60627697773E+02  0.00000000000E+00 0. -1.
         11    1    3    3    0    0 -0.40000037862E+02 -0.19835379962E+02  0.27469760820E+02  0.52421685271E+02  0.00000000000E+00 0.  1.
         21    1    1    2  502  501  0.11223556898E+02 -0.26517278256E+02 -0.57898355384E+01  0.29371014131E+02  0.00000000000E+00 0.  1.
<scales pt_clust_5="13000.00000" pt_clust_6="13000.00000" pt_clust_7="13000.00000" pt_clust_8="13000.00000" pt_clust_9="28.79469"></scales>
<clustering>
<clus scale="   28.795">  2  9  1 -1</clus>
<clus scale="   92.116">  5  6 -1 -1</clus>
<clus scale="   93.078">  7  8 -1 -1</clus>
<clus scale="  107.388">  1  5  2 -1</clus>
<clus scale="  107.388">  1  5  2 -1</clus>
</clustering>
</event>
<event>
 9    1  0.1175034E-005  0.1503916E+03  0.7546771E-02  0.1200630E+00
          1   -1    0    0  502    0  0.00000000000E+00  0.00000000000E+00  0.80064561113E+03  0.80064561113E+03  0.00000000000E+00 0. -1.
         -1   -1    0    0    0  501 -0.00000000000E+00 -0.00000000000E+00 -0.50372923007E+02  0.50372923007E+02  0.00000000000E+00 0.  1.
         23    2    1    2    0    0  0.24560749642E+02 -0.12863099656E+03  0.30587996992E+03  0.34434828136E+03  0.88679305261E+02 0.  0.
         23    2    1    2    0    0 -0.49602595568E+02  0.10180120807E+03  0.44665562718E+03  0.46989998822E+03  0.92091509847E+02 0.  0.
        -13    1    3    3    0    0 -0.29493351791E+02 -0.47007014377E+02  0.15356597596E+03  0.16328510702E+03  0.00000000000E+00 0.  1.
         13    1    3    3    0    0  0.54054101434E+02 -0.81623982182E+02  0.15231399395E+03  0.18106317434E+03  0.00000000000E+00 0. -1.
        -13    1    4    4    0    0  0.71066627539E+01  0.71609234696E+02  0.31867619559E+03  0.32670002262E+03  0.00000000000E+00 0. -1.
         13    1    4    4    0    0 -0.56709258322E+02  0.30191973369E+02  0.12797943160E+03  0.14319996560E+03  0.00000000000E+00 0.  1.
         21    1    1    2  502  501  0.25041845926E+02  0.26829788493E+02 -0.22629089812E+01  0.36770264550E+02  0.00000000000E+00 0. -1.
<scales pt_clust_5="13000.00000" pt_clust_6="13000.00000" pt_clust_7="13000.00000" pt_clust_8="13000.00000" pt_clust_9="36.70057"></scales>
<clustering>
<clus scale="   36.701">  2  9  1 -1</clus>
<clus scale="   88.679">  5  6 -1 -1</clus>
<clus scale="   92.092">  7  8 -1 -1</clus>
<clus scale="  148.327">  2  5  1 -1</clus>
<clus scale="  150.392">  1  5  2 -1</clus>
</clustering>
</event>
<event>
 9    1  0.1175034E-005  0.9964662E+02  0.7546771E-02  0.1282199E+00
         -3   -1    0    0    0  501 -0.00000000000E+00  0.00000000000E+00  0.25903144474E+03  0.25903144474E+03  0.00000000000E+00 0.  1.
          3   -1    0    0  502    0  0.00000000000E+00 -0.00000000000E+00 -0.90718459742E+02  0.90718459742E+02  0.00000000000E+00 0. -1.
         23    2    1    2    0    0 -0.66132486526E+02 -0.48882265488E+02  0.10112610799E+03  0.16066932585E+03  0.93942327520E+02 0.  0.
         23    2    1    2    0    0  0.18990121694E+02 -0.59155536184E+01  0.53048592553E+01  0.93924981513E+02  0.91641377794E+02 0.  0.
        -11    1    4    4    0    0  0.17215044310E+02  0.35477418423E+02 -0.21170601988E+02  0.44757115156E+02  0.00000000000E+00 0.  1.
         11    1    4    4    0    0  0.17750773846E+01 -0.41392972041E+02  0.26475461243E+02  0.49167866358E+02  0.00000000000E+00 0. -1.
        -13    1    3    3    0    0  0.72098745806E+01  0.21039623936E+02  0.99834702278E+01  0.24378632953E+02  0.00000000000E+00 0.  1.
         13    1    3    3    0    0 -0.73342361107E+02 -0.69921889424E+02  0.91142637758E+02  0.13629069290E+03  0.00000000000E+00 0. -1.
         21    1    1    2  502  501  0.47142364832E+02  0.54797819106E+02  0.61882017752E+02  0.95155597113E+02  0.00000000000E+00 0.  1.
<scales pt_clust_5="13000.00000" pt_clust_6="13000.00000" pt_clust_7="13000.00000" pt_clust_8="13000.00000" pt_clust_9="72.28557"></scales>
<clustering>
<clus scale="   72.286">  1  9  2 -1</clus>
<clus scale="   91.641">  5  6 -1 -1</clus>
<clus scale="   93.942">  7  8 -1 -1</clus>
<clus scale="   97.480">  2  5  1 -1</clus>
<clus scale="   97.480">  2  5  1 -1</clus>
</clustering>
</event>
<event>
 9    1  0.1175034E-005  0.1762883E+03  0.7546771E-02  0.1190431E+00
          2   -1    0    0  502    0  0.00000000000E+00  0.00000000000E+00  0.61035226746E+03  0.61035226746E+03  0.00000000000E+00 0. -1.
         -2   -1    0    0    0  501 -0.00000000000E+00 -0.00000000000E+00 -0.16493633356E+03  0.16493633356E+03  0.00000000000E+00 0.  1.
         23    2    1    2    0    0 -0.37523395217E+02 -0.58929845441E+02 -0.88351298551E+02  0.14511644699E+03  0.91499176824E+02 0.  0.
         23    2    1    2    0    0  0.52347871937E+02  0.17673076059E+03  0.40940984515E+03  0.45823733936E+03  0.91602273122E+02 0.  0.
        -11    1    4    4    0    0  0.74739491030E+02  0.15890743010E+03  0.32977884942E+03  0.37361966274E+03  0.00000000000E+00 0. -1.
         11    1    4    4    0    0 -0.22391619094E+02  0.17823330490E+02  0.79630995735E+02  0.84617676624E+02  0.00000000000E+00 0.  1.
        -13    1    3    3    0    0 -0.16640546784E+02 -0.75887031122E+02 -0.34675953206E+02  0.85077441314E+02  0.00000000000E+00 0.  1.
         13    1    3    3    0    0 -0.20882848433E+02  0.16957185681E+02 -0.53675345345E+02  0.60039005678E+02  0.00000000000E+00 0. -1.
         21    1    1    2  502  501 -0.14824476719E+02 -0.11780091515E+03  0.12435738730E+03  0.17193481467E+03  0.00000000000E+00 0.  1.
<scales pt_clust_5="13000.00000" pt_clust_6="13000.00000" pt_clust_7="13000.00000" pt_clust_8="13000.00000" pt_clust_9="150.62069"></scales>
<clustering>
<clus scale="   91.499">  7  8 -1 -1</clus>
<clus scale="   91.602">  5  6 -1 -1</clus>
<clus scale="  115.121">  2  7  1 -1</clus>
<clus scale="  150.621">  2  9  1 -1</clus>
<clus scale="  176.288">  1  5  2 -1</clus>
</clustering>
</event>
<event>
 9    1  0.1175034E-005  0.1005255E+03  0.7546771E-02  0.1280625E+00
          1   -1    0    0  502    0  0.00000000000E+00  0.00000000000E+00  0.62916999277E+02  0.62916999277E+02  0.00000000000E+00 0. -1.
         -1   -1    0    0    0  501 -0.00000000000E+00 -0.00000000000E+00 -0.27034264286E+03  0.27034264286E+03  0.00000000000E+00 0.  1.
         23    2    1    2    0    0 -0.12289458621E+02 -0.59930432969E+02 -0.13945988215E+03  0.17772449089E+03  0.91620130653E+02 0.  0.
         23    2    1    2    0    0  0.19130467461E+01  0.23070952415E+02 -0.30490747434E+02  0.10195653701E+03  0.94496143663E+02 0.  0.
        -11    1    3    3    0    0 -0.51124569545E+02 -0.43417686356E+02 -0.96355030203E+02  0.11740148613E+03  0.00000000000E+00 0. -1.
         11    1    3    3    0    0  0.38835110924E+02 -0.16512746613E+02 -0.43104851951E+02  0.60323004757E+02  0.00000000000E+00 0.  1.
        -13    1    4    4    0    0 -0.10537121072E+02 -0.28226768692E+02 -0.38154318474E+02  0.48616184646E+02  0.00000000000E+00 0.  1.
         13    1    4    4    0    0  0.12450167818E+02  0.51297721106E+02  0.76635710405E+01  0.53340352366E+02  0.00000000000E+00 0. -1.
         21    1    1    2  502  501  0.10376411875E+02  0.36859480554E+02 -0.37475013998E+02  0.53578614244E+02  0.00000000000E+00 0. -1.
<scales pt_clust_5="13000.00000" pt_clust_6="13000.00000" pt_clust_7="13000.00000" pt_clust_8="13000.00000" pt_clust_9="38.29218"></scales>
<clustering>
<clus scale="   38.292">  2  9  1 -1</clus>
<clus scale="   91.620">  5  6 -1 -1</clus>
<clus scale="   94.496">  7  8 -1 -1</clus>
<clus scale="   97.827">  2  5  1 -1</clus>
<clus scale="  100.525">  1  5  2 -1</clus>
</clustering>
</event>
<event>
 9    1  0.1175034E-005  0.1312957E+03  0.7546771E-02  0.1225630E+00
          1   -1    0    0  502    0  0.00000000000E+00  0.00000000000E+00  0.70956780306E+02  0.70956780306E+02  0.00000000000E+00 0. -1.
         -1   -1    0    0    0  501 -0.00000000000E+00 -0.00000000000E+00 -0.31344263238E+03  0.31344263238E+03  0.00000000000E+00 0.  1.
         23    2    1    2    0    0 -0.92141083490E+02  0.43794111299E+02 -0.17391775247E+03  0.22105832566E+03  0.90617301155E+02 0.  0.
         23    2    1    2    0    0  0.68457962476E+02 -0.49511071738E+02 -0.60656248477E+02  0.13772524728E+03  0.90284131540E+02 0.  0.
        -13    1    4    4    0    0  0.79747053565E+02 -0.80379441590E+01 -0.45398935705E+02  0.92115495232E+02  0.00000000000E+00 0. -1.
         13    1    4    4    0    0 -0.11289091090E+02 -0.41473127579E+02 -0.15257312771E+02  0.45609752047E+02  0.00000000000E+00 0.  1.
        -13    1    3    3    0    0 -0.99423385158E+02  0.96510476536E+01 -0.11279393569E+03  0.15066726308E+03  0.00000000000E+00 0.  1.
         13    1    3    3    0    0  0.72823016688E+01  0.34143063646E+02 -0.61123816784E+02  0.70391062579E+02  0.00000000000E+00 0. -1.
         21    1    1    2  502  501  0.23683121014E+02  0.57169604384E+01 -0.79118511262E+01  0.25615839745E+02  0.00000000000E+00 0. -1.
<scales pt_clust_5="13000.00000" pt_clust_6="13000.00000" pt_clust_7="13000.00000" pt_clust_8="13000.00000" pt_clust_9="24.36337"></scales>
<clustering>
<clus scale="   24.363">  1  9  2 -1</clus>
<clus scale="   90.284">  5  6 -1 -1</clus>
<clus scale="   90.617">  7  8 -1 -1</clus>
<clus scale="  131.066">  1  5  2 -1</clus>
<clus scale="   24.363">  1  5  2 -1</clus>
</clustering>
</event>
<event>
 9    1  0.1175034E-005  0.1293943E+03  0.7546771E-02  0.1236579E+00
          1   -1    0    0  502    0  0.00000000000E+00  0.00000000000E+00  0.47188220886E+03  0.47188220886E+03  0.00000000000E+00 0. -1.
         -1   -1    0    0    0  501 -0.00000000000E+00 -0.00000000000E+00 -0.88772795019E+02  0.88772795019E+02  0.00000000000E+00 0.  1.
         23    2    1    2    0    0 -0.77503195328E+02 -0.36702019244E+01  0.45143894146E+02  0.12839115943E+03  0.91793806839E+02 0.  0.
         23    2    1    2    0    0 -0.18669021222E+02  0.61571956959E+02  0.29052678182E+03  0.31039447864E+03  0.88313550340E+02 0.  0.
        -11    1    4    4    0    0  0.17979342378E+02  0.33179638589E+02  0.37664540964E+02  0.53317565729E+02  0.00000000000E+00 0.  1.
         11    1    4    4    0    0 -0.36648363600E+02  0.28392318370E+02  0.25286224086E+03  0.25707691291E+03  0.00000000000E+00 0. -1.
        -13    1    3    3    0    0 -0.11693085106E+02  0.28864217950E+02  0.45306885852E+02  0.54978043097E+02  0.00000000000E+00 0. -1.
         13    1    3    3    0    0 -0.65810110222E+02 -0.32534419875E+02 -0.16299170635E+00  0.73413116337E+02  0.00000000000E+00 0.  1.
         21    1    1    2  502  501  0.96172216550E+02 -0.57901755035E+02  0.47438737874E+02  0.12186936581E+03  0.00000000000E+00 0.  1.
<scales pt_clust_5="13000.00000" pt_clust_6="13000.00000" pt_clust_7="13000.00000" pt_clust_8="13000.00000" pt_clust_9="91.19639"></scales>
<clustering>
<clus scale="   88.314">  5  6 -1 -1</clus>
<clus scale="   91.794">  7  8 -1 -1</clus>
<clus scale="  109.265">  1  5  2 -1</clus>
<clus scale="   91.196">  1  9  2 -1</clus>
<clus scale="  109.265">  1  5  2 -1</clus>
</clustering>
</event>
<event>
 9    1  0.1175034E-005  0.1367900E+03  0.7546771E-02  0.1231503E+00
         -2   -1    0    0    0  501 -0.00000000000E+00  0.00000000000E+00  0.40762965242E+03  0.40762965242E+03  0.00000000000E+00 0.  1.
          2   -1    0    0  502    0  0.00000000000E+00 -0.00000000000E+00 -0.80043220901E+02  0.80043220901E+02  0.00000000000E+00 0. -1.
         23    2    1    2    0    0 -0.62007654107E+02 -0.68736831412E+02  0.14222505725E+03  0.19266184533E+03  0.91219069143E+02 0.  0.
         23    2    1    2    0    0  0.26582995084E+02 -0.38251750568E+02  0.37883771640E+02  0.10940093555E+03  0.91452350956E+02 0.  0.
        -11    1    4    4    0    0 -0.21823742205E+01 -0.39127453619E+02  0.60989533341E+02  0.72494438139E+02  0.00000000000E+00 0.  1.
         11    1    4    4    0    0  0.28765369305E+02  0.87570305063E+00 -0.23105761701E+02  0.36906497407E+02  0.00000000000E+00 0. -1.
        -13    1    3    3    0    0 -0.10754730837E+02  0.22313593741E+02  0.35669957984E+02  0.43427026188E+02  0.00000000000E+00 0. -1.
         13    1    3    3    0    0 -0.51252923270E+02 -0.91050425152E+02  0.10655509926E+03  0.14923481914E+03  0.00000000000E+00 0.  1.
         21    1    1    2  502  501  0.35424659023E+02  0.10698858198E+03  0.14747760263E+03  0.18561009245E+03  0.00000000000E+00 0. -1.
<scales pt_clust_5="13000.00000" pt_clust_6="13000.00000" pt_clust_7="13000.00000" pt_clust_8="13000.00000" pt_clust_9="101.93423"></scales>
<clustering>
<clus scale="   91.219">  7  8 -1 -1</clus>
<clus scale="   91.452">  5  6 -1 -1</clus>
<clus scale="  102.632">  2  5  1 -1</clus>
<clus scale="  101.934">  2  9  1 -1</clus>
<clus scale="  102.632">  2  5  1 -1</clus>
</clustering>
</event>
<event>
 9    1  0.1175034E-005  0.1453346E+03  0.7546771E-02  0.1206754E+00
         -1   -1    0    0    0  501 -0.00000000000E+00  0.00000000000E+00  0.43460706588E+02  0.43460706588E+02  0.00000000000E+00 0.  1.
          1   -1    0    0  502    0  0.00000000000E+00 -0.00000000000E+00 -0.63329041791E+03  0.63329041791E+03  0.00000000000E+00 0. -1.
         23    2    1    2    0    0 -0.94624274453E+02 -0.66304242813E+02 -0.26862673411E+03  0.30637209216E+03  0.91397651204E+02 0.  0.
         23    2    1    2    0    0  0.74318758371E+02  0.79538890135E+02 -0.31377921819E+03  0.34502982976E+03  0.93479798737E+02 0.  0.
        -11    1    3    3    0    0 -0.92044437761E+02 -0.23343697966E+02 -0.12846081153E+03  0.15974757230E+03  0.00000000000E+00 0.  1.
         11    1    3    3    0    0 -0.25798366920E+01 -0.42960544847E+02 -0.14016592259E+03  0.14662451986E+03  0.00000000000E+00 0. -1.
        -11    1    4    4    0    0  0.37395039721E+02  0.94719670076E+02 -0.19968170497E+03  0.22414947735E+03  0.00000000000E+00 0.  1.
         11    1    4    4    0    0  0.36923718650E+02 -0.15180779941E+02 -0.11409751321E+03  0.12088035241E+03  0.00000000000E+00 0. -1.
         21    1    1    2  502  501  0.20305516081E+02 -0.13234647321E+02 -0.74237590277E+01  0.25349202574E+02  0.00000000000E+00 0. -1.
<scales pt_clust_5="13000.00000" pt_clust_6="13000.00000" pt_clust_7="13000.00000" pt_clust_8="13000.00000" pt_clust_9="24.23778"></scales>
<clustering>
<clus scale="   24.238">  1  9  2 -1</clus>
<clus scale="   91.398">  5  6 -1 -1</clus>
<clus scale="   93.480">  7  8 -1 -1</clus>
<clus scale="  144.004">  1  5  2 -1</clus>
<clus scale="  145.335">  2  5  1 -1</clus>
</clustering>
</event>
<event>
 9    1  0.1175034E-005  0.1002922E+03  0.7546771E-02  0.1280057E+00
          1   -1    0    0  502    0  0.00000000000E+00  0.00000000000E+00  0.59265681453E+03  0.59265681453E+03  0.00000000000E+00 0. -1.
         -1   -1    0    0    0  501 -0.00000000000E+00 -0.00000000000E+00 -0.39854570751E+02  0.39854570751E+02  0.00000000000E+00 0.  1.
         23    2    1    2    0    0 -0.42527972190E+02 -0.13201189982E+02  0.53887186725E+02  0.11460617449E+03  0.90817655234E+02 0.  0.
         23    2    1    2    0    0  0.12070883797E+02  0.30855212536E+02  0.42521845094E+03  0.43623215221E+03  0.91596993535E+02 0.  0.
        -13    1    3    3    0    0 -0.48246030965E+02 -0.38544372854E+02  0.85346450783E+01  0.62339300198E+02  0.00000000000E+00 0.  1.
         13    1    3    3    0    0  0.57180587752E+01  0.25343182872E+02  0.45352541647E+02  0.52266874290E+02  0.00000000000E+00 0. -1.
        -13    1    4    4    0    0  0.41072049187E+02 -0.12741570748E+02  0.14840487588E+03  0.15450976679E+03  0.00000000000E+00 0.  1.
         13    1    4    4    0    0 -0.29001165391E+02  0.43596783284E+02  0.27681357506E+03  0.28172238542E+03  0.00000000000E+00 0. -1.
         21    1    1    2  502  501  0.30457088393E+02 -0.17654022554E+02  0.73696606112E+02  0.81673058582E+02  0.00000000000E+00 0.  1.
<scales pt_clust_5="13000.00000" pt_clust_6="13000.00000" pt_clust_7="13000.00000" pt_clust_8="13000.00000" pt_clust_9="35.20368"></scales>
<clustering>
<clus scale="   35.204">  1  9  2 -1</clus>
<clus scale="   90.818">  5  6 -1 -1</clus>
<clus scale="   91.597">  7  8 -1 -1</clus>
<clus scale="   99.581">  2  5  1 -1</clus>
<clus scale="   35.204">  1  5  2 -1</clus>
</clustering>
</event>
<event>
 9    1  0.1175034E-005  0.1076919E+03  0.7546771E-02  0.1265108E+00
          1   -1    0    0  502    0  0.00000000000E+00  0.00000000000E+00  0.17927729352E+03  0.17927729352E+03  0.00000000000E+00 0. -1.
         -1   -1    0    0    0  501 -0.00000000000E+00 -0.00000000000E+00 -0.15680066383E+03  0.15680066383E+03  0.00000000000E+00 0.  1.
         23    2    1    2    0    0 -0.73144604438E+02 -0.10115837704E+02 -0.83506683185E+02  0.14386976728E+03  0.90954276809E+02 0.  0.
         23    2    1    2    0    0  0.52881015769E+02  0.10819744927E+02  0.12526918150E+03  0.16422510162E+03  0.91455166396E+02 0.  0.
        -13    1    4    4    0    0  0.26557106698E+02  0.37095089027E+02  0.11775046617E+03  0.12627944342E+03  0.00000000000E+00 0.  1.
         13    1    4    4    0    0  0.26323909070E+02 -0.26275344100E+02  0.75187153234E+01  0.37945658202E+02  0.00000000000E+00 0. -1.
        -13    1    3    3    0    0 -0.22900239690E+02 -0.26515969476E+01 -0.89775940968E+02  0.92688572763E+02  0.00000000000E+00 0.  1.
         13    1    3    3    0    0 -0.50244364749E+02 -0.74642407568E+01  0.62692577830E+01  0.51181194517E+02  0.00000000000E+00 0. -1.
         21    1    1    2  502  501  0.20263588670E+02 -0.70390722273E+00 -0.19285868618E+02  0.27983088456E+02  0.00000000000E+00 0.  1.
<scales pt_clust_5="13000.00000" pt_clust_6="13000.00000" pt_clust_7="13000.00000" pt_clust_8="13000.00000" pt_clust_9="20.27581"></scales>
<clustering>
<clus scale="   20.276">  2  9  1 -1</clus>
<clus scale="   90.954">  7  8 -1 -1</clus>
<clus scale="   91.455">  5  6 -1 -1</clus>
<clus scale="  107.267">  2  7  1 -1</clus>
<clus scale="  107.692">  1  5  2 -1</clus>
</clustering>
</event>
<event>
 9    1  0.1175034E-005  0.9334093E+02  0.7546771E-02  0.1295622E+00
         -2   -1    0    0    0  501 -0.00000000000E+00  0.00000000000E+00  0.68504297790E+02  0.68504297790E+02  0.00000000000E+00 0.  1.
          2   -1    0    0  502    0  0.00000000000E+00 -0.00000000000E+00 -0.30979263481E+03  0.30979263481E+03  0.00000000000E+00 0. -1.
         23    2    1    2    0    0 -0.92774002069E+01  0.32217476305E+02 -0.35051026633E+02  0.10411859435E+03  0.92130729327E+02 0.  0.
         23    2    1    2    0    0 -0.14767835222E+02 -0.58414289770E+01 -0.21787524332E+03  0.23663755107E+03  0.90969762409E+02 0.  0.
        -11    1    3    3    0    0  0.29115292804E+02  0.12262776538E+02 -0.49308685305E+02  0.58561270563E+02  0.00000000000E+00 0.  1.
         11    1    3    3    0    0 -0.38392693010E+02  0.19954699767E+02  0.14257658672E+02  0.45557323782E+02  0.00000000000E+00 0. -1.
        -13    1    4    4    0    0 -0.14411664155E+02  0.40731963190E+02 -0.77402675312E+02  0.88645152346E+02  0.00000000000E+00 0.  1.
         13    1    4    4    0    0 -0.35617106647E+00 -0.46573392167E+02 -0.14047256801E+03  0.14799239872E+03  0.00000000000E+00 0. -1.
         21    1    1    2  502  501  0.24045235428E+02 -0.26376047328E+02  0.11637932938E+02  0.37540787186E+02  0.00000000000E+00 0.  1.
<scales pt_clust_5="13000.00000" pt_clust_6="13000.00000" pt_clust_7="13000.00000" pt_clust_8="13000.00000" pt_clust_9="35.69130"></scales>
<clustering>
<clus scale="   35.691">  1  9  2 -1</clus>
<clus scale="   90.970">  7  8 -1 -1</clus>
<clus scale="   92.131">  5  6 -1 -1</clus>
<clus scale="   92.195">  2  7  1 -1</clus>
<clus scale="   92.195">  2  5  1 -1</clus>
</clustering>
</event>
<event>
 9    1  0.1175034E-005  0.1467324E+03  0.7546771E-02  0.1206126E+00
          1   -1    0    0  502    0  0.00000000000E+00  0.00000000000E+00  0.11101966785E+03  0.11101966785E+03  0.00000000000E+00 0. -1.
         -1   -1    0    0    0  501 -0.00000000000E+00 -0.00000000000E+00 -0.26596556641E+03  0.26596556641E+03  0.00000000000E+00 0.  1.
         23    2    1    2    0    0  0.38018795085E+02 -0.12537184595E+03 -0.10746790558E+03  0.19477965132E+03  0.96053283657E+02 0.  0.
         23    2    1    2    0    0 -0.63997733945E+01  0.10101245213E+03 -0.25946644688E+02  0.13685427029E+03  0.88382070250E+02 0.  0.
        -11    1    4    4    0    0 -0.36702206604E+02  0.74609882456E+02 -0.42508436797E+02  0.93384440506E+02  0.00000000000E+00 0. -1.
         11    1    4    4    0    0  0.30302433209E+02  0.26402569674E+02  0.16561792109E+02  0.43469829786E+02  0.00000000000E+00 0.  1.
        -13    1    3    3    0    0  0.69789958570E+02 -0.87446432641E+02 -0.63825331461E+02  0.12880679266E+03  0.00000000000E+00 0.  1.
         13    1    3    3    0    0 -0.31771163486E+02 -0.37925413305E+02 -0.43642574124E+02  0.65972858660E+02  0.00000000000E+00 0. -1.
         21    1    1    2  502  501 -0.31619021690E+02  0.24359393816E+02 -0.21531348287E+02  0.45351312647E+02  0.00000000000E+00 0. -1.
<scales pt_clust_5="13000.00000" pt_clust_6="13000.00000" pt_clust_7="13000.00000" pt_clust_8="13000.00000" pt_clust_9="39.91419"></scales>
<clustering>
<clus scale="   39.914">  2  9  1 -1</clus>
<clus scale="   88.382">  5  6 -1 -1</clus>
<clus scale="   96.053">  7  8 -1 -1</clus>
<clus scale="  141.829">  1  5  2 -1</clus>
<clus scale="  141.829">  1  5  2 -1</clus>
</clustering>
</event>
<event>
 9    1  0.1175034E-005  0.3236123E+03  0.7546771E-02  0.1074190E+00
          1   -1    0    0  502    0  0.00000000000E+00  0.00000000000E+00  0.12407274483E+03  0.12407274483E+03  0.00000000000E+00 0. -1.
         -1   -1    0    0    0  501 -0.00000000000E+00 -0.00000000000E+00 -0.13684833932E+04  0.13684833932E+04  0.00000000000E+00 0.  1.
         23    2    1    2    0    0  0.31654400881E+03  0.72728580423E+02 -0.64586349307E+03  0.72862576961E+03  0.90919219871E+02 0.  0.
         23    2    1    2    0    0 -0.25722381875E+03 -0.16816169516E+03 -0.28245146715E+03  0.42845630325E+03  0.96713617691E+02 0.  0.
        -11    1    4    4    0    0 -0.22466049292E+03 -0.17433003230E+03 -0.22700928927E+03  0.36386331864E+03  0.00000000000E+00 0.  1.
         11    1    4    4    0    0 -0.32563325829E+02  0.61683371369E+01 -0.55442177876E+02  0.64592984601E+02  0.00000000000E+00 0. -1.
        -13    1    3    3    0    0  0.20804382499E+03  0.67623720751E+02 -0.34247957943E+03  0.40638339416E+03  0.00000000000E+00 0. -1.
         13    1    3    3    0    0  0.10850018382E+03  0.51048596719E+01 -0.30338391364E+03  0.32224237545E+03  0.00000000000E+00 0.  1.
         21    1    1    2  502  501 -0.59320190061E+02  0.95433114739E+02 -0.31609568818E+03  0.33547406520E+03  0.00000000000E+00 0. -1.
<scales pt_clust_5="13000.00000" pt_clust_6="13000.00000" pt_clust_7="13000.00000" pt_clust_8="13000.00000" pt_clust_9="112.36710"></scales>
<clustering>
<clus scale="   90.919">  7  8 -1 -1</clus>
<clus scale="   96.714">  5  6 -1 -1</clus>
<clus scale="  112.367">  2  9  1 -1</clus>
<clus scale="  321.928">  2  7  1 -1</clus>
<clus scale="  323.612">  1  5  2 -1</clus>
</clustering>
</event>
<event>
 9    1  0.1175034E-005  0.9313924E+02  0.7546771E-02  0.1295663E+00
         -1   -1    0    0    0  501 -0.00000000000E+00  0.00000000000E+00  0.25304788966E+03  0.25304788966E+03  0.00000000000E+00 0.  1.
          1   -1    0    0  502    0  0.00000000000E+00 -0.00000000000E+00 -0.53092721158E+02  0.53092721158E+02  0.00000000000E+00 0. -1.
         23    2    1    2    0    0  0.12221483115E+00  0.58729637807E+01  0.15123491810E+03  0.17708955312E+03  0.91946738552E+02 0.  0.
         23    2    1    2    0    0 -0.13362550896E+02  0.11893560880E+02  0.26662761123E+02  0.97786241518E+02  0.92364666635E+02 0.  0.
        -13    1    3    3    0    0 -0.45011909553E+02  0.69799365138E+01  0.60367179958E+02  0.75623990449E+02  0.00000000000E+00 0.  1.
         13    1    3    3    0    0  0.45134124384E+02 -0.11069727331E+01  0.90867738145E+02  0.10146556267E+03  0.00000000000E+00 0. -1.
        -13    1    4    4    0    0  0.17332218291E+02 -0.29908364627E+02  0.30066131504E+02  0.45813626021E+02  0.00000000000E+00 0.  1.
         13    1    4    4    0    0 -0.30694769188E+02  0.41801925507E+02 -0.34033703810E+01  0.51972615497E+02  0.00000000000E+00 0. -1.
         21    1    1    2  502  501  0.13240336065E+02 -0.17766524661E+02  0.22057489277E+02  0.31264816181E+02  0.00000000000E+00 0. -1.
<scales pt_clust_5="13000.00000" pt_clust_6="13000.00000" pt_clust_7="13000.00000" pt_clust_8="13000.00000" pt_clust_9="22.15752"></scales>
<clustering>
<clus scale="   22.158">  1  9  2 -1</clus>
<clus scale="   91.947">  5  6 -1 -1</clus>
<clus scale="   92.365">  7  8 -1 -1</clus>
<clus scale="   92.725">  1  5  2 -1</clus>
<clus scale="   93.139">  2  5  1 -1</clus>
</clustering>
</event>
<event>
 9    1  0.1175034E-005  0.2048538E+03  0.7546771E-02  0.1145998E+00
          1   -1    0    0  502    0  0.00000000000E+00  0.00000000000E+00  0.23486985083E+03  0.23486985083E+03  0.00000000000E+00 0. -1.
         -1   -1    0    0    0  501 -0.00000000000E+00 -0.00000000000E+00 -0.27833423419E+03  0.27833423419E+03  0.00000000000E+00 0.  1.
         23    2    1    2    0    0  0.17536336594E+03 -0.12782256458E+03 -0.85461909924E-01  0.23523784024E+03  0.90807026440E+02 0.  0.
         23    2    1    2    0    0 -0.14574986394E+03  0.63135113486E+02  0.16094339246E+02  0.18523817693E+03  0.93941945056E+02 0.  0.
        -11    1    4    4    0    0 -0.12861135394E+03  0.10637257834E+02  0.15788793891E+02  0.13001275949E+03  0.00000000000E+00 0.  1.
         11    1    4    4    0    0 -0.17138509998E+02  0.52497855652E+02  0.30554535484E+00  0.55225417436E+02  0.00000000000E+00 0. -1.
        -13    1    3    3    0    0  0.14405115200E+03 -0.13883821903E+03 -0.10799428581E+02  0.20035821199E+03  0.00000000000E+00 0.  1.
         13    1    3    3    0    0  0.31312213942E+02  0.11015654456E+02  0.10713966671E+02  0.34879628250E+02  0.00000000000E+00 0. -1.
         21    1    1    2  502  501 -0.29613501995E+02  0.64687451089E+02 -0.59473260694E+02  0.92728067846E+02  0.00000000000E+00 0.  1.
<scales pt_clust_5="13000.00000" pt_clust_6="13000.00000" pt_clust_7="13000.00000" pt_clust_8="13000.00000" pt_clust_9="71.14370"></scales>
<clustering>
<clus scale="   71.144">  2  9  1 -1</clus>
<clus scale="   90.807">  7  8 -1 -1</clus>
<clus scale="   93.942">  5  6 -1 -1</clus>
<clus scale="  203.435">  2  7  1 -1</clus>
<clus scale="  204.854">  1  5  2 -1</clus>
</clustering>
</event>
<event>
 9    1  0.1175034E-005  0.2443965E+03  0.7546771E-02  0.1117100E+00
          2   -1    0    0  502    0  0.00000000000E+00  0.00000000000E+00  0.96880377233E+03  0.96880377233E+03  0.00000000000E+00 0. -1.
         -2   -1    0    0    0  501 -0.00000000000E+00 -0.00000000000E+00 -0.10263490724E+03  0.10263490724E+03  0.00000000000E+00 0.  1.
         23    2    1    2    0    0 -0.25716433013E+03  0.84845316272E+02  0.52470584140E+03  0.59738755482E+03  0.90683241388E+02 0.  0.
         23    2    1    2    0    0  0.18232242002E+03 -0.44142003182E+02  0.32568244738E+03  0.38740761492E+03  0.93944783163E+02 0.  0.
        -11    1    4    4    0    0  0.49362779204E+02  0.19227068092E+02  0.41393452603E+02  0.67229324231E+02  0.00000000000E+00 0. -1.
         11    1    4    4    0    0  0.13295964081E+03 -0.63369071274E+02  0.28428899478E+03  0.32017829069E+03  0.00000000000E+00 0.  1.
        -13    1    3    3    0    0 -0.94564709674E+02  0.78365694047E+02  0.23033938711E+03  0.26103620357E+03  0.00000000000E+00 0.  1.
         13    1    3    3    0    0 -0.16259962046E+03  0.64796222248E+01  0.29436645429E+03  0.33635135125E+03  0.00000000000E+00 0. -1.
         21    1    1    2  502  501  0.74841910110E+02 -0.40703313090E+02  0.15780576308E+02  0.86643509820E+02  0.00000000000E+00 0.  1.
<scales pt_clust_5="13000.00000" pt_clust_6="13000.00000" pt_clust_7="13000.00000" pt_clust_8="13000.00000" pt_clust_9="85.19431"></scales>
<clustering>
<clus scale="   85.194">  2  9  1 -1</clus>
<clus scale="   90.683">  7  8 -1 -1</clus>
<clus scale="   93.945">  5  6 -1 -1</clus>
<clus scale="  243.161">  2  7  1 -1</clus>
<clus scale="  244.396">  1  5  2 -1</clus>
</clustering>
</event>
<event>
 9    1  0.1175034E-005  0.1111176E+03  0.7546771E-02  0.1259877E+00
         -3   -1    0    0    0  501 -0.00000000000E+00  0.00000000000E+00  0.17041128567E+03  0.17041128567E+03  0.00000000000E+00 0.  1.
          3   -1    0    0  502    0  0.00000000000E+00 -0.00000000000E+00 -0.33414729855E+03  0.33414729855E+03  0.00000000000E+00 0. -1.
         23    2    1    2    0    0 -0.44833546720E+02 -0.27725518358E+02  0.70206931715E+02  0.13229382656E+03  0.98964094523E+02 0.  0.
         23    2    1    2    0    0  0.50965085239E+02 -0.63611453913E+01 -0.28815803048E+03  0.30793146965E+03  0.95649544594E+02 0.  0.
        -11    1    3    3    0    0 -0.14487868933E+02 -0.22940030674E+02 -0.22109754162E+02  0.34999779751E+02  0.00000000000E+00 0. -1.
         11    1    3    3    0    0 -0.30345677788E+02 -0.47854876842E+01  0.92316685877E+02  0.97294046807E+02  0.00000000000E+00 0.  1.
        -11    1    4    4    0    0  0.71465998047E+02  0.20211609819E+02 -0.21432494587E+03  0.22682830615E+03  0.00000000000E+00 0. -1.
         11    1    4    4    0    0 -0.20500912807E+02 -0.26572755210E+02 -0.73833084613E+02  0.81103163495E+02  0.00000000000E+00 0.  1.
         21    1    1    2  502  501 -0.61315385190E+01  0.34086663749E+02  0.54215085889E+02  0.64333288025E+02  0.00000000000E+00 0. -1.
<scales pt_clust_5="13000.00000" pt_clust_6="13000.00000" pt_clust_7="13000.00000" pt_clust_8="13000.00000" pt_clust_9="34.63375"></scales>
<clustering>
<clus scale="   34.634">  1  9  2 -1</clus>
<clus scale="   95.650">  7  8 -1 -1</clus>
<clus scale="   98.964">  5  6 -1 -1</clus>
<clus scale="  108.176">  2  7  1 -1</clus>
<clus scale="  108.176">  2  5  1 -1</clus>
</clustering>
</event>
<event>
 9    1  0.1175034E-005  0.1337923E+03  0.7546771E-02  0.1222294E+00
          1   -1    0    0  502    0  0.00000000000E+00  0.00000000000E+00  0.16456672106E+03  0.16456672106E+03  0.00000000000E+00 0. -1.
         -1   -1    0    0    0  501 -0.00000000000E+00 -0.00000000000E+00 -0.33215406607E+03  0.33215406607E+03  0.00000000000E+00 0.  1.
         23    2    1    2    0    0 -0.36477021471E+02 -0.52356814680E+02 -0.14336769204E+03  0.18126521557E+03  0.90724716125E+02 0.  0.
         23    2    1    2    0    0  0.88072548930E+02  0.59743926724E+02  0.10630908146E+03  0.17490515929E+03  0.89241712721E+02 0.  0.
        -13    1    3    3    0    0 -0.16128928435E+02  0.21497366799E+02 -0.12534631992E+02  0.29654613653E+02  0.00000000000E+00 0. -1.
         13    1    3    3    0    0 -0.20348093037E+02 -0.73854181479E+02 -0.13083306004E+03  0.15161060191E+03  0.00000000000E+00 0.  1.
        -13    1    4    4    0    0  0.36402633645E+02 -0.17948270499E+01  0.83915804485E+02  0.91488990500E+02  0.00000000000E+00 0. -1.
         13    1    4    4    0    0  0.51669915285E+02  0.61538753773E+02  0.22393276975E+02  0.83416168788E+02  0.00000000000E+00 0.  1.
         21    1    1    2  502  501 -0.51595527458E+02 -0.73871120435E+01 -0.13052873443E+03  0.14055041227E+03  0.00000000000E+00 0.  1.
<scales pt_clust_5="13000.00000" pt_clust_6="13000.00000" pt_clust_7="13000.00000" pt_clust_8="13000.00000" pt_clust_9="52.12166"></scales>
<clustering>
<clus scale="   52.122">  2  9  1 -1</clus>
<clus scale="   89.242">  7  8 -1 -1</clus>
<clus scale="   90.725">  5  6 -1 -1</clus>
<clus scale="  132.791">  1  7  2 -1</clus>
<clus scale="  132.791">  1  5  2 -1</clus>
</clustering>
</event>
<event>
 9    1  0.1175034E-005  0.9867692E+02  0.7546771E-02  0.1283305E+00
          1   -1    0    0  502    0  0.00000000000E+00  0.00000000000E+00  0.13926689962E+03  0.13926689962E+03  0.00000000000E+00 0. -1.
         -1   -1    0    0    0  501 -0.00000000000E+00 -0.00000000000E+00 -0.37002189046E+03  0.37002189046E+03  0.00000000000E+00 0.  1.
         23    2    1    2    0    0  0.42530446721E+02  0.24436374972E+02 -0.17589497303E+03  0.20410008505E+03  0.91169226488E+02 0.  0.
         23    2    1    2    0    0  0.10563902576E+02 -0.37656304411E+02  0.99893831797E+02  0.14104690527E+03  0.91574333502E+02 0.  0.
        -13    1    4    4    0    0  0.32299871096E+02 -0.18580454382E+02  0.22102859803E+00  0.37263437999E+02  0.00000000000E+00 0.  1.
         13    1    4    4    0    0 -0.21735968520E+02 -0.19075850029E+02  0.99672803199E+02  0.10378346727E+03  0.00000000000E+00 0. -1.
        -13    1    3    3    0    0 -0.62777466882E+01  0.27717979521E+02 -0.14143675828E+03  0.14426383152E+03  0.00000000000E+00 0.  1.
         13    1    3    3    0    0  0.48808193409E+02 -0.32816045485E+01 -0.34458214752E+02  0.59836253527E+02  0.00000000000E+00 0. -1.
         21    1    1    2  502  501 -0.53094349297E+02  0.13219929439E+02 -0.15475384960E+03  0.16414179976E+03  0.00000000000E+00 0.  1.
<scales pt_clust_5="13000.00000" pt_clust_6="13000.00000" pt_clust_7="13000.00000" pt_clust_8="13000.00000" pt_clust_9="54.71541"></scales>
<clustering>
<clus scale="   54.715">  2  9  1 -1</clus>
<clus scale="   91.169">  7  8 -1 -1</clus>
<clus scale="   91.574">  5  6 -1 -1</clus>
<clus scale="   98.301">  2  7  1 -1</clus>
<clus scale="   98.677">  1  5  2 -1</clus>
</clustering>
</event>
<event>
 9    1  0.1175034E-005  0.1064762E+03  0.7546771E-02  0.1268259E+00
          1   -1    0    0  502    0  0.00000000000E+00  0.00000000000E+00  0.17844944786E+03  0.17844944786E+03  0.00000000000E+00 0. -1.
         -1   -1    0    0    0  501 -0.00000000000E+00 -0.00000000000E+00 -0.14998522601E+03  0.14998522601E+03  0.00000000000E+00 0.  1.
         23    2    1    2    0    0 -0.11975673151E+02  0.26911822559E+02  0.20776934230E+02  0.98511487308E+02  0.91679709832E+02 0.  0.
         23    2    1    2    0    0  0.39813890566E+02 -0.61300437438E+02  0.83318609529E+02  0.14230104304E+03  0.89245205162E+02 0.  0.
        -11    1    4    4    0    0  0.66693732481E+02 -0.27862658836E+02  0.48449370646E+02  0.87015649315E+02  0.00000000000E+00 0. -1.
         11    1    4    4    0    0 -0.26879841915E+02 -0.33437778601E+02  0.34869238882E+02  0.55285393726E+02  0.00000000000E+00 0.  1.
        -11    1    3    3    0    0 -0.41440000300E+02  0.40812168101E+00 -0.16021175733E+02  0.44431050629E+02  0.00000000000E+00 0.  1.
         11    1    3    3    0    0  0.29464327149E+02  0.26503700878E+02  0.36798109962E+02  0.54080436679E+02  0.00000000000E+00 0. -1.
         21    1    1    2  502  501 -0.27838217414E+02  0.34388614879E+02 -0.75631321912E+02  0.87622143527E+02  0.00000000000E+00 0.  1.
<scales pt_clust_5="13000.00000" pt_clust_6="13000.00000" pt_clust_7="13000.00000" pt_clust_8="13000.00000" pt_clust_9="44.24413"></scales>
<clustering>
<clus scale="   44.244">  2  9  1 -1</clus>
<clus scale="   89.245">  5  6 -1 -1</clus>
<clus scale="   91.680">  7  8 -1 -1</clus>
<clus scale="  104.387">  1  5  2 -1</clus>
<clus scale="  104.387">  1  5  2 -1</clus>
</clustering>
</event>
<event>
 9    1  0.1175034E-005  0.1202806E+03  0.7546771E-02  0.1243683E+00
          2   -1    0    0  502    0  0.00000000000E+00  0.00000000000E+00  0.64619104085E+03  0.64619104085E+03  0.00000000000E+00 0. -1.
         -2   -1    0    0    0  501 -0.00000000000E+00 -0.00000000000E+00 -0.51181844279E+02  0.51181844279E+02  0.00000000000E+00 0.  1.
         23    2    1    2    0    0  0.45789114050E+02  0.59088067047E+02  0.63185248535E+02  0.13511542738E+03  0.93143762269E+02 0.  0.
         23    2    1    2    0    0 -0.87150740595E+02 -0.32725527176E+02  0.43318404728E+03  0.45209576895E+03  0.89866310530E+02 0.  0.
        -11    1    3    3    0    0  0.97188170885E+01  0.78067791160E+02  0.41275238956E+02  0.88840760764E+02  0.00000000000E+00 0. -1.
         11    1    3    3    0    0  0.36070296962E+02 -0.18979724113E+02  0.21910009579E+02  0.46274666612E+02  0.00000000000E+00 0.  1.
        -13    1    4    4    0    0 -0.11869892475E+02  0.17867979791E+02  0.20889480213E+02  0.29942101342E+02  0.00000000000E+00 0.  1.
         13    1    4    4    0    0 -0.75280848120E+02 -0.50593506968E+02  0.41229456707E+03  0.42215366761E+03  0.00000000000E+00 0. -1.
         21    1    1    2  502  501  0.41361626545E+02 -0.26362539871E+02  0.98639900750E+02  0.11016168880E+03  0.00000000000E+00 0. -1.
<scales pt_clust_5="13000.00000" pt_clust_6="13000.00000" pt_clust_7="13000.00000" pt_clust_8="13000.00000" pt_clust_9="49.04863"></scales>
<clustering>
<clus scale="   49.049">  1  9  2 -1</clus>
<clus scale="   89.866">  7  8 -1 -1</clus>
<clus scale="   93.144">  5  6 -1 -1</clus>
<clus scale="  117.761">  1  7  2 -1</clus>
<clus scale="   49.049">  1  5  2 -1</clus>
</clustering>
</event>
<event>
 9    1  0.1930019E-005  0.9064128E+02  0.7546771E-02  0.1313161E+00
         -1   -1    0    0    0  501 -0.00000000000E+00  0.00000000000E+00  0.95540031878E+02  0.95540031878E+02  0.00000000000E+00 0.  1.
          1   -1    0    0  502    0  0.00000000000E+00 -0.00000000000E+00 -0.24055510073E+03  0.24055510073E+03  0.00000000000E+00 0. -1.
         23    2    1    2    0    0  0.85069504146E+00 -0.16079563444E+02  0.46858162353E+02  0.87888088728E+02  0.72590307333E+02 0.  0.
         23    2    1    2    0    0 -0.79074641898E+01 -0.66322291757E+01 -0.20265153997E+03  0.22209583068E+03  0.90290624637E+02 0.  0.
        -11    1    4    4    0    0  0.53847092242E-01  0.31941752802E+02 -0.16338967700E+03  0.16648262679E+03  0.00000000000E+00 0.  1.
         11    1    4    4    0    0 -0.79613112821E+01 -0.38573981978E+02 -0.39261862973E+02  0.55613203891E+02  0.00000000000E+00 0. -1.
        -13    1    3    3    0    0  0.21663347943E+02 -0.22120349146E+02  0.56297774213E+02  0.64249901726E+02  0.00000000000E+00 0.  1.
         13    1    3    3    0    0 -0.20812652901E+02  0.60407857018E+01 -0.94396118608E+01  0.23638187002E+02  0.00000000000E+00 0. -1.
         21    1    1    2  502  501  0.70567691484E+01  0.22711792620E+02  0.10778308770E+02  0.26111213199E+02  0.00000000000E+00 0.  1.
<scales pt_clust_5="13000.00000" pt_clust_6="13000.00000" pt_clust_7="13000.00000" pt_clust_8="13000.00000" pt_clust_9="23.78284"></scales>
<clustering>
<clus scale="   23.783">  1  9  2 -1</clus>
<clus scale="   72.590">  7  8 -1 -1</clus>
<clus scale="   73.026">  1  7  2 -1</clus>
<clus scale="   90.291">  5  6 -1 -1</clus>
<clus scale="   90.641">  2  5  1 -1</clus>
</clustering>
</event>
<event>
 9    1  0.2145253E-005  0.9735668E+02  0.7546771E-02  0.1291513E+00
          2   -1    0    0  502    0  0.00000000000E+00  0.00000000000E+00  0.27271150855E+03  0.27271150855E+03  0.00000000000E+00 0. -1.
         -2   -1    0    0    0  501 -0.00000000000E+00 -0.00000000000E+00 -0.10129185919E+03  0.10129185919E+03  0.00000000000E+00 0.  1.
         23    2    1    2    0    0  0.77821165265E+01 -0.75293721286E+01 -0.54768817604E+02  0.10708970998E+03  0.91385610577E+02 0.  0.
         23    2    1    2    0    0 -0.32478759758E+02 -0.17603956144E+02  0.21006515012E+03  0.22816356456E+03  0.81033794118E+02 0.  0.
        -11    1    4    4    0    0 -0.20829865643E+02 -0.50219562037E+02  0.13223810034E+03  0.14297833016E+03  0.00000000000E+00 0. -1.
         11    1    4    4    0    0 -0.11648894115E+02  0.32615605893E+02  0.77827049782E+02  0.85185234399E+02  0.00000000000E+00 0.  1.
        -11    1    3    3    0    0 -0.29553230518E+02 -0.66684550099E+01 -0.62040901319E+02  0.69042995030E+02  0.00000000000E+00 0.  1.
         11    1    3    3    0    0  0.37335347045E+02 -0.86091711874E+00  0.72720837149E+01  0.38046714954E+02  0.00000000000E+00 0. -1.
         21    1    1    2  502  501  0.24696643231E+02  0.25133328273E+02  0.16123316840E+02  0.38750093198E+02  0.00000000000E+00 0. -1.
<scales pt_clust_5="13000.00000" pt_clust_6="13000.00000" pt_clust_7="13000.00000" pt_clust_8="13000.00000" pt_clust_9="35.23646"></scales>
<clustering>
<clus scale="   35.236">  2  9  1 -1</clus>
<clus scale="   81.034">  5  6 -1 -1</clus>
<clus scale="   87.712">  1  5  2 -1</clus>
<clus scale="   91.386">  7  8 -1 -1</clus>
<clus scale="   87.712">  1  5  2 -1</clus>
</clustering>
</event>
<event>
 9    1  0.1175034E-005  0.9343008E+02  0.7546771E-02  0.1295093E+00
          1   -1    0    0  502    0  0.00000000000E+00  0.00000000000E+00  0.19048243858E+03  0.19048243858E+03  0.00000000000E+00 0. -1.
         -1   -1    0    0    0  501 -0.00000000000E+00 -0.00000000000E+00 -0.89634311697E+02  0.89634311697E+02  0.00000000000E+00 0.  1.
         23    2    1    2    0    0 -0.52179767100E+01 -0.49628580023E+01 -0.25173430956E+02  0.95399133486E+02  0.91735684459E+02 0.  0.
         23    2    1    2    0    0  0.11410849323E+02 -0.19450667997E+02  0.12879315852E+03  0.15937883834E+03  0.91133969859E+02 0.  0.
        -11    1    3    3    0    0 -0.14944633576E+02  0.19627407113E+02 -0.52108341774E+02  0.57652896415E+02  0.00000000000E+00 0.  1.
         11    1    3    3    0    0  0.97266568659E+01 -0.24590265115E+02  0.26934910818E+02  0.37746237070E+02  0.00000000000E+00 0. -1.
        -11    1    4    4    0    0  0.43547551338E+02  0.14046843997E+02  0.48830983091E+02  0.66919115082E+02  0.00000000000E+00 0. -1.
         11    1    4    4    0    0 -0.32136702015E+02 -0.33497511994E+02  0.79962175425E+02  0.92459723257E+02  0.00000000000E+00 0.  1.
         21    1    1    2  502  501 -0.61928726135E+01  0.24413526000E+02 -0.27716006791E+01  0.25338778448E+02  0.00000000000E+00 0.  1.
<scales pt_clust_5="13000.00000" pt_clust_6="13000.00000" pt_clust_7="13000.00000" pt_clust_8="13000.00000" pt_clust_9="25.18674"></scales>
<clustering>
<clus scale="   25.187">  2  9  1 -1</clus>
<clus scale="   91.134">  7  8 -1 -1</clus>
<clus scale="   91.736">  5  6 -1 -1</clus>
<clus scale="   92.839">  1  7  2 -1</clus>
<clus scale="   92.839">  1  5  2 -1</clus>
</clustering>
</event>
<event>
 9    1  0.1175034E-005  0.1559459E+03  0.7546771E-02  0.1193842E+00
          1   -1    0    0  502    0  0.00000000000E+00  0.00000000000E+00  0.22704941032E+03  0.22704941032E+03  0.00000000000E+00 0. -1.
         -1   -1    0    0    0  501 -0.00000000000E+00 -0.00000000000E+00 -0.35803468669E+03  0.35803468669E+03  0.00000000000E+00 0.  1.
         23    2    1    2    0    0 -0.27312240810E+02 -0.11724849299E+03 -0.16127092625E+03  0.21971467126E+03  0.88164944891E+02 0.  0.
         23    2    1    2    0    0 -0.47548031962E+02  0.12203096181E+03  0.15333418081E+03  0.22125879668E+03  0.91058844264E+02 0.  0.
        -11    1    4    4    0    0 -0.73980296764E+02  0.84105575468E+02  0.95332874372E+02  0.14708905150E+03  0.00000000000E+00 0.  1.
         11    1    4    4    0    0  0.26432264802E+02  0.37925386345E+02  0.58001306434E+02  0.74169745180E+02  0.00000000000E+00 0. -1.
        -13    1    3    3    0    0  0.32296089793E+02 -0.39822417594E+02 -0.61406372489E+02  0.79997530844E+02  0.00000000000E+00 0. -1.
         13    1    3    3    0    0 -0.59608330603E+02 -0.77426075396E+02 -0.99864553763E+02  0.13971714042E+03  0.00000000000E+00 0.  1.
         21    1    1    2  502  501  0.74860272772E+02 -0.47824688226E+01 -0.12304853092E+03  0.14411062907E+03  0.00000000000E+00 0. -1.
<scales pt_clust_5="13000.00000" pt_clust_6="13000.00000" pt_clust_7="13000.00000" pt_clust_8="13000.00000" pt_clust_9="75.01288"></scales>
<clustering>
<clus scale="   75.013">  2  9  1 -1</clus>
<clus scale="   88.165">  7  8 -1 -1</clus>
<clus scale="   91.059">  5  6 -1 -1</clus>
<clus scale="  154.274">  2  7  1 -1</clus>
<clus scale="  155.946">  1  5  2 -1</clus>
</clustering>
</event>
<event>
 9    1  0.1175034E-005  0.1902274E+03  0.7546771E-02  0.1159219E+00
          1   -1    0    0  502    0  0.00000000000E+00  0.00000000000E+00  0.28559400594E+03  0.28559400594E+03  0.00000000000E+00 0. -1.
         -1   -1    0    0    0  501 -0.00000000000E+00 -0.00000000000E+00 -0.17535412494E+03  0.17535412494E+03  0.00000000000E+00 0.  1.
         23    2    1    2    0    0  0.46057630660E+02  0.14006386062E+03  0.31582403816E+02  0.17774599955E+03  0.94111645039E+02 0.  0.
         23    2    1    2    0    0 -0.76452215622E+02 -0.15325641913E+03  0.11802000613E+03  0.23175037645E+03  0.10221078151E+03 0.  0.
        -11    1    4    4    0    0 -0.25657234339E+02 -0.11339581126E+03  0.25662208574E+02  0.11906070987E+03  0.00000000000E+00 0.  1.
         11    1    4    4    0    0 -0.50794981283E+02 -0.39860607869E+02  0.92357797561E+02  0.11268966658E+03  0.00000000000E+00 0. -1.
        -13    1    3    3    0    0  0.42775540532E+02  0.31881158572E+02 -0.21102966417E+02  0.57371511496E+02  0.00000000000E+00 0.  1.
         13    1    3    3    0    0  0.32820901280E+01  0.10818270205E+03  0.52685370233E+02  0.12037448806E+03  0.00000000000E+00 0. -1.
         21    1    1    2  502  501  0.30394584962E+02  0.13192558511E+02 -0.39362528951E+02  0.51451754883E+02  0.00000000000E+00 0.  1.
<scales pt_clust_5="13000.00000" pt_clust_6="13000.00000" pt_clust_7="13000.00000" pt_clust_8="13000.00000" pt_clust_9="33.13419"></scales>
<clustering>
<clus scale="   33.134">  2  9  1 -1</clus>
<clus scale="   94.112">  7  8 -1 -1</clus>
<clus scale="  102.211">  5  6 -1 -1</clus>
<clus scale="  186.001">  2  7  1 -1</clus>
<clus scale="  190.227">  1  5  2 -1</clus>
</clustering>
</event>
<event>
 9    1  0.1175034E-005  0.1142636E+03  0.7546771E-02  0.1253160E+00
         -1   -1    0    0    0  501 -0.00000000000E+00  0.00000000000E+00  0.10607703417E+03  0.10607703417E+03  0.00000000000E+00 0.  1.
          1   -1    0    0  502    0  0.00000000000E+00 -0.00000000000E+00 -0.17491700996E+03  0.17491700996E+03  0.00000000000E+00 0. -1.
         23    2    1    2    0    0  0.46166340200E+02 -0.60542005637E+02 -0.19427008254E+02  0.12004360326E+03  0.90754573549E+02 0.  0.
         23    2    1    2    0    0 -0.24799139867E+02  0.59445489720E+02 -0.69359839147E+02  0.13169916254E+03  0.91570292894E+02 0.  0.
        -11    1    4    4    0    0  0.22234586217E+02  0.40817591803E+01  0.94623209304E+01  0.24506592983E+02  0.00000000000E+00 0. -1.
         11    1    4    4    0    0 -0.47033726084E+02  0.55363730540E+02 -0.78822160078E+02  0.10719256956E+03  0.00000000000E+00 0.  1.
        -13    1    3    3    0    0 -0.22200857675E+02  0.59918943766E+01 -0.21743719260E+01  0.23097808836E+02  0.00000000000E+00 0.  1.
         13    1    3    3    0    0  0.68367197876E+02 -0.66533900014E+02 -0.17252636328E+02  0.96945794425E+02  0.00000000000E+00 0. -1.
         21    1    1    2  502  501 -0.21367200333E+02  0.10965159173E+01  0.19946871612E+02  0.29251278337E+02  0.00000000000E+00 0. -1.
<scales pt_clust_5="13000.00000" pt_clust_6="13000.00000" pt_clust_7="13000.00000" pt_clust_8="13000.00000" pt_clust_9="21.39532"></scales>
<clustering>
<clus scale="   21.395">  1  9  2 -1</clus>
<clus scale="   90.755">  7  8 -1 -1</clus>
<clus scale="   91.570">  5  6 -1 -1</clus>
<clus scale="  113.611">  1  7  2 -1</clus>
<clus scale="  114.264">  2  5  1 -1</clus>
</clustering>
</event>
<event>
 9    1  0.1296800E-005  0.9656612E+02  0.7546771E-02  0.1287919E+00
         -1   -1    0    0    0  501 -0.00000000000E+00  0.00000000000E+00  0.34435677687E+03  0.34435677687E+03  0.00000000000E+00 0.  1.
          1   -1    0    0  502    0  0.00000000000E+00 -0.00000000000E+00 -0.28346321597E+03  0.28346321597E+03  0.00000000000E+00 0. -1.
         23    2    1    2    0    0  0.42177050469E+02 -0.41849188346E+01  0.30505312902E+03  0.32178397510E+03  0.93226058472E+02 0.  0.
         23    2    1    2    0    0 -0.19140643824E+02  0.15920677054E+02 -0.25898716873E+03  0.27623229663E+03  0.92790602609E+02 0.  0.
        -11    1    4    4    0    0 -0.50669574231E+02  0.95452714450E+01 -0.21861054939E+03  0.22460874931E+03  0.00000000000E+00 0. -1.
         11    1    4    4    0    0  0.31528930407E+02  0.63754056088E+01 -0.40376619333E+02  0.51623547322E+02  0.00000000000E+00 0.  1.
        -11    1    3    3    0    0  0.51150600166E+02 -0.30257781478E+02  0.27349051794E+03  0.27987315098E+03  0.00000000000E+00 0.  1.
         11    1    3    3    0    0 -0.89735496973E+01  0.26072862643E+02  0.31562611079E+02  0.41910824123E+02  0.00000000000E+00 0. -1.
         21    1    1    2  502  501 -0.23036406645E+02 -0.11735758219E+02  0.14827600605E+02  0.29803721106E+02  0.00000000000E+00 0. -1.
<scales pt_clust_5="13000.00000" pt_clust_6="13000.00000" pt_clust_7="13000.00000" pt_clust_8="13000.00000" pt_clust_9="25.85351"></scales>
<clustering>
<clus scale="   25.854">  1  9  2 -1</clus>
<clus scale="   92.791">  5  6 -1 -1</clus>
<clus scale="   93.226">  7  8 -1 -1</clus>
<clus scale="   96.146">  2  5  1 -1</clus>
<clus scale="   96.146">  2  5  1 -1</clus>
</clustering>
</event>
<event>
 9    1  0.1175034E-005  0.1487586E+03  0.7546771E-02  0.1223069E+00
          1   -1    0    0  502    0  0.00000000000E+00  0.00000000000E+00  0.80798372828E+03  0.80798372828E+03  0.00000000000E+00 0. -1.
         -1   -1    0    0    0  501 -0.00000000000E+00 -0.00000000000E+00 -0.90199330887E+02  0.90199330887E+02  0.00000000000E+00 0.  1.
         23    2    1    2    0    0  0.21717471620E+02  0.12473749529E+02  0.27926694537E+02  0.99072930606E+02  0.91696795528E+02 0.  0.
         23    2    1    2    0    0  0.80638302865E+02  0.71100185209E+02  0.64227052199E+03  0.65866139442E+03  0.98821236862E+02 0.  0.
        -13    1    4    4    0    0  0.50165672504E+02  0.85253140369E+02  0.57522495717E+03  0.58366809403E+03  0.00000000000E+00 0. -1.
         13    1    4    4    0    0  0.30472630360E+02 -0.14152955160E+02  0.67045564824E+02  0.74993300390E+02  0.00000000000E+00 0.  1.
        -13    1    3    3    0    0  0.53823438920E+01 -0.31979046361E+02 -0.14468460961E+02  0.35510074549E+02  0.00000000000E+00 0.  1.
         13    1    3    3    0    0  0.16335127728E+02  0.44452795890E+02  0.42395155498E+02  0.63562856056E+02  0.00000000000E+00 0. -1.
         21    1    1    2  502  501 -0.10235577448E+03 -0.83573934739E+02  0.47587180858E+02  0.14044873413E+03  0.00000000000E+00 0. -1.
<scales pt_clust_5="13000.00000" pt_clust_6="13000.00000" pt_clust_7="13000.00000" pt_clust_8="13000.00000" pt_clust_9="111.19118"></scales>
<clustering>
<clus scale="   91.697">  7  8 -1 -1</clus>
<clus scale="   95.055">  2  7  1 -1</clus>
<clus scale="   98.821">  5  6 -1 -1</clus>
<clus scale="  111.191">  2  9  1 -1</clus>
<clus scale="  148.759">  1  5  2 -1</clus>
</clustering>
</event>
<event>
 9    1  0.1175034E-005  0.1308982E+03  0.7546771E-02  0.1228030E+00
          1   -1    0    0  502    0  0.00000000000E+00  0.00000000000E+00  0.30248507837E+03  0.30248507837E+03  0.00000000000E+00 0. -1.
         -1   -1    0    0    0  501 -0.00000000000E+00 -0.00000000000E+00 -0.10328204967E+03  0.10328204967E+03  0.00000000000E+00 0.  1.
         23    2    1    2    0    0  0.45950825449E+02  0.25416194973E+02  0.25026255344E+02  0.10429827977E+03  0.86569950788E+02 0.  0.
         23    2    1    2    0    0 -0.12801536892E+03 -0.17436050080E+02  0.13956000610E+03  0.21204517925E+03  0.93777461131E+02 0.  0.
        -13    1    4    4    0    0 -0.64588652496E+02  0.31576207222E+02  0.98604888011E+02  0.12203145018E+03  0.00000000000E+00 0.  1.
         13    1    4    4    0    0 -0.63426716426E+02 -0.49012257302E+02  0.40955118091E+02  0.90013729065E+02  0.00000000000E+00 0. -1.
        -13    1    3    3    0    0 -0.78612420880E+01 -0.25311742765E+02  0.93801507412E+00  0.26520997742E+02  0.00000000000E+00 0. -1.
         13    1    3    3    0    0  0.53812067537E+02  0.50727937738E+02  0.24088240270E+02  0.77777282024E+02  0.00000000000E+00 0.  1.
         21    1    1    2  502  501  0.82064543473E+02 -0.79801448932E+01  0.34616767248E+02  0.89423669029E+02  0.00000000000E+00 0.  1.
<scales pt_clust_5="13000.00000" pt_clust_6="13000.00000" pt_clust_7="13000.00000" pt_clust_8="13000.00000" pt_clust_9="82.45163"></scales>
<clustering>
<clus scale="   82.452">  2  9  1 -1</clus>
<clus scale="   86.570">  7  8 -1 -1</clus>
<clus scale="   93.777">  5  6 -1 -1</clus>
<clus scale="  125.835">  2  7  1 -1</clus>
<clus scale="  130.898">  1  5  2 -1</clus>
</clustering>
</event>
<event>
 9    1  0.1175034E-005  0.9921901E+02  0.7546771E-02  0.1283688E+00
         -1   -1    0    0    0  501 -0.00000000000E+00  0.00000000000E+00  0.22071689796E+02  0.22071689796E+02  0.00000000000E+00 0.  1.
          1   -1    0    0  502    0  0.00000000000E+00 -0.00000000000E+00 -0.64111224470E+03  0.64111224470E+03  0.00000000000E+00 0. -1.
         23    2    1    2    0    0 -0.27052303039E+02  0.32340360564E+02 -0.14518829834E+03  0.17488609858E+03  0.87907789653E+02 0.  0.
         23    2    1    2    0    0  0.64636132951E+01 -0.31798075169E+02 -0.40326770057E+03  0.41476982925E+03  0.91412674460E+02 0.  0.
        -11    1    4    4    0    0  0.33177118481E+02 -0.51521363150E+02 -0.30339313778E+03  0.30951989936E+03  0.00000000000E+00 0. -1.
         11    1    4    4    0    0 -0.26713505186E+02  0.19723287982E+02 -0.99874562793E+02  0.10524992989E+03  0.00000000000E+00 0.  1.
        -13    1    3    3    0    0  0.83627748749E+01  0.50871037782E+02 -0.50770191596E+02  0.72356138948E+02  0.00000000000E+00 0.  1.
         13    1    3    3    0    0 -0.35415077914E+02 -0.18530677219E+02 -0.94418106743E+02  0.10252995964E+03  0.00000000000E+00 0. -1.
         21    1    1    2  502  501  0.20588689744E+02 -0.54228539512E+00 -0.70584555996E+02  0.73528006664E+02  0.00000000000E+00 0. -1.
<scales pt_clust_5="13000.00000" pt_clust_6="13000.00000" pt_clust_7="13000.00000" pt_clust_8="13000.00000" pt_clust_9="20.59583"></scales>
<clustering>
<clus scale="   20.596">  2  9  1 -1</clus>
<clus scale="   87.908">  7  8 -1 -1</clus>
<clus scale="   91.413">  5  6 -1 -1</clus>
<clus scale="   96.000">  1  7  2 -1</clus>
<clus scale="   20.596">  2  5  1 -1</clus>
</clustering>
</event>
<event>
 9    1  0.1175034E-005  0.2795129E+03  0.7546771E-02  0.1096039E+00
         -1   -1    0    0    0  501 -0.00000000000E+00  0.00000000000E+00  0.22272390597E+03  0.22272390597E+03  0.00000000000E+00 0.  1.
          1   -1    0    0  502    0  0.00000000000E+00 -0.00000000000E+00 -0.96720587497E+03  0.96720587497E+03  0.00000000000E+00 0. -1.
         23    2    1    2    0    0  0.40502138795E+03  0.89915833712E+02 -0.38996532598E+03  0.57650486444E+03  0.90320105182E+02 0.  0.
         23    2    1    2    0    0 -0.19716226678E+03 -0.68982616014E+02 -0.33368680212E+03  0.40347850398E+03  0.88410748833E+02 0.  0.
        -11    1    3    3    0    0  0.14715377189E+03  0.69818811997E+02 -0.18504687344E+03  0.24651824367E+03  0.00000000000E+00 0.  1.
         11    1    3    3    0    0  0.25786761606E+03  0.20097021715E+02 -0.20491845254E+03  0.32998662077E+03  0.00000000000E+00 0. -1.
        -11    1    4    4    0    0 -0.12325602114E+03 -0.65953590096E+02 -0.14790808114E+03  0.20351590420E+03  0.00000000000E+00 0. -1.
         11    1    4    4    0    0 -0.73906245634E+02 -0.30290259181E+01 -0.18577872098E+03  0.19996259978E+03  0.00000000000E+00 0.  1.
         21    1    1    2  502  501 -0.20785912118E+03 -0.20933217698E+02 -0.20829840889E+02  0.20994641252E+03  0.00000000000E+00 0. -1.
<scales pt_clust_5="13000.00000" pt_clust_6="13000.00000" pt_clust_7="13000.00000" pt_clust_8="13000.00000" pt_clust_9="208.91054"></scales>
<clustering>
<clus scale="   88.411">  7  8 -1 -1</clus>
<clus scale="   90.320">  5  6 -1 -1</clus>
<clus scale="  208.911">  1  9  2 -1</clus>
<clus scale="  278.902">  2  7  1 -1</clus>
<clus scale="  278.902">  2  5  1 -1</clus>
</clustering>
</event>
<event>
 9    1  0.1175034E-005  0.1512974E+03  0.7546771E-02  0.1199607E+00
         -1   -1    0    0    0  501 -0.00000000000E+00  0.00000000000E+00  0.14318080608E+03  0.14318080608E+03  0.00000000000E+00 0.  1.
          1   -1    0    0  502    0  0.00000000000E+00 -0.00000000000E+00 -0.66511544042E+03  0.66511544042E+03  0.00000000000E+00 0. -1.
         23    2    1    2    0    0  0.74213042488E+02  0.11415270685E+03  0.75000864427E+02  0.17440811799E+03  0.79086318659E+02 0.  0.
         23    2    1    2    0    0 -0.52693888583E+02 -0.11727003483E+03 -0.59356960916E+03  0.61188538025E+03  0.74497856902E+02 0.  0.
        -11    1    4    4    0    0 -0.23287366510E+02 -0.10116322324E+03 -0.52942619475E+03  0.53950754848E+03  0.00000000000E+00 0. -1.
         11    1    4    4    0    0 -0.29406522074E+02 -0.16106811596E+02 -0.64143414401E+02  0.72377831767E+02  0.00000000000E+00 0.  1.
        -13    1    3    3    0    0  0.95612859275E+01  0.63041343666E+02  0.11915457048E+01  0.63773419078E+02  0.00000000000E+00 0. -1.
         13    1    3    3    0    0  0.64651756561E+02  0.51111363188E+02  0.73809318722E+02  0.11063469891E+03  0.00000000000E+00 0.  1.
         21    1    1    2  502  501 -0.21519153905E+02  0.31173279804E+01 -0.33658896083E+01  0.22002748269E+02  0.00000000000E+00 0. -1.
<scales pt_clust_5="13000.00000" pt_clust_6="13000.00000" pt_clust_7="13000.00000" pt_clust_8="13000.00000" pt_clust_9="21.74377"></scales>
<clustering>
<clus scale="   21.744">  1  9  2 -1</clus>
<clus scale="   74.498">  5  6 -1 -1</clus>
<clus scale="   79.086">  7  8 -1 -1</clus>
<clus scale="  148.950">  2  5  1 -1</clus>
<clus scale="  148.950">  2  5  1 -1</clus>
</clustering>
</event>
<event>
 9    1  0.1175034E-005  0.9133762E+02  0.7546771E-02  0.1300039E+00
         -2   -1    0    0    0  501 -0.00000000000E+00  0.00000000000E+00  0.11755372393E+03  0.11755372393E+03  0.00000000000E+00 0.  1.
          2   -1    0    0  502    0  0.00000000000E+00 -0.00000000000E+00 -0.13496928236E+03  0.13496928236E+03  0.00000000000E+00 0. -1.
         23    2    1    2    0    0 -0.96850087936E+01  0.96742471850E+01 -0.26607047413E+02  0.95391251588E+02  0.90576848331E+02 0.  0.
         23    2    1    2    0    0 -0.82377298703E+01  0.36478411507E+00 -0.42883530512E+02  0.10115127269E+03  0.91239188487E+02 0.  0.
        -11    1    3    3    0    0  0.39240712655E+02  0.13640247279E+02 -0.53017099851E+01  0.41880759356E+02  0.00000000000E+00 0.  1.
         11    1    3    3    0    0 -0.48925721448E+02 -0.39660000937E+01 -0.21305337428E+02  0.53510492232E+02  0.00000000000E+00 0. -1.
        -13    1    4    4    0    0  0.22406193874E+02  0.81408521989E+01  0.19771752990E+02  0.30971490354E+02  0.00000000000E+00 0.  1.
         13    1    4    4    0    0 -0.30643923745E+02 -0.77760680838E+01 -0.62655283503E+02  0.70179782331E+02  0.00000000000E+00 0. -1.
         21    1    1    2  502  501  0.17922738664E+02 -0.10039031300E+02  0.52075019500E+02  0.55980482015E+02  0.00000000000E+00 0.  1.
<scales pt_clust_5="13000.00000" pt_clust_6="13000.00000" pt_clust_7="13000.00000" pt_clust_8="13000.00000" pt_clust_9="20.54280"></scales>
<clustering>
<clus scale="   20.543">  1  9  2 -1</clus>
<clus scale="   90.577">  5  6 -1 -1</clus>
<clus scale="   90.676">  1  5  2 -1</clus>
<clus scale="   91.239">  7  8 -1 -1</clus>
<clus scale="   91.338">  2  5  1 -1</clus>
</clustering>
</event>
<event>
 9    1  0.1175034E-005  0.1021950E+03  0.7546771E-02  0.1276010E+00
          1   -1    0    0  502    0  0.00000000000E+00  0.00000000000E+00  0.16040609798E+03  0.16040609798E+03  0.00000000000E+00 0. -1.
         -1   -1    0    0    0  501 -0.00000000000E+00 -0.00000000000E+00 -0.21399257539E+03  0.21399257539E+03  0.00000000000E+00 0.  1.
         23    2    1    2    0    0  0.18796991568E+02 -0.49330476549E+02 -0.14023909056E+03  0.17334500462E+03  0.87147376879E+02 0.  0.
         23    2    1    2    0    0  0.27173142593E+02  0.64834890876E+02  0.12163806918E+02  0.11215922376E+03  0.86543575855E+02 0.  0.
        -11    1    3    3    0    0  0.67459464583E+01 -0.71607805555E+02 -0.77740538026E+02  0.10590928601E+03  0.00000000000E+00 0.  1.
         11    1    3    3    0    0  0.12051045109E+02  0.22277329007E+02 -0.62498552529E+02  0.67435718608E+02  0.00000000000E+00 0. -1.
        -11    1    4    4    0    0 -0.23664679850E+02  0.34579986755E+02  0.28632214942E+02  0.50750332894E+02  0.00000000000E+00 0. -1.
         11    1    4    4    0    0  0.50837822443E+02  0.30254904121E+02 -0.16468408024E+02  0.61408890863E+02  0.00000000000E+00 0.  1.
         21    1    1    2  502  501 -0.45970134160E+02 -0.15504414328E+02  0.74488806223E+02  0.88894444995E+02  0.00000000000E+00 0.  1.
<scales pt_clust_5="13000.00000" pt_clust_6="13000.00000" pt_clust_7="13000.00000" pt_clust_8="13000.00000" pt_clust_9="48.51433"></scales>
<clustering>
<clus scale="   48.514">  1  9  2 -1</clus>
<clus scale="   86.544">  7  8 -1 -1</clus>
<clus scale="   87.147">  5  6 -1 -1</clus>
<clus scale="  101.681">  1  7  2 -1</clus>
<clus scale="   48.514">  1  5  2 -1</clus>
</clustering>
</event>
<event>
 9    1  0.1175034E-005  0.1117844E+03  0.7546771E-02  0.1259290E+00
          1   -1    0    0  502    0  0.00000000000E+00  0.00000000000E+00  0.28919768649E+03  0.28919768649E+03  0.00000000000E+00 0. -1.
         -1   -1    0    0    0  501 -0.00000000000E+00 -0.00000000000E+00 -0.11612425063E+03  0.11612425063E+03  0.00000000000E+00 0.  1.
         23    2    1    2    0    0  0.72432545842E+02 -0.29625583041E+02  0.13347802037E+01  0.11712644702E+03  0.87135951745E+02 0.  0.
         23    2    1    2    0    0 -0.59223419413E+02 -0.21785985568E+02  0.19917186562E+03  0.22844424394E+03  0.92386676326E+02 0.  0.
        -11    1    3    3    0    0  0.76986359285E+02  0.75747372359E+01  0.11708700502E+02  0.78239183454E+02  0.00000000000E+00 0.  1.
         11    1    3    3    0    0 -0.45538134432E+01 -0.37200320277E+02 -0.10373920298E+02  0.38887263569E+02  0.00000000000E+00 0. -1.
        -11    1    4    4    0    0  0.92751038877E+01  0.23648562291E+02  0.24003374573E+02  0.34949163673E+02  0.00000000000E+00 0.  1.
         11    1    4    4    0    0 -0.68498523301E+02 -0.45434547859E+02  0.17516849104E+03  0.19349508027E+03  0.00000000000E+00 0. -1.
         21    1    1    2  502  501 -0.13209126428E+02  0.51411568609E+02 -0.27433209956E+02  0.59751246149E+02  0.00000000000E+00 0.  1.
<scales pt_clust_5="13000.00000" pt_clust_6="13000.00000" pt_clust_7="13000.00000" pt_clust_8="13000.00000" pt_clust_9="53.08136"></scales>
<clustering>
<clus scale="   53.081">  2  9  1 -1</clus>
<clus scale="   87.136">  5  6 -1 -1</clus>
<clus scale="   92.387">  7  8 -1 -1</clus>
<clus scale="  107.486">  2  5  1 -1</clus>
<clus scale="  111.784">  1  5  2 -1</clus>
</clustering>
</event>
<event>
 9    1  0.1175034E-005  0.1349218E+03  0.7546771E-02  0.1221395E+00
         -2   -1    0    0    0  501 -0.00000000000E+00  0.00000000000E+00  0.21042128193E+02  0.21042128193E+02  0.00000000000E+00 0.  1.
          2   -1    0    0  502    0  0.00000000000E+00 -0.00000000000E+00 -0.11615561437E+04  0.11615561437E+04  0.00000000000E+00 0. -1.
         23    2    1    2    0    0 -0.79949622562E+02  0.85892563396E+01 -0.44907485603E+03  0.46433532334E+03  0.86448532129E+02 0.  0.
         23    2    1    2    0    0  0.12120320107E+03 -0.81037494600E+01 -0.50447101990E+03  0.52679708039E+03  0.90930013096E+02 0.  0.
        -13    1    4    4    0    0  0.14466262238E+02  0.28817895203E+02 -0.18870930116E+03  0.19144436312E+03  0.00000000000E+00 0. -1.
         13    1    4    4    0    0  0.10673693883E+03 -0.36921644663E+02 -0.31576171874E+03  0.33535271727E+03  0.00000000000E+00 0.  1.
        -13    1    3    3    0    0 -0.15240222977E+02 -0.32105940486E+02 -0.81753805079E+02  0.89144492011E+02  0.00000000000E+00 0.  1.
         13    1    3    3    0    0 -0.64709399585E+02  0.40695196826E+02 -0.36732105095E+03  0.37519083133E+03  0.00000000000E+00 0. -1.
         21    1    1    2  502  501 -0.41253578508E+02 -0.48550687961E+00 -0.18696813959E+03  0.19146586818E+03  0.00000000000E+00 0.  1.
<scales pt_clust_5="13000.00000" pt_clust_6="13000.00000" pt_clust_7="13000.00000" pt_clust_8="13000.00000" pt_clust_9="41.25644"></scales>
<clustering>
<clus scale="   41.256">  2  9  1 -1</clus>
<clus scale="   86.449">  7  8 -1 -1</clus>
<clus scale="   90.930">  5  6 -1 -1</clus>
<clus scale="  131.943">  1  7  2 -1</clus>
<clus scale="   41.256">  2  5  1 -1</clus>
</clustering>
</event>
<event>
 9    1  0.1175034E-005  0.9706602E+02  0.7546771E-02  0.1286773E+00
          1   -1    0    0  502    0  0.00000000000E+00  0.00000000000E+00  0.61979160728E+02  0.61979160728E+02  0.00000000000E+00 0. -1.
         -1   -1    0    0    0  501 -0.00000000000E+00 -0.00000000000E+00 -0.24773960704E+03  0.24773960704E+03  0.00000000000E+00 0.  1.
         23    2    1    2    0    0 -0.16055047206E+02 -0.43436789165E+02 -0.86981504501E+02  0.13356039970E+03  0.90155859761E+02 0.  0.
         23    2    1    2    0    0  0.25373838372E+02  0.18065225436E+02 -0.26999547133E+02  0.99458709558E+02  0.90514503356E+02 0.  0.
        -11    1    3    3    0    0 -0.32850086449E+02 -0.12110264764E+02 -0.91272993038E+02  0.97757587687E+02  0.00000000000E+00 0.  1.
         11    1    3    3    0    0  0.16795039243E+02 -0.31326524401E+02  0.42914885367E+01  0.35802812014E+02  0.00000000000E+00 0. -1.
        -13    1    4    4    0    0 -0.19130162387E+02 -0.23525582917E+02 -0.23648659698E+02  0.38453546911E+02  0.00000000000E+00 0. -1.
         13    1    4    4    0    0  0.44504000759E+02  0.41590808352E+02 -0.33508874346E+01  0.61005162647E+02  0.00000000000E+00 0.  1.
         21    1    1    2  502  501 -0.93187911664E+01  0.25371563729E+02 -0.71779394674E+02  0.76699658504E+02  0.00000000000E+00 0. -1.
<scales pt_clust_5="13000.00000" pt_clust_6="13000.00000" pt_clust_7="13000.00000" pt_clust_8="13000.00000" pt_clust_9="27.02880"></scales>
<clustering>
<clus scale="   27.029">  2  9  1 -1</clus>
<clus scale="   90.156">  5  6 -1 -1</clus>
<clus scale="   90.515">  7  8 -1 -1</clus>
<clus scale="   96.732">  2  5  1 -1</clus>
<clus scale="   97.066">  1  5  2 -1</clus>
</clustering>
</event>
<event>
 9    1  0.1175034E-005  0.2830613E+03  0.7546771E-02  0.1094081E+00
          1   -1    0    0  502    0  0.00000000000E+00  0.00000000000E+00  0.12261642258E+04  0.12261642258E+04  0.00000000000E+00 0. -1.
         -1   -1    0    0    0  501 -0.00000000000E+00 -0.00000000000E+00 -0.95622132357E+02  0.95622132357E+02  0.00000000000E+00 0.  1.
         23    2    1    2    0    0 -0.11180933760E+03 -0.23384180879E+03  0.53360617586E+03  0.60045060947E+03  0.92855069810E+02 0.  0.
         23    2    1    2    0    0  0.10336604900E+03  0.25542418513E+03  0.62245642680E+03  0.68686279580E+03  0.91664838201E+02 0.  0.
        -13    1    4    4    0    0  0.68573588026E+02  0.24408164997E+03  0.55331410556E+03  0.60863345968E+03  0.00000000000E+00 0.  1.
         13    1    4    4    0    0  0.34792460973E+02  0.11342535153E+02  0.69142321242E+02  0.78229336128E+02  0.00000000000E+00 0. -1.
        -13    1    3    3    0    0 -0.91448500717E+02 -0.14219273719E+03  0.42201935212E+03  0.45462285068E+03  0.00000000000E+00 0. -1.
         13    1    3    3    0    0 -0.20360836884E+02 -0.91649071599E+02  0.11158682374E+03  0.14582775880E+03  0.00000000000E+00 0.  1.
         21    1    1    2  502  501  0.84432886007E+01 -0.21582376339E+02 -0.25520509206E+02  0.34472952890E+02  0.00000000000E+00 0. -1.
<scales pt_clust_5="13000.00000" pt_clust_6="13000.00000" pt_clust_7="13000.00000" pt_clust_8="13000.00000" pt_clust_9="23.17516"></scales>
<clustering>
<clus scale="   23.175">  2  9  1 -1</clus>
<clus scale="   91.665">  5  6 -1 -1</clus>
<clus scale="   92.855">  7  8 -1 -1</clus>
<clus scale="  282.673">  1  5  2 -1</clus>
<clus scale="  282.673">  1  5  2 -1</clus>
</clustering>
</event>
<event>
 9    1  0.1175034E-005  0.1032250E+03  0.7546771E-02  0.1273828E+00
          1   -1    0    0  502    0  0.00000000000E+00  0.00000000000E+00  0.15045699161E+03  0.15045699161E+03  0.00000000000E+00 0. -1.
         -1   -1    0    0    0  501 -0.00000000000E+00 -0.00000000000E+00 -0.19590773370E+03  0.19590773370E+03  0.00000000000E+00 0.  1.
         23    2    1    2    0    0 -0.50429028653E+01  0.69906228881E-01 -0.27524359180E+02  0.96678821350E+02  0.92540631039E+02 0.  0.
         23    2    1    2    0    0 -0.26240748555E+02  0.65961030711E+02  0.69683185207E+02  0.13560616033E+03  0.92162085275E+02 0.  0.
        -11    1    4    4    0    0 -0.13705248330E+02 -0.22201798446E+02  0.80382994376E+01  0.27301427506E+02  0.00000000000E+00 0.  1.
         11    1    4    4    0    0 -0.12535500225E+02  0.88162829158E+02  0.61644885770E+02  0.10830473283E+03  0.00000000000E+00 0. -1.
        -13    1    3    3    0    0  0.27610198396E+02  0.12354318054E+02  0.21066148797E+02  0.36861020811E+02  0.00000000000E+00 0. -1.
         13    1    3    3    0    0 -0.32653101262E+02 -0.12284411825E+02 -0.48590507977E+02  0.59817800539E+02  0.00000000000E+00 0.  1.
         21    1    1    2  502  501  0.31283651420E+02 -0.66030936940E+02 -0.87609568118E+02  0.11407974362E+03  0.00000000000E+00 0.  1.
<scales pt_clust_5="13000.00000" pt_clust_6="13000.00000" pt_clust_7="13000.00000" pt_clust_8="13000.00000" pt_clust_9="73.06676"></scales>
<clustering>
<clus scale="   73.067">  2  9  1 -1</clus>
<clus scale="   92.162">  5  6 -1 -1</clus>
<clus scale="   92.541">  7  8 -1 -1</clus>
<clus scale="  102.886">  1  5  2 -1</clus>
<clus scale="  102.886">  1  5  2 -1</clus>
</clustering>
</event>
<event>
 9    1  0.1175034E-005  0.1020265E+03  0.7546771E-02  0.1281629E+00
          2   -1    0    0  502    0  0.00000000000E+00  0.00000000000E+00  0.23080048224E+03  0.23080048224E+03  0.00000000000E+00 0. -1.
         -2   -1    0    0    0  501 -0.00000000000E+00 -0.00000000000E+00 -0.86571324063E+02  0.86571324063E+02  0.00000000000E+00 0.  1.
         23    2    1    2    0    0  0.33440919754E+02  0.55194159751E+01  0.34913444556E+02  0.10260344195E+03  0.90331382273E+02 0.  0.
         23    2    1    2    0    0 -0.52164225814E+01 -0.88550759159E+01  0.14011762147E+03  0.17285766888E+03  0.10070353723E+03 0.  0.
        -13    1    3    3    0    0  0.85174977801E+01  0.24202633315E+02 -0.24527701390E+02  0.35495399184E+02  0.00000000000E+00 0.  1.
         13    1    3    3    0    0  0.24923421974E+02 -0.18683217340E+02  0.59441145946E+02  0.67108042770E+02  0.00000000000E+00 0. -1.
        -13    1    4    4    0    0  0.12394146055E+02 -0.45752236763E+02  0.11618780414E+03  0.12548501048E+03  0.00000000000E+00 0. -1.
         13    1    4    4    0    0 -0.17610568636E+02  0.36897160847E+02  0.23929817330E+02  0.47372658398E+02  0.00000000000E+00 0.  1.
         21    1    1    2  502  501 -0.28224497172E+02  0.33356599407E+01 -0.30801907846E+02  0.41910695470E+02  0.00000000000E+00 0.  1.
<scales pt_clust_5="13000.00000" pt_clust_6="13000.00000" pt_clust_7="13000.00000" pt_clust_8="13000.00000" pt_clust_9="28.42092"></scales>
<clustering>
<clus scale="   28.421">  2  9  1 -1</clus>
<clus scale="   90.331">  5  6 -1 -1</clus>
<clus scale="   91.804">  2  5  1 -1</clus>
<clus scale="  100.704">  7  8 -1 -1</clus>
<clus scale="  102.026">  1  5  2 -1</clus>
</clustering>
</event>
<event>
 9    1  0.1175034E-005  0.1597088E+03  0.7546771E-02  0.1189801E+00
          1   -1    0    0  502    0  0.00000000000E+00  0.00000000000E+00  0.57041916446E+03  0.57041916446E+03  0.00000000000E+00 0. -1.
         -1   -1    0    0    0  501 -0.00000000000E+00 -0.00000000000E+00 -0.92215273574E+02  0.92215273574E+02  0.00000000000E+00 0.  1.
         23    2    1    2    0    0  0.11943295801E+03  0.12934544736E+03  0.10570297700E+03  0.22490374173E+03  0.91728389752E+02 0.  0.
         23    2    1    2    0    0 -0.62233648131E+02 -0.38154980480E+02  0.17275469976E+03  0.21082540250E+03  0.96303346536E+02 0.  0.
        -13    1    3    3    0    0  0.28316338543E+01  0.31444152815E+02 -0.10610705766E+02  0.33306755672E+02  0.00000000000E+00 0.  1.
         13    1    3    3    0    0  0.11660132416E+03  0.97901294540E+02  0.11631368277E+03  0.19159698606E+03  0.00000000000E+00 0. -1.
        -13    1    4    4    0    0 -0.71467044325E+01 -0.55974973398E+02  0.11953064122E+03  0.13218111522E+03  0.00000000000E+00 0. -1.
         13    1    4    4    0    0 -0.55086943698E+02  0.17819992918E+02  0.53224058545E+02  0.78644287279E+02  0.00000000000E+00 0.  1.
         21    1    1    2  502  501 -0.57199309881E+02 -0.91190466875E+02  0.19974621412E+03  0.22690529380E+03  0.00000000000E+00 0. -1.
<scales pt_clust_5="13000.00000" pt_clust_6="13000.00000" pt_clust_7="13000.00000" pt_clust_8="13000.00000" pt_clust_9="107.64508"></scales>
<clustering>
<clus scale="   91.728">  5  6 -1 -1</clus>
<clus scale="   96.303">  7  8 -1 -1</clus>
<clus scale="  107.645">  1  9  2 -1</clus>
<clus scale="  156.993">  2  5  1 -1</clus>
<clus scale="  107.645">  1  5  2 -1</clus>
</clustering>
</event>
<event>
 9    1  0.1175034E-005  0.9156398E+02  0.7546771E-02  0.1299216E+00
         -1   -1    0    0    0  501 -0.00000000000E+00  0.00000000000E+00  0.13603062467E+03  0.13603062467E+03  0.00000000000E+00 0.  1.
          1   -1    0    0  502    0  0.00000000000E+00 -0.00000000000E+00 -0.10654851312E+03  0.10654851312E+03  0.00000000000E+00 0. -1.
         23    2    1    2    0    0  0.87353721121E+01 -0.32119254508E+01  0.58059552711E+02  0.10864202811E+03  0.91354011516E+02 0.  0.
         23    2    1    2    0    0  0.22038952476E+02 -0.13943835289E+02 -0.15929618730E+02  0.96502545541E+02  0.91536017907E+02 0.  0.
        -11    1    3    3    0    0 -0.37218861452E+02 -0.20469725872E+02  0.31039245320E+02  0.52608821267E+02  0.00000000000E+00 0. -1.
         11    1    3    3    0    0  0.45954233564E+02  0.17257800421E+02  0.27020307392E+02  0.56033206845E+02  0.00000000000E+00 0.  1.
        -13    1    4    4    0    0  0.49046349192E+02 -0.26870459544E+02  0.10098845849E+02  0.56829153193E+02  0.00000000000E+00 0.  1.
         13    1    4    4    0    0 -0.27007396716E+02  0.12926624255E+02 -0.26028464579E+02  0.39673392348E+02  0.00000000000E+00 0. -1.
         21    1    1    2  502  501 -0.30774324588E+02  0.17155760740E+02 -0.12647822432E+02  0.37434564144E+02  0.00000000000E+00 0. -1.
<scales pt_clust_5="13000.00000" pt_clust_6="13000.00000" pt_clust_7="13000.00000" pt_clust_8="13000.00000" pt_clust_9="35.23321"></scales>
<clustering>
<clus scale="   35.233">  2  9  1 -1</clus>
<clus scale="   91.354">  5  6 -1 -1</clus>
<clus scale="   91.382">  1  5  2 -1</clus>
<clus scale="   91.536">  7  8 -1 -1</clus>
<clus scale="   35.233">  2  5  1 -1</clus>
</clustering>
</event>
<event>
 9    1  0.1175034E-005  0.9517760E+02  0.7546771E-02  0.1292463E+00
         -2   -1    0    0    0  501 -0.00000000000E+00  0.00000000000E+00  0.12935119829E+03  0.12935119829E+03  0.00000000000E+00 0.  1.
          2   -1    0    0  502    0  0.00000000000E+00 -0.00000000000E+00 -0.15148724070E+03  0.15148724070E+03  0.00000000000E+00 0. -1.
         23    2    1    2    0    0 -0.23556899832E+01  0.82640256991E+01  0.46875522766E+02  0.10049421493E+03  0.88475585354E+02 0.  0.
         23    2    1    2    0    0  0.27567187282E+02 -0.14824321615E+02 -0.10048254597E+03  0.13948985207E+03  0.91547618536E+02 0.  0.
        -11    1    3    3    0    0  0.29023890784E+02  0.11373417470E+02  0.58985108176E+02  0.66715694164E+02  0.00000000000E+00 0.  1.
         11    1    3    3    0    0 -0.31379580768E+02 -0.31093917713E+01 -0.12109585410E+02  0.33778520766E+02  0.00000000000E+00 0. -1.
        -13    1    4    4    0    0  0.17545016305E+02  0.28182095458E+02 -0.40702305369E+01  0.33445849939E+02  0.00000000000E+00 0. -1.
         13    1    4    4    0    0  0.10022170978E+02 -0.43006417073E+02 -0.96412315430E+02  0.10604400213E+03  0.00000000000E+00 0.  1.
         21    1    1    2  502  501 -0.25211497299E+02  0.65602959158E+01  0.31470980790E+02  0.40854371987E+02  0.00000000000E+00 0. -1.
<scales pt_clust_5="13000.00000" pt_clust_6="13000.00000" pt_clust_7="13000.00000" pt_clust_8="13000.00000" pt_clust_9="26.05105"></scales>
<clustering>
<clus scale="   26.051">  1  9  2 -1</clus>
<clus scale="   88.476">  5  6 -1 -1</clus>
<clus scale="   91.548">  7  8 -1 -1</clus>
<clus scale="   92.227">  1  5  2 -1</clus>
<clus scale="   95.178">  2  5  1 -1</clus>
</clustering>
</event>
<event>
 9    1  0.1175034E-005  0.9276127E+02  0.7546771E-02  0.1301309E+00
         -2   -1    0    0    0  501 -0.00000000000E+00  0.00000000000E+00  0.69062047277E+02  0.69062047277E+02  0.00000000000E+00 0.  1.
          2   -1    0    0  502    0  0.00000000000E+00 -0.00000000000E+00 -0.40941030752E+03  0.40941030752E+03  0.00000000000E+00 0. -1.
         23    2    1    2    0    0 -0.16938440433E+01  0.12501835715E+02 -0.68226981311E+02  0.10160942898E+03  0.74232001697E+02 0.  0.
         23    2    1    2    0    0  0.37016783080E+02 -0.40369608966E+02 -0.30514154239E+03  0.32105378133E+03  0.83451914639E+02 0.  0.
        -11    1    4    4    0    0 -0.21688841234E+02 -0.34365811117E+02 -0.11529636141E+03  0.12224837733E+03  0.00000000000E+00 0.  1.
         11    1    4    4    0    0  0.58705624314E+02 -0.60037978497E+01 -0.18984518098E+03  0.19880540400E+03  0.00000000000E+00 0. -1.
        -13    1    3    3    0    0 -0.12165345741E+02 -0.29106687192E+02 -0.36522458037E+02  0.48260592799E+02  0.00000000000E+00 0.  1.
         13    1    3    3    0    0  0.10471501698E+02  0.41608522907E+02 -0.31704523274E+02  0.53348836186E+02  0.00000000000E+00 0. -1.
         21    1    1    2  502  501 -0.35322939036E+02  0.27867773251E+02  0.33020263462E+02  0.55809144477E+02  0.00000000000E+00 0. -1.
<scales pt_clust_5="13000.00000" pt_clust_6="13000.00000" pt_clust_7="13000.00000" pt_clust_8="13000.00000" pt_clust_9="44.99248"></scales>
<clustering>
<clus scale="   44.992">  1  9  2 -1</clus>
<clus scale="   74.232">  7  8 -1 -1</clus>
<clus scale="   83.452">  5  6 -1 -1</clus>
<clus scale="   84.563">  1  7  2 -1</clus>
<clus scale="   92.761">  2  5  1 -1</clus>
</clustering>
</event>
<event>
 9    1  0.1175034E-005  0.1344494E+03  0.7546771E-02  0.1221506E+00
         -2   -1    0    0    0  501 -0.00000000000E+00  0.00000000000E+00  0.11681230498E+03  0.11681230498E+03  0.00000000000E+00 0.  1.
          2   -1    0    0  502    0  0.00000000000E+00 -0.00000000000E+00 -0.21996577769E+03  0.21996577769E+03  0.00000000000E+00 0. -1.
         23    2    1    2    0    0 -0.20088658612E+02  0.80846290930E+02  0.56137230978E+01  0.12329450438E+03  0.90721243161E+02 0.  0.
         23    2    1    2    0    0  0.35647709115E+02 -0.98010820371E+02 -0.12320154391E+03  0.18618787298E+03  0.92792367936E+02 0.  0.
        -11    1    4    4    0    0  0.20076234523E+02 -0.81562044812E+02 -0.13624042986E+03  0.16005273217E+03  0.00000000000E+00 0. -1.
         11    1    4    4    0    0  0.15571474591E+02 -0.16448775560E+02  0.13038885948E+02  0.26135140809E+02  0.00000000000E+00 0.  1.
        -11    1    3    3    0    0 -0.49932392727E+02  0.25440447765E+02 -0.13271376852E+02  0.57589839985E+02  0.00000000000E+00 0. -1.
         11    1    3    3    0    0  0.29843734116E+02  0.55405843165E+02  0.18885099950E+02  0.65704664393E+02  0.00000000000E+00 0.  1.
         21    1    1    2  502  501 -0.15559050503E+02  0.17164529441E+02  0.14434348105E+02  0.27295705316E+02  0.00000000000E+00 0. -1.
<scales pt_clust_5="13000.00000" pt_clust_6="13000.00000" pt_clust_7="13000.00000" pt_clust_8="13000.00000" pt_clust_9="23.16690"></scales>
<clustering>
<clus scale="   23.167">  1  9  2 -1</clus>
<clus scale="   90.721">  7  8 -1 -1</clus>
<clus scale="   92.792">  5  6 -1 -1</clus>
<clus scale="  133.028">  1  7  2 -1</clus>
<clus scale="  134.449">  2  5  1 -1</clus>
</clustering>
</event>
<event>
 9    1  0.1175034E-005  0.1054808E+03  0.7546771E-02  0.1271658E+00
          3   -1    0    0  502    0  0.00000000000E+00  0.00000000000E+00  0.57640036101E+02  0.57640036101E+02  0.00000000000E+00 0. -1.
         -3   -1    0    0    0  501 -0.00000000000E+00 -0.00000000000E+00 -0.24509965397E+03  0.24509965397E+03  0.00000000000E+00 0.  1.
         23    2    1    2    0    0 -0.13965778742E+02  0.35047582093E+02 -0.77907708184E+02  0.12683191059E+03  0.92700305084E+02 0.  0.
         23    2    1    2    0    0  0.38600656596E+02 -0.22337095430E+02 -0.73340752009E+02  0.13030425310E+03  0.98037625170E+02 0.  0.
        -11    1    3    3    0    0 -0.38320649150E+02 -0.16457966056E+02 -0.43558325024E+02  0.60304763301E+02  0.00000000000E+00 0. -1.
         11    1    3    3    0    0  0.24354870407E+02  0.51505548149E+02 -0.34349383160E+02  0.66527147287E+02  0.00000000000E+00 0.  1.
        -11    1    4    4    0    0  0.34896938601E+02  0.34840411247E+02 -0.43223483504E+02  0.65573776052E+02  0.00000000000E+00 0.  1.
         11    1    4    4    0    0  0.37037179953E+01 -0.57177506676E+02 -0.30117268505E+02  0.64730477049E+02  0.00000000000E+00 0. -1.
         21    1    1    2  502  501 -0.24634877853E+02 -0.12710486663E+02 -0.36211157673E+02  0.45603526378E+02  0.00000000000E+00 0. -1.
<scales pt_clust_5="13000.00000" pt_clust_6="13000.00000" pt_clust_7="13000.00000" pt_clust_8="13000.00000" pt_clust_9="27.72064"></scales>
<clustering>
<clus scale="   27.721">  2  9  1 -1</clus>
<clus scale="   92.700">  5  6 -1 -1</clus>
<clus scale="   98.038">  7  8 -1 -1</clus>
<clus scale="  100.539">  2  5  1 -1</clus>
<clus scale="  105.481">  1  5  2 -1</clus>
</clustering>
</event>
<event>
 9    1  0.1175034E-005  0.1517074E+03  0.7546771E-02  0.1198445E+00
          2   -1    0    0  502    0  0.00000000000E+00  0.00000000000E+00  0.50041380133E+02  0.50041380133E+02  0.00000000000E+00 0. -1.
         -2   -1    0    0    0  501 -0.00000000000E+00 -0.00000000000E+00 -0.69240994065E+03  0.69240994065E+03  0.00000000000E+00 0.  1.
         23    2    1    2    0    0  0.87830349457E+02 -0.12543435004E+03 -0.33955366747E+03  0.38362441203E+03  0.91777175556E+02 0.  0.
         23    2    1    2    0    0 -0.58507207914E+02  0.83971774782E+02 -0.18356964785E+03  0.22921818884E+03  0.91481201047E+02 0.  0.
        -11    1    4    4    0    0 -0.18011616797E+02  0.90996278023E+02 -0.10195547330E+03  0.13783925236E+03  0.00000000000E+00 0.  1.
         11    1    4    4    0    0 -0.40495591117E+02 -0.70245032411E+01 -0.81614174548E+02  0.91378936483E+02  0.00000000000E+00 0. -1.
        -13    1    3    3    0    0  0.42505835775E+02 -0.11131591486E+03 -0.17034933735E+03  0.20788668960E+03  0.00000000000E+00 0.  1.
         13    1    3    3    0    0  0.45324513683E+02 -0.14118435179E+02 -0.16920433012E+03  0.17573772243E+03  0.00000000000E+00 0. -1.
         21    1    1    2  502  501 -0.29323141544E+02  0.41462575258E+02 -0.11924524519E+03  0.12960871991E+03  0.00000000000E+00 0. -1.
<scales pt_clust_5="13000.00000" pt_clust_6="13000.00000" pt_clust_7="13000.00000" pt_clust_8="13000.00000" pt_clust_9="50.78377"></scales>
<clustering>
<clus scale="   50.784">  2  9  1 -1</clus>
<clus scale="   91.481">  5  6 -1 -1</clus>
<clus scale="   91.777">  7  8 -1 -1</clus>
<clus scale="  151.529">  1  5  2 -1</clus>
<clus scale="  151.529">  1  5  2 -1</clus>
</clustering>
</event>
<event>
 9    1  0.1175034E-005  0.1457499E+03  0.7546771E-02  0.1227213E+00
          1   -1    0    0  502    0  0.00000000000E+00  0.00000000000E+00  0.27068404495E+03  0.27068404495E+03  0.00000000000E+00 0. -1.
         -1   -1    0    0    0  501 -0.00000000000E+00 -0.00000000000E+00 -0.21355906420E+03  0.21355906420E+03  0.00000000000E+00 0.  1.
         23    2    1    2    0    0 -0.10284536561E+03  0.59867974538E+02  0.14500904101E+03  0.20960750096E+03  0.93521863113E+02 0.  0.
         23    2    1    2    0    0  0.16249543955E+02  0.97306341960E+01  0.43640232905E+02  0.10246870557E+03  0.90755896628E+02 0.  0.
        -11    1    4    4    0    0 -0.72403271130E+01 -0.25223887590E+02 -0.15034937881E+02  0.30244275474E+02  0.00000000000E+00 0.  1.
         11    1    4    4    0    0  0.23489871068E+02  0.34954521786E+02  0.58675170785E+02  0.72224430097E+02  0.00000000000E+00 0. -1.
        -13    1    3    3    0    0 -0.48019099711E+02  0.61859573978E+02  0.13158870996E+03  0.15312749400E+03  0.00000000000E+00 0. -1.
         13    1    3    3    0    0 -0.54826265898E+02 -0.19915994407E+01  0.13420331055E+02  0.56480006960E+02  0.00000000000E+00 0.  1.
         21    1    1    2  502  501  0.86595821654E+02 -0.69598608734E+02 -0.13152429316E+03  0.17216690262E+03  0.00000000000E+00 0.  1.
<scales pt_clust_5="13000.00000" pt_clust_6="13000.00000" pt_clust_7="13000.00000" pt_clust_8="13000.00000" pt_clust_9="111.78864"></scales>
<clustering>
<clus scale="   90.756">  5  6 -1 -1</clus>
<clus scale="   92.711">  1  5  2 -1</clus>
<clus scale="   93.522">  7  8 -1 -1</clus>
<clus scale="  111.789">  2  9  1 -1</clus>
<clus scale="   92.711">  1  5  2 -1</clus>
</clustering>
</event>
<event>
 9    1  0.1175034E-005  0.9421053E+02  0.7546771E-02  0.1296950E+00
          2   -1    0    0  502    0  0.00000000000E+00  0.00000000000E+00  0.89921159956E+02  0.89921159956E+02  0.00000000000E+00 0. -1.
         -2   -1    0    0    0  501 -0.00000000000E+00 -0.00000000000E+00 -0.42933755424E+03  0.42933755424E+03  0.00000000000E+00 0.  1.
         23    2    1    2    0    0  0.17563756707E+02 -0.46933447795E+01 -0.21638027909E+03  0.23617508603E+03  0.92885591193E+02 0.  0.
         23    2    1    2    0    0  0.65529162390E+01  0.16302933087E+02  0.54614798205E+02  0.10342772515E+03  0.86056910285E+02 0.  0.
        -13    1    4    4    0    0 -0.44075382672E+01 -0.23362170093E+02 -0.10826232047E+02  0.26123259470E+02  0.00000000000E+00 0.  1.
         13    1    4    4    0    0  0.10960454506E+02  0.39665103180E+02  0.65441030252E+02  0.77304465678E+02  0.00000000000E+00 0. -1.
        -13    1    3    3    0    0 -0.34984890342E+02 -0.74563156085E+01 -0.13174727426E+03  0.13651697136E+03  0.00000000000E+00 0.  1.
         13    1    3    3    0    0  0.52548647048E+02  0.27629708290E+01 -0.84633004826E+02  0.99658114673E+02  0.00000000000E+00 0. -1.
         21    1    1    2  502  501 -0.24116672946E+02 -0.11609588307E+02 -0.17765091340E+03  0.17965590301E+03  0.00000000000E+00 0.  1.
<scales pt_clust_5="13000.00000" pt_clust_6="13000.00000" pt_clust_7="13000.00000" pt_clust_8="13000.00000" pt_clust_9="26.76558"></scales>
<clustering>
<clus scale="   26.766">  2  9  1 -1</clus>
<clus scale="   86.057">  5  6 -1 -1</clus>
<clus scale="   87.485">  1  5  2 -1</clus>
<clus scale="   92.886">  7  8 -1 -1</clus>
<clus scale="   87.485">  1  5  2 -1</clus>
</clustering>
</event>
<event>
 9    1  0.1175034E-005  0.9267810E+02  0.7546771E-02  0.1296556E+00
         -2   -1    0    0    0  501 -0.00000000000E+00  0.00000000000E+00  0.46839308729E+02  0.46839308729E+02  0.00000000000E+00 0.  1.
          2   -1    0    0  502    0  0.00000000000E+00 -0.00000000000E+00 -0.34864471811E+03  0.34864471811E+03  0.00000000000E+00 0. -1.
         23    2    1    2    0    0  0.12958420276E+02  0.83246939347E+01 -0.64453580217E+02  0.11263434539E+03  0.91076948641E+02 0.  0.
         23    2    1    2    0    0  0.58560022519E+01 -0.19494108006E+02 -0.24292356449E+03  0.26027131702E+03  0.91186552001E+02 0.  0.
        -11    1    4    4    0    0  0.36032896639E+02  0.21520731376E+02 -0.12380379524E+03  0.13072448598E+03  0.00000000000E+00 0.  1.
         11    1    4    4    0    0 -0.30176894387E+02 -0.41014839382E+02 -0.11911976926E+03  0.12954683104E+03  0.00000000000E+00 0. -1.
        -13    1    3    3    0    0  0.15809689537E+02  0.36851449296E+02  0.21144982461E+01  0.40155282359E+02  0.00000000000E+00 0.  1.
         13    1    3    3    0    0 -0.28512692614E+01 -0.28526755361E+02 -0.66568078463E+02  0.72479063032E+02  0.00000000000E+00 0. -1.
         21    1    1    2  502  501 -0.18814422528E+02  0.11169414071E+02  0.55717353313E+01  0.22578364431E+02  0.00000000000E+00 0.  1.
<scales pt_clust_5="13000.00000" pt_clust_6="13000.00000" pt_clust_7="13000.00000" pt_clust_8="13000.00000" pt_clust_9="21.88009"></scales>
<clustering>
<clus scale="   21.880">  1  9  2 -1</clus>
<clus scale="   91.077">  7  8 -1 -1</clus>
<clus scale="   91.187">  5  6 -1 -1</clus>
<clus scale="   92.570">  1  7  2 -1</clus>
<clus scale="   92.678">  2  5  1 -1</clus>
</clustering>
</event>
<event>
 9    1  0.1175034E-005  0.1075184E+03  0.7546771E-02  0.1266541E+00
          2   -1    0    0  502    0  0.00000000000E+00  0.00000000000E+00  0.19330464865E+03  0.19330464865E+03  0.00000000000E+00 0. -1.
         -2   -1    0    0    0  501 -0.00000000000E+00 -0.00000000000E+00 -0.21633304349E+03  0.21633304349E+03  0.00000000000E+00 0.  1.
         23    2    1    2    0    0 -0.45270374025E+01  0.41224816072E+02 -0.41954291885E+02  0.10781825687E+03  0.90247628103E+02 0.  0.
         23    2    1    2    0    0 -0.32967530612E+02 -0.48411762606E+02  0.13809347152E+03  0.17668588407E+03  0.93367756327E+02 0.  0.
        -11    1    4    4    0    0 -0.61822848151E+02 -0.14512127008E+02  0.97993939595E+02  0.11677105198E+03  0.00000000000E+00 0. -1.
         11    1    4    4    0    0  0.28855317539E+02 -0.33899635598E+02  0.40099531922E+02  0.59914832089E+02  0.00000000000E+00 0.  1.
        -13    1    3    3    0    0  0.25156446244E+02  0.56046550036E+02 -0.10936772149E+02  0.62399323263E+02  0.00000000000E+00 0.  1.
         13    1    3    3    0    0 -0.29683483647E+02 -0.14821733964E+02 -0.31017519736E+02  0.45418933603E+02  0.00000000000E+00 0. -1.
         21    1    1    2  502  501  0.37494568015E+02  0.71869465344E+01 -0.11916757447E+03  0.12513355120E+03  0.00000000000E+00 0.  1.
<scales pt_clust_5="13000.00000" pt_clust_6="13000.00000" pt_clust_7="13000.00000" pt_clust_8="13000.00000" pt_clust_9="38.17715"></scales>
<clustering>
<clus scale="   38.177">  2  9  1 -1</clus>
<clus scale="   90.248">  7  8 -1 -1</clus>
<clus scale="   93.368">  5  6 -1 -1</clus>
<clus scale="  104.820">  2  7  1 -1</clus>
<clus scale="  107.518">  1  5  2 -1</clus>
</clustering>
</event>
<event>
 9    1  0.1175034E-005  0.1001547E+03  0.7546771E-02  0.1281165E+00
          1   -1    0    0  502    0  0.00000000000E+00  0.00000000000E+00  0.24635067533E+03  0.24635067533E+03  0.00000000000E+00 0. -1.
         -1   -1    0    0    0  501 -0.00000000000E+00 -0.00000000000E+00 -0.68012529110E+02  0.68012529110E+02  0.00000000000E+00 0.  1.
         23    2    1    2    0    0 -0.10693042499E+02  0.26680019928E+02  0.29059229666E+02  0.10023701418E+03  0.91525163543E+02 0.  0.
         23    2    1    2    0    0 -0.96394510291E+01 -0.37875197726E+02  0.15916342214E+03  0.18889831382E+03  0.93926185901E+02 0.  0.
        -13    1    3    3    0    0  0.35253567467E+02  0.19416358773E+02 -0.76653008840E+01  0.40970304426E+02  0.00000000000E+00 0.  1.
         13    1    3    3    0    0 -0.45946609966E+02  0.72636611549E+01  0.36724530550E+02  0.59266709752E+02  0.00000000000E+00 0. -1.
        -13    1    4    4    0    0  0.35739728309E+02 -0.43103493410E+02  0.90879641886E+02  0.10674431429E+03  0.00000000000E+00 0.  1.
         13    1    4    4    0    0 -0.45379179339E+02  0.52282956832E+01  0.68283780255E+02  0.82153999532E+02  0.00000000000E+00 0. -1.
         21    1    1    2  502  501  0.20332493528E+02  0.11195177799E+02 -0.98845055870E+01  0.25227876441E+02  0.00000000000E+00 0. -1.
<scales pt_clust_5="13000.00000" pt_clust_6="13000.00000" pt_clust_7="13000.00000" pt_clust_8="13000.00000" pt_clust_9="23.21082"></scales>
<clustering>
<clus scale="   23.211">  2  9  1 -1</clus>
<clus scale="   91.525">  5  6 -1 -1</clus>
<clus scale="   93.926">  7  8 -1 -1</clus>
<clus scale="   97.907">  2  5  1 -1</clus>
<clus scale="  100.155">  1  5  2 -1</clus>
</clustering>
</event>
<event>
 9    1  0.1175034E-005  0.1055899E+03  0.7546771E-02  0.1271089E+00
          3   -1    0    0  502    0  0.00000000000E+00  0.00000000000E+00  0.10703246218E+03  0.10703246218E+03  0.00000000000E+00 0. -1.
         -3   -1    0    0    0  501 -0.00000000000E+00 -0.00000000000E+00 -0.16487121452E+03  0.16487121452E+03  0.00000000000E+00 0.  1.
         23    2    1    2    0    0  0.30268047136E+02  0.50407665259E+02 -0.45892635633E+02  0.12213316710E+03  0.96712404099E+02 0.  0.
         23    2    1    2    0    0 -0.40222332277E+02 -0.45666915420E+01  0.28080048552E+01  0.10059565050E+03  0.92048407497E+02 0.  0.
        -11    1    4    4    0    0 -0.20025160519E+02 -0.29987546688E+02  0.38224711195E+02  0.52548915841E+02  0.00000000000E+00 0. -1.
         11    1    4    4    0    0 -0.20197171759E+02  0.25420855146E+02 -0.35416706340E+02  0.48046734659E+02  0.00000000000E+00 0.  1.
        -11    1    3    3    0    0 -0.30373801352E+02  0.40716954935E+02 -0.28770630462E+02  0.58379683152E+02  0.00000000000E+00 0.  1.
         11    1    3    3    0    0  0.60641848488E+02  0.96907103239E+01 -0.17122005171E+02  0.63753483950E+02  0.00000000000E+00 0. -1.
         21    1    1    2  502  501  0.99542851415E+01 -0.45840973717E+02 -0.14754121567E+02  0.49174859097E+02  0.00000000000E+00 0. -1.
<scales pt_clust_5="13000.00000" pt_clust_6="13000.00000" pt_clust_7="13000.00000" pt_clust_8="13000.00000" pt_clust_9="46.90930"></scales>
<clustering>
<clus scale="   46.909">  2  9  1 -1</clus>
<clus scale="   92.048">  5  6 -1 -1</clus>
<clus scale="   96.712">  7  8 -1 -1</clus>
<clus scale="  101.335">  1  5  2 -1</clus>
<clus scale="  101.335">  1  5  2 -1</clus>
</clustering>
</event>
<event>
 9    1  0.1175034E-005  0.1310403E+03  0.7546771E-02  0.1234569E+00
          1   -1    0    0  502    0  0.00000000000E+00  0.00000000000E+00  0.19782366341E+03  0.19782366341E+03  0.00000000000E+00 0. -1.
         -1   -1    0    0    0  501 -0.00000000000E+00 -0.00000000000E+00 -0.43010558121E+03  0.43010558121E+03  0.00000000000E+00 0.  1.
         23    2    1    2    0    0 -0.52232503889E+02  0.57375232762E+02 -0.26264403148E+03  0.29028180575E+03  0.96236623380E+02 0.  0.
         23    2    1    2    0    0  0.22538099221E+02  0.56298501124E+02  0.13941460523E+03  0.17734796490E+03  0.91314737907E+02 0.  0.
        -11    1    4    4    0    0 -0.13613585466E+01 -0.21562463256E+02  0.86071492912E+01  0.23256743918E+02  0.00000000000E+00 0.  1.
         11    1    4    4    0    0  0.23899457768E+02  0.77860964380E+02  0.13080745594E+03  0.15409122099E+03  0.00000000000E+00 0. -1.
        -13    1    3    3    0    0  0.27768759330E+02  0.10766113619E+02 -0.82993399346E+02  0.88175492809E+02  0.00000000000E+00 0. -1.
         13    1    3    3    0    0 -0.80001263218E+02  0.46609119142E+02 -0.17965063214E+03  0.20210631294E+03  0.00000000000E+00 0.  1.
         21    1    1    2  502  501  0.29694404668E+02 -0.11367373389E+03 -0.10905249154E+03  0.16029947397E+03  0.00000000000E+00 0.  1.
<scales pt_clust_5="13000.00000" pt_clust_6="13000.00000" pt_clust_7="13000.00000" pt_clust_8="13000.00000" pt_clust_9="88.93856"></scales>
<clustering>
<clus scale="   91.315">  5  6 -1 -1</clus>
<clus scale="   96.237">  7  8 -1 -1</clus>
<clus scale="  109.617">  1  5  2 -1</clus>
<clus scale="   88.939">  1  9  2 -1</clus>
<clus scale="  109.617">  1  5  2 -1</clus>
</clustering>
</event>
<event>
 9    1  0.1175034E-005  0.1841920E+03  0.7546771E-02  0.1167654E+00
          1   -1    0    0  502    0  0.00000000000E+00  0.00000000000E+00  0.58659444682E+03  0.58659444682E+03  0.00000000000E+00 0. -1.
         -1   -1    0    0    0  501 -0.00000000000E+00 -0.00000000000E+00 -0.67400247162E+02  0.67400247162E+02  0.00000000000E+00 0.  1.
         23    2    1    2    0    0  0.11917790264E+03 -0.51632701631E+02  0.12080142956E+03  0.19917949735E+03  0.90610034891E+02 0.  0.
         23    2    1    2    0    0 -0.12962344724E+03  0.74597076477E+02  0.37516790302E+03  0.42052428873E+03  0.11714418493E+03 0.  0.
        -11    1    3    3    0    0  0.42547335908E+02  0.23292527749E+02  0.55370232286E+02  0.73611685657E+02  0.00000000000E+00 0. -1.
         11    1    3    3    0    0  0.76630566733E+02 -0.74925229379E+02  0.65431197278E+02  0.12556781169E+03  0.00000000000E+00 0.  1.
        -11    1    4    4    0    0 -0.70646033712E+02 -0.51369007437E+01  0.69758963269E+02  0.99416109282E+02  0.00000000000E+00 0.  1.
         11    1    4    4    0    0 -0.58977413531E+02  0.79733977221E+02  0.30540893975E+03  0.32110817945E+03  0.00000000000E+00 0. -1.
         21    1    1    2  502  501  0.10445544602E+02 -0.22964374846E+02  0.23224867071E+02  0.34290907899E+02  0.00000000000E+00 0. -1.
<scales pt_clust_5="13000.00000" pt_clust_6="13000.00000" pt_clust_7="13000.00000" pt_clust_8="13000.00000" pt_clust_9="25.22839"></scales>
<clustering>
<clus scale="   25.228">  2  9  1 -1</clus>
<clus scale="   90.610">  5  6 -1 -1</clus>
<clus scale="  117.144">  7  8 -1 -1</clus>
<clus scale="  168.565">  2  5  1 -1</clus>
<clus scale="  184.192">  1  5  2 -1</clus>
</clustering>
</event>
<event>
 9    1  0.1175034E-005  0.1258468E+03  0.7546771E-02  0.1234730E+00
          1   -1    0    0  502    0  0.00000000000E+00  0.00000000000E+00  0.35783886773E+03  0.35783886773E+03  0.00000000000E+00 0. -1.
         -1   -1    0    0    0  501 -0.00000000000E+00 -0.00000000000E+00 -0.60559553617E+02  0.60559553617E+02  0.00000000000E+00 0.  1.
         23    2    1    2    0    0 -0.94022290359E+02  0.55666052484E+02  0.13855354381E+03  0.19815763154E+03  0.90169074251E+02 0.  0.
         23    2    1    2    0    0  0.57047551230E+02 -0.45257036992E+02  0.12939637085E+03  0.17191178599E+03  0.86646516818E+02 0.  0.
        -11    1    3    3    0    0 -0.20733428421E+02  0.41099813720E+02  0.10805292704E+03  0.11745000972E+03  0.00000000000E+00 0. -1.
         11    1    3    3    0    0 -0.73288861938E+02  0.14566238764E+02  0.30500616770E+02  0.80707621817E+02  0.00000000000E+00 0.  1.
        -13    1    4    4    0    0  0.19964916535E+02 -0.44088391498E+02  0.13535050427E+02  0.50255166373E+02  0.00000000000E+00 0.  1.
         13    1    4    4    0    0  0.37082634694E+02 -0.11686454943E+01  0.11586132042E+03  0.12165661962E+03  0.00000000000E+00 0. -1.
         21    1    1    2  502  501  0.36974739130E+02 -0.10409015492E+02  0.29329399460E+02  0.48329003817E+02  0.00000000000E+00 0.  1.
<scales pt_clust_5="13000.00000" pt_clust_6="13000.00000" pt_clust_7="13000.00000" pt_clust_8="13000.00000" pt_clust_9="38.41196"></scales>
<clustering>
<clus scale="   38.412">  2  9  1 -1</clus>
<clus scale="   86.647">  7  8 -1 -1</clus>
<clus scale="   90.169">  5  6 -1 -1</clus>
<clus scale="  123.347">  1  7  2 -1</clus>
<clus scale="  123.347">  1  5  2 -1</clus>
</clustering>
</event>
<event>
 9    1  0.1175034E-005  0.1137410E+03  0.7546771E-02  0.1253828E+00
          1   -1    0    0  502    0  0.00000000000E+00  0.00000000000E+00  0.26232118083E+03  0.26232118083E+03  0.00000000000E+00 0. -1.
         -1   -1    0    0    0  501 -0.00000000000E+00 -0.00000000000E+00 -0.68830408756E+02  0.68830408756E+02  0.00000000000E+00 0.  1.
         23    2    1    2    0    0  0.43724834871E+02 -0.29678370778E+02  0.59052633888E+02  0.12085922291E+03  0.91252787995E+02 0.  0.
         23    2    1    2    0    0 -0.51435508512E+02  0.62209840565E+02  0.12701194034E+03  0.17604474735E+03  0.91345740366E+02 0.  0.
        -13    1    3    3    0    0 -0.27531574227E+01 -0.42501387683E+02 -0.25088254754E+01  0.42664294628E+02  0.00000000000E+00 0.  1.
         13    1    3    3    0    0  0.46477992294E+02  0.12823016906E+02  0.61561459363E+02  0.78194928283E+02  0.00000000000E+00 0. -1.
        -13    1    4    4    0    0 -0.36703358725E+02  0.15329204908E+02 -0.87808156318E-01  0.39775982390E+02  0.00000000000E+00 0.  1.
         13    1    4    4    0    0 -0.14732149787E+02  0.46880635657E+02  0.12709974850E+03  0.13626876496E+03  0.00000000000E+00 0. -1.
         21    1    1    2  502  501  0.77106736408E+01 -0.32531469787E+02  0.74261978409E+01  0.34247619317E+02  0.00000000000E+00 0.  1.
<scales pt_clust_5="13000.00000" pt_clust_6="13000.00000" pt_clust_7="13000.00000" pt_clust_8="13000.00000" pt_clust_9="33.43278"></scales>
<clustering>
<clus scale="   33.433">  2  9  1 -1</clus>
<clus scale="   91.253">  5  6 -1 -1</clus>
<clus scale="   91.346">  7  8 -1 -1</clus>
<clus scale="  113.666">  2  5  1 -1</clus>
<clus scale="  113.741">  1  5  2 -1</clus>
</clustering>
</event>
<event>
 9    1  0.1175034E-005  0.1290788E+03  0.7546771E-02  0.1230197E+00
          1   -1    0    0  502    0  0.00000000000E+00  0.00000000000E+00  0.18429859225E+03  0.18429859225E+03  0.00000000000E+00 0. -1.
         -1   -1    0    0    0  501 -0.00000000000E+00 -0.00000000000E+00 -0.21424883423E+03  0.21424883423E+03  0.00000000000E+00 0.  1.
         23    2    1    2    0    0  0.91975472628E+02 -0.68161843581E+02 -0.10354665217E+03  0.18147811725E+03  0.95429939630E+02 0.  0.
         23    2    1    2    0    0 -0.42271191561E+02  0.71166637868E+02  0.10219708845E+03  0.15964507096E+03  0.90502816598E+02 0.  0.
        -11    1    3    3    0    0  0.47538132497E+02  0.18916316933E+02 -0.38960094831E+02  0.64308553684E+02  0.00000000000E+00 0. -1.
         11    1    3    3    0    0  0.44437340131E+02 -0.87078160514E+02 -0.64586557340E+02  0.11716956356E+03  0.00000000000E+00 0.  1.
        -13    1    4    4    0    0 -0.40357367002E+02  0.92626253084E+02  0.82206107083E+02  0.13025430462E+03  0.00000000000E+00 0. -1.
         13    1    4    4    0    0 -0.19138245597E+01 -0.21459615215E+02  0.19990981365E+02  0.29390766332E+02  0.00000000000E+00 0.  1.
         21    1    1    2  502  501 -0.49704281067E+02 -0.30047942871E+01 -0.28600678259E+02  0.57424238279E+02  0.00000000000E+00 0. -1.
<scales pt_clust_5="13000.00000" pt_clust_6="13000.00000" pt_clust_7="13000.00000" pt_clust_8="13000.00000" pt_clust_9="49.79502"></scales>
<clustering>
<clus scale="   49.795">  2  9  1 -1</clus>
<clus scale="   90.503">  7  8 -1 -1</clus>
<clus scale="   95.430">  5  6 -1 -1</clus>
<clus scale="  125.480">  1  7  2 -1</clus>
<clus scale="  125.480">  1  5  2 -1</clus>
</clustering>
</event>
<event>
 9    1  0.1175034E-005  0.1043208E+03  0.7546771E-02  0.1271798E+00
          2   -1    0    0  502    0  0.00000000000E+00  0.00000000000E+00  0.59524842962E+03  0.59524842962E+03  0.00000000000E+00 0. -1.
         -2   -1    0    0    0  501 -0.00000000000E+00 -0.00000000000E+00 -0.84992548196E+02  0.84992548196E+02  0.00000000000E+00 0.  1.
         23    2    1    2    0    0  0.21801188061E+01 -0.44693540122E+02 -0.18527601220E+02  0.10309374133E+03  0.91009790945E+02 0.  0.
         23    2    1    2    0    0  0.45966289200E+02  0.10898844953E+03  0.37959351304E+03  0.40770828285E+03  0.90240937983E+02 0.  0.
        -11    1    4    4    0    0 -0.25470467795E+00  0.71596512771E+02  0.10725755319E+03  0.12895855238E+03  0.00000000000E+00 0.  1.
         11    1    4    4    0    0  0.46220993878E+02  0.37391936757E+02  0.27233595985E+03  0.27874973047E+03  0.00000000000E+00 0. -1.
        -11    1    3    3    0    0 -0.39150118501E+02 -0.10116542922E+00 -0.15842668838E+02  0.42234253504E+02  0.00000000000E+00 0.  1.
         11    1    3    3    0    0  0.41330237307E+02 -0.44592374693E+02 -0.26849323822E+01  0.60859487827E+02  0.00000000000E+00 0. -1.
         21    1    1    2  502  501 -0.48146408006E+02 -0.64294909405E+02  0.14918996961E+03  0.16943895364E+03  0.00000000000E+00 0.  1.
<scales pt_clust_5="13000.00000" pt_clust_6="13000.00000" pt_clust_7="13000.00000" pt_clust_8="13000.00000" pt_clust_9="80.32379"></scales>
<clustering>
<clus scale="   80.324">  1  9  2 -1</clus>
<clus scale="   90.241">  5  6 -1 -1</clus>
<clus scale="   91.010">  7  8 -1 -1</clus>
<clus scale="  103.651">  1  5  2 -1</clus>
<clus scale="   80.324">  1  5  2 -1</clus>
</clustering>
</event>
<event>
 9    1  0.1175034E-005  0.1113141E+03  0.7546771E-02  0.1258928E+00
          1   -1    0    0  502    0  0.00000000000E+00  0.00000000000E+00  0.51181434103E+03  0.51181434103E+03  0.00000000000E+00 0. -1.
         -1   -1    0    0    0  501 -0.00000000000E+00 -0.00000000000E+00 -0.13881156759E+03  0.13881156759E+03  0.00000000000E+00 0.  1.
         23    2    1    2    0    0  0.24251409061E+02  0.43870824184E+02  0.11287067017E+03  0.15238492393E+03  0.89266997271E+02 0.  0.
         23    2    1    2    0    0 -0.51630245387E+02 -0.48047401316E+02  0.36862846211E+03  0.38626552151E+03  0.91322916187E+02 0.  0.
        -13    1    3    3    0    0  0.55224549157E+02  0.10178267389E+02  0.69297798916E+02  0.89193794018E+02  0.00000000000E+00 0.  1.
         13    1    3    3    0    0 -0.30973140096E+02  0.33692556795E+02  0.43572871252E+02  0.63191129915E+02  0.00000000000E+00 0. -1.
        -13    1    4    4    0    0  0.13636060181E+02 -0.27821035847E+02  0.39932242732E+02  0.50542419634E+02  0.00000000000E+00 0.  1.
         13    1    4    4    0    0 -0.65266305568E+02 -0.20226365469E+02  0.32869621937E+03  0.33572310188E+03  0.00000000000E+00 0. -1.
         21    1    1    2  502  501  0.27378836326E+02  0.41765771322E+01 -0.10849635883E+03  0.11197546318E+03  0.00000000000E+00 0.  1.
<scales pt_clust_5="13000.00000" pt_clust_6="13000.00000" pt_clust_7="13000.00000" pt_clust_8="13000.00000" pt_clust_9="27.69557"></scales>
<clustering>
<clus scale="   27.696">  2  9  1 -1</clus>
<clus scale="   89.267">  5  6 -1 -1</clus>
<clus scale="   91.323">  7  8 -1 -1</clus>
<clus scale="  109.634">  2  5  1 -1</clus>
<clus scale="  111.314">  1  5  2 -1</clus>
</clustering>
</event>
<event>
 9    1  0.1175034E-005  0.9431681E+02  0.7546771E-02  0.1294969E+00
          2   -1    0    0  502    0  0.00000000000E+00  0.00000000000E+00  0.49715613045E+03  0.49715613045E+03  0.00000000000E+00 0. -1.
         -2   -1    0    0    0  501 -0.00000000000E+00 -0.00000000000E+00 -0.46067281072E+02  0.46067281072E+02  0.00000000000E+00 0.  1.
         23    2    1    2    0    0 -0.22689174121E+02  0.21347547582E+02  0.18971464312E+03  0.21325383462E+03  0.92276951387E+02 0.  0.
         23    2    1    2    0    0  0.87794366815E+00 -0.14995572724E+02  0.28406660527E+03  0.29786004044E+03  0.88324002819E+02 0.  0.
        -13    1    4    4    0    0  0.36862000507E+02  0.16693810664E+02  0.10634236192E+03  0.11378131804E+03  0.00000000000E+00 0.  1.
         13    1    4    4    0    0 -0.35984056839E+02 -0.31689383388E+02  0.17772424335E+03  0.18407872240E+03  0.00000000000E+00 0. -1.
        -13    1    3    3    0    0  0.22930506519E+02  0.40408631092E+02  0.11057441894E+03  0.11993901667E+03  0.00000000000E+00 0.  1.
         13    1    3    3    0    0 -0.45619680640E+02 -0.19061083510E+02  0.79140224176E+02  0.93314817949E+02  0.00000000000E+00 0. -1.
         21    1    1    2  502  501  0.21811230453E+02 -0.63519748582E+01 -0.22692399014E+02  0.32109536457E+02  0.00000000000E+00 0.  1.
<scales pt_clust_5="13000.00000" pt_clust_6="13000.00000" pt_clust_7="13000.00000" pt_clust_8="13000.00000" pt_clust_9="22.71734"></scales>
<clustering>
<clus scale="   22.717">  2  9  1 -1</clus>
<clus scale="   88.324">  5  6 -1 -1</clus>
<clus scale="   90.453">  1  5  2 -1</clus>
<clus scale="   92.277">  7  8 -1 -1</clus>
<clus scale="   90.453">  1  5  2 -1</clus>
</clustering>
</event>
<event>
 9    1  0.1175034E-005  0.9059683E+02  0.7546771E-02  0.1302293E+00
         -1   -1    0    0    0  501 -0.00000000000E+00  0.00000000000E+00  0.78386233511E+03  0.78386233511E+03  0.00000000000E+00 0.  1.
          1   -1    0    0  502    0  0.00000000000E+00 -0.00000000000E+00 -0.28568731309E+02  0.28568731309E+02  0.00000000000E+00 0. -1.
         23    2    1    2    0    0  0.35214507864E+02 -0.11443904044E+02  0.23813450118E+03  0.25668008212E+03  0.88349303319E+02 0.  0.
         23    2    1    2    0    0  0.38862942426E+02  0.16689973463E+01  0.13732127611E+03  0.16863369989E+03  0.89816913895E+02 0.  0.
        -11    1    4    4    0    0  0.12637251630E+02 -0.24111610437E+02  0.12777059057E+03  0.13063840822E+03  0.00000000000E+00 0.  1.
         11    1    4    4    0    0  0.26225690796E+02  0.25780607783E+02  0.95506855388E+01  0.37995291678E+02  0.00000000000E+00 0. -1.
        -13    1    3    3    0    0 -0.26063085165E+02 -0.74796867143E+01  0.12548702914E+03  0.12838311651E+03  0.00000000000E+00 0.  1.
         13    1    3    3    0    0  0.61277593029E+02 -0.39642173300E+01  0.11264747204E+03  0.12829696561E+03  0.00000000000E+00 0. -1.
         21    1    1    2  502  501 -0.74077450290E+02  0.97749066980E+01  0.37983782650E+03  0.38711728440E+03  0.00000000000E+00 0.  1.
<scales pt_clust_5="13000.00000" pt_clust_6="13000.00000" pt_clust_7="13000.00000" pt_clust_8="13000.00000" pt_clust_9="74.71959"></scales>
<clustering>
<clus scale="   74.720">  1  9  2 -1</clus>
<clus scale="   88.349">  7  8 -1 -1</clus>
<clus scale="   89.142">  1  7  2 -1</clus>
<clus scale="   89.817">  5  6 -1 -1</clus>
<clus scale="   90.597">  2  5  1 -1</clus>
</clustering>
</event>
<event>
 9    1  0.1175034E-005  0.1207841E+03  0.7546771E-02  0.1241824E+00
          1   -1    0    0  502    0  0.00000000000E+00  0.00000000000E+00  0.67418694124E+03  0.67418694124E+03  0.00000000000E+00 0. -1.
         -1   -1    0    0    0  501 -0.00000000000E+00 -0.00000000000E+00 -0.80911760330E+02  0.80911760330E+02  0.00000000000E+00 0.  1.
         23    2    1    2    0    0 -0.76776609045E+02 -0.36600451143E+02  0.50006633372E+02  0.13412014021E+03  0.90847718228E+02 0.  0.
         23    2    1    2    0    0  0.33356053707E+02  0.74395939937E+02  0.54967420109E+03  0.56305726997E+03  0.90798566755E+02 0.  0.
        -13    1    4    4    0    0 -0.19000018672E+01  0.83444385783E+02  0.33022470401E+03  0.34060964559E+03  0.00000000000E+00 0.  1.
         13    1    4    4    0    0  0.35256055574E+02 -0.90484458466E+01  0.21944949707E+03  0.22244762438E+03  0.00000000000E+00 0. -1.
        -13    1    3    3    0    0 -0.90870756670E+02 -0.15724412876E+02  0.56442379065E+02  0.10812258660E+03  0.00000000000E+00 0.  1.
         13    1    3    3    0    0  0.14094147625E+02 -0.20876038267E+02 -0.64357456929E+01  0.25997553608E+02  0.00000000000E+00 0. -1.
         21    1    1    2  502  501  0.43420555338E+02 -0.37795488794E+02 -0.64056535544E+01  0.57921291391E+02  0.00000000000E+00 0. -1.
<scales pt_clust_5="13000.00000" pt_clust_6="13000.00000" pt_clust_7="13000.00000" pt_clust_8="13000.00000" pt_clust_9="57.56599"></scales>
<clustering>
<clus scale="   57.566">  2  9  1 -1</clus>
<clus scale="   90.799">  5  6 -1 -1</clus>
<clus scale="   90.848">  7  8 -1 -1</clus>
<clus scale="  120.747">  1  5  2 -1</clus>
<clus scale="  120.747">  1  5  2 -1</clus>
</clustering>
</event>
<event>
 9    1  0.1175034E-005  0.1230340E+03  0.7546771E-02  0.1239675E+00
         -1   -1    0    0    0  501 -0.00000000000E+00  0.00000000000E+00  0.71972238898E+02  0.71972238898E+02  0.00000000000E+00 0.  1.
          1   -1    0    0  502    0  0.00000000000E+00 -0.00000000000E+00 -0.29813256615E+03  0.29813256615E+03  0.00000000000E+00 0. -1.
         23    2    1    2    0    0  0.61693865815E+02 -0.12679335977E+02 -0.65968420722E+02  0.12839377290E+03  0.90367193975E+02 0.  0.
         23    2    1    2    0    0 -0.78706586772E+02  0.46127047897E+02 -0.15552648120E+03  0.20389637493E+03  0.95198813054E+02 0.  0.
        -11    1    3    3    0    0 -0.19838043943E+01 -0.37347927595E+02 -0.67504871477E+01  0.38004897741E+02  0.00000000000E+00 0. -1.
         11    1    3    3    0    0  0.63677670210E+02  0.24668591618E+02 -0.59217933574E+02  0.90388875159E+02  0.00000000000E+00 0.  1.
        -13    1    4    4    0    0 -0.47286843726E+01  0.49288636422E+02 -0.29242582503E+02  0.57505293388E+02  0.00000000000E+00 0.  1.
         13    1    4    4    0    0 -0.73977902399E+02 -0.31615885247E+01 -0.12628389870E+03  0.14639108154E+03  0.00000000000E+00 0. -1.
         21    1    1    2  502  501  0.17012720956E+02 -0.33447711920E+02 -0.46654253327E+01  0.37814657218E+02  0.00000000000E+00 0. -1.
<scales pt_clust_5="13000.00000" pt_clust_6="13000.00000" pt_clust_7="13000.00000" pt_clust_8="13000.00000" pt_clust_9="37.52575"></scales>
<clustering>
<clus scale="   37.526">  1  9  2 -1</clus>
<clus scale="   90.367">  5  6 -1 -1</clus>
<clus scale="   95.199">  7  8 -1 -1</clus>
<clus scale="  119.335">  1  5  2 -1</clus>
<clus scale="  123.034">  2  5  1 -1</clus>
</clustering>
</event>
<event>
 9    1  0.1175034E-005  0.1575593E+03  0.7546771E-02  0.1191582E+00
          1   -1    0    0  502    0  0.00000000000E+00  0.00000000000E+00  0.23205339841E+03  0.23205339841E+03  0.00000000000E+00 0. -1.
         -1   -1    0    0    0  501 -0.00000000000E+00 -0.00000000000E+00 -0.20398478220E+03  0.20398478220E+03  0.00000000000E+00 0.  1.
         23    2    1    2    0    0  0.86301855256E+02  0.44022164347E+02 -0.88191560049E+02  0.15986706404E+03  0.91617496841E+02 0.  0.
         23    2    1    2    0    0 -0.12923363099E+03 -0.47294133607E+02  0.14882117170E+03  0.22218906793E+03  0.91006452024E+02 0.  0.
        -11    1    3    3    0    0 -0.66059909017E+01  0.39474952708E+02 -0.21710709228E+02  0.45533129722E+02  0.00000000000E+00 0. -1.
         11    1    3    3    0    0  0.92907846158E+02  0.45472116387E+01 -0.66480850821E+02  0.11433393432E+03  0.00000000000E+00 0.  1.
        -11    1    4    4    0    0 -0.74519462943E+02 -0.32516782689E+01  0.12932753679E+03  0.14929613371E+03  0.00000000000E+00 0. -1.
         11    1    4    4    0    0 -0.54714168045E+02 -0.44042455338E+02  0.19493634909E+02  0.72892934219E+02  0.00000000000E+00 0.  1.
         21    1    1    2  502  501  0.42931775732E+02  0.32719692598E+01 -0.32560995449E+02  0.53982048636E+02  0.00000000000E+00 0.  1.
<scales pt_clust_5="13000.00000" pt_clust_6="13000.00000" pt_clust_7="13000.00000" pt_clust_8="13000.00000" pt_clust_9="43.05628"></scales>
<clustering>
<clus scale="   43.056">  2  9  1 -1</clus>
<clus scale="   91.006">  7  8 -1 -1</clus>
<clus scale="   91.617">  5  6 -1 -1</clus>
<clus scale="  157.205">  1  7  2 -1</clus>
<clus scale="  157.205">  1  5  2 -1</clus>
</clustering>
</event>
<event>
 9    1  0.1175034E-005  0.1049782E+03  0.7546771E-02  0.1279740E+00
          3   -1    0    0  502    0  0.00000000000E+00  0.00000000000E+00  0.26410990412E+03  0.26410990412E+03  0.00000000000E+00 0. -1.
         -3   -1    0    0    0  501 -0.00000000000E+00 -0.00000000000E+00 -0.16707333365E+03  0.16707333365E+03  0.00000000000E+00 0.  1.
         23    2    1    2    0    0 -0.54525377795E+02  0.72894523166E+02  0.11624957340E+03  0.17666002185E+03  0.96995730169E+02 0.  0.
         23    2    1    2    0    0  0.80601707258E+01 -0.13038418010E+02  0.91134988107E+02  0.12066340897E+03  0.77582894448E+02 0.  0.
        -11    1    4    4    0    0 -0.18867930107E+02 -0.37006802604E+02  0.60312134486E+02  0.73232887365E+02  0.00000000000E+00 0.  1.
         11    1    4    4    0    0  0.26928100833E+02  0.23968384594E+02  0.30822853620E+02  0.47430521606E+02  0.00000000000E+00 0. -1.
        -11    1    3    3    0    0 -0.28573784750E+02 -0.21081180442E+02  0.29695966959E+02  0.46289607877E+02  0.00000000000E+00 0.  1.
         11    1    3    3    0    0 -0.25951593045E+02  0.93975703607E+02  0.86553606445E+02  0.13037041397E+03  0.00000000000E+00 0. -1.
         21    1    1    2  502  501  0.46465207069E+02 -0.59856105156E+02 -0.11034799104E+03  0.13385980696E+03  0.00000000000E+00 0.  1.
<scales pt_clust_5="13000.00000" pt_clust_6="13000.00000" pt_clust_7="13000.00000" pt_clust_8="13000.00000" pt_clust_9="75.77446"></scales>
<clustering>
<clus scale="   75.774">  2  9  1 -1</clus>
<clus scale="   77.583">  5  6 -1 -1</clus>
<clus scale="   87.358">  1  5  2 -1</clus>
<clus scale="   96.996">  7  8 -1 -1</clus>
<clus scale="   87.358">  1  5  2 -1</clus>
</clustering>
</event>
<event>
 9    1  0.1175034E-005  0.1047387E+03  0.7546771E-02  0.1273823E+00
         -1   -1    0    0    0  501 -0.00000000000E+00  0.00000000000E+00  0.28065600747E+03  0.28065600747E+03  0.00000000000E+00 0.  1.
          1   -1    0    0  502    0  0.00000000000E+00 -0.00000000000E+00 -0.11159506713E+03  0.11159506713E+03  0.00000000000E+00 0. -1.
         23    2    1    2    0    0  0.64534291837E+02  0.20815790434E+02  0.96084523756E+02  0.14864062144E+03  0.90905592140E+02 0.  0.
         23    2    1    2    0    0 -0.14791701218E+02 -0.52027308589E+02 -0.46921260693E+02  0.11010413419E+03  0.83640184100E+02 0.  0.
        -11    1    3    3    0    0  0.25109742586E+01  0.36812621303E+02  0.70683721639E+02  0.79734952083E+02  0.00000000000E+00 0.  1.
         11    1    3    3    0    0  0.62023317579E+02 -0.15996830870E+02  0.25400802117E+02  0.68905669357E+02  0.00000000000E+00 0. -1.
        -13    1    4    4    0    0 -0.13558313741E+02 -0.74934918812E+02 -0.31210095914E+02  0.82299088791E+02  0.00000000000E+00 0. -1.
         13    1    4    4    0    0 -0.12333874766E+01  0.22907610223E+02 -0.15711164779E+02  0.27805045397E+02  0.00000000000E+00 0.  1.
         21    1    1    2  502  501 -0.49742590619E+02  0.31211518155E+02  0.11989767728E+03  0.13350631897E+03  0.00000000000E+00 0.  1.
<scales pt_clust_5="13000.00000" pt_clust_6="13000.00000" pt_clust_7="13000.00000" pt_clust_8="13000.00000" pt_clust_9="58.72380"></scales>
<clustering>
<clus scale="   58.724">  1  9  2 -1</clus>
<clus scale="   83.640">  7  8 -1 -1</clus>
<clus scale="   90.906">  5  6 -1 -1</clus>
<clus scale="   98.499">  2  7  1 -1</clus>
<clus scale="   98.499">  2  5  1 -1</clus>
</clustering>
</event>
<event>
 9    1  0.1175034E-005  0.1210262E+03  0.7546771E-02  0.1243202E+00
          1   -1    0    0  502    0  0.00000000000E+00  0.00000000000E+00  0.31346299539E+03  0.31346299539E+03  0.00000000000E+00 0. -1.
         -1   -1    0    0    0  501 -0.00000000000E+00 -0.00000000000E+00 -0.71868369800E+02  0.71868369800E+02  0.00000000000E+00 0.  1.
         23    2    1    2    0    0  0.75206303498E+02  0.52785755170E+02  0.14535896746E+03  0.19446312503E+03  0.90798422575E+02 0.  0.
         23    2    1    2    0    0 -0.49185931217E+02 -0.25708020449E+02  0.10436616421E+03  0.15244469763E+03  0.96264902529E+02 0.  0.
        -11    1    3    3    0    0  0.45780228805E+02  0.42832301818E+02  0.15044551310E+03  0.16298554489E+03  0.00000000000E+00 0. -1.
         11    1    3    3    0    0  0.29426074693E+02  0.99534533518E+01 -0.50865456424E+01  0.31477580149E+02  0.00000000000E+00 0.  1.
        -11    1    4    4    0    0 -0.18610505603E+02 -0.55258732555E+02  0.27204933333E+02  0.64342729504E+02  0.00000000000E+00 0.  1.
         11    1    4    4    0    0 -0.30575425614E+02  0.29550712106E+02  0.77161230876E+02  0.88101968127E+02  0.00000000000E+00 0. -1.
         21    1    1    2  502  501 -0.26020372281E+02 -0.27077734721E+02 -0.81305060772E+01  0.38423542527E+02  0.00000000000E+00 0.  1.
<scales pt_clust_5="13000.00000" pt_clust_6="13000.00000" pt_clust_7="13000.00000" pt_clust_8="13000.00000" pt_clust_9="37.55348"></scales>
<clustering>
<clus scale="   37.553">  2  9  1 -1</clus>
<clus scale="   90.798">  5  6 -1 -1</clus>
<clus scale="   96.265">  7  8 -1 -1</clus>
<clus scale="  116.725">  2  5  1 -1</clus>
<clus scale="  121.026">  1  5  2 -1</clus>
</clustering>
</event>
<event>
 9    1  0.1175034E-005  0.1174764E+03  0.7546771E-02  0.1252368E+00
         -1   -1    0    0    0  501 -0.00000000000E+00  0.00000000000E+00  0.99099356035E+02  0.99099356035E+02  0.00000000000E+00 0.  1.
          1   -1    0    0  502    0  0.00000000000E+00 -0.00000000000E+00 -0.24491486455E+03  0.24491486455E+03  0.00000000000E+00 0. -1.
         23    2    1    2    0    0  0.82243704308E+01  0.18639922192E+02  0.14211545591E+02  0.95002956086E+02  0.91697909838E+02 0.  0.
         23    2    1    2    0    0  0.15749802927E+02 -0.67364901103E+02 -0.14694140341E+03  0.19315324080E+03  0.10454813343E+03 0.  0.
        -11    1    4    4    0    0 -0.74356950669E+01  0.26471824934E+02 -0.44493781414E+02  0.52304336924E+02  0.00000000000E+00 0.  1.
         11    1    4    4    0    0  0.23185497994E+02 -0.93836726037E+02 -0.10244762199E+03  0.14084890387E+03  0.00000000000E+00 0. -1.
        -13    1    3    3    0    0 -0.20435401220E+02  0.27717274904E+02 -0.27162925892E+02  0.43859747995E+02  0.00000000000E+00 0. -1.
         13    1    3    3    0    0  0.28659771651E+02 -0.90773527124E+01  0.41374471483E+02  0.51143208091E+02  0.00000000000E+00 0.  1.
         21    1    1    2  502  501 -0.23974173357E+02  0.48724978911E+02 -0.13085650703E+02  0.55858023706E+02  0.00000000000E+00 0. -1.
<scales pt_clust_5="13000.00000" pt_clust_6="13000.00000" pt_clust_7="13000.00000" pt_clust_8="13000.00000" pt_clust_9="54.30363"></scales>
<clustering>
<clus scale="   54.304">  1  9  2 -1</clus>
<clus scale="   91.698">  7  8 -1 -1</clus>
<clus scale="  104.548">  5  6 -1 -1</clus>
<clus scale="  106.202">  1  7  2 -1</clus>
<clus scale="  117.476">  2  5  1 -1</clus>
</clustering>
</event>
<event>
 9    1  0.1175034E-005  0.1029133E+03  0.7546771E-02  0.1274743E+00
         -2   -1    0    0    0  501 -0.00000000000E+00  0.00000000000E+00  0.95674233440E+02  0.95674233440E+02  0.00000000000E+00 0.  1.
          2   -1    0    0  502    0  0.00000000000E+00 -0.00000000000E+00 -0.29493042458E+03  0.29493042458E+03  0.00000000000E+00 0. -1.
         23    2    1    2    0    0 -0.28079686188E+02 -0.21006393590E+01 -0.48815018147E+02  0.10781324994E+03  0.91912509505E+02 0.  0.
         23    2    1    2    0    0  0.50832852570E+02  0.20920511770E+02 -0.19921828696E+03  0.22577298101E+03  0.90905810492E+02 0.  0.
        -11    1    4    4    0    0  0.40988098836E+02 -0.32243587986E+02 -0.99700742376E+02  0.11251627101E+03  0.00000000000E+00 0.  1.
         11    1    4    4    0    0  0.98447537337E+01  0.53164099756E+02 -0.99517544587E+02  0.11325671000E+03  0.00000000000E+00 0. -1.
        -11    1    3    3    0    0 -0.62090970949E+02 -0.14338331980E+01 -0.31087750349E+02  0.69453529592E+02  0.00000000000E+00 0.  1.
         11    1    3    3    0    0  0.34011284761E+02 -0.66680616101E+00 -0.17727267798E+02  0.38359720347E+02  0.00000000000E+00 0. -1.
         21    1    1    2  502  501 -0.22753166382E+02 -0.18819872411E+02  0.48777113971E+02  0.57018427068E+02  0.00000000000E+00 0.  1.
<scales pt_clust_5="13000.00000" pt_clust_6="13000.00000" pt_clust_7="13000.00000" pt_clust_8="13000.00000" pt_clust_9="29.52785"></scales>
<clustering>
<clus scale="   29.528">  1  9  2 -1</clus>
<clus scale="   90.906">  5  6 -1 -1</clus>
<clus scale="   91.913">  7  8 -1 -1</clus>
<clus scale="  102.015">  2  5  1 -1</clus>
<clus scale="  102.015">  2  5  1 -1</clus>
</clustering>
</event>
<event>
 9    1  0.1175034E-005  0.9154027E+02  0.7546771E-02  0.1299227E+00
          2   -1    0    0  502    0  0.00000000000E+00  0.00000000000E+00  0.10748939895E+03  0.10748939895E+03  0.00000000000E+00 0. -1.
         -2   -1    0    0    0  501 -0.00000000000E+00 -0.00000000000E+00 -0.12435872468E+03  0.12435872468E+03  0.00000000000E+00 0.  1.
         23    2    1    2    0    0 -0.11831826224E+02  0.81080569811E+01 -0.20643254338E+01  0.92560903984E+02  0.91419509991E+02 0.  0.
         23    2    1    2    0    0 -0.61457160716E+01  0.52664308887E+01  0.23562810459E+02  0.94855723449E+02  0.91525390543E+02 0.  0.
        -13    1    3    3    0    0  0.37003428672E+01  0.46669983227E+02  0.12592428784E+02  0.48480399487E+02  0.00000000000E+00 0. -1.
         13    1    3    3    0    0 -0.15532169092E+02 -0.38561926246E+02 -0.14656754218E+02  0.44080504497E+02  0.00000000000E+00 0.  1.
        -13    1    4    4    0    0 -0.44370307552E+02 -0.16803424910E+02  0.16022200645E+02  0.50077841352E+02  0.00000000000E+00 0.  1.
         13    1    4    4    0    0  0.38224591480E+02  0.22069855799E+02  0.75406098140E+01  0.44777882098E+02  0.00000000000E+00 0. -1.
         21    1    1    2  502  501  0.17977542296E+02 -0.13374487870E+02 -0.38367810748E+02  0.44431496198E+02  0.00000000000E+00 0. -1.
<scales pt_clust_5="13000.00000" pt_clust_6="13000.00000" pt_clust_7="13000.00000" pt_clust_8="13000.00000" pt_clust_9="22.40690"></scales>
<clustering>
<clus scale="   22.407">  2  9  1 -1</clus>
<clus scale="   91.420">  5  6 -1 -1</clus>
<clus scale="   91.434">  2  5  1 -1</clus>
<clus scale="   91.525">  7  8 -1 -1</clus>
<clus scale="   91.540">  1  5  2 -1</clus>
</clustering>
</event>
<event>
 9    1  0.1175034E-005  0.1443276E+03  0.7546771E-02  0.1208291E+00
         -1   -1    0    0    0  501 -0.00000000000E+00  0.00000000000E+00  0.18369940238E+03  0.18369940238E+03  0.00000000000E+00 0.  1.
          1   -1    0    0  502    0  0.00000000000E+00 -0.00000000000E+00 -0.15048554000E+03  0.15048554000E+03  0.00000000000E+00 0. -1.
         23    2    1    2    0    0 -0.86457804319E+02  0.86065790491E+02  0.13680961615E+02  0.15463151062E+03  0.94029054794E+02 0.  0.
         23    2    1    2    0    0  0.79672056054E+02 -0.61820051943E+02 -0.15286325409E+02  0.13658506282E+03  0.90843009107E+02 0.  0.
        -11    1    3    3    0    0 -0.43582063260E+02  0.86045324747E+02 -0.21908019111E+02  0.98909834952E+02  0.00000000000E+00 0. -1.
         11    1    3    3    0    0 -0.42875741059E+02  0.20465744805E-01  0.35588980726E+02  0.55721675669E+02  0.00000000000E+00 0.  1.
        -13    1    4    4    0    0  0.53427106521E+00 -0.33643128452E+02  0.26435908482E+02  0.42790218448E+02  0.00000000000E+00 0.  1.
         13    1    4    4    0    0  0.79137784988E+02 -0.28176923491E+02 -0.41722233891E+02  0.93794844374E+02  0.00000000000E+00 0. -1.
         21    1    1    2  502  501  0.67857482657E+01 -0.24245738549E+02  0.34819226176E+02  0.42968368933E+02  0.00000000000E+00 0.  1.
<scales pt_clust_5="13000.00000" pt_clust_6="13000.00000" pt_clust_7="13000.00000" pt_clust_8="13000.00000" pt_clust_9="25.17741"></scales>
<clustering>
<clus scale="   25.177">  1  9  2 -1</clus>
<clus scale="   90.843">  7  8 -1 -1</clus>
<clus scale="   94.029">  5  6 -1 -1</clus>
<clus scale="  142.272">  2  7  1 -1</clus>
<clus scale="  142.272">  2  5  1 -1</clus>
</clustering>
</event>
<event>
 9    1  0.1175034E-005  0.9781948E+02  0.7546771E-02  0.1285214E+00
          1   -1    0    0  502    0  0.00000000000E+00  0.00000000000E+00  0.36655367127E+03  0.36655367127E+03  0.00000000000E+00 0. -1.
         -1   -1    0    0    0  501 -0.00000000000E+00 -0.00000000000E+00 -0.43255963326E+02  0.43255963326E+02  0.00000000000E+00 0.  1.
         23    2    1    2    0    0 -0.48425080301E+02  0.20367038354E+01  0.17256031710E+03  0.20082492465E+03  0.90578423248E+02 0.  0.
         23    2    1    2    0    0  0.23732037271E+02  0.43272417610E+01  0.15664538991E+03  0.18280932780E+03  0.91101797664E+02 0.  0.
        -11    1    3    3    0    0 -0.54476998522E+02  0.36546572581E+02  0.13068304594E+03  0.14622398515E+03  0.00000000000E+00 0.  1.
         11    1    3    3    0    0  0.60519182207E+01 -0.34509868746E+02  0.41877271158E+02  0.54600939503E+02  0.00000000000E+00 0. -1.
        -13    1    4    4    0    0 -0.60950635304E+01  0.21623581144E+02  0.53286696299E-01  0.22466239125E+02  0.00000000000E+00 0.  1.
         13    1    4    4    0    0  0.29827100801E+02 -0.17296339383E+02  0.15659210321E+03  0.16034308867E+03  0.00000000000E+00 0. -1.
         21    1    1    2  502  501  0.24693043030E+02 -0.63639455963E+01 -0.59079990603E+01  0.26175382147E+02  0.00000000000E+00 0.  1.
<scales pt_clust_5="13000.00000" pt_clust_6="13000.00000" pt_clust_7="13000.00000" pt_clust_8="13000.00000" pt_clust_9="25.49993"></scales>
<clustering>
<clus scale="   25.500">  2  9  1 -1</clus>
<clus scale="   90.578">  5  6 -1 -1</clus>
<clus scale="   91.102">  7  8 -1 -1</clus>
<clus scale="   97.332">  2  5  1 -1</clus>
<clus scale="   97.819">  1  5  2 -1</clus>
</clustering>
</event>
<event>
 9    1  0.1175034E-005  0.1367654E+03  0.7546771E-02  0.1217910E+00
          1   -1    0    0  502    0  0.00000000000E+00  0.00000000000E+00  0.29297675933E+03  0.29297675933E+03  0.00000000000E+00 0. -1.
         -1   -1    0    0    0  501 -0.00000000000E+00 -0.00000000000E+00 -0.32358356674E+03  0.32358356674E+03  0.00000000000E+00 0.  1.
         23    2    1    2    0    0  0.10887804501E+03 -0.69834553040E+02 -0.24778668008E+03  0.29451442200E+03  0.92785841917E+02 0.  0.
         23    2    1    2    0    0 -0.92781505304E+02  0.31935679387E+02  0.23952121048E+03  0.27519978801E+03  0.93467736163E+02 0.  0.
        -13    1    4    4    0    0 -0.98529753836E+02  0.53794053351E+02  0.18847070218E+03  0.21936982050E+03  0.00000000000E+00 0. -1.
         13    1    4    4    0    0  0.57482485327E+01 -0.21858373964E+02  0.51050508305E+02  0.55829967506E+02  0.00000000000E+00 0.  1.
        -13    1    3    3    0    0  0.51139287980E+02  0.68839167201E+01 -0.38914008709E+02  0.64629058158E+02  0.00000000000E+00 0. -1.
         13    1    3    3    0    0  0.57738757033E+02 -0.76718469760E+02 -0.20887267137E+03  0.22988536385E+03  0.00000000000E+00 0.  1.
         21    1    1    2  502  501 -0.16096539710E+02  0.37898873653E+02 -0.22341337810E+02  0.46846116061E+02  0.00000000000E+00 0.  1.
<scales pt_clust_5="13000.00000" pt_clust_6="13000.00000" pt_clust_7="13000.00000" pt_clust_8="13000.00000" pt_clust_9="41.17552"></scales>
<clustering>
<clus scale="   41.176">  2  9  1 -1</clus>
<clus scale="   92.786">  7  8 -1 -1</clus>
<clus scale="   93.468">  5  6 -1 -1</clus>
<clus scale="  136.300">  2  7  1 -1</clus>
<clus scale="  136.765">  1  5  2 -1</clus>
</clustering>
</event>
<event>
 9    1  0.1175034E-005  0.9806402E+02  0.7546771E-02  0.1293923E+00
          2   -1    0    0  502    0  0.00000000000E+00  0.00000000000E+00  0.43395806565E+03  0.43395806565E+03  0.00000000000E+00 0. -1.
         -2   -1    0    0    0  501 -0.00000000000E+00 -0.00000000000E+00 -0.15063496397E+03  0.15063496397E+03  0.00000000000E+00 0.  1.
         23    2    1    2    0    0 -0.36597934034E+02  0.41275178507E+02 -0.50045279542E+02  0.11901664445E+03  0.92829857887E+02 0.  0.
         23    2    1    2    0    0  0.24531337784E+02 -0.18114195396E+02  0.39251855975E+03  0.40091745304E+03  0.75723667381E+02 0.  0.
        -13    1    4    4    0    0  0.50879525823E+02 -0.17320411824E+02  0.29721582963E+03  0.30203637562E+03  0.00000000000E+00 0. -1.
         13    1    4    4    0    0 -0.26348188039E+02 -0.79378357213E+00  0.95302730118E+02  0.98881077427E+02  0.00000000000E+00 0.  1.
        -13    1    3    3    0    0  0.18402725565E+02  0.48494188796E+02 -0.30670968980E+02  0.60258235897E+02  0.00000000000E+00 0.  1.
         13    1    3    3    0    0 -0.55000659600E+02 -0.72190102891E+01 -0.19374310562E+02  0.58758408553E+02  0.00000000000E+00 0. -1.
         21    1    1    2  502  501  0.12066596250E+02 -0.23160983111E+02 -0.59150178521E+02  0.64658932120E+02  0.00000000000E+00 0.  1.
<scales pt_clust_5="13000.00000" pt_clust_6="13000.00000" pt_clust_7="13000.00000" pt_clust_8="13000.00000" pt_clust_9="26.11578"></scales>
<clustering>
<clus scale="   26.116">  2  9  1 -1</clus>
<clus scale="   75.724">  5  6 -1 -1</clus>
<clus scale="   82.056">  1  5  2 -1</clus>
<clus scale="   92.830">  7  8 -1 -1</clus>
<clus scale="   82.056">  1  5  2 -1</clus>
</clustering>
</event>
<event>
 9    1  0.1175034E-005  0.1225328E+03  0.7546771E-02  0.1239653E+00
         -2   -1    0    0    0  501 -0.00000000000E+00  0.00000000000E+00  0.58537438363E+02  0.58537438363E+02  0.00000000000E+00 0.  1.
          2   -1    0    0  502    0  0.00000000000E+00 -0.00000000000E+00 -0.42696844213E+03  0.42696844213E+03  0.00000000000E+00 0. -1.
         23    2    1    2    0    0  0.82011738762E+02 -0.31653303783E+02 -0.20367927263E+03  0.24051839066E+03  0.92930044723E+02 0.  0.
         23    2    1    2    0    0 -0.61324305178E+02  0.28282874519E+02 -0.18312484046E+03  0.21711454869E+03  0.95096943483E+02 0.  0.
        -11    1    3    3    0    0  0.59386856022E+02 -0.30445669420E+02 -0.20711582074E+03  0.21760216142E+03  0.00000000000E+00 0. -1.
         11    1    3    3    0    0  0.22624882739E+02 -0.12076343630E+01  0.34365481083E+01  0.22916229241E+02  0.00000000000E+00 0.  1.
        -13    1    4    4    0    0 -0.81347223283E+02  0.34572561181E+02 -0.17194939233E+03  0.19333707934E+03  0.00000000000E+00 0.  1.
         13    1    4    4    0    0  0.20022918106E+02 -0.62896866621E+01 -0.11175448131E+02  0.23777469350E+02  0.00000000000E+00 0. -1.
         21    1    1    2  502  501 -0.20687433584E+02  0.33704292638E+01  0.18373109328E+02  0.27872941145E+02  0.00000000000E+00 0. -1.
<scales pt_clust_5="13000.00000" pt_clust_6="13000.00000" pt_clust_7="13000.00000" pt_clust_8="13000.00000" pt_clust_9="20.96019"></scales>
<clustering>
<clus scale="   20.960">  1  9  2 -1</clus>
<clus scale="   92.930">  5  6 -1 -1</clus>
<clus scale="   95.097">  7  8 -1 -1</clus>
<clus scale="  120.859">  1  5  2 -1</clus>
<clus scale="  122.533">  2  5  1 -1</clus>
</clustering>
</event>
<event>
 9    1  0.1175034E-005  0.1480431E+03  0.7546771E-02  0.1203992E+00
         -1   -1    0    0    0  501 -0.00000000000E+00  0.00000000000E+00  0.11566104716E+03  0.11566104716E+03  0.00000000000E+00 0.  1.
          1   -1    0    0  502    0  0.00000000000E+00 -0.00000000000E+00 -0.26690943369E+03  0.26690943369E+03  0.00000000000E+00 0. -1.
         23    2    1    2    0    0  0.17834145234E+02 -0.84746525979E+02 -0.29190949497E+02  0.12906576868E+03  0.91136330349E+02 0.  0.
         23    2    1    2    0    0 -0.76599689193E+01  0.13504243617E+03 -0.11411308254E+03  0.20157875322E+03  0.96524936950E+02 0.  0.
        -11    1    4    4    0    0 -0.24493111986E+01  0.10853609915E+03 -0.13067805226E+03  0.16989066274E+03  0.00000000000E+00 0. -1.
         11    1    4    4    0    0 -0.52106577207E+01  0.26506337017E+02  0.16564969726E+02  0.31688090475E+02  0.00000000000E+00 0.  1.
        -11    1    3    3    0    0 -0.19331270830E+02 -0.14588017611E+02  0.23525753823E+02  0.33763432626E+02  0.00000000000E+00 0.  1.
         11    1    3    3    0    0  0.37165416064E+02 -0.70158508368E+02 -0.52716703320E+02  0.95302336050E+02  0.00000000000E+00 0. -1.
         21    1    1    2  502  501 -0.10174176314E+02 -0.50295910190E+02 -0.79443544972E+01  0.51925958960E+02  0.00000000000E+00 0.  1.
<scales pt_clust_5="13000.00000" pt_clust_6="13000.00000" pt_clust_7="13000.00000" pt_clust_8="13000.00000" pt_clust_9="51.31464"></scales>
<clustering>
<clus scale="   51.315">  1  9  2 -1</clus>
<clus scale="   91.136">  7  8 -1 -1</clus>
<clus scale="   96.525">  5  6 -1 -1</clus>
<clus scale="  144.587">  1  7  2 -1</clus>
<clus scale="  148.043">  2  5  1 -1</clus>
</clustering>
</event>
<event>
 9    1  0.1175034E-005  0.9904808E+02  0.7546771E-02  0.1283277E+00
          2   -1    0    0  502    0  0.00000000000E+00  0.00000000000E+00  0.41143638871E+03  0.41143638871E+03  0.00000000000E+00 0. -1.
         -2   -1    0    0    0  501 -0.00000000000E+00 -0.00000000000E+00 -0.57406237358E+02  0.57406237358E+02  0.00000000000E+00 0.  1.
         23    2    1    2    0    0 -0.11558204559E+02  0.15778017166E+01  0.16789503106E+02  0.95223805067E+02  0.93003247717E+02 0.  0.
         23    2    1    2    0    0  0.48759131327E+01 -0.39869707582E+02  0.31144413026E+03  0.32696709634E+03  0.91086045611E+02 0.  0.
        -11    1    3    3    0    0  0.39605479119E+02 -0.65180579293E+01  0.16567593637E+02  0.43423083887E+02  0.00000000000E+00 0.  1.
         11    1    3    3    0    0 -0.51163683678E+02  0.80958596458E+01  0.22190946898E+00  0.51800721179E+02  0.00000000000E+00 0. -1.
        -13    1    4    4    0    0 -0.17702728586E+02  0.25070167047E+02  0.10320502937E+03  0.10767162097E+03  0.00000000000E+00 0.  1.
         13    1    4    4    0    0  0.22578641719E+02 -0.64939874629E+02  0.20823910089E+03  0.21929547537E+03  0.00000000000E+00 0. -1.
         21    1    1    2  502  501  0.66822914263E+01  0.38291905865E+02  0.25796517988E+02  0.46651724660E+02  0.00000000000E+00 0. -1.
<scales pt_clust_5="13000.00000" pt_clust_6="13000.00000" pt_clust_7="13000.00000" pt_clust_8="13000.00000" pt_clust_9="38.87059"></scales>
<clustering>
<clus scale="   38.871">  2  9  1 -1</clus>
<clus scale="   91.086">  7  8 -1 -1</clus>
<clus scale="   93.003">  5  6 -1 -1</clus>
<clus scale="   97.250">  1  7  2 -1</clus>
<clus scale="   97.250">  1  5  2 -1</clus>
</clustering>
</event>
<event>
 9    1  0.1175034E-005  0.1351433E+03  0.7546771E-02  0.1220485E+00
         -2   -1    0    0    0  501 -0.00000000000E+00  0.00000000000E+00  0.20801836767E+03  0.20801836767E+03  0.00000000000E+00 0.  1.
          2   -1    0    0  502    0  0.00000000000E+00 -0.00000000000E+00 -0.16889127720E+03  0.16889127720E+03  0.00000000000E+00 0. -1.
         23    2    1    2    0    0 -0.34973606574E+02  0.94097168557E+02  0.11609213151E+03  0.17913179482E+03  0.92376331537E+02 0.  0.
         23    2    1    2    0    0  0.48807928773E+01 -0.99008122861E+02 -0.93065029474E+02  0.16329735505E+03  0.90435037030E+02 0.  0.
        -13    1    4    4    0    0  0.29597208383E+02 -0.45339066365E+02 -0.13064368496E+01  0.54160247970E+02  0.00000000000E+00 0.  1.
         13    1    4    4    0    0 -0.24716415506E+02 -0.53669056496E+02 -0.91758592624E+02  0.10913710708E+03  0.00000000000E+00 0. -1.
        -13    1    3    3    0    0 -0.17224608190E+02 -0.11196751889E+02  0.48721138038E+02  0.52875359780E+02  0.00000000000E+00 0.  1.
         13    1    3    3    0    0 -0.17748998384E+02  0.10529392045E+03  0.67370993472E+02  0.12625643504E+03  0.00000000000E+00 0. -1.
         21    1    1    2  502  501  0.30092813696E+02  0.49109543034E+01  0.16099988428E+02  0.34480495004E+02  0.00000000000E+00 0.  1.
<scales pt_clust_5="13000.00000" pt_clust_6="13000.00000" pt_clust_7="13000.00000" pt_clust_8="13000.00000" pt_clust_9="30.49090"></scales>
<clustering>
<clus scale="   30.491">  1  9  2 -1</clus>
<clus scale="   90.435">  5  6 -1 -1</clus>
<clus scale="   92.376">  7  8 -1 -1</clus>
<clus scale="  133.824">  2  5  1 -1</clus>
<clus scale="  133.824">  2  5  1 -1</clus>
</clustering>
</event>
<event>
 9    1  0.1175034E-005  0.1391419E+03  0.7546771E-02  0.1232192E+00
         -2   -1    0    0    0  501 -0.00000000000E+00  0.00000000000E+00  0.16501625775E+03  0.16501625775E+03  0.00000000000E+00 0.  1.
          2   -1    0    0  502    0  0.00000000000E+00 -0.00000000000E+00 -0.44746256985E+03  0.44746256985E+03  0.00000000000E+00 0. -1.
         23    2    1    2    0    0 -0.41999097701E+02 -0.30254139477E+02  0.51445267536E+02  0.10904155006E+03  0.81019793407E+02 0.  0.
         23    2    1    2    0    0 -0.26865585580E+02 -0.53082309528E+02  0.37573158499E+02  0.11656086316E+03  0.92925783867E+02 0.  0.
        -11    1    4    4    0    0  0.11146794173E+02 -0.67740004220E+02  0.30871259042E+02  0.75272796062E+02  0.00000000000E+00 0.  1.
         11    1    4    4    0    0 -0.38012379754E+02  0.14657694692E+02  0.67018994564E+01  0.41288067096E+02  0.00000000000E+00 0. -1.
        -13    1    3    3    0    0 -0.61287112327E+02 -0.16160818894E+01  0.37043750822E+02  0.71630728971E+02  0.00000000000E+00 0. -1.
         13    1    3    3    0    0  0.19288014626E+02 -0.28638057588E+02  0.14401516715E+02  0.37410821085E+02  0.00000000000E+00 0.  1.
         21    1    1    2  502  501  0.68864683281E+02  0.83336449005E+02 -0.37146473813E+03  0.38687641439E+03  0.00000000000E+00 0. -1.
<scales pt_clust_5="13000.00000" pt_clust_6="13000.00000" pt_clust_7="13000.00000" pt_clust_8="13000.00000" pt_clust_9="103.56287"></scales>
<clustering>
<clus scale="   81.020">  7  8 -1 -1</clus>
<clus scale="   92.926">  5  6 -1 -1</clus>
<clus scale="   96.143">  1  7  2 -1</clus>
<clus scale="  103.563">  2  9  1 -1</clus>
<clus scale="  103.563">  2  5  1 -1</clus>
</clustering>
</event>
<event>
 9    1  0.1175034E-005  0.1322747E+03  0.7546771E-02  0.1225229E+00
          1   -1    0    0  502    0  0.00000000000E+00  0.00000000000E+00  0.14994684108E+03  0.14994684108E+03  0.00000000000E+00 0. -1.
         -1   -1    0    0    0  501 -0.00000000000E+00 -0.00000000000E+00 -0.25212160666E+03  0.25212160666E+03  0.00000000000E+00 0.  1.
         23    2    1    2    0    0 -0.51512661197E+02 -0.60801789354E+02 -0.15097603200E+03  0.19382710795E+03  0.91786565940E+02 0.  0.
         23    2    1    2    0    0  0.57144996119E+02  0.80088645556E+02  0.92029439119E+02  0.16057184289E+03  0.87373665004E+02 0.  0.
        -11    1    3    3    0    0 -0.95487842955E+01 -0.75588116996E+02 -0.10621547164E+03  0.13071522149E+03  0.00000000000E+00 0.  1.
         11    1    3    3    0    0 -0.41963876902E+02  0.14786327642E+02 -0.44760560357E+02  0.63111886465E+02  0.00000000000E+00 0. -1.
        -11    1    4    4    0    0  0.30033695672E+02 -0.20958504035E+01  0.62079933285E+02  0.68995170710E+02  0.00000000000E+00 0.  1.
         11    1    4    4    0    0  0.27111300448E+02  0.82184495959E+02  0.29949505835E+02  0.91576672181E+02  0.00000000000E+00 0. -1.
         21    1    1    2  502  501 -0.56323349222E+01 -0.19286856202E+02 -0.43228172707E+02  0.47669496897E+02  0.00000000000E+00 0.  1.
<scales pt_clust_5="13000.00000" pt_clust_6="13000.00000" pt_clust_7="13000.00000" pt_clust_8="13000.00000" pt_clust_9="20.09244"></scales>
<clustering>
<clus scale="   20.092">  2  9  1 -1</clus>
<clus scale="   87.374">  7  8 -1 -1</clus>
<clus scale="   91.787">  5  6 -1 -1</clus>
<clus scale="  129.252">  1  7  2 -1</clus>
<clus scale="  129.252">  1  5  2 -1</clus>
</clustering>
</event>
<event>
 9    1  0.1175034E-005  0.1565292E+03  0.7546771E-02  0.1210624E+00
          1   -1    0    0  502    0  0.00000000000E+00  0.00000000000E+00  0.54325717039E+03  0.54325717039E+03  0.00000000000E+00 0. -1.
         -1   -1    0    0    0  501 -0.00000000000E+00 -0.00000000000E+00 -0.36829408108E+03  0.36829408108E+03  0.00000000000E+00 0.  1.
         23    2    1    2    0    0 -0.88105498242E+02  0.12531343186E+03  0.40093461115E+03  0.43940779030E+03  0.94152051108E+02 0.  0.
         23    2    1    2    0    0  0.53164217478E+02 -0.58472747511E+01  0.85794301973E+02  0.13644868210E+03  0.91634905758E+02 0.  0.
        -11    1    3    3    0    0 -0.18614082128E+02  0.10212374457E+03  0.19633587432E+03  0.22208898848E+03  0.00000000000E+00 0.  1.
         11    1    3    3    0    0 -0.69491416114E+02  0.23189687292E+02  0.20459873683E+03  0.21731880182E+03  0.00000000000E+00 0. -1.
        -13    1    4    4    0    0 -0.18440228151E+02  0.16139829786E+02  0.44789799092E+02  0.51055481806E+02  0.00000000000E+00 0.  1.
         13    1    4    4    0    0  0.71604445629E+02 -0.21987104537E+02  0.41004502881E+02  0.85393200293E+02  0.00000000000E+00 0. -1.
         21    1    1    2  502  501  0.34941280764E+02 -0.11946615711E+03 -0.31176582382E+03  0.33569477907E+03  0.00000000000E+00 0.  1.
<scales pt_clust_5="13000.00000" pt_clust_6="13000.00000" pt_clust_7="13000.00000" pt_clust_8="13000.00000" pt_clust_9="125.04717"></scales>
<clustering>
<clus scale="   91.635">  7  8 -1 -1</clus>
<clus scale="   94.152">  5  6 -1 -1</clus>
<clus scale="  106.102">  1  7  2 -1</clus>
<clus scale="  125.047">  2  9  1 -1</clus>
<clus scale="  106.102">  1  5  2 -1</clus>
</clustering>
</event>
<event>
 9    1  0.1175034E-005  0.1027966E+03  0.7546771E-02  0.1276350E+00
          1   -1    0    0  502    0  0.00000000000E+00  0.00000000000E+00  0.19250519245E+03  0.19250519245E+03  0.00000000000E+00 0. -1.
         -1   -1    0    0    0  501 -0.00000000000E+00 -0.00000000000E+00 -0.11878362713E+03  0.11878362713E+03  0.00000000000E+00 0.  1.
         23    2    1    2    0    0  0.52557532785E+02  0.20607054948E+02 -0.14697676227E+02  0.10662817705E+03  0.89255820479E+02 0.  0.
         23    2    1    2    0    0 -0.30362316872E+02 -0.26421559058E+02  0.12528426002E+03  0.16123869354E+03  0.93176184825E+02 0.  0.
        -11    1    4    4    0    0 -0.29056694317E+01 -0.55187984957E+02  0.43613350788E+02  0.70400859124E+02  0.00000000000E+00 0.  1.
         11    1    4    4    0    0 -0.27456647441E+02  0.28766425899E+02  0.81670909228E+02  0.90837834418E+02  0.00000000000E+00 0. -1.
        -11    1    3    3    0    0  0.62677596882E+02  0.41554253853E+02  0.60665179079E+01  0.75445608247E+02  0.00000000000E+00 0.  1.
         11    1    3    3    0    0 -0.10120064097E+02 -0.20947198906E+02 -0.20764194135E+02  0.31182568807E+02  0.00000000000E+00 0. -1.
         21    1    1    2  502  501 -0.22195215913E+02  0.58145041109E+01 -0.36865018469E+02  0.43421948991E+02  0.00000000000E+00 0. -1.
<scales pt_clust_5="13000.00000" pt_clust_6="13000.00000" pt_clust_7="13000.00000" pt_clust_8="13000.00000" pt_clust_9="22.94419"></scales>
<clustering>
<clus scale="   22.944">  2  9  1 -1</clus>
<clus scale="   89.256">  7  8 -1 -1</clus>
<clus scale="   93.176">  5  6 -1 -1</clus>
<clus scale="   99.257">  2  7  1 -1</clus>
<clus scale="  102.797">  1  5  2 -1</clus>
</clustering>
</event>
<event>
 9    1  0.1175034E-005  0.1010984E+03  0.7546771E-02  0.1278327E+00
          1   -1    0    0  502    0  0.00000000000E+00  0.00000000000E+00  0.11333695660E+03  0.11333695660E+03  0.00000000000E+00 0. -1.
         -1   -1    0    0    0  501 -0.00000000000E+00 -0.00000000000E+00 -0.17138663866E+03  0.17138663866E+03  0.00000000000E+00 0.  1.
         23    2    1    2    0    0 -0.66221043058E+02 -0.42912019791E+01 -0.61064704407E+02  0.12977689552E+03  0.93324720889E+02 0.  0.
         23    2    1    2    0    0  0.21201822683E+02  0.19634890980E+02  0.26580751573E+02  0.10186654724E+03  0.93995802371E+02 0.  0.
        -11    1    3    3    0    0  0.17999096788E+02 -0.20174595345E+02 -0.53686525398E+01  0.27564546298E+02  0.00000000000E+00 0.  1.
         11    1    3    3    0    0 -0.84220139846E+02  0.15883393366E+02 -0.55696051867E+02  0.10221234922E+03  0.00000000000E+00 0. -1.
        -13    1    4    4    0    0  0.22735954717E+02 -0.25442840502E+02  0.42078580964E+02  0.54174428891E+02  0.00000000000E+00 0.  1.
         13    1    4    4    0    0 -0.15341320345E+01  0.45077731482E+02 -0.15497829391E+02  0.47692118348E+02  0.00000000000E+00 0. -1.
         21    1    1    2  502  501  0.45019220375E+02 -0.15343689001E+02 -0.23565729231E+02  0.53080152501E+02  0.00000000000E+00 0. -1.
<scales pt_clust_5="13000.00000" pt_clust_6="13000.00000" pt_clust_7="13000.00000" pt_clust_8="13000.00000" pt_clust_9="47.56216"></scales>
<clustering>
<clus scale="   47.562">  2  9  1 -1</clus>
<clus scale="   93.325">  5  6 -1 -1</clus>
<clus scale="   93.996">  7  8 -1 -1</clus>
<clus scale="  100.475">  2  5  1 -1</clus>
<clus scale="  101.098">  1  5  2 -1</clus>
</clustering>
</event>
<event>
 9    1  0.1175034E-005  0.1188146E+03  0.7546771E-02  0.1249091E+00
         -2   -1    0    0    0  501 -0.00000000000E+00  0.00000000000E+00  0.12305603926E+04  0.12305603926E+04  0.00000000000E+00 0.  1.
          2   -1    0    0  502    0  0.00000000000E+00 -0.00000000000E+00 -0.27385288355E+02  0.27385288355E+02  0.00000000000E+00 0. -1.
         23    2    1    2    0    0  0.33095797473E+02 -0.26148630791E+02  0.40556576598E+03  0.42073757240E+03  0.10371803890E+03 0.  0.
         23    2    1    2    0    0  0.46586318073E+02  0.73854263568E+02  0.23887071458E+03  0.27080373309E+03  0.93009173183E+02 0.  0.
        -11    1    4    4    0    0  0.69506747838E+02  0.77686023738E+02  0.19925298769E+03  0.22487342969E+03  0.00000000000E+00 0. -1.
         11    1    4    4    0    0 -0.22920429766E+02 -0.38317601698E+01  0.39617726889E+02  0.45930303401E+02  0.00000000000E+00 0.  1.
        -11    1    3    3    0    0  0.61198773245E+02 -0.46227523157E+02  0.30087771384E+03  0.31049906994E+03  0.00000000000E+00 0.  1.
         11    1    3    3    0    0 -0.28102975772E+02  0.20078892366E+02  0.10468805213E+03  0.11023850246E+03  0.00000000000E+00 0. -1.
         21    1    1    2  502  501 -0.79682115546E+02 -0.47705632777E+02  0.55873862370E+03  0.56640437547E+03  0.00000000000E+00 0.  1.
<scales pt_clust_5="13000.00000" pt_clust_6="13000.00000" pt_clust_7="13000.00000" pt_clust_8="13000.00000" pt_clust_9="92.87124"></scales>
<clustering>
<clus scale="   92.871">  1  9  2 -1</clus>
<clus scale="   93.009">  5  6 -1 -1</clus>
<clus scale="  103.718">  7  8 -1 -1</clus>
<clus scale="  109.591">  2  5  1 -1</clus>
<clus scale="  109.591">  2  5  1 -1</clus>
</clustering>
</event>
<event>
 9    1  0.1175034E-005  0.1189015E+03  0.7546771E-02  0.1252623E+00
         -2   -1    0    0    0  501 -0.00000000000E+00  0.00000000000E+00  0.95333003548E+02  0.95333003548E+02  0.00000000000E+00 0.  1.
          2   -1    0    0  502    0  0.00000000000E+00 -0.00000000000E+00 -0.21003820586E+03  0.21003820586E+03  0.00000000000E+00 0. -1.
         23    2    1    2    0    0  0.17641269807E+02 -0.58312101049E+02  0.11558388583E-01  0.10920609743E+03  0.90633636432E+02 0.  0.
         23    2    1    2    0    0  0.43624058634E+01  0.41414536775E+02 -0.12032032481E+03  0.16786159008E+03  0.10939076021E+03 0.  0.
        -13    1    4    4    0    0  0.20409859345E+02 -0.30819196340E+02 -0.16770634153E+02  0.40591124540E+02  0.00000000000E+00 0.  1.
         13    1    4    4    0    0 -0.16047453482E+02  0.72233733115E+02 -0.10354969066E+03  0.12727046554E+03  0.00000000000E+00 0. -1.
        -13    1    3    3    0    0 -0.18647518890E+02 -0.63781411455E+02  0.17259578723E+02  0.68656328664E+02  0.00000000000E+00 0.  1.
         13    1    3    3    0    0  0.36288788697E+02  0.54693104059E+01 -0.17248020334E+02  0.40549768765E+02  0.00000000000E+00 0. -1.
         21    1    1    2  502  501 -0.22003675671E+02  0.16897564274E+02  0.56035641082E+01  0.28303521903E+02  0.00000000000E+00 0. -1.
<scales pt_clust_5="13000.00000" pt_clust_6="13000.00000" pt_clust_7="13000.00000" pt_clust_8="13000.00000" pt_clust_9="27.74328"></scales>
<clustering>
<clus scale="   27.743">  1  9  2 -1</clus>
<clus scale="   90.634">  7  8 -1 -1</clus>
<clus scale="  101.910">  1  7  2 -1</clus>
<clus scale="  109.391">  5  6 -1 -1</clus>
<clus scale="  118.902">  2  5  1 -1</clus>
</clustering>
</event>
<event>
 9    1  0.1175034E-005  0.1037458E+03  0.7546771E-02  0.1274210E+00
          2   -1    0    0  502    0  0.00000000000E+00  0.00000000000E+00  0.60439663577E+03  0.60439663577E+03  0.00000000000E+00 0. -1.
         -2   -1    0    0    0  501 -0.00000000000E+00 -0.00000000000E+00 -0.24492687012E+02  0.24492687012E+02  0.00000000000E+00 0.  1.
         23    2    1    2    0    0  0.36885708034E+02  0.21757603414E+02  0.19007684549E+03  0.21293990361E+03  0.85908361619E+02 0.  0.
         23    2    1    2    0    0 -0.43708289949E+02 -0.52921151158E+02  0.29164041411E+03  0.31271018118E+03  0.89568205428E+02 0.  0.
        -11    1    4    4    0    0 -0.54378423071E+02 -0.70655124104E+02  0.26036075486E+03  0.27520334688E+03  0.00000000000E+00 0.  1.
         11    1    4    4    0    0  0.10670133123E+02  0.17733972945E+02  0.31279659241E+02  0.37506834304E+02  0.00000000000E+00 0. -1.
        -11    1    3    3    0    0  0.47818978348E+02  0.42201329798E+02  0.17230044807E+03  0.18372547817E+03  0.00000000000E+00 0. -1.
         11    1    3    3    0    0 -0.10933270315E+02 -0.20443726384E+02  0.17776397422E+02  0.29214425436E+02  0.00000000000E+00 0.  1.
         21    1    1    2  502  501  0.68225819151E+01  0.31163547744E+02  0.98186689165E+02  0.10323923799E+03  0.00000000000E+00 0. -1.
<scales pt_clust_5="13000.00000" pt_clust_6="13000.00000" pt_clust_7="13000.00000" pt_clust_8="13000.00000" pt_clust_9="31.90164"></scales>
<clustering>
<clus scale="   31.902">  1  9  2 -1</clus>
<clus scale="   85.908">  7  8 -1 -1</clus>
<clus scale="   89.568">  5  6 -1 -1</clus>
<clus scale="  100.603">  2  7  1 -1</clus>
<clus scale="   31.902">  1  5  2 -1</clus>
</clustering>
</event>
<event>
 9    1  0.1175034E-005  0.1166433E+03  0.7546771E-02  0.1249959E+00
         -2   -1    0    0    0  501 -0.00000000000E+00  0.00000000000E+00  0.37428682625E+03  0.37428682625E+03  0.00000000000E+00 0.  1.
          2   -1    0    0  502    0  0.00000000000E+00 -0.00000000000E+00 -0.50993614283E+02  0.50993614283E+02  0.00000000000E+00 0. -1.
         23    2    1    2    0    0  0.75858799424E+02  0.16845972393E+02  0.22692074062E+03  0.25763837204E+03  0.94054048214E+02 0.  0.
         23    2    1    2    0    0 -0.47192227459E+02 -0.28765580419E+02  0.72720745536E+02  0.12861318768E+03  0.90545459662E+02 0.  0.
        -11    1    3    3    0    0  0.92184088761E+02 -0.22083667459E+01  0.20304624202E+03  0.22300349662E+03  0.00000000000E+00 0.  1.
         11    1    3    3    0    0 -0.16325289337E+02  0.19054339139E+02  0.23874498602E+02  0.34634875421E+02  0.00000000000E+00 0. -1.
        -11    1    4    4    0    0 -0.68716982794E+02 -0.45076789812E+01  0.30351231896E+02  0.75256495878E+02  0.00000000000E+00 0. -1.
         11    1    4    4    0    0  0.21524755335E+02 -0.24257901438E+02  0.42369513639E+02  0.53356691805E+02  0.00000000000E+00 0.  1.
         21    1    1    2  502  501 -0.28666571965E+02  0.11919608026E+02  0.23651725807E+02  0.39028880811E+02  0.00000000000E+00 0. -1.
<scales pt_clust_5="13000.00000" pt_clust_6="13000.00000" pt_clust_7="13000.00000" pt_clust_8="13000.00000" pt_clust_9="31.04592"></scales>
<clustering>
<clus scale="   31.046">  2  9  1 -1</clus>
<clus scale="   90.545">  7  8 -1 -1</clus>
<clus scale="   94.054">  5  6 -1 -1</clus>
<clus scale="  113.833">  2  7  1 -1</clus>
<clus scale="   31.046">  2  5  1 -1</clus>
</clustering>
</event>
<event>
 9    1  0.1175034E-005  0.1080338E+03  0.7546771E-02  0.1264690E+00
          1   -1    0    0  502    0  0.00000000000E+00  0.00000000000E+00  0.41145580451E+03  0.41145580451E+03  0.00000000000E+00 0. -1.
         -1   -1    0    0    0  501 -0.00000000000E+00 -0.00000000000E+00 -0.11989646165E+03  0.11989646165E+03  0.00000000000E+00 0.  1.
         23    2    1    2    0    0 -0.54822440040E+02 -0.30454295083E+02 -0.41928006217E+02  0.11978298309E+03  0.93043222819E+02 0.  0.
         23    2    1    2    0    0  0.54910117889E+02 -0.29587418401E+01  0.35566921572E+03  0.37146349880E+03  0.91981871732E+02 0.  0.
        -13    1    4    4    0    0  0.70881510068E+02  0.24379239693E+02  0.23216043784E+03  0.24396107209E+03  0.00000000000E+00 0.  1.
         13    1    4    4    0    0 -0.15971392180E+02 -0.27337981533E+02  0.12350877788E+03  0.12750242671E+03  0.00000000000E+00 0. -1.
        -13    1    3    3    0    0 -0.49514500310E+02  0.25722384381E+00 -0.64490387166E+02  0.81306592241E+02  0.00000000000E+00 0.  1.
         13    1    3    3    0    0 -0.53079397297E+01 -0.30711518926E+02  0.22562380949E+02  0.38476390852E+02  0.00000000000E+00 0. -1.
         21    1    1    2  502  501 -0.87677848798E-01  0.33413036923E+02 -0.22181866643E+02  0.40105784266E+02  0.00000000000E+00 0.  1.
<scales pt_clust_5="13000.00000" pt_clust_6="13000.00000" pt_clust_7="13000.00000" pt_clust_8="13000.00000" pt_clust_9="33.41315"></scales>
<clustering>
<clus scale="   33.413">  2  9  1 -1</clus>
<clus scale="   91.982">  5  6 -1 -1</clus>
<clus scale="   93.043">  7  8 -1 -1</clus>
<clus scale="  107.121">  1  5  2 -1</clus>
<clus scale="  107.121">  1  5  2 -1</clus>
</clustering>
</event>
<event>
 9    1  0.1175034E-005  0.9558881E+02  0.7546771E-02  0.1290965E+00
         -1   -1    0    0    0  501 -0.00000000000E+00  0.00000000000E+00  0.19613898099E+03  0.19613898099E+03  0.00000000000E+00 0.  1.
          1   -1    0    0  502    0  0.00000000000E+00 -0.00000000000E+00 -0.23991665800E+03  0.23991665800E+03  0.00000000000E+00 0. -1.
         23    2    1    2    0    0  0.15657441431E+01  0.22275927782E+02  0.15377696349E+03  0.18035740514E+03  0.91557471423E+02 0.  0.
         23    2    1    2    0    0 -0.23090439661E+02 -0.16273303167E+02 -0.21007186701E+03  0.23008524928E+03  0.89504434677E+02 0.  0.
        -11    1    4    4    0    0 -0.57761646671E+01  0.19207228951E+02 -0.42385486846E+01  0.20499927248E+02  0.00000000000E+00 0.  1.
         11    1    4    4    0    0 -0.17314274994E+02 -0.35480532118E+02 -0.20583331832E+03  0.20958532203E+03  0.00000000000E+00 0. -1.
        -13    1    3    3    0    0  0.27049717908E+02 -0.26281889679E+02  0.79874265196E+02  0.88330760240E+02  0.00000000000E+00 0.  1.
         13    1    3    3    0    0 -0.25483973765E+02  0.48557817461E+02  0.73902698299E+02  0.92026644898E+02  0.00000000000E+00 0. -1.
         21    1    1    2  502  501  0.21524695518E+02 -0.60026246151E+01  0.12517226508E+02  0.25612984576E+02  0.00000000000E+00 0.  1.
<scales pt_clust_5="13000.00000" pt_clust_6="13000.00000" pt_clust_7="13000.00000" pt_clust_8="13000.00000" pt_clust_9="22.34601"></scales>
<clustering>
<clus scale="   22.346">  1  9  2 -1</clus>
<clus scale="   89.504">  5  6 -1 -1</clus>
<clus scale="   91.557">  7  8 -1 -1</clus>
<clus scale="   93.624">  2  5  1 -1</clus>
<clus scale="   93.624">  2  5  1 -1</clus>
</clustering>
</event>
<event>
 9    1  0.1175034E-005  0.1006009E+03  0.7546771E-02  0.1279378E+00
         -2   -1    0    0    0  501 -0.00000000000E+00  0.00000000000E+00  0.27575524011E+03  0.27575524011E+03  0.00000000000E+00 0.  1.
          2   -1    0    0  502    0  0.00000000000E+00 -0.00000000000E+00 -0.79022567272E+02  0.79022567272E+02  0.00000000000E+00 0. -1.
         23    2    1    2    0    0  0.30744875811E+02  0.27898419936E+02  0.33749576742E+02  0.10639197782E+03  0.91960044536E+02 0.  0.
         23    2    1    2    0    0  0.17132609255E+01 -0.44708254586E+02  0.25345546692E+02  0.10597727579E+03  0.92666191004E+02 0.  0.
        -11    1    4    4    0    0 -0.40224114826E+02 -0.10603164609E+02  0.30639338824E+02  0.51664064850E+02  0.00000000000E+00 0.  1.
         11    1    4    4    0    0  0.41937375751E+02 -0.34105089978E+02 -0.52937921318E+01  0.54313210938E+02  0.00000000000E+00 0. -1.
        -11    1    3    3    0    0 -0.11097315215E+02  0.44642089865E+02 -0.58843853616E+01  0.46375560197E+02  0.00000000000E+00 0. -1.
         11    1    3    3    0    0  0.41842191027E+02 -0.16743669929E+02  0.39633962104E+02  0.60016417626E+02  0.00000000000E+00 0.  1.
         21    1    1    2  502  501 -0.32458136737E+02  0.16809834651E+02  0.13763754940E+03  0.14240855377E+03  0.00000000000E+00 0.  1.
<scales pt_clust_5="13000.00000" pt_clust_6="13000.00000" pt_clust_7="13000.00000" pt_clust_8="13000.00000" pt_clust_9="36.55272"></scales>
<clustering>
<clus scale="   36.553">  1  9  2 -1</clus>
<clus scale="   91.960">  7  8 -1 -1</clus>
<clus scale="   92.666">  5  6 -1 -1</clus>
<clus scale="   99.951">  1  7  2 -1</clus>
<clus scale="  100.601">  2  5  1 -1</clus>
</clustering>
</event>
<event>
 9    1  0.1175034E-005  0.1081514E+03  0.7546771E-02  0.1265423E+00
          1   -1    0    0  502    0  0.00000000000E+00  0.00000000000E+00  0.37064100382E+03  0.37064100382E+03  0.00000000000E+00 0. -1.
         -1   -1    0    0    0  501 -0.00000000000E+00 -0.00000000000E+00 -0.57234555977E+02  0.57234555977E+02  0.00000000000E+00 0.  1.
         23    2    1    2    0    0  0.57781691539E+02 -0.31624126436E+02  0.10456831458E+03  0.15286512157E+03  0.89968904223E+02 0.  0.
         23    2    1    2    0    0 -0.51880407048E+02 -0.32353309456E+02  0.15615412230E+03  0.19192287916E+03  0.93337925643E+02 0.  0.
        -13    1    4    4    0    0 -0.57184578139E+02  0.17949128974E+02  0.97734975462E+02  0.11464891031E+03  0.00000000000E+00 0.  1.
         13    1    4    4    0    0  0.53041710912E+01 -0.50302438430E+02  0.58419146843E+02  0.77273968843E+02  0.00000000000E+00 0. -1.
        -13    1    3    3    0    0 -0.23721642949E+02  0.38294357808E+00  0.18503129463E+02  0.30087020290E+02  0.00000000000E+00 0.  1.
         13    1    3    3    0    0  0.81503334488E+02 -0.32007070015E+02  0.86065185117E+02  0.12277810128E+03  0.00000000000E+00 0. -1.
         21    1    1    2  502  501 -0.59012844908E+01  0.63977435892E+02  0.52684010955E+02  0.83087559071E+02  0.00000000000E+00 0.  1.
<scales pt_clust_5="13000.00000" pt_clust_6="13000.00000" pt_clust_7="13000.00000" pt_clust_8="13000.00000" pt_clust_9="64.24903"></scales>
<clustering>
<clus scale="   64.249">  2  9  1 -1</clus>
<clus scale="   89.969">  7  8 -1 -1</clus>
<clus scale="   93.338">  5  6 -1 -1</clus>
<clus scale="  105.258">  2  7  1 -1</clus>
<clus scale="  108.151">  1  5  2 -1</clus>
</clustering>
</event>
<event>
 9    1  0.1175034E-005  0.9418855E+02  0.7546771E-02  0.1294620E+00
         -2   -1    0    0    0  501 -0.00000000000E+00  0.00000000000E+00  0.48837634196E+02  0.48837634196E+02  0.00000000000E+00 0.  1.
          2   -1    0    0  502    0  0.00000000000E+00 -0.00000000000E+00 -0.31419299347E+03  0.31419299347E+03  0.00000000000E+00 0. -1.
         23    2    1    2    0    0 -0.43944059682E+01 -0.17988563230E+02 -0.63532670494E+02  0.11284330180E+03  0.91401921914E+02 0.  0.
         23    2    1    2    0    0  0.22552555819E+00 -0.78414315415E+01 -0.20308111233E+03  0.22399282599E+03  0.94177008880E+02 0.  0.
        -11    1    3    3    0    0 -0.12346455220E+02  0.35742625722E+02 -0.34822209627E+02  0.51405802526E+02  0.00000000000E+00 0. -1.
         11    1    3    3    0    0  0.79520492522E+01 -0.53731188953E+02 -0.28710460867E+02  0.61437499272E+02  0.00000000000E+00 0.  1.
        -13    1    4    4    0    0 -0.15739942052E+02 -0.48065147087E+02 -0.12240534902E+03  0.13244271822E+03  0.00000000000E+00 0.  1.
         13    1    4    4    0    0  0.15965467610E+02  0.40223715545E+02 -0.80675763312E+02  0.91550107778E+02  0.00000000000E+00 0. -1.
         21    1    1    2  502  501  0.41688804100E+01  0.25829994772E+02  0.12584235508E+01  0.26194499873E+02  0.00000000000E+00 0.  1.
<scales pt_clust_5="13000.00000" pt_clust_6="13000.00000" pt_clust_7="13000.00000" pt_clust_8="13000.00000" pt_clust_9="26.16425"></scales>
<clustering>
<clus scale="   26.164">  1  9  2 -1</clus>
<clus scale="   91.402">  5  6 -1 -1</clus>
<clus scale="   91.414">  1  5  2 -1</clus>
<clus scale="   94.177">  7  8 -1 -1</clus>
<clus scale="   94.189">  2  5  1 -1</clus>
</clustering>
</event>
<event>
 9    1  0.1175034E-005  0.1177393E+03  0.7546771E-02  0.1246910E+00
          2   -1    0    0  502    0  0.00000000000E+00  0.00000000000E+00  0.20306608082E+03  0.20306608082E+03  0.00000000000E+00 0. -1.
         -2   -1    0    0    0  501 -0.00000000000E+00 -0.00000000000E+00 -0.10842114306E+03  0.10842114306E+03  0.00000000000E+00 0.  1.
         23    2    1    2    0    0  0.54258196316E+02  0.48008864967E+02  0.18660626740E+01  0.11586115315E+03  0.90396469163E+02 0.  0.
         23    2    1    2    0    0 -0.74709471019E+02 -0.24454865588E+02  0.10760304779E+03  0.16108911053E+03  0.90508232370E+02 0.  0.
        -13    1    3    3    0    0  0.19582713373E+02  0.71275343636E+02  0.42207624894E+01  0.74036964480E+02  0.00000000000E+00 0. -1.
         13    1    3    3    0    0  0.34675482943E+02 -0.23266478668E+02 -0.23546998154E+01  0.41824188673E+02  0.00000000000E+00 0.  1.
        -13    1    4    4    0    0 -0.66519061121E+02  0.22673653464E+02  0.77263995651E+02  0.10444426781E+03  0.00000000000E+00 0. -1.
         13    1    4    4    0    0 -0.81904098981E+01 -0.47128519052E+02  0.30339052134E+02  0.56644842720E+02  0.00000000000E+00 0.  1.
         21    1    1    2  502  501  0.20451274703E+02 -0.23553999379E+02 -0.14824172693E+02  0.34536960198E+02  0.00000000000E+00 0.  1.
<scales pt_clust_5="13000.00000" pt_clust_6="13000.00000" pt_clust_7="13000.00000" pt_clust_8="13000.00000" pt_clust_9="31.19368"></scales>
<clustering>
<clus scale="   31.194">  2  9  1 -1</clus>
<clus scale="   90.396">  5  6 -1 -1</clus>
<clus scale="   90.508">  7  8 -1 -1</clus>
<clus scale="  117.653">  2  5  1 -1</clus>
<clus scale="  117.739">  1  5  2 -1</clus>
</clustering>
</event>
<event>
 9    1  0.1175034E-005  0.1161509E+03  0.7546771E-02  0.1249614E+00
         -1   -1    0    0    0  501 -0.00000000000E+00  0.00000000000E+00  0.69529390227E+02  0.69529390227E+02  0.00000000000E+00 0.  1.
          1   -1    0    0  502    0  0.00000000000E+00 -0.00000000000E+00 -0.67858005915E+03  0.67858005915E+03  0.00000000000E+00 0. -1.
         23    2    1    2    0    0  0.29619657063E+02 -0.80832893411E+02 -0.25495765651E+02  0.12898781645E+03  0.92609621441E+02 0.  0.
         23    2    1    2    0    0 -0.37250573419E+02  0.57568123769E+02 -0.58337802901E+03  0.59463670541E+03  0.92526712922E+02 0.  0.
        -11    1    3    3    0    0  0.23810664870E+01 -0.84006942023E+02  0.94461464649E+01  0.84569885117E+02  0.00000000000E+00 0.  1.
         11    1    3    3    0    0  0.27238590576E+02  0.31740486120E+01 -0.34941912116E+02  0.44417931328E+02  0.00000000000E+00 0. -1.
        -13    1    4    4    0    0  0.22364979322E+02 -0.93949960782E+01 -0.91874396824E+02  0.95022960611E+02  0.00000000000E+00 0.  1.
         13    1    4    4    0    0 -0.59615552741E+02  0.66963119847E+02 -0.49150363218E+03  0.49961374480E+03  0.00000000000E+00 0. -1.
         21    1    1    2  502  501  0.76309163552E+01  0.23264769642E+02 -0.17687426271E+00  0.24484927515E+02  0.00000000000E+00 0. -1.
<scales pt_clust_5="13000.00000" pt_clust_6="13000.00000" pt_clust_7="13000.00000" pt_clust_8="13000.00000" pt_clust_9="24.48429"></scales>
<clustering>
<clus scale="   24.484">  1  9  2 -1</clus>
<clus scale="   92.527">  7  8 -1 -1</clus>
<clus scale="   92.610">  5  6 -1 -1</clus>
<clus scale="  116.085">  2  7  1 -1</clus>
<clus scale="  116.085">  2  5  1 -1</clus>
</clustering>
</event>
<event>
 9    1  0.1175034E-005  0.1051666E+03  0.7546771E-02  0.1274734E+00
          2   -1    0    0  502    0  0.00000000000E+00  0.00000000000E+00  0.15338829313E+03  0.15338829313E+03  0.00000000000E+00 0. -1.
         -2   -1    0    0    0  501 -0.00000000000E+00 -0.00000000000E+00 -0.17368870628E+03  0.17368870628E+03  0.00000000000E+00 0.  1.
         23    2    1    2    0    0  0.25897671799E+02  0.41260691530E+02 -0.90811635590E+02  0.13378258769E+03  0.85310571098E+02 0.  0.
         23    2    1    2    0    0 -0.33306547988E+01 -0.42870870258E+02  0.10724368122E+03  0.15015352090E+03  0.95895087972E+02 0.  0.
        -11    1    4    4    0    0  0.12252746579E+02 -0.69376439145E+02  0.91882739608E+02  0.11578280505E+03  0.00000000000E+00 0. -1.
         11    1    4    4    0    0 -0.15583401378E+02  0.26505568887E+02  0.15360941617E+02  0.34370715848E+02  0.00000000000E+00 0.  1.
        -13    1    3    3    0    0 -0.18118539348E+02  0.42877790503E+02 -0.20610092762E+02  0.50907389544E+02  0.00000000000E+00 0.  1.
         13    1    3    3    0    0  0.44016211147E+02 -0.16170989733E+01 -0.70201542828E+02  0.82875198149E+02  0.00000000000E+00 0. -1.
         21    1    1    2  502  501 -0.22567017000E+02  0.16101787281E+01 -0.36732458785E+02  0.43140890814E+02  0.00000000000E+00 0.  1.
<scales pt_clust_5="13000.00000" pt_clust_6="13000.00000" pt_clust_7="13000.00000" pt_clust_8="13000.00000" pt_clust_9="22.62439"></scales>
<clustering>
<clus scale="   22.624">  2  9  1 -1</clus>
<clus scale="   85.311">  7  8 -1 -1</clus>
<clus scale="   95.614">  2  7  1 -1</clus>
<clus scale="   95.895">  5  6 -1 -1</clus>
<clus scale="  105.167">  1  5  2 -1</clus>
</clustering>
</event>
<event>
 9    1  0.1175034E-005  0.1049514E+03  0.7546771E-02  0.1274669E+00
         -3   -1    0    0    0  501 -0.00000000000E+00  0.00000000000E+00  0.35695947133E+03  0.35695947133E+03  0.00000000000E+00 0.  1.
          3   -1    0    0  502    0  0.00000000000E+00 -0.00000000000E+00 -0.15045520740E+03  0.15045520740E+03  0.00000000000E+00 0. -1.
         23    2    1    2    0    0  0.44910849234E+02 -0.90229492125E+01  0.26815295618E+03  0.28697722074E+03  0.91386647396E+02 0.  0.
         23    2    1    2    0    0 -0.29129977740E+02 -0.49559138785E+01 -0.11949365451E+03  0.15887054985E+03  0.10043904349E+03 0.  0.
        -11    1    3    3    0    0  0.56182331228E+02 -0.32825904399E+02  0.23895568856E+03  0.24765664828E+03  0.00000000000E+00 0.  1.
         11    1    3    3    0    0 -0.11271481994E+02  0.23802955187E+02  0.29197267626E+02  0.39320572462E+02  0.00000000000E+00 0. -1.
        -11    1    4    4    0    0  0.24035075055E+02  0.30046158645E+02 -0.62697564251E+02  0.73562497546E+02  0.00000000000E+00 0.  1.
         11    1    4    4    0    0 -0.53165052794E+02 -0.35002072524E+02 -0.56796090263E+02  0.85308052309E+02  0.00000000000E+00 0. -1.
         21    1    1    2  502  501 -0.15780871494E+02  0.13978863091E+02  0.57844962256E+02  0.61566908131E+02  0.00000000000E+00 0. -1.
<scales pt_clust_5="13000.00000" pt_clust_6="13000.00000" pt_clust_7="13000.00000" pt_clust_8="13000.00000" pt_clust_9="21.08185"></scales>
<clustering>
<clus scale="   21.082">  1  9  2 -1</clus>
<clus scale="   91.387">  5  6 -1 -1</clus>
<clus scale="   96.324">  1  5  2 -1</clus>
<clus scale="  100.439">  7  8 -1 -1</clus>
<clus scale="  104.951">  2  5  1 -1</clus>
</clustering>
</event>
<event>
 9    1  0.1175034E-005  0.9378850E+02  0.7546771E-02  0.1295564E+00
         -1   -1    0    0    0  501 -0.00000000000E+00  0.00000000000E+00  0.26976770914E+02  0.26976770914E+02  0.00000000000E+00 0.  1.
          1   -1    0    0  502    0  0.00000000000E+00 -0.00000000000E+00 -0.49944973819E+03  0.49944973819E+03  0.00000000000E+00 0. -1.
         23    2    1    2    0    0 -0.15510123997E+02 -0.14236770543E+02 -0.11916156195E+03  0.15265846468E+03  0.93069218379E+02 0.  0.
         23    2    1    2    0    0  0.85692498412E+01 -0.12460247198E+02 -0.30141281774E+03  0.31499415666E+03  0.90238252557E+02 0.  0.
        -11    1    4    4    0    0  0.41128966698E+02  0.18449405432E+01 -0.24407322704E+03  0.24752118265E+03  0.00000000000E+00 0. -1.
         11    1    4    4    0    0 -0.32559716857E+02 -0.14305187742E+02 -0.57339590708E+02  0.67472974002E+02  0.00000000000E+00 0.  1.
        -13    1    3    3    0    0 -0.36535811001E+02  0.23047612819E+02 -0.92868520274E+02  0.10242372772E+03  0.00000000000E+00 0. -1.
         13    1    3    3    0    0  0.21025687004E+02 -0.37284383362E+02 -0.26293041675E+02  0.50234736958E+02  0.00000000000E+00 0.  1.
         21    1    1    2  502  501  0.69408741556E+01  0.26697017741E+02 -0.51898587584E+02  0.58773887769E+02  0.00000000000E+00 0. -1.
<scales pt_clust_5="13000.00000" pt_clust_6="13000.00000" pt_clust_7="13000.00000" pt_clust_8="13000.00000" pt_clust_9="27.58453"></scales>
<clustering>
<clus scale="   27.585">  1  9  2 -1</clus>
<clus scale="   90.238">  5  6 -1 -1</clus>
<clus scale="   90.980">  2  5  1 -1</clus>
<clus scale="   93.069">  7  8 -1 -1</clus>
<clus scale="   90.980">  2  5  1 -1</clus>
</clustering>
</event>
<event>
 9    1  0.1175034E-005  0.9413096E+02  0.7546771E-02  0.1295047E+00
         -3   -1    0    0    0  501 -0.00000000000E+00  0.00000000000E+00  0.14588408010E+03  0.14588408010E+03  0.00000000000E+00 0. -1.
          3   -1    0    0  502    0  0.00000000000E+00 -0.00000000000E+00 -0.87262604416E+02  0.87262604416E+02  0.00000000000E+00 0.  1.
         23    2    1    2    0    0 -0.58014971567E+01  0.18261905785E+00  0.55794663138E+02  0.10599685388E+03  0.89936632570E+02 0.  0.
         23    2    1    2    0    0 -0.69068108474E+01 -0.18732646351E+02 -0.17371010717E+02  0.96924730651E+02  0.93241811024E+02 0.  0.
        -11    1    4    4    0    0 -0.20787233841E+02  0.24678628347E+02 -0.35411826239E+02  0.47907632225E+02  0.00000000000E+00 0.  1.
         11    1    4    4    0    0  0.13880422994E+02 -0.43411274697E+02  0.18040815522E+02  0.49017098425E+02  0.00000000000E+00 0. -1.
        -13    1    3    3    0    0  0.21668635515E+02 -0.32137937089E+02  0.49879440489E+02  0.63169101220E+02  0.00000000000E+00 0.  1.
         13    1    3    3    0    0 -0.27470132671E+02  0.32320556147E+02  0.59152226490E+01  0.42827752657E+02  0.00000000000E+00 0. -1.
         21    1    1    2  502  501  0.12708308004E+02  0.18550027293E+02  0.20197823266E+02  0.30225099993E+02  0.00000000000E+00 0.  1.
<scales pt_clust_5="13000.00000" pt_clust_6="13000.00000" pt_clust_7="13000.00000" pt_clust_8="13000.00000" pt_clust_9="22.48565"></scales>
<clustering>
<clus scale="   22.486">  1  9  2 -1</clus>
<clus scale="   89.937">  7  8 -1 -1</clus>
<clus scale="   90.858">  1  7  2 -1</clus>
<clus scale="   93.242">  5  6 -1 -1</clus>
<clus scale="   94.131">  2  5  1 -1</clus>
</clustering>
</event>
<event>
 9    1  0.1175034E-005  0.1010540E+03  0.7546771E-02  0.1278532E+00
         -1   -1    0    0    0  501 -0.00000000000E+00  0.00000000000E+00  0.54468174985E+03  0.54468174985E+03  0.00000000000E+00 0.  1.
          1   -1    0    0  502    0  0.00000000000E+00 -0.00000000000E+00 -0.30699325468E+02  0.30699325468E+02  0.00000000000E+00 0. -1.
         23    2    1    2    0    0 -0.31772047513E+02  0.76881486398E+01  0.30157673210E+03  0.31690963946E+03  0.91731257515E+02 0.  0.
         23    2    1    2    0    0  0.59654467135E+02 -0.28432188321E+02  0.15602080684E+03  0.19223700514E+03  0.90804896322E+02 0.  0.
        -13    1    4    4    0    0  0.34104915095E+02 -0.35638539509E+02  0.15809293244E+03  0.16560986088E+03  0.00000000000E+00 0.  1.
         13    1    4    4    0    0  0.25549552040E+02  0.72063511880E+01 -0.20721256041E+01  0.26627144259E+02  0.00000000000E+00 0. -1.
        -13    1    3    3    0    0 -0.63567034095E+02  0.13586297373E+02  0.19698744390E+03  0.20743531126E+03  0.00000000000E+00 0. -1.
         13    1    3    3    0    0  0.31794986582E+02 -0.58981487332E+01  0.10458928820E+03  0.10947432821E+03  0.00000000000E+00 0.  1.
         21    1    1    2  502  501 -0.27882419622E+02  0.20744039682E+02  0.56384885442E+02  0.66234430718E+02  0.00000000000E+00 0.  1.
<scales pt_clust_5="13000.00000" pt_clust_6="13000.00000" pt_clust_7="13000.00000" pt_clust_8="13000.00000" pt_clust_9="34.75262"></scales>
<clustering>
<clus scale="   34.753">  2  9  1 -1</clus>
<clus scale="   90.805">  5  6 -1 -1</clus>
<clus scale="   91.731">  7  8 -1 -1</clus>
<clus scale="  100.214">  2  5  1 -1</clus>
<clus scale="   34.753">  2  5  1 -1</clus>
</clustering>
</event>
<event>
 9    1  0.1175034E-005  0.9695775E+02  0.7546771E-02  0.1287298E+00
         -2   -1    0    0    0  501 -0.00000000000E+00  0.00000000000E+00  0.49487337673E+03  0.49487337673E+03  0.00000000000E+00 0.  1.
          2   -1    0    0  502    0  0.00000000000E+00 -0.00000000000E+00 -0.20761770448E+03  0.20761770448E+03  0.00000000000E+00 0. -1.
         23    2    1    2    0    0  0.37791147342E+02  0.36134265769E+02 -0.19651547274E+02  0.10779343757E+03  0.92192114047E+02 0.  0.
         23    2    1    2    0    0 -0.27013376625E+02  0.16565137359E+02 -0.12581621864E+03  0.15864379219E+03  0.91290775194E+02 0.  0.
        -11    1    3    3    0    0 -0.25434613991E+02  0.29813464430E+02  0.52668473286E+01  0.39541142256E+02  0.00000000000E+00 0. -1.
         11    1    3    3    0    0  0.63225761333E+02  0.63208013393E+01 -0.24918394602E+02  0.68252295312E+02  0.00000000000E+00 0.  1.
        -13    1    4    4    0    0  0.21514921430E+02 -0.21072985945E+02 -0.67678302760E+02  0.74076414905E+02  0.00000000000E+00 0.  1.
         13    1    4    4    0    0 -0.48528298055E+02  0.37638123305E+02 -0.58137915878E+02  0.84567377284E+02  0.00000000000E+00 0. -1.
         21    1    1    2  502  501 -0.10777770718E+02 -0.52699403128E+02  0.43272343816E+03  0.43605385145E+03  0.00000000000E+00 0.  1.
<scales pt_clust_5="13000.00000" pt_clust_6="13000.00000" pt_clust_7="13000.00000" pt_clust_8="13000.00000" pt_clust_9="53.79022"></scales>
<clustering>
<clus scale="   53.790">  1  9  2 -1</clus>
<clus scale="   91.291">  7  8 -1 -1</clus>
<clus scale="   92.192">  5  6 -1 -1</clus>
<clus scale="   96.101">  2  7  1 -1</clus>
<clus scale="   96.101">  2  5  1 -1</clus>
</clustering>
</event>
<event>
 9    1  0.1175034E-005  0.9372017E+02  0.7546771E-02  0.1294640E+00
         -1   -1    0    0    0  501 -0.00000000000E+00  0.00000000000E+00  0.78943382867E+02  0.78943382867E+02  0.00000000000E+00 0.  1.
          1   -1    0    0  502    0  0.00000000000E+00 -0.00000000000E+00 -0.45651766357E+03  0.45651766357E+03  0.00000000000E+00 0. -1.
         23    2    1    2    0    0 -0.90892738125E+00 -0.70347695567E+01 -0.16748020100E+03  0.19049068389E+03  0.90480764758E+02 0.  0.
         23    2    1    2    0    0 -0.75182923942E+01  0.29593441236E+02 -0.26662349622E+03  0.28352537387E+03  0.91467220375E+02 0.  0.
        -13    1    4    4    0    0  0.35761674975E+02  0.37986376197E+02 -0.13605392329E+03  0.14571387105E+03  0.00000000000E+00 0.  1.
         13    1    4    4    0    0 -0.43279967369E+02 -0.83929349617E+01 -0.13056957293E+03  0.13781150281E+03  0.00000000000E+00 0. -1.
        -13    1    3    3    0    0 -0.18377199051E+02 -0.35706125944E+02 -0.14406770410E+03  0.14955986172E+03  0.00000000000E+00 0. -1.
         13    1    3    3    0    0  0.17468271670E+02  0.28671356387E+02 -0.23412496903E+02  0.40930822170E+02  0.00000000000E+00 0.  1.
         21    1    1    2  502  501  0.84272197755E+01 -0.22558671679E+02  0.56529416523E+02  0.61444988676E+02  0.00000000000E+00 0.  1.
<scales pt_clust_5="13000.00000" pt_clust_6="13000.00000" pt_clust_7="13000.00000" pt_clust_8="13000.00000" pt_clust_9="24.08136"></scales>
<clustering>
<clus scale="   24.081">  1  9  2 -1</clus>
<clus scale="   90.481">  7  8 -1 -1</clus>
<clus scale="   91.467">  5  6 -1 -1</clus>
<clus scale="   92.758">  1  7  2 -1</clus>
<clus scale="   93.720">  2  5  1 -1</clus>
</clustering>
</event>
<event>
 9    1  0.1175034E-005  0.2286107E+03  0.7546771E-02  0.1128031E+00
          1   -1    0    0  502    0  0.00000000000E+00  0.00000000000E+00  0.31455109633E+03  0.31455109633E+03  0.00000000000E+00 0. -1.
         -1   -1    0    0    0  501 -0.00000000000E+00 -0.00000000000E+00 -0.36466288051E+03  0.36466288051E+03  0.00000000000E+00 0.  1.
         23    2    1    2    0    0  0.15940413107E+03  0.10161539975E+03 -0.36189549333E+02  0.21453254732E+03  0.94758450325E+02 0.  0.
         23    2    1    2    0    0 -0.19243027222E+03 -0.10165111791E+03  0.16208514896E+03  0.28560232290E+03  0.89077112065E+02 0.  0.
        -11    1    4    4    0    0 -0.14796971781E+02 -0.45543329080E+02  0.23001553311E+02  0.53124539078E+02  0.00000000000E+00 0.  1.
         11    1    4    4    0    0 -0.17763330044E+03 -0.56107788831E+02  0.13908359565E+03  0.23247778382E+03  0.00000000000E+00 0. -1.
        -13    1    3    3    0    0  0.16709749244E+02  0.60281837033E+02 -0.16325851407E+02  0.64650205104E+02  0.00000000000E+00 0. -1.
         13    1    3    3    0    0  0.14269438183E+03  0.41333562721E+02 -0.19863697925E+02  0.14988234221E+03  0.00000000000E+00 0.  1.
         21    1    1    2  502  501  0.33026141154E+02  0.35718157618E-01 -0.17600738380E+03  0.17907910662E+03  0.00000000000E+00 0. -1.
<scales pt_clust_5="13000.00000" pt_clust_6="13000.00000" pt_clust_7="13000.00000" pt_clust_8="13000.00000" pt_clust_9="33.02616"></scales>
<clustering>
<clus scale="   33.026">  2  9  1 -1</clus>
<clus scale="   89.077">  5  6 -1 -1</clus>
<clus scale="   94.758">  7  8 -1 -1</clus>
<clus scale="  226.315">  1  5  2 -1</clus>
<clus scale="  226.315">  1  5  2 -1</clus>
</clustering>
</event>
<event>
 9    1  0.1175034E-005  0.1061952E+03  0.7546771E-02  0.1268965E+00
         -1   -1    0    0    0  501 -0.00000000000E+00  0.00000000000E+00  0.15585799660E+03  0.15585799660E+03  0.00000000000E+00 0.  1.
          1   -1    0    0  502    0  0.00000000000E+00 -0.00000000000E+00 -0.26542481277E+03  0.26542481277E+03  0.00000000000E+00 0. -1.
         23    2    1    2    0    0 -0.35045448172E+02 -0.24467522948E+02  0.11012480723E+03  0.14658950942E+03  0.86799585174E+02 0.  0.
         23    2    1    2    0    0  0.19338738990E+02  0.55807392336E+02 -0.21366239343E+03  0.23912309134E+03  0.89664834691E+02 0.  0.
        -11    1    4    4    0    0  0.47046829515E+02  0.62926303813E+02 -0.15012023954E+03  0.16943792432E+03  0.00000000000E+00 0. -1.
         11    1    4    4    0    0 -0.27708090525E+02 -0.71189114773E+01 -0.63542153894E+02  0.69685167020E+02  0.00000000000E+00 0.  1.
        -13    1    3    3    0    0 -0.97806937134E+01  0.24488320115E+02  0.79065055844E+02  0.83346402725E+02  0.00000000000E+00 0.  1.
         13    1    3    3    0    0 -0.25264754458E+02 -0.48955843063E+02  0.31059751390E+02  0.63243106693E+02  0.00000000000E+00 0. -1.
         21    1    1    2  502  501  0.15706709181E+02 -0.31339869388E+02 -0.60292299692E+01  0.35570208610E+02  0.00000000000E+00 0. -1.
<scales pt_clust_5="13000.00000" pt_clust_6="13000.00000" pt_clust_7="13000.00000" pt_clust_8="13000.00000" pt_clust_9="35.05550"></scales>
<clustering>
<clus scale="   35.056">  1  9  2 -1</clus>
<clus scale="   86.800">  7  8 -1 -1</clus>
<clus scale="   89.665">  5  6 -1 -1</clus>
<clus scale="  103.787">  1  7  2 -1</clus>
<clus scale="  106.195">  2  5  1 -1</clus>
</clustering>
</event>
<event>
 9    1  0.1175034E-005  0.9326639E+02  0.7546771E-02  0.1299272E+00
         -2   -1    0    0    0  501 -0.00000000000E+00  0.00000000000E+00  0.27874358510E+02  0.27874358510E+02  0.00000000000E+00 0.  1.
          2   -1    0    0  502    0  0.00000000000E+00 -0.00000000000E+00 -0.44091624037E+03  0.44091624037E+03  0.00000000000E+00 0. -1.
         23    2    1    2    0    0 -0.19334128851E+02  0.16937559448E+02 -0.11724332609E+03  0.14471202953E+03  0.80838632580E+02 0.  0.
         23    2    1    2    0    0  0.28121346452E+01 -0.44812980840E+02 -0.20391635864E+03  0.22664985921E+03  0.88159888887E+02 0.  0.
        -11    1    4    4    0    0 -0.23836897316E+02 -0.51837501095E+02 -0.18401156212E+03  0.19265404015E+03  0.00000000000E+00 0.  1.
         11    1    4    4    0    0  0.26649031962E+02  0.70245202550E+01 -0.19904796521E+02  0.33995819064E+02  0.00000000000E+00 0. -1.
        -13    1    3    3    0    0  0.12045957771E+02  0.18774285135E+02 -0.11028371389E+03  0.11251700507E+03  0.00000000000E+00 0. -1.
         13    1    3    3    0    0 -0.31380086622E+02 -0.18367256873E+01 -0.69596122051E+01  0.32195024455E+02  0.00000000000E+00 0.  1.
         21    1    1    2  502  501  0.16521994206E+02  0.27875421392E+02 -0.91882197130E+02  0.97428710141E+02  0.00000000000E+00 0. -1.
<scales pt_clust_5="13000.00000" pt_clust_6="13000.00000" pt_clust_7="13000.00000" pt_clust_8="13000.00000" pt_clust_9="32.40394"></scales>
<clustering>
<clus scale="   32.404">  2  9  1 -1</clus>
<clus scale="   80.839">  7  8 -1 -1</clus>
<clus scale="   86.379">  1  7  2 -1</clus>
<clus scale="   88.160">  5  6 -1 -1</clus>
<clus scale="   32.404">  2  5  1 -1</clus>
</clustering>
</event>
<event>
 9    1  0.1175034E-005  0.1136974E+03  0.7546771E-02  0.1256025E+00
         -2   -1    0    0    0  501 -0.00000000000E+00  0.00000000000E+00  0.72595872822E+02  0.72595872822E+02  0.00000000000E+00 0.  1.
          2   -1    0    0  502    0  0.00000000000E+00 -0.00000000000E+00 -0.38612943992E+03  0.38612943992E+03  0.00000000000E+00 0. -1.
         23    2    1    2    0    0  0.37376317933E+02 -0.29238269566E+02 -0.63934945965E+02  0.11872425176E+03  0.88067616590E+02 0.  0.
         23    2    1    2    0    0 -0.61801551140E+02  0.36164146210E+02 -0.27792335213E+03  0.30196357722E+03  0.93879364678E+02 0.  0.
        -11    1    3    3    0    0 -0.12966121207E+02  0.23201989998E+02 -0.23851821894E+02  0.35712211450E+02  0.00000000000E+00 0.  1.
         11    1    3    3    0    0  0.50342439141E+02 -0.52440259564E+02 -0.40083124071E+02  0.83012040313E+02  0.00000000000E+00 0. -1.
        -11    1    4    4    0    0 -0.29625010946E+02 -0.12388280707E+02 -0.20646650953E+02  0.38175842728E+02  0.00000000000E+00 0. -1.
         11    1    4    4    0    0 -0.32176540194E+02  0.48552426917E+02 -0.25727670118E+03  0.26378773449E+03  0.00000000000E+00 0.  1.
         21    1    1    2  502  501  0.24425233207E+02 -0.69258766448E+01  0.28324730999E+02  0.38037483758E+02  0.00000000000E+00 0. -1.
<scales pt_clust_5="13000.00000" pt_clust_6="13000.00000" pt_clust_7="13000.00000" pt_clust_8="13000.00000" pt_clust_9="25.38818"></scales>
<clustering>
<clus scale="   25.388">  1  9  2 -1</clus>
<clus scale="   88.068">  5  6 -1 -1</clus>
<clus scale="   93.879">  7  8 -1 -1</clus>
<clus scale="  108.948">  1  5  2 -1</clus>
<clus scale="  113.697">  2  5  1 -1</clus>
</clustering>
</event>
<event>
 9    1  0.1175034E-005  0.1163395E+03  0.7546771E-02  0.1249726E+00
          1   -1    0    0  502    0  0.00000000000E+00  0.00000000000E+00  0.56986129097E+03  0.56986129097E+03  0.00000000000E+00 0. -1.
         -1   -1    0    0    0  501 -0.00000000000E+00 -0.00000000000E+00 -0.71333354239E+02  0.71333354239E+02  0.00000000000E+00 0.  1.
         23    2    1    2    0    0  0.11212396802E+02 -0.48949741491E+02  0.15711475964E+03  0.18905899049E+03  0.92392960528E+02 0.  0.
         23    2    1    2    0    0 -0.15251075966E+02  0.81785088331E+02  0.38104864542E+03  0.40050774287E+03  0.91032883778E+02 0.  0.
        -11    1    3    3    0    0 -0.18020656900E+02  0.19876461315E+02  0.22267738255E+02  0.34866458904E+02  0.00000000000E+00 0.  1.
         11    1    3    3    0    0  0.29233053702E+02 -0.68826202806E+02  0.13484702138E+03  0.15419253159E+03  0.00000000000E+00 0. -1.
        -13    1    4    4    0    0 -0.39914284401E+02  0.63090371338E+01  0.86999244408E+02  0.95926130832E+02  0.00000000000E+00 0.  1.
         13    1    4    4    0    0  0.24663208435E+02  0.75476051198E+02  0.29404940102E+03  0.30458161204E+03  0.00000000000E+00 0. -1.
         21    1    1    2  502  501  0.40386791635E+01 -0.32835346840E+02 -0.39635468333E+02  0.51627911845E+02  0.00000000000E+00 0.  1.
<scales pt_clust_5="13000.00000" pt_clust_6="13000.00000" pt_clust_7="13000.00000" pt_clust_8="13000.00000" pt_clust_9="33.08279"></scales>
<clustering>
<clus scale="   33.083">  2  9  1 -1</clus>
<clus scale="   91.033">  7  8 -1 -1</clus>
<clus scale="   92.393">  5  6 -1 -1</clus>
<clus scale="  115.262">  1  7  2 -1</clus>
<clus scale="  115.262">  1  5  2 -1</clus>
</clustering>
</event>
<event>
 9    1  0.1175034E-005  0.1910261E+03  0.7546771E-02  0.1158360E+00
         -4   -1    0    0    0  501 -0.00000000000E+00  0.00000000000E+00  0.45695112065E+02  0.45695112065E+02  0.00000000000E+00 0.  1.
          4   -1    0    0  502    0  0.00000000000E+00 -0.00000000000E+00 -0.10434418324E+04  0.10434418324E+04  0.00000000000E+00 0. -1.
         23    2    1    2    0    0 -0.12764425559E+03  0.13109718604E+03 -0.41458780274E+03  0.46334004198E+03  0.96547502009E+02 0.  0.
         23    2    1    2    0    0  0.91916671961E+02 -0.12452049708E+03 -0.54311408805E+03  0.57172933880E+03  0.89148726438E+02 0.  0.
        -11    1    3    3    0    0 -0.96158542254E+02  0.75531049829E+02 -0.16295971484E+03  0.20373333894E+03  0.00000000000E+00 0.  1.
         11    1    3    3    0    0 -0.31485713333E+02  0.55566136210E+02 -0.25162808791E+03  0.25960670304E+03  0.00000000000E+00 0. -1.
        -13    1    4    4    0    0 -0.51703528353E+01 -0.49825628972E+02 -0.97907577377E+02  0.10997826857E+03  0.00000000000E+00 0.  1.
         13    1    4    4    0    0  0.97087024796E+02 -0.74694868105E+02 -0.44520651067E+03  0.46175107022E+03  0.00000000000E+00 0. -1.
         21    1    1    2  502  501  0.35727583626E+02 -0.65766889631E+01 -0.40044829505E+02  0.54067563655E+02  0.00000000000E+00 0.  1.
<scales pt_clust_5="13000.00000" pt_clust_6="13000.00000" pt_clust_7="13000.00000" pt_clust_8="13000.00000" pt_clust_9="36.32786"></scales>
<clustering>
<clus scale="   36.328">  1  9  2 -1</clus>
<clus scale="   89.149">  7  8 -1 -1</clus>
<clus scale="   96.548">  5  6 -1 -1</clus>
<clus scale="  187.395">  2  7  1 -1</clus>
<clus scale="  187.395">  2  5  1 -1</clus>
</clustering>
</event>
<event>
 9    1  0.1175034E-005  0.9242869E+02  0.7546771E-02  0.1297753E+00
         -2   -1    0    0    0  501 -0.00000000000E+00  0.00000000000E+00  0.12836570665E+03  0.12836570665E+03  0.00000000000E+00 0.  1.
          2   -1    0    0  502    0  0.00000000000E+00 -0.00000000000E+00 -0.41547653153E+03  0.41547653153E+03  0.00000000000E+00 0. -1.
         23    2    1    2    0    0  0.19237010989E+02 -0.69288928648E+02 -0.73161597922E+02  0.13620154608E+03  0.89594773946E+02 0.  0.
         23    2    1    2    0    0  0.25037105012E+01  0.59439377726E+01 -0.29138348946E+03  0.30526241388E+03  0.90770063545E+02 0.  0.
        -11    1    4    4    0    0  0.25582352411E+02 -0.33591473664E+02 -0.10137079208E+03  0.10981293797E+03  0.00000000000E+00 0. -1.
         11    1    4    4    0    0 -0.23078641910E+02  0.39535411436E+02 -0.19001269738E+03  0.19544947592E+03  0.00000000000E+00 0.  1.
        -13    1    3    3    0    0  0.30380403150E+02 -0.27439661512E+02  0.10264012544E+02  0.42204903423E+02  0.00000000000E+00 0.  1.
         13    1    3    3    0    0 -0.11143392161E+02 -0.41849267135E+02 -0.83425610466E+02  0.93996642654E+02  0.00000000000E+00 0. -1.
         21    1    1    2  502  501 -0.21740721490E+02  0.63344990875E+02  0.77434262505E+02  0.10237827821E+03  0.00000000000E+00 0.  1.
<scales pt_clust_5="13000.00000" pt_clust_6="13000.00000" pt_clust_7="13000.00000" pt_clust_8="13000.00000" pt_clust_9="66.97199"></scales>
<clustering>
<clus scale="   66.972">  1  9  2 -1</clus>
<clus scale="   89.595">  7  8 -1 -1</clus>
<clus scale="   90.770">  5  6 -1 -1</clus>
<clus scale="   91.275">  1  7  2 -1</clus>
<clus scale="   92.429">  2  5  1 -1</clus>
</clustering>
</event>
<event>
 9    1  0.1175034E-005  0.1047459E+03  0.7546771E-02  0.1272927E+00
         -2   -1    0    0    0  501 -0.00000000000E+00  0.00000000000E+00  0.11359529910E+03  0.11359529910E+03  0.00000000000E+00 0. -1.
          2   -1    0    0  502    0  0.00000000000E+00 -0.00000000000E+00 -0.43956615814E+03  0.43956615814E+03  0.00000000000E+00 0.  1.
         23    2    1    2    0    0 -0.34576829206E+02 -0.32632324729E+02  0.30052625907E+02  0.10479253714E+03  0.88418831600E+02 0.  0.
         23    2    1    2    0    0 -0.82038877110E+01  0.48463976658E+02 -0.38167527304E+03  0.39603494284E+03  0.93549992510E+02 0.  0.
        -11    1    3    3    0    0  0.14394119082E+00  0.29347602257E+02  0.86664778728E+01  0.30600822146E+02  0.00000000000E+00 0.  1.
         11    1    3    3    0    0 -0.34720770397E+02 -0.61979926986E+02  0.21386148035E+02  0.74191714995E+02  0.00000000000E+00 0. -1.
        -13    1    4    4    0    0 -0.35796205941E+02  0.52587406176E+02 -0.33989124098E+03  0.34579308747E+03  0.00000000000E+00 0.  1.
         13    1    4    4    0    0  0.27592318230E+02 -0.41234295183E+01 -0.41784032053E+02  0.50241855369E+02  0.00000000000E+00 0. -1.
         21    1    1    2  502  501  0.42780716917E+02 -0.15831651929E+02  0.25651788093E+02  0.52333977253E+02  0.00000000000E+00 0. -1.
<scales pt_clust_5="13000.00000" pt_clust_6="13000.00000" pt_clust_7="13000.00000" pt_clust_8="13000.00000" pt_clust_9="45.61613"></scales>
<clustering>
<clus scale="   45.616">  1  9  2 -1</clus>
<clus scale="   88.419">  5  6 -1 -1</clus>
<clus scale="   93.550">  7  8 -1 -1</clus>
<clus scale="  100.190">  1  5  2 -1</clus>
<clus scale="  104.746">  2  5  1 -1</clus>
</clustering>
</event>
<event>
 9    1  0.1175034E-005  0.3242209E+03  0.7546771E-02  0.1073980E+00
          1   -1    0    0  502    0  0.00000000000E+00  0.00000000000E+00  0.42923785820E+03  0.42923785820E+03  0.00000000000E+00 0. -1.
         -1   -1    0    0    0  501 -0.00000000000E+00 -0.00000000000E+00 -0.62128690414E+03  0.62128690414E+03  0.00000000000E+00 0.  1.
         23    2    1    2    0    0 -0.26010817273E+03 -0.63772656736E+02  0.12362185693E+02  0.28364602959E+03  0.92623070552E+02 0.  0.
         23    2    1    2    0    0  0.33692182403E+03  0.83593124202E+02  0.16180269637E+03  0.39217107468E+03  0.84344017787E+02 0.  0.
        -11    1    4    4    0    0  0.26899929504E+03  0.42199357978E+02  0.95279618883E+02  0.28847809678E+03  0.00000000000E+00 0. -1.
         11    1    4    4    0    0  0.67922528989E+02  0.41393766224E+02  0.66523077485E+02  0.10369297789E+03  0.00000000000E+00 0.  1.
        -13    1    3    3    0    0 -0.24001520667E+03 -0.77623947289E+02 -0.72163494404E+01  0.25235857887E+03  0.00000000000E+00 0.  1.
         13    1    3    3    0    0 -0.20092966060E+02  0.13851290553E+02  0.19578535133E+02  0.31287450727E+02  0.00000000000E+00 0. -1.
         21    1    1    2  502  501 -0.76813651299E+02 -0.19820467466E+02 -0.36621392800E+03  0.37470765807E+03  0.00000000000E+00 0.  1.
<scales pt_clust_5="13000.00000" pt_clust_6="13000.00000" pt_clust_7="13000.00000" pt_clust_8="13000.00000" pt_clust_9="79.32962"></scales>
<clustering>
<clus scale="   79.330">  2  9  1 -1</clus>
<clus scale="   84.344">  5  6 -1 -1</clus>
<clus scale="   92.623">  7  8 -1 -1</clus>
<clus scale="  321.954">  1  5  2 -1</clus>
<clus scale="  321.954">  1  5  2 -1</clus>
</clustering>
</event>
<event>
 9    1  0.1175034E-005  0.1174407E+03  0.7546771E-02  0.1251273E+00
          2   -1    0    0  502    0  0.00000000000E+00  0.00000000000E+00  0.28987561204E+02  0.28987561204E+02  0.00000000000E+00 0. -1.
         -2   -1    0    0    0  501 -0.00000000000E+00 -0.00000000000E+00 -0.76264558290E+03  0.76264558290E+03  0.00000000000E+00 0.  1.
         23    2    1    2    0    0  0.23815000443E+02 -0.43724144879E+01 -0.27551911135E+03  0.29241683092E+03  0.94923917059E+02 0.  0.
         23    2    1    2    0    0 -0.75024660068E+02  0.18129977920E+02 -0.22357273912E+03  0.25873141039E+03  0.10487982326E+03 0.  0.
        -13    1    3    3    0    0  0.21881455578E+02  0.38630637964E+02 -0.20536175943E+03  0.21010610777E+03  0.00000000000E+00 0. -1.
         13    1    3    3    0    0  0.19335448656E+01 -0.43003052452E+02 -0.70157351921E+02  0.82310723144E+02  0.00000000000E+00 0.  1.
        -13    1    4    4    0    0 -0.79337403035E+02  0.43302222342E+02 -0.11023889381E+03  0.14255567224E+03  0.00000000000E+00 0. -1.
         13    1    4    4    0    0  0.43127429677E+01 -0.25172244422E+02 -0.11333384531E+03  0.11617573815E+03  0.00000000000E+00 0.  1.
         21    1    1    2  502  501  0.51209659624E+02 -0.13757563432E+02 -0.23456617122E+03  0.24048490279E+03  0.00000000000E+00 0. -1.
<scales pt_clust_5="13000.00000" pt_clust_6="13000.00000" pt_clust_7="13000.00000" pt_clust_8="13000.00000" pt_clust_9="53.02546"></scales>
<clustering>
<clus scale="   53.025">  2  9  1 -1</clus>
<clus scale="   94.924">  5  6 -1 -1</clus>
<clus scale="  104.880">  7  8 -1 -1</clus>
<clus scale="  108.642">  2  5  1 -1</clus>
<clus scale="  117.441">  1  5  2 -1</clus>
</clustering>
</event>
<event>
 9    1  0.1175034E-005  0.1061390E+03  0.7546771E-02  0.1269200E+00
         -2   -1    0    0    0  501 -0.00000000000E+00  0.00000000000E+00  0.18700549241E+03  0.18700549241E+03  0.00000000000E+00 0.  1.
          2   -1    0    0  502    0  0.00000000000E+00 -0.00000000000E+00 -0.97085106816E+02  0.97085106816E+02  0.00000000000E+00 0. -1.
         23    2    1    2    0    0 -0.34142179243E+02 -0.13336634088E+02  0.50299320238E+02  0.11056444109E+03  0.91383367217E+02 0.  0.
         23    2    1    2    0    0  0.57171787712E+02 -0.22821863538E+02 -0.34782892565E+01  0.11273673320E+03  0.94382316936E+02 0.  0.
        -11    1    4    4    0    0  0.38495794777E+02 -0.14010267277E+02  0.44510794027E+02  0.60493178042E+02  0.00000000000E+00 0.  1.
         11    1    4    4    0    0  0.18675992934E+02 -0.88115962611E+01 -0.47989083284E+02  0.52243555154E+02  0.00000000000E+00 0. -1.
        -13    1    3    3    0    0  0.27794120738E+01 -0.36732164684E+02  0.55430268196E+02  0.66554426496E+02  0.00000000000E+00 0.  1.
         13    1    3    3    0    0 -0.36921591317E+02  0.23395530596E+02 -0.51309479581E+01  0.44010014590E+02  0.00000000000E+00 0. -1.
         21    1    1    2  502  501 -0.23029608468E+02  0.36158497627E+02  0.43099354610E+02  0.60789424941E+02  0.00000000000E+00 0.  1.
<scales pt_clust_5="13000.00000" pt_clust_6="13000.00000" pt_clust_7="13000.00000" pt_clust_8="13000.00000" pt_clust_9="42.86957"></scales>
<clustering>
<clus scale="   42.870">  1  9  2 -1</clus>
<clus scale="   91.383">  7  8 -1 -1</clus>
<clus scale="   94.382">  5  6 -1 -1</clus>
<clus scale="  103.481">  1  7  2 -1</clus>
<clus scale="  106.139">  2  5  1 -1</clus>
</clustering>
</event>
<event>
 9    1  0.1175034E-005  0.1067592E+03  0.7546771E-02  0.1271285E+00
         -2   -1    0    0    0  501 -0.00000000000E+00  0.00000000000E+00  0.56575493477E+02  0.56575493477E+02  0.00000000000E+00 0.  1.
          2   -1    0    0  502    0  0.00000000000E+00 -0.00000000000E+00 -0.33480037146E+03  0.33480037146E+03  0.00000000000E+00 0. -1.
         23    2    1    2    0    0 -0.34573497108E+02 -0.36568071828E+02 -0.13789692859E+03  0.17807009027E+03  0.10080100969E+03 0.  0.
         23    2    1    2    0    0  0.14209433793E+02  0.21073616210E+02 -0.15661907408E+03  0.18297140517E+03  0.91120773907E+02 0.  0.
        -11    1    4    4    0    0  0.14653754634E+02 -0.25298157921E+02 -0.12899022503E+02  0.31954876007E+02  0.00000000000E+00 0. -1.
         11    1    4    4    0    0 -0.44432084103E+00  0.46371774131E+02 -0.14372005157E+03  0.15101652916E+03  0.00000000000E+00 0.  1.
        -13    1    3    3    0    0 -0.29267168146E+02 -0.64887740460E+01 -0.14385953369E+03  0.14694977629E+03  0.00000000000E+00 0. -1.
         13    1    3    3    0    0 -0.53063289615E+01 -0.30079297782E+02  0.59626051015E+01  0.31120313972E+02  0.00000000000E+00 0.  1.
         21    1    1    2  502  501  0.20364063315E+02  0.15494455618E+02  0.16291124679E+02  0.30334369499E+02  0.00000000000E+00 0.  1.
<scales pt_clust_5="13000.00000" pt_clust_6="13000.00000" pt_clust_7="13000.00000" pt_clust_8="13000.00000" pt_clust_9="25.58854"></scales>
<clustering>
<clus scale="   25.589">  1  9  2 -1</clus>
<clus scale="   91.121">  5  6 -1 -1</clus>
<clus scale="   97.671">  2  5  1 -1</clus>
<clus scale="  100.801">  7  8 -1 -1</clus>
<clus scale="   97.671">  2  5  1 -1</clus>
</clustering>
</event>
<event>
 9    1  0.1175034E-005  0.9387833E+02  0.7546771E-02  0.1296174E+00
          1   -1    0    0  502    0  0.00000000000E+00  0.00000000000E+00  0.44984628452E+03  0.44984628452E+03  0.00000000000E+00 0. -1.
         -1   -1    0    0    0  501 -0.00000000000E+00 -0.00000000000E+00 -0.31586022098E+02  0.31586022098E+02  0.00000000000E+00 0.  1.
         23    2    1    2    0    0 -0.30731409758E+02 -0.31016903643E+02  0.13028470119E+03  0.16495342124E+03  0.91263683673E+02 0.  0.
         23    2    1    2    0    0 -0.60988953019E+01  0.16485579786E+02  0.22759642498E+03  0.24427590179E+03  0.86957533707E+02 0.  0.
        -11    1    3    3    0    0  0.32145797475E+02 -0.28860597840E+01  0.42784829901E+02  0.53593127414E+02  0.00000000000E+00 0.  1.
         11    1    3    3    0    0 -0.62877207232E+02 -0.28130843859E+02  0.87499871288E+02  0.11136029383E+03  0.00000000000E+00 0. -1.
        -13    1    4    4    0    0  0.10776106814E+02  0.46688677773E+02  0.85329642375E+02  0.97862684299E+02  0.00000000000E+00 0.  1.
         13    1    4    4    0    0 -0.16875002116E+02 -0.30203097987E+02  0.14226678261E+03  0.14641321750E+03  0.00000000000E+00 0. -1.
         21    1    1    2  502  501  0.36830305059E+02  0.14531323858E+02  0.60379136247E+02  0.72202983579E+02  0.00000000000E+00 0.  1.
<scales pt_clust_5="13000.00000" pt_clust_6="13000.00000" pt_clust_7="13000.00000" pt_clust_8="13000.00000" pt_clust_9="39.59332"></scales>
<clustering>
<clus scale="   39.593">  2  9  1 -1</clus>
<clus scale="   86.958">  7  8 -1 -1</clus>
<clus scale="   89.698">  1  7  2 -1</clus>
<clus scale="   91.264">  5  6 -1 -1</clus>
<clus scale="   89.698">  1  5  2 -1</clus>
</clustering>
</event>
<event>
 9    1  0.1175034E-005  0.1472898E+03  0.7546771E-02  0.1228167E+00
         -1   -1    0    0    0  501 -0.00000000000E+00  0.00000000000E+00  0.55743678147E+03  0.55743678147E+03  0.00000000000E+00 0.  1.
          1   -1    0    0  502    0  0.00000000000E+00 -0.00000000000E+00 -0.62901610782E+02  0.62901610782E+02  0.00000000000E+00 0. -1.
         23    2    1    2    0    0  0.10897413317E+03 -0.23805260415E+02  0.25619012491E+03  0.29614782264E+03  0.98122885349E+02 0.  0.
         23    2    1    2    0    0 -0.22297816162E+01  0.33199659669E+01  0.37305953401E+02  0.95650156250E+02  0.87984226606E+02 0.  0.
        -11    1    3    3    0    0  0.50275380768E+02  0.37325649100E+02  0.12769079255E+03  0.14221728620E+03  0.00000000000E+00 0.  1.
         11    1    3    3    0    0  0.58698752399E+02 -0.61130909515E+02  0.12849933237E+03  0.15393053644E+03  0.00000000000E+00 0. -1.
        -11    1    4    4    0    0 -0.37308245383E+02 -0.12306343926E+02  0.41349566271E+02  0.57036285864E+02  0.00000000000E+00 0.  1.
         11    1    4    4    0    0  0.35078463767E+02  0.15626309892E+02 -0.40436128704E+01  0.38613870386E+02  0.00000000000E+00 0. -1.
         21    1    1    2  502  501 -0.10674435155E+03  0.20485294448E+02  0.20103909237E+03  0.22854041336E+03  0.00000000000E+00 0.  1.
<scales pt_clust_5="13000.00000" pt_clust_6="13000.00000" pt_clust_7="13000.00000" pt_clust_8="13000.00000" pt_clust_9="109.84617"></scales>
<clustering>
<clus scale="   87.984">  7  8 -1 -1</clus>
<clus scale="   88.075">  2  7  1 -1</clus>
<clus scale="   98.123">  5  6 -1 -1</clus>
<clus scale="  109.846">  1  9  2 -1</clus>
<clus scale="   88.075">  2  5  1 -1</clus>
</clustering>
</event>
<event>
 9    1  0.1175034E-005  0.1209895E+03  0.7546771E-02  0.1255055E+00
          2   -1    0    0  502    0  0.00000000000E+00  0.00000000000E+00  0.42560386334E+03  0.42560386334E+03  0.00000000000E+00 0. -1.
         -2   -1    0    0    0  501 -0.00000000000E+00 -0.00000000000E+00 -0.46371799092E+02  0.46371799092E+02  0.00000000000E+00 0.  1.
         23    2    1    2    0    0  0.41270399208E+02 -0.63771541229E+01  0.79463887438E+02  0.12474269848E+03  0.86615919269E+02 0.  0.
         23    2    1    2    0    0 -0.24437319469E+02 -0.16868009889E+02  0.29428781537E+03  0.31801439820E+03  0.11681663772E+03 0.  0.
        -11    1    4    4    0    0  0.35573579647E+02  0.18709944171E+02  0.17734478649E+03  0.18184255518E+03  0.00000000000E+00 0. -1.
         11    1    4    4    0    0 -0.60010899117E+02 -0.35577954060E+02  0.11694302888E+03  0.13617184302E+03  0.00000000000E+00 0.  1.
        -13    1    3    3    0    0 -0.82095057728E+01  0.32309935879E+02  0.26622043743E+02  0.42662174752E+02  0.00000000000E+00 0.  1.
         13    1    3    3    0    0  0.49479904981E+02 -0.38687090002E+02  0.52841843696E+02  0.82080523724E+02  0.00000000000E+00 0. -1.
         21    1    1    2  502  501 -0.16833079739E+02  0.23245164012E+02  0.54803614452E+01  0.29218565759E+02  0.00000000000E+00 0.  1.
<scales pt_clust_5="13000.00000" pt_clust_6="13000.00000" pt_clust_7="13000.00000" pt_clust_8="13000.00000" pt_clust_9="28.70000"></scales>
<clustering>
<clus scale="   28.700">  2  9  1 -1</clus>
<clus scale="   86.616">  7  8 -1 -1</clus>
<clus scale="   92.166">  2  7  1 -1</clus>
<clus scale="  116.817">  5  6 -1 -1</clus>
<clus scale="  120.990">  1  5  2 -1</clus>
</clustering>
</event>
<event>
 9    1  0.1175034E-005  0.9569966E+02  0.7546771E-02  0.1289788E+00
         -4   -1    0    0    0  501 -0.00000000000E+00  0.00000000000E+00  0.39000687316E+02  0.39000687316E+02  0.00000000000E+00 0. -1.
          4   -1    0    0  502    0  0.00000000000E+00 -0.00000000000E+00 -0.37447977731E+03  0.37447977731E+03  0.00000000000E+00 0.  1.
         23    2    1    2    0    0  0.40160566780E+02 -0.42439504094E+01 -0.85045912865E+02  0.13072217177E+03  0.90689562013E+02 0.  0.
         23    2    1    2    0    0 -0.21809435595E+02  0.18255478688E+02 -0.23881072065E+03  0.25690933862E+03  0.90348956775E+02 0.  0.
        -13    1    4    4    0    0  0.31737467049E+02 -0.85741338801E+01 -0.11091639385E+03  0.11568590671E+03  0.00000000000E+00 0.  1.
         13    1    4    4    0    0 -0.53546902645E+02  0.26829612568E+02 -0.12789432680E+03  0.14122343191E+03  0.00000000000E+00 0. -1.
        -13    1    3    3    0    0  0.10390925792E+02 -0.26085754305E+02  0.91627879334E+01  0.29536326772E+02  0.00000000000E+00 0.  1.
         13    1    3    3    0    0  0.29769640988E+02  0.21841803895E+02 -0.94208700798E+02  0.10118584500E+03  0.00000000000E+00 0. -1.
         21    1    1    2  502  501 -0.18351131184E+02 -0.14011528278E+02 -0.11622456481E+02  0.25848954236E+02  0.00000000000E+00 0.  1.
<scales pt_clust_5="13000.00000" pt_clust_6="13000.00000" pt_clust_7="13000.00000" pt_clust_8="13000.00000" pt_clust_9="23.08868"></scales>
<clustering>
<clus scale="   23.089">  1  9  2 -1</clus>
<clus scale="   90.349">  5  6 -1 -1</clus>
<clus scale="   90.690">  7  8 -1 -1</clus>
<clus scale="   95.377">  2  5  1 -1</clus>
<clus scale="   95.377">  2  5  1 -1</clus>
</clustering>
</event>
<event>
 9    1  0.1175034E-005  0.9950132E+02  0.7546771E-02  0.1282110E+00
         -1   -1    0    0    0  501 -0.00000000000E+00  0.00000000000E+00  0.75312132094E+02  0.75312132094E+02  0.00000000000E+00 0.  1.
          1   -1    0    0  502    0  0.00000000000E+00 -0.00000000000E+00 -0.36349505010E+03  0.36349505010E+03  0.00000000000E+00 0. -1.
         23    2    1    2    0    0 -0.34809993309E+02 -0.22227633711E+02  0.22424232974E+01  0.10028932474E+03  0.91362557208E+02 0.  0.
         23    2    1    2    0    0  0.33336141698E+02 -0.17896767417E+02 -0.27943091969E+03  0.29688833534E+03  0.92894844628E+02 0.  0.
        -11    1    3    3    0    0 -0.42767935323E+02  0.26149322284E+02 -0.63018830051E+01  0.50523233043E+02  0.00000000000E+00 0. -1.
         11    1    3    3    0    0  0.79579420136E+01 -0.48376955995E+02  0.85443063024E+01  0.49766091696E+02  0.00000000000E+00 0.  1.
        -11    1    4    4    0    0  0.58564177939E+02 -0.28866552286E+02 -0.13622283730E+03  0.15106191506E+03  0.00000000000E+00 0. -1.
         11    1    4    4    0    0 -0.25228036241E+02  0.10969784869E+02 -0.14320808238E+03  0.14582642028E+03  0.00000000000E+00 0.  1.
         21    1    1    2  502  501  0.14738516108E+01  0.40124401128E+02 -0.10994421615E+02  0.41629522110E+02  0.00000000000E+00 0. -1.
<scales pt_clust_5="13000.00000" pt_clust_6="13000.00000" pt_clust_7="13000.00000" pt_clust_8="13000.00000" pt_clust_9="40.15146"></scales>
<clustering>
<clus scale="   40.151">  1  9  2 -1</clus>
<clus scale="   91.363">  5  6 -1 -1</clus>
<clus scale="   92.895">  7  8 -1 -1</clus>
<clus scale="   98.072">  1  5  2 -1</clus>
<clus scale="   99.501">  2  5  1 -1</clus>
</clustering>
</event>
<event>
 9    1  0.1175034E-005  0.9531376E+02  0.7546771E-02  0.1291739E+00
         -1   -1    0    0    0  501 -0.00000000000E+00  0.00000000000E+00  0.20573826163E+03  0.20573826163E+03  0.00000000000E+00 0.  1.
          1   -1    0    0  502    0  0.00000000000E+00 -0.00000000000E+00 -0.15859181619E+03  0.15859181619E+03  0.00000000000E+00 0. -1.
         23    2    1    2    0    0  0.34852611187E+02  0.37434580503E+02  0.12179504520E+03  0.15918479656E+03  0.88824062601E+02 0.  0.
         23    2    1    2    0    0 -0.22654019212E+02 -0.11458887124E+02 -0.11917249263E+03  0.15217435218E+03  0.91161613529E+02 0.  0.
        -11    1    3    3    0    0  0.38011531067E+02 -0.21344564062E+02  0.54008849669E+02  0.69407656290E+02  0.00000000000E+00 0.  1.
         11    1    3    3    0    0 -0.31589198802E+01  0.58779144566E+02  0.67786195529E+02  0.89777140270E+02  0.00000000000E+00 0. -1.
        -13    1    4    4    0    0 -0.15073624622E+02 -0.38259527929E+02 -0.14098325639E+02  0.43471466762E+02  0.00000000000E+00 0. -1.
         13    1    4    4    0    0 -0.75803945905E+01  0.26800640805E+02 -0.10507416699E+03  0.10870288542E+03  0.00000000000E+00 0.  1.
         21    1    1    2  502  501 -0.12198591975E+02 -0.25975693379E+02  0.44523892862E+02  0.52970929087E+02  0.00000000000E+00 0.  1.
<scales pt_clust_5="13000.00000" pt_clust_6="13000.00000" pt_clust_7="13000.00000" pt_clust_8="13000.00000" pt_clust_9="28.69743"></scales>
<clustering>
<clus scale="   28.697">  1  9  2 -1</clus>
<clus scale="   88.824">  5  6 -1 -1</clus>
<clus scale="   91.162">  7  8 -1 -1</clus>
<clus scale="   93.081">  1  5  2 -1</clus>
<clus scale="   95.314">  2  5  1 -1</clus>
</clustering>
</event>
<event>
 9    1  0.1175034E-005  0.9898812E+02  0.7546771E-02  0.1282898E+00
         -1   -1    0    0    0  501 -0.00000000000E+00  0.00000000000E+00  0.27399008908E+02  0.27399008908E+02  0.00000000000E+00 0.  1.
          1   -1    0    0  502    0  0.00000000000E+00 -0.00000000000E+00 -0.50218258224E+03  0.50218258224E+03  0.00000000000E+00 0. -1.
         23    2    1    2    0    0  0.19058705886E+02  0.21170004228E+02 -0.14498931410E+03  0.17325055921E+03  0.90456905283E+02 0.  0.
         23    2    1    2    0    0 -0.12355562224E+02 -0.43046657240E+02 -0.30930441702E+03  0.32561696813E+03  0.91386612409E+02 0.  0.
        -13    1    4    4    0    0 -0.50714981826E+02 -0.20680392544E+02 -0.20635773358E+03  0.21350223002E+03  0.00000000000E+00 0. -1.
         13    1    4    4    0    0  0.38359419603E+02 -0.22366264696E+02 -0.10294668345E+03  0.11211473811E+03  0.00000000000E+00 0.  1.
        -13    1    3    3    0    0  0.52126887086E+02 -0.52577777561E+01 -0.84385584793E+02  0.99326650528E+02  0.00000000000E+00 0.  1.
         13    1    3    3    0    0 -0.33068181200E+02  0.26427781984E+02 -0.60603729307E+02  0.73923908679E+02  0.00000000000E+00 0. -1.
         21    1    1    2  502  501 -0.67031436626E+01  0.21876653012E+02 -0.20489842207E+02  0.30714063809E+02  0.00000000000E+00 0.  1.
<scales pt_clust_5="13000.00000" pt_clust_6="13000.00000" pt_clust_7="13000.00000" pt_clust_8="13000.00000" pt_clust_9="22.88056"></scales>
<clustering>
<clus scale="   22.881">  1  9  2 -1</clus>
<clus scale="   90.457">  7  8 -1 -1</clus>
<clus scale="   91.387">  5  6 -1 -1</clus>
<clus scale="   98.130">  1  7  2 -1</clus>
<clus scale="   98.988">  2  5  1 -1</clus>
</clustering>
</event>
<event>
 9    1  0.1175034E-005  0.9851336E+02  0.7546771E-02  0.1286372E+00
         -1   -1    0    0    0  501 -0.00000000000E+00  0.00000000000E+00  0.27134382228E+03  0.27134382228E+03  0.00000000000E+00 0.  1.
          1   -1    0    0  502    0  0.00000000000E+00 -0.00000000000E+00 -0.84677454728E+02  0.84677454728E+02  0.00000000000E+00 0. -1.
         23    2    1    2    0    0  0.10567738602E+02 -0.49986586783E+02  0.12975061027E+03  0.16959274861E+03  0.96520171761E+02 0.  0.
         23    2    1    2    0    0  0.66311564598E+01  0.12176571049E+02 -0.24200138642E+02  0.95295725020E+02  0.91122924548E+02 0.  0.
        -13    1    4    4    0    0  0.17089925381E+02 -0.37565062441E+02 -0.89653470987E+01  0.42232415445E+02  0.00000000000E+00 0.  1.
         13    1    4    4    0    0 -0.10458768921E+02  0.49741633490E+02 -0.15234791543E+02  0.53063309574E+02  0.00000000000E+00 0. -1.
        -13    1    3    3    0    0  0.24927034927E+01 -0.73552106082E+02  0.12373360289E+03  0.14396572635E+03  0.00000000000E+00 0.  1.
         13    1    3    3    0    0  0.80750351090E+01  0.23565519299E+02  0.60170073824E+01  0.25627022256E+02  0.00000000000E+00 0. -1.
         21    1    1    2  502  501 -0.17198895061E+02  0.37810015733E+02  0.81115895924E+02  0.91132803384E+02  0.00000000000E+00 0.  1.
<scales pt_clust_5="13000.00000" pt_clust_6="13000.00000" pt_clust_7="13000.00000" pt_clust_8="13000.00000" pt_clust_9="41.53793"></scales>
<clustering>
<clus scale="   41.538">  1  9  2 -1</clus>
<clus scale="   91.123">  5  6 -1 -1</clus>
<clus scale="   93.232">  2  5  1 -1</clus>
<clus scale="   96.520">  7  8 -1 -1</clus>
<clus scale="   93.232">  2  5  1 -1</clus>
</clustering>
</event>
<event>
 9    1  0.1175034E-005  0.9779821E+02  0.7546771E-02  0.1291487E+00
          2   -1    0    0  502    0  0.00000000000E+00  0.00000000000E+00  0.18710418628E+03  0.18710418628E+03  0.00000000000E+00 0. -1.
         -2   -1    0    0    0  501 -0.00000000000E+00 -0.00000000000E+00 -0.13445810790E+03  0.13445810790E+03  0.00000000000E+00 0.  1.
         23    2    1    2    0    0  0.12058275926E+02 -0.19767029454E+02 -0.63491790936E+02  0.10969082653E+03  0.86398683080E+02 0.  0.
         23    2    1    2    0    0 -0.65060834096E+00  0.24346020246E+01  0.14590748686E+03  0.17558403113E+03  0.97644286515E+02 0.  0.
        -11    1    4    4    0    0  0.35801679700E+02 -0.28717273512E+02  0.47139811566E+02  0.65792126442E+02  0.00000000000E+00 0. -1.
         11    1    4    4    0    0 -0.36452288041E+02  0.31151875536E+02  0.98767675291E+02  0.10979190469E+03  0.00000000000E+00 0.  1.
        -11    1    3    3    0    0 -0.26082941535E+02 -0.36599226092E+02 -0.46505623872E+02  0.64672994684E+02  0.00000000000E+00 0.  1.
         11    1    3    3    0    0  0.38141217461E+02  0.16832196638E+02 -0.16986167064E+02  0.45017831851E+02  0.00000000000E+00 0. -1.
         21    1    1    2  502  501 -0.11407667585E+02  0.17332427429E+02 -0.29769617535E+02  0.36287436511E+02  0.00000000000E+00 0.  1.
<scales pt_clust_5="13000.00000" pt_clust_6="13000.00000" pt_clust_7="13000.00000" pt_clust_8="13000.00000" pt_clust_9="20.74965"></scales>
<clustering>
<clus scale="   20.750">  2  9  1 -1</clus>
<clus scale="   86.399">  7  8 -1 -1</clus>
<clus scale="   86.573">  2  7  1 -1</clus>
<clus scale="   97.644">  5  6 -1 -1</clus>
<clus scale="   97.798">  1  5  2 -1</clus>
</clustering>
</event>
<event>
 9    1  0.1175034E-005  0.2314303E+03  0.7546771E-02  0.1125968E+00
          1   -1    0    0  502    0  0.00000000000E+00  0.00000000000E+00  0.19039877976E+04  0.19039877976E+04  0.00000000000E+00 0. -1.
         -1   -1    0    0    0  501 -0.00000000000E+00 -0.00000000000E+00 -0.55878381744E+02  0.55878381744E+02  0.00000000000E+00 0.  1.
         23    2    1    2    0    0 -0.20068464452E+03  0.57965065725E+02  0.80695860229E+03  0.83848065583E+03  0.90737803530E+02 0.  0.
         23    2    1    2    0    0  0.22259851508E+03  0.20471714958E+02  0.10034857350E+04  0.10316570195E+04  0.85810229820E+02 0.  0.
        -11    1    3    3    0    0 -0.19961549651E+03  0.32499357594E+02  0.71381500116E+03  0.74191267045E+03  0.00000000000E+00 0.  1.
         11    1    3    3    0    0 -0.10691480141E+01  0.25465708131E+02  0.93143601133E+02  0.96567985378E+02  0.00000000000E+00 0. -1.
        -13    1    4    4    0    0  0.74412430276E+02  0.42227287127E+02  0.27782878610E+03  0.29070464039E+03  0.00000000000E+00 0.  1.
         13    1    4    4    0    0  0.14818608481E+03 -0.21755572169E+02  0.72565694890E+03  0.74095237913E+03  0.00000000000E+00 0. -1.
         21    1    1    2  502  501 -0.21913870562E+02 -0.78436780683E+02  0.37665078566E+02  0.89728504001E+02  0.00000000000E+00 0. -1.
<scales pt_clust_5="13000.00000" pt_clust_6="13000.00000" pt_clust_7="13000.00000" pt_clust_8="13000.00000" pt_clust_9="81.44045"></scales>
<clustering>
<clus scale="   81.440">  2  9  1 -1</clus>
<clus scale="   85.810">  7  8 -1 -1</clus>
<clus scale="   90.738">  5  6 -1 -1</clus>
<clus scale="  229.543">  1  7  2 -1</clus>
<clus scale="  229.543">  1  5  2 -1</clus>
</clustering>
</event>
<event>
 9    1  0.1558524E-005  0.1176938E+03  0.7546771E-02  0.1247825E+00
          2   -1    0    0  502    0  0.00000000000E+00  0.00000000000E+00  0.25220263215E+03  0.25220263215E+03  0.00000000000E+00 0. -1.
         -2   -1    0    0    0  501 -0.00000000000E+00 -0.00000000000E+00 -0.19185369703E+03  0.19185369703E+03  0.00000000000E+00 0.  1.
         23    2    1    2    0    0 -0.57750347801E+02 -0.80319660445E+02 -0.13362150951E+03  0.19034226570E+03  0.92677504195E+02 0.  0.
         23    2    1    2    0    0  0.38888973433E+02  0.58222073178E+02  0.19354013717E+03  0.22465825561E+03  0.90063228128E+02 0.  0.
        -11    1    4    4    0    0  0.22394244320E+02  0.81739806520E+02  0.15406397113E+03  0.17583687141E+03  0.00000000000E+00 0. -1.
         11    1    4    4    0    0  0.16494729113E+02 -0.23517733343E+02  0.39476166041E+02  0.48821384202E+02  0.00000000000E+00 0.  1.
        -11    1    3    3    0    0 -0.73290790469E+02 -0.24336253193E+02 -0.81709904041E+02  0.11242909590E+03  0.00000000000E+00 0.  1.
         11    1    3    3    0    0  0.15540442668E+02 -0.55983407253E+02 -0.51911605470E+02  0.77913169801E+02  0.00000000000E+00 0. -1.
         21    1    1    2  502  501  0.18861374368E+02  0.22097587268E+02  0.43030746148E+00  0.29055807864E+02  0.00000000000E+00 0. -1.
<scales pt_clust_5="13000.00000" pt_clust_6="13000.00000" pt_clust_7="13000.00000" pt_clust_8="13000.00000" pt_clust_9="29.05262"></scales>
<clustering>
<clus scale="   29.053">  2  9  1 -1</clus>
<clus scale="   90.063">  5  6 -1 -1</clus>
<clus scale="   92.678">  7  8 -1 -1</clus>
<clus scale="  115.646">  1  5  2 -1</clus>
<clus scale="  115.646">  1  5  2 -1</clus>
</clustering>
</event>
<event>
 9    1  0.1175034E-005  0.2606176E+03  0.7546771E-02  0.1106866E+00
         -1   -1    0    0    0  501 -0.00000000000E+00  0.00000000000E+00  0.26293437120E+03  0.26293437120E+03  0.00000000000E+00 0.  1.
          1   -1    0    0  502    0  0.00000000000E+00 -0.00000000000E+00 -0.60258372737E+03  0.60258372737E+03  0.00000000000E+00 0. -1.
         23    2    1    2    0    0  0.60857693155E+02 -0.23252164534E+03  0.45131743558E+02  0.26140542695E+03  0.92336063361E+02 0.  0.
         23    2    1    2    0    0 -0.96331585383E+02  0.22522776188E+03 -0.45527067865E+03  0.52486383250E+03  0.90572251616E+02 0.  0.
        -13    1    3    3    0    0  0.33631742973E+02 -0.34292398838E+02  0.37901134256E+02  0.61184628228E+02  0.00000000000E+00 0.  1.
         13    1    3    3    0    0  0.27225950182E+02 -0.19822924650E+03  0.72306093020E+01  0.20022079873E+03  0.00000000000E+00 0. -1.
        -13    1    4    4    0    0 -0.47762182241E+02  0.32948875274E+02 -0.14998549626E+03  0.16081823131E+03  0.00000000000E+00 0.  1.
         13    1    4    4    0    0 -0.48569403142E+02  0.19227888661E+03 -0.30528518239E+03  0.36404560119E+03  0.00000000000E+00 0. -1.
         21    1    1    2  502  501  0.35473892228E+02  0.72938834596E+01  0.70489578914E+02  0.79248839116E+02  0.00000000000E+00 0.  1.
<scales pt_clust_5="13000.00000" pt_clust_6="13000.00000" pt_clust_7="13000.00000" pt_clust_8="13000.00000" pt_clust_9="36.21599"></scales>
<clustering>
<clus scale="   36.216">  1  9  2 -1</clus>
<clus scale="   90.572">  7  8 -1 -1</clus>
<clus scale="   92.336">  5  6 -1 -1</clus>
<clus scale="  259.998">  2  7  1 -1</clus>
<clus scale="  259.998">  2  5  1 -1</clus>
</clustering>
</event>
<event>
 9    1  0.1175034E-005  0.9522964E+02  0.7546771E-02  0.1291778E+00
         -3   -1    0    0    0  501 -0.00000000000E+00  0.00000000000E+00  0.31993655924E+03  0.31993655924E+03  0.00000000000E+00 0.  1.
          3   -1    0    0  502    0  0.00000000000E+00 -0.00000000000E+00 -0.36031172128E+02  0.36031172128E+02  0.00000000000E+00 0. -1.
         23    2    1    2    0    0 -0.16063865696E+02  0.12508088937E+02  0.14087137932E+03  0.16991931781E+03  0.92808022181E+02 0.  0.
         23    2    1    2    0    0 -0.26404178048E+01 -0.27045774236E+02  0.10707803802E+03  0.14299000815E+03  0.90785409028E+02 0.  0.
        -11    1    4    4    0    0  0.17447031202E+02  0.28003618555E+02  0.57215569091E+02  0.66047126329E+02  0.00000000000E+00 0.  1.
         11    1    4    4    0    0 -0.20087449007E+02 -0.55049392791E+02  0.49862468932E+02  0.76942881817E+02  0.00000000000E+00 0. -1.
        -13    1    3    3    0    0 -0.46289902685E+02  0.98374668768E+01  0.32572923486E+02  0.57450206175E+02  0.00000000000E+00 0. -1.
         13    1    3    3    0    0  0.30226036989E+02  0.26706220598E+01  0.10829845584E+03  0.11246911163E+03  0.00000000000E+00 0.  1.
         21    1    1    2  502  501  0.18704283500E+02  0.14537685299E+02  0.35955969760E+02  0.43058405411E+02  0.00000000000E+00 0. -1.
<scales pt_clust_5="13000.00000" pt_clust_6="13000.00000" pt_clust_7="13000.00000" pt_clust_8="13000.00000" pt_clust_9="23.68954"></scales>
<clustering>
<clus scale="   23.690">  1  9  2 -1</clus>
<clus scale="   90.785">  5  6 -1 -1</clus>
<clus scale="   92.808">  7  8 -1 -1</clus>
<clus scale="   93.260">  2  5  1 -1</clus>
<clus scale="   93.260">  2  5  1 -1</clus>
</clustering>
</event>
<event>
 9    1  0.1175034E-005  0.1003244E+03  0.7546771E-02  0.1282227E+00
          1   -1    0    0  502    0  0.00000000000E+00  0.00000000000E+00  0.15234895873E+03  0.15234895873E+03  0.00000000000E+00 0. -1.
         -1   -1    0    0    0  501 -0.00000000000E+00 -0.00000000000E+00 -0.97077000720E+02  0.97077000720E+02  0.00000000000E+00 0.  1.
         23    2    1    2    0    0 -0.10276673136E+02 -0.36065072942E+02 -0.10342155572E+02  0.10443235982E+03  0.96916758605E+02 0.  0.
         23    2    1    2    0    0  0.16043495021E+02  0.63246577888E+00  0.50227446557E+02  0.10593626476E+03  0.91879824000E+02 0.  0.
        -11    1    3    3    0    0  0.97747798832E+01 -0.65400889362E+02  0.36854540263E+01  0.66229942039E+02  0.00000000000E+00 0.  1.
         11    1    3    3    0    0 -0.20051453019E+02  0.29335816420E+02 -0.14027609598E+02  0.38202417780E+02  0.00000000000E+00 0. -1.
        -11    1    4    4    0    0  0.17207429872E+00 -0.37616472775E+02  0.52358327864E+02  0.64470327518E+02  0.00000000000E+00 0.  1.
         11    1    4    4    0    0  0.15871420723E+02  0.38248938554E+02 -0.21308813067E+01  0.41465937242E+02  0.00000000000E+00 0. -1.
         21    1    1    2  502  501 -0.57668218852E+01  0.35432607163E+02  0.15386667024E+02  0.39057334870E+02  0.00000000000E+00 0. -1.
<scales pt_clust_5="13000.00000" pt_clust_6="13000.00000" pt_clust_7="13000.00000" pt_clust_8="13000.00000" pt_clust_9="35.89883"></scales>
<clustering>
<clus scale="   35.899">  1  9  2 -1</clus>
<clus scale="   91.880">  7  8 -1 -1</clus>
<clus scale="   95.467">  1  7  2 -1</clus>
<clus scale="   96.917">  5  6 -1 -1</clus>
<clus scale="   35.899">  1  5  2 -1</clus>
</clustering>
</event>
<event>
 9    1  0.1175034E-005  0.1092252E+03  0.7546771E-02  0.1262658E+00
         -2   -1    0    0    0  501 -0.00000000000E+00  0.00000000000E+00  0.59822092424E+02  0.59822092424E+02  0.00000000000E+00 0.  1.
          2   -1    0    0  502    0  0.00000000000E+00 -0.00000000000E+00 -0.29525473670E+03  0.29525473670E+03  0.00000000000E+00 0. -1.
         23    2    1    2    0    0  0.16082236499E+02 -0.40565780208E+02 -0.94693441573E+02  0.13790269936E+03  0.90255668854E+02 0.  0.
         23    2    1    2    0    0 -0.38912918468E+02  0.63865924676E+02 -0.14148966497E+03  0.18454438926E+03  0.91892517407E+02 0.  0.
        -11    1    3    3    0    0 -0.26253351308E+02 -0.50052582030E+02 -0.47855596033E+02  0.74058473482E+02  0.00000000000E+00 0. -1.
         11    1    3    3    0    0  0.42335587807E+02  0.94868018213E+01 -0.46837845540E+02  0.63844225883E+02  0.00000000000E+00 0.  1.
        -13    1    4    4    0    0 -0.14099868442E+02  0.74743894372E+02 -0.54873674639E+02  0.93790064529E+02  0.00000000000E+00 0.  1.
         13    1    4    4    0    0 -0.24813050026E+02 -0.10877969695E+02 -0.86615990331E+02  0.90754324731E+02  0.00000000000E+00 0. -1.
         21    1    1    2  502  501  0.22830681969E+02 -0.23300144468E+02  0.75046226843E+00  0.32629740499E+02  0.00000000000E+00 0.  1.
<scales pt_clust_5="13000.00000" pt_clust_6="13000.00000" pt_clust_7="13000.00000" pt_clust_8="13000.00000" pt_clust_9="32.62111"></scales>
<clustering>
<clus scale="   32.621">  1  9  2 -1</clus>
<clus scale="   90.256">  5  6 -1 -1</clus>
<clus scale="   91.893">  7  8 -1 -1</clus>
<clus scale="  107.852">  1  5  2 -1</clus>
<clus scale="  109.225">  2  5  1 -1</clus>
</clustering>
</event>
<event>
 9    1  0.1175034E-005  0.1287305E+03  0.7546771E-02  0.1231302E+00
          1   -1    0    0  502    0  0.00000000000E+00  0.00000000000E+00  0.54402428468E+03  0.54402428468E+03  0.00000000000E+00 0. -1.
         -1   -1    0    0    0  501 -0.00000000000E+00 -0.00000000000E+00 -0.58621193629E+02  0.58621193629E+02  0.00000000000E+00 0.  1.
         23    2    1    2    0    0  0.14492841149E+02  0.11565932541E+03  0.18827658661E+03  0.23804047522E+03  0.87338838888E+02 0.  0.
         23    2    1    2    0    0 -0.20978124919E+02 -0.71256832304E+02  0.29630390404E+03  0.31972386037E+03  0.94391342139E+02 0.  0.
        -11    1    3    3    0    0  0.13051175928E+02  0.61218310639E+02  0.27643339512E+02  0.68426376274E+02  0.00000000000E+00 0.  1.
         11    1    3    3    0    0  0.14416652206E+01  0.54441014773E+02  0.16063324710E+03  0.16961409895E+03  0.00000000000E+00 0. -1.
        -11    1    4    4    0    0 -0.30807826473E+02  0.12082783483E+02  0.54367087859E+02  0.63646650116E+02  0.00000000000E+00 0.  1.
         11    1    4    4    0    0  0.98297015545E+01 -0.83339615787E+02  0.24193681618E+03  0.25607721026E+03  0.00000000000E+00 0. -1.
         21    1    1    2  502  501  0.64852837704E+01 -0.44402493108E+02  0.82260040478E+00  0.44881142713E+02  0.00000000000E+00 0.  1.
<scales pt_clust_5="13000.00000" pt_clust_6="13000.00000" pt_clust_7="13000.00000" pt_clust_8="13000.00000" pt_clust_9="44.87360"></scales>
<clustering>
<clus scale="   44.874">  2  9  1 -1</clus>
<clus scale="   87.339">  5  6 -1 -1</clus>
<clus scale="   94.391">  7  8 -1 -1</clus>
<clus scale="  123.652">  2  5  1 -1</clus>
<clus scale="  128.730">  1  5  2 -1</clus>
</clustering>
</event>
<event>
 9    1  0.1175034E-005  0.9295628E+02  0.7546771E-02  0.1296542E+00
          1   -1    0    0  502    0  0.00000000000E+00  0.00000000000E+00  0.16109247072E+03  0.16109247072E+03  0.00000000000E+00 0. -1.
         -1   -1    0    0    0  501 -0.00000000000E+00 -0.00000000000E+00 -0.12602083258E+03  0.12602083258E+03  0.00000000000E+00 0.  1.
         23    2    1    2    0    0  0.46923478825E+02  0.14941686061E+02 -0.51551290959E+02  0.11564599783E+03  0.91057093994E+02 0.  0.
         23    2    1    2    0    0 -0.97487059991E+01 -0.78448017641E+01  0.96412702727E+02  0.13237550110E+03  0.89840335375E+02 0.  0.
        -11    1    3    3    0    0  0.41784708299E+02  0.37831553644E+02 -0.66999851175E+02  0.87556657977E+02  0.00000000000E+00 0.  1.
         11    1    3    3    0    0  0.51387705264E+01 -0.22889867583E+02  0.15448560216E+02  0.28089339850E+02  0.00000000000E+00 0. -1.
        -11    1    4    4    0    0 -0.45884891192E+02 -0.23221578994E+02  0.55616119075E+02  0.75748383954E+02  0.00000000000E+00 0. -1.
         11    1    4    4    0    0  0.36136185193E+02  0.15376777229E+02  0.40796583652E+02  0.56627117143E+02  0.00000000000E+00 0.  1.
         21    1    1    2  502  501 -0.37174772826E+02 -0.70968842970E+01 -0.97897736349E+01  0.39091804374E+02  0.00000000000E+00 0.  1.
<scales pt_clust_5="13000.00000" pt_clust_6="13000.00000" pt_clust_7="13000.00000" pt_clust_8="13000.00000" pt_clust_9="37.84613"></scales>
<clustering>
<clus scale="   37.846">  2  9  1 -1</clus>
<clus scale="   89.840">  7  8 -1 -1</clus>
<clus scale="   91.057">  5  6 -1 -1</clus>
<clus scale="   91.765">  1  7  2 -1</clus>
<clus scale="   91.765">  1  5  2 -1</clus>
</clustering>
</event>
<event>
 9    1  0.1175034E-005  0.1382791E+03  0.7546771E-02  0.1215702E+00
         -2   -1    0    0    0  501 -0.00000000000E+00  0.00000000000E+00  0.36285824244E+03  0.36285824244E+03  0.00000000000E+00 0.  1.
          2   -1    0    0  502    0  0.00000000000E+00 -0.00000000000E+00 -0.12166310375E+03  0.12166310375E+03  0.00000000000E+00 0. -1.
         23    2    1    2    0    0 -0.43648471041E+02 -0.10675467476E+03  0.18120971450E+03  0.23361656041E+03  0.91858516544E+02 0.  0.
         23    2    1    2    0    0  0.50934226933E+02  0.86697613007E+02 -0.45176943896E+02  0.14359918655E+03  0.92027161982E+02 0.  0.
        -11    1    3    3    0    0  0.13454610931E+02 -0.72927892608E+02  0.13046962907E+03  0.15007274298E+03  0.00000000000E+00 0.  1.
         11    1    3    3    0    0 -0.57103081972E+02 -0.33826782153E+02  0.50740085425E+02  0.83543817428E+02  0.00000000000E+00 0. -1.
        -13    1    4    4    0    0  0.15851481928E+02 -0.19073254472E+02 -0.10014117258E+02  0.26745860613E+02  0.00000000000E+00 0.  1.
         13    1    4    4    0    0  0.35082745005E+02  0.10577086748E+03 -0.35162826638E+02  0.11685332593E+03  0.00000000000E+00 0. -1.
         21    1    1    2  502  501 -0.72857558919E+01  0.20057061754E+02  0.10516236809E+03  0.10730559924E+03  0.00000000000E+00 0.  1.
<scales pt_clust_5="13000.00000" pt_clust_6="13000.00000" pt_clust_7="13000.00000" pt_clust_8="13000.00000" pt_clust_9="21.33935"></scales>
<clustering>
<clus scale="   21.339">  1  9  2 -1</clus>
<clus scale="   91.859">  5  6 -1 -1</clus>
<clus scale="   92.027">  7  8 -1 -1</clus>
<clus scale="  138.167">  1  5  2 -1</clus>
<clus scale="  138.279">  2  5  1 -1</clus>
</clustering>
</event>
<event>
 9    1  0.1175034E-005  0.9844263E+02  0.7546771E-02  0.1283664E+00
         -2   -1    0    0    0  501 -0.00000000000E+00  0.00000000000E+00  0.89472694397E+02  0.89472694397E+02  0.00000000000E+00 0.  1.
          2   -1    0    0  502    0  0.00000000000E+00 -0.00000000000E+00 -0.26856505460E+03  0.26856505460E+03  0.00000000000E+00 0. -1.
         23    2    1    2    0    0 -0.32279231356E+02 -0.39064918654E+02  0.41860129559E+01  0.10503077100E+03  0.91901705680E+02 0.  0.
         23    2    1    2    0    0  0.82559441741E+00  0.33796303274E+02 -0.19569888318E+03  0.21878186070E+03  0.91785499798E+02 0.  0.
        -11    1    3    3    0    0 -0.63759775894E+02 -0.15494469188E+02  0.21135960068E+01  0.65649485036E+02  0.00000000000E+00 0.  1.
         11    1    3    3    0    0  0.31480544538E+02 -0.23570449466E+02  0.20724169491E+01  0.39381285967E+02  0.00000000000E+00 0. -1.
        -13    1    4    4    0    0 -0.29836246672E+02 -0.13659640254E+02 -0.32940946801E+02  0.46496165041E+02  0.00000000000E+00 0.  1.
         13    1    4    4    0    0  0.30661841090E+02  0.47455943528E+02 -0.16275793638E+03  0.17228569566E+03  0.00000000000E+00 0. -1.
         21    1    1    2  502  501  0.31453636938E+02  0.52686153797E+01  0.12420510018E+02  0.34225117294E+02  0.00000000000E+00 0. -1.
<scales pt_clust_5="13000.00000" pt_clust_6="13000.00000" pt_clust_7="13000.00000" pt_clust_8="13000.00000" pt_clust_9="31.89184"></scales>
<clustering>
<clus scale="   31.892">  1  9  2 -1</clus>
<clus scale="   91.785">  7  8 -1 -1</clus>
<clus scale="   91.902">  5  6 -1 -1</clus>
<clus scale="   98.334">  2  7  1 -1</clus>
<clus scale="   98.334">  2  5  1 -1</clus>
</clustering>
</event>
<event>
 9    1  0.1175034E-005  0.1447795E+03  0.7546771E-02  0.1211719E+00
         -1   -1    0    0    0  501 -0.00000000000E+00  0.00000000000E+00  0.14681897148E+03  0.14681897148E+03  0.00000000000E+00 0.  1.
          1   -1    0    0  502    0  0.00000000000E+00 -0.00000000000E+00 -0.55245297647E+03  0.55245297647E+03  0.00000000000E+00 0. -1.
         23    2    1    2    0    0  0.50204400273E+02  0.10019302007E+03 -0.51806137696E+02  0.16269085670E+03  0.10594959119E+03 0.  0.
         23    2    1    2    0    0 -0.56286002182E+02 -0.78491040032E+02 -0.43421414686E+03  0.45309506990E+03  0.86164143509E+02 0.  0.
        -13    1    4    4    0    0 -0.44110222117E+01 -0.55548525409E+02 -0.10345537598E+03  0.11750791723E+03  0.00000000000E+00 0. -1.
         13    1    4    4    0    0 -0.51874979970E+02 -0.22942514623E+02 -0.33075877088E+03  0.33558715267E+03  0.00000000000E+00 0.  1.
        -13    1    3    3    0    0  0.15765828971E+02  0.10564928242E+03 -0.85924173577E+01  0.10716418187E+03  0.00000000000E+00 0. -1.
         13    1    3    3    0    0  0.34438571302E+02 -0.54562623521E+01 -0.43213720338E+02  0.55526674830E+02  0.00000000000E+00 0.  1.
         21    1    1    2  502  501  0.60816019088E+01 -0.21701980035E+02  0.80386279569E+02  0.83486021358E+02  0.00000000000E+00 0.  1.
<scales pt_clust_5="13000.00000" pt_clust_6="13000.00000" pt_clust_7="13000.00000" pt_clust_8="13000.00000" pt_clust_9="22.53801"></scales>
<clustering>
<clus scale="   22.538">  1  9  2 -1</clus>
<clus scale="   86.164">  5  6 -1 -1</clus>
<clus scale="  105.950">  7  8 -1 -1</clus>
<clus scale="  130.996">  2  5  1 -1</clus>
<clus scale="  130.996">  2  5  1 -1</clus>
</clustering>
</event>
<event>
 9    1  0.1175034E-005  0.1436177E+03  0.7546771E-02  0.1208567E+00
         -2   -1    0    0    0  501 -0.00000000000E+00  0.00000000000E+00  0.23123889953E+03  0.23123889953E+03  0.00000000000E+00 0.  1.
          2   -1    0    0  502    0  0.00000000000E+00 -0.00000000000E+00 -0.24598528517E+03  0.24598528517E+03  0.00000000000E+00 0. -1.
         23    2    1    2    0    0 -0.29402367965E+02  0.85740627217E+02  0.15148145815E+03  0.19798181034E+03  0.89633758506E+02 0.  0.
         23    2    1    2    0    0  0.11692643620E+02 -0.11490915896E+03 -0.18842200702E+03  0.23853588272E+03  0.89753450554E+02 0.  0.
        -11    1    4    4    0    0  0.41614275717E+02 -0.46546024693E+02 -0.12837296942E+03  0.14275118086E+03  0.00000000000E+00 0. -1.
         11    1    4    4    0    0 -0.29921632097E+02 -0.68363134263E+02 -0.60049037603E+02  0.95784701861E+02  0.00000000000E+00 0.  1.
        -13    1    3    3    0    0  0.18157252699E+02  0.49052686516E+02  0.11832964811E+03  0.12937448552E+03  0.00000000000E+00 0.  1.
         13    1    3    3    0    0 -0.47559620664E+02  0.36687940701E+02  0.33151810039E+02  0.68607324823E+02  0.00000000000E+00 0. -1.
         21    1    1    2  502  501  0.17709724345E+02  0.29168531739E+02  0.22194163238E+02  0.40706491644E+02  0.00000000000E+00 0.  1.
<scales pt_clust_5="13000.00000" pt_clust_6="13000.00000" pt_clust_7="13000.00000" pt_clust_8="13000.00000" pt_clust_9="34.12386"></scales>
<clustering>
<clus scale="   34.124">  1  9  2 -1</clus>
<clus scale="   89.634">  7  8 -1 -1</clus>
<clus scale="   89.753">  5  6 -1 -1</clus>
<clus scale="  143.543">  1  7  2 -1</clus>
<clus scale="  143.618">  2  5  1 -1</clus>
</clustering>
</event>
<event>
 9    1  0.1175034E-005  0.1488157E+03  0.7546771E-02  0.1203283E+00
          1   -1    0    0  502    0  0.00000000000E+00  0.00000000000E+00  0.10161874778E+04  0.10161874778E+04  0.00000000000E+00 0. -1.
         -1   -1    0    0    0  501 -0.00000000000E+00 -0.00000000000E+00 -0.87533153384E+02  0.87533153384E+02  0.00000000000E+00 0.  1.
         23    2    1    2    0    0  0.91807633790E+02 -0.43656420453E+02  0.37885972189E+02  0.14300399301E+03  0.93167969057E+02 0.  0.
         23    2    1    2    0    0 -0.11208362026E+03  0.13053110488E+03  0.25888486014E+03  0.32256691124E+03  0.86179661999E+02 0.  0.
        -11    1    3    3    0    0  0.12963892130E+02 -0.53026897068E+02 -0.99263533637E+00  0.54597615669E+02  0.00000000000E+00 0. -1.
         11    1    3    3    0    0  0.78843741660E+02  0.93704766145E+01  0.38878607526E+02  0.88406377338E+02  0.00000000000E+00 0.  1.
        -13    1    4    4    0    0 -0.12008289899E+03  0.90799609533E+02  0.18727992354E+03  0.24028783049E+03  0.00000000000E+00 0.  1.
         13    1    4    4    0    0  0.79992787272E+01  0.39731495349E+02  0.71604936599E+02  0.82279080745E+02  0.00000000000E+00 0. -1.
         21    1    1    2  502  501  0.20275986472E+02 -0.86874684429E+02  0.63188349209E+03  0.63814972694E+03  0.00000000000E+00 0.  1.
<scales pt_clust_5="13000.00000" pt_clust_6="13000.00000" pt_clust_7="13000.00000" pt_clust_8="13000.00000" pt_clust_9="89.20945"></scales>
<clustering>
<clus scale="   86.180">  7  8 -1 -1</clus>
<clus scale="   89.209">  1  9  2 -1</clus>
<clus scale="   93.168">  5  6 -1 -1</clus>
<clus scale="  144.543">  1  7  2 -1</clus>
<clus scale="   89.209">  1  5  2 -1</clus>
</clustering>
</event>
<event>
 9    1  0.1175034E-005  0.1604413E+03  0.7546771E-02  0.1201635E+00
         -1   -1    0    0    0  501 -0.00000000000E+00  0.00000000000E+00  0.86650323443E+03  0.86650323443E+03  0.00000000000E+00 0.  1.
          1   -1    0    0  502    0  0.00000000000E+00 -0.00000000000E+00 -0.55931637601E+02  0.55931637601E+02  0.00000000000E+00 0. -1.
         23    2    1    2    0    0 -0.14927968802E+02 -0.11842612817E+03  0.36941980758E+03  0.39882989263E+03  0.91360259064E+02 0.  0.
         23    2    1    2    0    0  0.73555535522E+02 -0.30114474413E+02  0.15293092190E+03  0.19410115458E+03  0.89275377135E+02 0.  0.
        -11    1    3    3    0    0 -0.37017038787E+02 -0.15566076403E+02  0.61645062596E+02  0.73570902112E+02  0.00000000000E+00 0. -1.
         11    1    3    3    0    0  0.22089069985E+02 -0.10286005176E+03  0.30777474498E+03  0.32525899051E+03  0.00000000000E+00 0.  1.
        -11    1    4    4    0    0  0.20433858933E+02 -0.51661514124E+02  0.10730980290E+03  0.12083810835E+03  0.00000000000E+00 0.  1.
         11    1    4    4    0    0  0.53121676589E+02  0.21547039712E+02  0.45621119002E+02  0.73263046230E+02  0.00000000000E+00 0. -1.
         21    1    1    2  502  501 -0.58627566721E+02  0.14854060258E+03  0.28822086735E+03  0.32950382482E+03  0.00000000000E+00 0. -1.
<scales pt_clust_5="13000.00000" pt_clust_6="13000.00000" pt_clust_7="13000.00000" pt_clust_8="13000.00000" pt_clust_9="131.88907"></scales>
<clustering>
<clus scale="   89.275">  7  8 -1 -1</clus>
<clus scale="   91.360">  5  6 -1 -1</clus>
<clus scale="  119.530">  2  7  1 -1</clus>
<clus scale="  131.889">  2  9  1 -1</clus>
<clus scale="  119.530">  2  5  1 -1</clus>
</clustering>
</event>
<event>
 9    1  0.1175034E-005  0.1108769E+03  0.7546771E-02  0.1259575E+00
          1   -1    0    0  502    0  0.00000000000E+00  0.00000000000E+00  0.49850881567E+03  0.49850881567E+03  0.00000000000E+00 0. -1.
         -1   -1    0    0    0  501 -0.00000000000E+00 -0.00000000000E+00 -0.72464608753E+02  0.72464608753E+02  0.00000000000E+00 0.  1.
         23    2    1    2    0    0  0.50758091089E+02 -0.13606415424E+02  0.12404768624E+03  0.16130140384E+03  0.88706234670E+02 0.  0.
         23    2    1    2    0    0 -0.58343764577E-01  0.97751965180E+02  0.27847425609E+03  0.30865600772E+03  0.90361328550E+02 0.  0.
        -13    1    4    4    0    0 -0.21145546289E+02  0.10758629032E+03  0.23598260809E+03  0.26021094388E+03  0.00000000000E+00 0.  1.
         13    1    4    4    0    0  0.21087202524E+02 -0.98343251377E+01  0.42491648000E+02  0.48445063845E+02  0.00000000000E+00 0. -1.
        -13    1    3    3    0    0  0.20293490170E+02  0.35782218561E+02  0.30470293285E+02  0.51192105653E+02  0.00000000000E+00 0.  1.
         13    1    3    3    0    0  0.30464600920E+02 -0.49388633985E+02  0.93577392954E+02  0.11010929819E+03  0.00000000000E+00 0. -1.
         21    1    1    2  502  501 -0.50699747325E+02 -0.84145549756E+02  0.23522264591E+02  0.10101601286E+03  0.00000000000E+00 0. -1.
<scales pt_clust_5="13000.00000" pt_clust_6="13000.00000" pt_clust_7="13000.00000" pt_clust_8="13000.00000" pt_clust_9="98.23919"></scales>
<clustering>
<clus scale="   88.706">  7  8 -1 -1</clus>
<clus scale="   90.361">  5  6 -1 -1</clus>
<clus scale="   98.239">  2  9  1 -1</clus>
<clus scale="  109.532">  2  7  1 -1</clus>
<clus scale="  110.877">  1  5  2 -1</clus>
</clustering>
</event>
<event>
 9    1  0.1175034E-005  0.1114984E+03  0.7546771E-02  0.1258236E+00
         -1   -1    0    0    0  501 -0.00000000000E+00  0.00000000000E+00  0.34638404452E+03  0.34638404452E+03  0.00000000000E+00 0.  1.
          1   -1    0    0  502    0  0.00000000000E+00 -0.00000000000E+00 -0.58180810251E+02  0.58180810251E+02  0.00000000000E+00 0. -1.
         23    2    1    2    0    0 -0.33463853793E+02 -0.70246122505E+02  0.19901577634E+03  0.23213401492E+03  0.90689439370E+02 0.  0.
         23    2    1    2    0    0  0.11347490462E+02  0.59893468724E+02  0.36443394055E+02  0.11430814857E+03  0.89566951072E+02 0.  0.
        -11    1    3    3    0    0 -0.70291847551E+01 -0.34045358842E+02  0.18019570367E+03  0.18351835744E+03  0.00000000000E+00 0.  1.
         11    1    3    3    0    0 -0.26434669038E+02 -0.36200763663E+02  0.18820072673E+02  0.48615657481E+02  0.00000000000E+00 0. -1.
        -13    1    4    4    0    0 -0.39350138104E+01 -0.23124732462E+02  0.12424195097E+02  0.26544268853E+02  0.00000000000E+00 0.  1.
         13    1    4    4    0    0  0.15282504273E+02  0.83018201185E+02  0.24019198958E+02  0.87763879720E+02  0.00000000000E+00 0. -1.
         21    1    1    2  502  501  0.22116363331E+02  0.10352653781E+02  0.52744063872E+02  0.58122691275E+02  0.00000000000E+00 0. -1.
<scales pt_clust_5="13000.00000" pt_clust_6="13000.00000" pt_clust_7="13000.00000" pt_clust_8="13000.00000" pt_clust_9="24.41948"></scales>
<clustering>
<clus scale="   24.419">  1  9  2 -1</clus>
<clus scale="   89.567">  7  8 -1 -1</clus>
<clus scale="   90.689">  5  6 -1 -1</clus>
<clus scale="  110.587">  2  7  1 -1</clus>
<clus scale="  110.587">  2  5  1 -1</clus>
</clustering>
</event>
<event>
 9    1  0.1175034E-005  0.9945457E+02  0.7546771E-02  0.1281847E+00
          1   -1    0    0  502    0  0.00000000000E+00  0.00000000000E+00  0.12916182264E+03  0.12916182264E+03  0.00000000000E+00 0. -1.
         -1   -1    0    0    0  501 -0.00000000000E+00 -0.00000000000E+00 -0.13958373124E+03  0.13958373124E+03  0.00000000000E+00 0.  1.
         23    2    1    2    0    0  0.13817208084E+02 -0.28957942800E+02  0.17307308639E+02  0.98900757794E+02  0.91936604623E+02 0.  0.
         23    2    1    2    0    0  0.10657433183E+02  0.46540582473E+02  0.27889511070E+02  0.10658659328E+03  0.91122282345E+02 0.  0.
        -11    1    3    3    0    0  0.37209601618E+02 -0.81771854092E+01  0.43693818452E+02  0.57970428537E+02  0.00000000000E+00 0. -1.
         11    1    3    3    0    0 -0.23392393534E+02 -0.20780757391E+02 -0.26386509813E+02  0.40930329258E+02  0.00000000000E+00 0.  1.
        -13    1    4    4    0    0  0.41064283675E+02  0.44168630337E+02  0.41479868498E+02  0.73196467061E+02  0.00000000000E+00 0.  1.
         13    1    4    4    0    0 -0.30406850492E+02  0.23719521362E+01 -0.13590357427E+02  0.33390126217E+02  0.00000000000E+00 0. -1.
         21    1    1    2  502  501 -0.24474641267E+02 -0.17582639673E+02 -0.55618728316E+02  0.63258202808E+02  0.00000000000E+00 0.  1.
<scales pt_clust_5="13000.00000" pt_clust_6="13000.00000" pt_clust_7="13000.00000" pt_clust_8="13000.00000" pt_clust_9="30.13565"></scales>
<clustering>
<clus scale="   30.136">  2  9  1 -1</clus>
<clus scale="   91.122">  7  8 -1 -1</clus>
<clus scale="   91.937">  5  6 -1 -1</clus>
<clus scale="   98.702">  1  7  2 -1</clus>
<clus scale="   98.702">  1  5  2 -1</clus>
</clustering>
</event>
<event>
 9    1  0.1175034E-005  0.1837829E+03  0.7546771E-02  0.1165624E+00
         -2   -1    0    0    0  501 -0.00000000000E+00  0.00000000000E+00  0.20790238260E+03  0.20790238260E+03  0.00000000000E+00 0.  1.
          2   -1    0    0  502    0  0.00000000000E+00 -0.00000000000E+00 -0.37553081721E+03  0.37553081721E+03  0.00000000000E+00 0. -1.
         23    2    1    2    0    0  0.32426289513E+02  0.11428536376E+03  0.48129491720E+02  0.16199268909E+03  0.99058440951E+02 0.  0.
         23    2    1    2    0    0 -0.89153124975E+02 -0.12965433358E+03 -0.27681756275E+03  0.33669136149E+03  0.10942844214E+03 0.  0.
        -13    1    4    4    0    0 -0.42010209536E+02 -0.13544977632E+03 -0.22854704336E+03  0.26897072450E+03  0.00000000000E+00 0. -1.
         13    1    4    4    0    0 -0.47142915439E+02  0.57954427380E+01 -0.48270519389E+02  0.67720636993E+02  0.00000000000E+00 0.  1.
        -13    1    3    3    0    0 -0.31171579876E+02  0.60091640296E+02  0.38515176124E+02  0.77885116790E+02  0.00000000000E+00 0.  1.
         13    1    3    3    0    0  0.63597869389E+02  0.54193723467E+02  0.96143155958E+01  0.84107572301E+02  0.00000000000E+00 0. -1.
         21    1    1    2  502  501  0.56726835462E+02  0.15368969814E+02  0.61059636424E+02  0.84749149229E+02  0.00000000000E+00 0.  1.
<scales pt_clust_5="13000.00000" pt_clust_6="13000.00000" pt_clust_7="13000.00000" pt_clust_8="13000.00000" pt_clust_9="58.77192"></scales>
<clustering>
<clus scale="   58.772">  1  9  2 -1</clus>
<clus scale="   99.058">  7  8 -1 -1</clus>
<clus scale="  109.428">  5  6 -1 -1</clus>
<clus scale="  177.804">  1  7  2 -1</clus>
<clus scale="  183.783">  2  5  1 -1</clus>
</clustering>
</event>
<event>
 9    1  0.1175034E-005  0.1268386E+03  0.7546771E-02  0.1232738E+00
          2   -1    0    0  502    0  0.00000000000E+00  0.00000000000E+00  0.20840623093E+03  0.20840623093E+03  0.00000000000E+00 0. -1.
         -2   -1    0    0    0  501 -0.00000000000E+00 -0.00000000000E+00 -0.31294012680E+03  0.31294012680E+03  0.00000000000E+00 0.  1.
         23    2    1    2    0    0 -0.10813644278E+03  0.44029342058E+01 -0.14742964679E+03  0.20268099644E+03  0.87356794115E+02 0.  0.
         23    2    1    2    0    0  0.87839526369E+02 -0.17590913391E+01  0.15807609781E+03  0.20168046042E+03  0.89264094810E+02 0.  0.
        -13    1    4    4    0    0  0.26388168132E+02  0.21514554354E+02  0.41301229637E+01  0.34296783845E+02  0.00000000000E+00 0.  1.
         13    1    4    4    0    0  0.61451358237E+02 -0.23273645693E+02  0.15394597485E+03  0.16738367658E+03  0.00000000000E+00 0. -1.
        -13    1    3    3    0    0 -0.38475047087E+02 -0.35938950899E+02 -0.30890785361E+02  0.61042428362E+02  0.00000000000E+00 0. -1.
         13    1    3    3    0    0 -0.69661395691E+02  0.40341885105E+02 -0.11653886143E+03  0.14163856807E+03  0.00000000000E+00 0.  1.
         21    1    1    2  502  501  0.20296916408E+02 -0.26438428667E+01 -0.11518034689E+03  0.11698490087E+03  0.00000000000E+00 0.  1.
<scales pt_clust_5="13000.00000" pt_clust_6="13000.00000" pt_clust_7="13000.00000" pt_clust_8="13000.00000" pt_clust_9="20.46838"></scales>
<clustering>
<clus scale="   20.468">  2  9  1 -1</clus>
<clus scale="   87.357">  7  8 -1 -1</clus>
<clus scale="   89.264">  5  6 -1 -1</clus>
<clus scale="  125.504">  2  7  1 -1</clus>
<clus scale="  126.839">  1  5  2 -1</clus>
</clustering>
</event>
<event>
 9    1  0.1175034E-005  0.1153922E+03  0.7546771E-02  0.1252243E+00
          1   -1    0    0  502    0  0.00000000000E+00  0.00000000000E+00  0.10316464367E+04  0.10316464367E+04  0.00000000000E+00 0. -1.
         -1   -1    0    0    0  501 -0.00000000000E+00 -0.00000000000E+00 -0.39227904403E+02  0.39227904403E+02  0.00000000000E+00 0.  1.
         23    2    1    2    0    0  0.20700293249E+02  0.63703041132E+02  0.48000685516E+03  0.49293255842E+03  0.89940794721E+02 0.  0.
         23    2    1    2    0    0  0.15333641220E+02 -0.70878401737E+02  0.52568506024E+03  0.53887628731E+03  0.93723007203E+02 0.  0.
        -11    1    3    3    0    0 -0.24745511407E+02 -0.82483903949E+01  0.87458539433E+02  0.91265395406E+02  0.00000000000E+00 0. -1.
         11    1    3    3    0    0  0.45445804656E+02  0.71951431527E+02  0.39254831573E+03  0.40166716301E+03  0.00000000000E+00 0.  1.
        -11    1    4    4    0    0  0.42139138142E+02 -0.25468869144E+01  0.13834457821E+03  0.14464237248E+03  0.00000000000E+00 0.  1.
         11    1    4    4    0    0 -0.26805496923E+02 -0.68331514823E+02  0.38734048202E+03  0.39423391482E+03  0.00000000000E+00 0. -1.
         21    1    1    2  502  501 -0.36033934469E+02  0.71753606050E+01 -0.13273383074E+02  0.39065495406E+02  0.00000000000E+00 0.  1.
<scales pt_clust_5="13000.00000" pt_clust_6="13000.00000" pt_clust_7="13000.00000" pt_clust_8="13000.00000" pt_clust_9="36.74140"></scales>
<clustering>
<clus scale="   36.741">  2  9  1 -1</clus>
<clus scale="   89.941">  5  6 -1 -1</clus>
<clus scale="   93.723">  7  8 -1 -1</clus>
<clus scale="  112.342">  2  5  1 -1</clus>
<clus scale="  115.392">  1  5  2 -1</clus>
</clustering>
</event>
<event>
 9    1  0.1205871E-005  0.1140112E+03  0.7546771E-02  0.1253378E+00
          2   -1    0    0  502    0  0.00000000000E+00  0.00000000000E+00  0.20112678539E+03  0.20112678539E+03  0.00000000000E+00 0. -1.
         -2   -1    0    0    0  501 -0.00000000000E+00 -0.00000000000E+00 -0.24384703258E+03  0.24384703258E+03  0.00000000000E+00 0.  1.
         23    2    1    2    0    0  0.49695967273E+02 -0.61830370567E+02 -0.16957476366E+03  0.20819014864E+03  0.91076087067E+02 0.  0.
         23    2    1    2    0    0 -0.78386546905E+01  0.68162425811E+02  0.15015511004E+03  0.18846134321E+03  0.90904125402E+02 0.  0.
        -11    1    4    4    0    0 -0.14376092401E+02 -0.18514927221E+02  0.15207776496E+02  0.27941922423E+02  0.00000000000E+00 0.  1.
         11    1    4    4    0    0  0.65374377106E+01  0.86677353033E+02  0.13494733354E+03  0.16051942079E+03  0.00000000000E+00 0. -1.
        -13    1    3    3    0    0  0.69804106177E+02 -0.48625568130E+02 -0.16198494693E+03  0.18296497520E+03  0.00000000000E+00 0.  1.
         13    1    3    3    0    0 -0.20108138904E+02 -0.13204802437E+02 -0.75898167214E+01  0.25225173447E+02  0.00000000000E+00 0. -1.
         21    1    1    2  502  501 -0.41857312583E+02 -0.63320552447E+01 -0.23300593573E+02  0.48322326115E+02  0.00000000000E+00 0.  1.
<scales pt_clust_5="13000.00000" pt_clust_6="13000.00000" pt_clust_7="13000.00000" pt_clust_8="13000.00000" pt_clust_9="42.33355"></scales>
<clustering>
<clus scale="   42.334">  2  9  1 -1</clus>
<clus scale="   90.904">  5  6 -1 -1</clus>
<clus scale="   91.076">  7  8 -1 -1</clus>
<clus scale="  113.874">  1  5  2 -1</clus>
<clus scale="  113.874">  1  5  2 -1</clus>
</clustering>
</event>
<event>
 9    1  0.1175034E-005  0.1165664E+03  0.7546771E-02  0.1249471E+00
         -2   -1    0    0    0  501 -0.00000000000E+00  0.00000000000E+00  0.52906551789E+02  0.52906551789E+02  0.00000000000E+00 0.  1.
          2   -1    0    0  502    0  0.00000000000E+00 -0.00000000000E+00 -0.58434100633E+03  0.58434100633E+03  0.00000000000E+00 0. -1.
         23    2    1    2    0    0 -0.30716857397E+01  0.43023208661E+02 -0.87183318823E+02  0.13336472306E+03  0.91240268184E+02 0.  0.
         23    2    1    2    0    0  0.48061750493E+01 -0.79793152961E+02 -0.45019373227E+03  0.46659541479E+03  0.92988375373E+02 0.  0.
        -11    1    3    3    0    0  0.41975720541E+02  0.11140928792E+02 -0.52700547290E+02  0.68289304389E+02  0.00000000000E+00 0.  1.
         11    1    3    3    0    0 -0.45047406281E+02  0.31882279869E+02 -0.34482771533E+02  0.65075418668E+02  0.00000000000E+00 0. -1.
        -13    1    4    4    0    0 -0.31827212358E+02 -0.71521376318E+02 -0.36791004288E+03  0.37614635232E+03  0.00000000000E+00 0. -1.
         13    1    4    4    0    0  0.36633387407E+02 -0.82717766431E+01 -0.82283689391E+02  0.90449062469E+02  0.00000000000E+00 0.  1.
         21    1    1    2  502  501 -0.17344893096E+01  0.36769944300E+02  0.59425965440E+01  0.37287420274E+02  0.00000000000E+00 0. -1.
<scales pt_clust_5="13000.00000" pt_clust_6="13000.00000" pt_clust_7="13000.00000" pt_clust_8="13000.00000" pt_clust_9="36.81083"></scales>
<clustering>
<clus scale="   36.811">  1  9  2 -1</clus>
<clus scale="   91.240">  5  6 -1 -1</clus>
<clus scale="   92.988">  7  8 -1 -1</clus>
<clus scale="  115.177">  1  5  2 -1</clus>
<clus scale="  116.566">  2  5  1 -1</clus>
</clustering>
</event>
<event>
 9    1  0.1175034E-005  0.9680908E+02  0.7546771E-02  0.1287562E+00
          1   -1    0    0  502    0  0.00000000000E+00  0.00000000000E+00  0.26273094445E+03  0.26273094445E+03  0.00000000000E+00 0. -1.
         -1   -1    0    0    0  501 -0.00000000000E+00 -0.00000000000E+00 -0.54501223863E+03  0.54501223863E+03  0.00000000000E+00 0.  1.
         23    2    1    2    0    0 -0.84977403056E+01  0.10863331613E+02 -0.38207840906E+03  0.39319412859E+03  0.91801353607E+02 0.  0.
         23    2    1    2    0    0  0.28661901800E+02  0.28705690892E+01  0.24699517755E+03  0.26534287803E+03  0.92576889140E+02 0.  0.
        -11    1    4    4    0    0 -0.28928925012E+02 -0.19257779767E+01  0.14715173508E+03  0.14998074696E+03  0.00000000000E+00 0.  1.
         11    1    4    4    0    0  0.57590826812E+02  0.47963470658E+01  0.99843442475E+02  0.11536213106E+03  0.00000000000E+00 0. -1.
        -11    1    3    3    0    0 -0.49881310298E+02  0.11891807848E+02 -0.22267271908E+03  0.22850098476E+03  0.00000000000E+00 0.  1.
         11    1    3    3    0    0  0.41383569993E+02 -0.10284762352E+01 -0.15940568998E+03  0.16469314384E+03  0.00000000000E+00 0. -1.
         21    1    1    2  502  501 -0.20164161495E+02 -0.13733900702E+02 -0.14719806268E+03  0.14920617646E+03  0.00000000000E+00 0.  1.
<scales pt_clust_5="13000.00000" pt_clust_6="13000.00000" pt_clust_7="13000.00000" pt_clust_8="13000.00000" pt_clust_9="24.39700"></scales>
<clustering>
<clus scale="   24.397">  2  9  1 -1</clus>
<clus scale="   91.801">  7  8 -1 -1</clus>
<clus scale="   92.577">  5  6 -1 -1</clus>
<clus scale="   96.068">  2  7  1 -1</clus>
<clus scale="   96.809">  1  5  2 -1</clus>
</clustering>
</event>
<event>
 9    1  0.1175034E-005  0.1027312E+03  0.7546771E-02  0.1275047E+00
         -2   -1    0    0    0  501 -0.00000000000E+00  0.00000000000E+00  0.15542266348E+03  0.15542266348E+03  0.00000000000E+00 0.  1.
          2   -1    0    0  502    0  0.00000000000E+00 -0.00000000000E+00 -0.11959448497E+03  0.11959448497E+03  0.00000000000E+00 0. -1.
         23    2    1    2    0    0  0.43876873955E+02 -0.42358995074E+00  0.78709579130E+02  0.12732498809E+03  0.89950515549E+02 0.  0.
         23    2    1    2    0    0 -0.60086936306E+02  0.24055904897E+02 -0.41518381766E+02  0.11900226228E+03  0.90822001349E+02 0.  0.
        -11    1    3    3    0    0  0.26936837801E+02 -0.17542310260E+02  0.93629814786E+02  0.98994283152E+02  0.00000000000E+00 0.  1.
         11    1    3    3    0    0  0.16940036154E+02  0.17118720310E+02 -0.14920235656E+02  0.28330704933E+02  0.00000000000E+00 0. -1.
        -13    1    4    4    0    0 -0.83121049500E+02  0.12462749810E+02 -0.40232803776E+02  0.93183193240E+02  0.00000000000E+00 0. -1.
         13    1    4    4    0    0  0.23034113194E+02  0.11593155087E+02 -0.12855779904E+01  0.25819069043E+02  0.00000000000E+00 0.  1.
         21    1    1    2  502  501  0.16210062351E+02 -0.23632314947E+02 -0.13630188532E+01  0.28689898075E+02  0.00000000000E+00 0.  1.
<scales pt_clust_5="13000.00000" pt_clust_6="13000.00000" pt_clust_7="13000.00000" pt_clust_8="13000.00000" pt_clust_9="28.65750"></scales>
<clustering>
<clus scale="   28.658">  2  9  1 -1</clus>
<clus scale="   89.951">  5  6 -1 -1</clus>
<clus scale="   90.822">  7  8 -1 -1</clus>
<clus scale="  101.962">  1  5  2 -1</clus>
<clus scale="   28.658">  2  5  1 -1</clus>
</clustering>
</event>
<event>
 9    1  0.1175034E-005  0.1030437E+03  0.7546771E-02  0.1274385E+00
          1   -1    0    0  502    0  0.00000000000E+00  0.00000000000E+00  0.20764272661E+03  0.20764272661E+03  0.00000000000E+00 0. -1.
         -1   -1    0    0    0  501 -0.00000000000E+00 -0.00000000000E+00 -0.23454034105E+03  0.23454034105E+03  0.00000000000E+00 0.  1.
         23    2    1    2    0    0 -0.70657537086E+02  0.42804842823E+02 -0.43785496275E+02  0.13170551681E+03  0.92760074154E+02 0.  0.
         23    2    1    2    0    0  0.13837896832E+02 -0.38019205087E+02  0.14143996727E+03  0.17349362541E+03  0.91966441552E+02 0.  0.
        -11    1    4    4    0    0 -0.18660174294E+02 -0.58685327643E+02  0.94228329307E+02  0.11256619310E+03  0.00000000000E+00 0. -1.
         11    1    4    4    0    0  0.32498071126E+02  0.20666122556E+02  0.47211637960E+02  0.60927432305E+02  0.00000000000E+00 0.  1.
        -13    1    3    3    0    0 -0.26315533670E+01  0.55023503797E+02 -0.18466230127E+02  0.58099162630E+02  0.00000000000E+00 0.  1.
         13    1    3    3    0    0 -0.68025983719E+02 -0.12218660974E+02 -0.25319266148E+02  0.73606354176E+02  0.00000000000E+00 0. -1.
         21    1    1    2  502  501  0.56819640254E+02 -0.47856377361E+01 -0.12455208543E+03  0.13698392545E+03  0.00000000000E+00 0.  1.
<scales pt_clust_5="13000.00000" pt_clust_6="13000.00000" pt_clust_7="13000.00000" pt_clust_8="13000.00000" pt_clust_9="57.02082"></scales>
<clustering>
<clus scale="   57.021">  2  9  1 -1</clus>
<clus scale="   91.966">  5  6 -1 -1</clus>
<clus scale="   92.760">  7  8 -1 -1</clus>
<clus scale="  102.330">  1  5  2 -1</clus>
<clus scale="  102.330">  1  5  2 -1</clus>
</clustering>
</event>
<event>
 9    1  0.1175034E-005  0.9127329E+02  0.7546771E-02  0.1301653E+00
          2   -1    0    0  502    0  0.00000000000E+00  0.00000000000E+00  0.15241065865E+03  0.15241065865E+03  0.00000000000E+00 0. -1.
         -2   -1    0    0    0  501 -0.00000000000E+00 -0.00000000000E+00 -0.11665066829E+03  0.11665066829E+03  0.00000000000E+00 0.  1.
         23    2    1    2    0    0  0.26735514617E-01 -0.54809122267E+01 -0.41819963856E+02  0.97404531111E+02  0.87799158256E+02 0.  0.
         23    2    1    2    0    0  0.35950748959E+02 -0.27850982269E+02  0.66280212599E+02  0.12132709545E+03  0.90879392290E+02 0.  0.
        -11    1    3    3    0    0 -0.22880632981E+01 -0.45058694704E+02 -0.35169844038E+02  0.57205236926E+02  0.00000000000E+00 0. -1.
         11    1    3    3    0    0  0.23147988128E+01  0.39577782478E+02 -0.66501198182E+01  0.40199294185E+02  0.00000000000E+00 0.  1.
        -11    1    4    4    0    0  0.56096755492E+02  0.43824531666E+01  0.60937267913E+02  0.82942163543E+02  0.00000000000E+00 0.  1.
         11    1    4    4    0    0 -0.20146006534E+02 -0.32233435435E+02  0.53429446863E+01  0.38384931902E+02  0.00000000000E+00 0. -1.
         21    1    1    2  502  501 -0.35977484473E+02  0.33331894495E+02  0.11299741617E+02  0.50329700379E+02  0.00000000000E+00 0. -1.
<scales pt_clust_5="13000.00000" pt_clust_6="13000.00000" pt_clust_7="13000.00000" pt_clust_8="13000.00000" pt_clust_9="49.04482"></scales>
<clustering>
<clus scale="   49.045">  1  9  2 -1</clus>
<clus scale="   87.799">  5  6 -1 -1</clus>
<clus scale="   88.207">  2  5  1 -1</clus>
<clus scale="   90.879">  7  8 -1 -1</clus>
<clus scale="   49.045">  1  5  2 -1</clus>
</clustering>
</event>
<event>
 9    1  0.1175034E-005  0.1007309E+03  0.7546771E-02  0.1278859E+00
         -1   -1    0    0    0  501 -0.00000000000E+00  0.00000000000E+00  0.35687416723E+02  0.35687416723E+02  0.00000000000E+00 0.  1.
          1   -1    0    0  502    0  0.00000000000E+00 -0.00000000000E+00 -0.47048968311E+03  0.47048968311E+03  0.00000000000E+00 0. -1.
         23    2    1    2    0    0 -0.31946190925E+02  0.47647963241E+02 -0.19371638179E+03  0.22141685070E+03  0.90600759858E+02 0.  0.
         23    2    1    2    0    0  0.42232740047E+02  0.50523943420E+00 -0.18304231709E+03  0.20864454937E+03  0.90797569006E+02 0.  0.
        -11    1    3    3    0    0  0.25890889550E+02  0.21549584909E+02 -0.27448931820E+02  0.43453039359E+02  0.00000000000E+00 0.  1.
         11    1    3    3    0    0 -0.57837080475E+02  0.26098378332E+02 -0.16626744997E+03  0.17796381134E+03  0.00000000000E+00 0. -1.
        -13    1    4    4    0    0  0.24302942531E+01  0.31803982578E+02 -0.13544822288E+03  0.13915322749E+03  0.00000000000E+00 0.  1.
         13    1    4    4    0    0  0.39802445794E+02 -0.31298743144E+02 -0.47594094205E+02  0.69491321881E+02  0.00000000000E+00 0. -1.
         21    1    1    2  502  501 -0.10286549122E+02 -0.48153202675E+02 -0.58043567513E+02  0.76115699762E+02  0.00000000000E+00 0. -1.
<scales pt_clust_5="13000.00000" pt_clust_6="13000.00000" pt_clust_7="13000.00000" pt_clust_8="13000.00000" pt_clust_9="49.23966"></scales>
<clustering>
<clus scale="   49.240">  1  9  2 -1</clus>
<clus scale="   90.601">  5  6 -1 -1</clus>
<clus scale="   90.798">  7  8 -1 -1</clus>
<clus scale="  100.554">  1  5  2 -1</clus>
<clus scale="  100.731">  2  5  1 -1</clus>
</clustering>
</event>
<event>
 9    1  0.1175034E-005  0.1052859E+03  0.7546771E-02  0.1272138E+00
          2   -1    0    0  502    0  0.00000000000E+00  0.00000000000E+00  0.56064263765E+03  0.56064263765E+03  0.00000000000E+00 0. -1.
         -2   -1    0    0    0  501 -0.00000000000E+00 -0.00000000000E+00 -0.26034967121E+02  0.26034967121E+02  0.00000000000E+00 0.  1.
         23    2    1    2    0    0 -0.40485362911E+02 -0.28209940828E+02  0.14879745712E+03  0.17879463539E+03  0.85976584191E+02 0.  0.
         23    2    1    2    0    0  0.52735980332E+02  0.11013231197E+02  0.35419915997E+03  0.36986898315E+03  0.91889307809E+02 0.  0.
        -11    1    3    3    0    0  0.11669731284E+02 -0.17969768808E+02  0.11228421952E+03  0.11431028463E+03  0.00000000000E+00 0. -1.
         11    1    3    3    0    0 -0.52155094195E+02 -0.10240172020E+02  0.36513237601E+02  0.64484350765E+02  0.00000000000E+00 0.  1.
        -13    1    4    4    0    0  0.15797920241E+02 -0.28874859938E+02  0.44034964833E+02  0.54976449032E+02  0.00000000000E+00 0.  1.
         13    1    4    4    0    0  0.36938060091E+02  0.39888091135E+02  0.31016419513E+03  0.31489253411E+03  0.00000000000E+00 0. -1.
         21    1    1    2  502  501 -0.12250617421E+02  0.17196709631E+02  0.31611053451E+02  0.38013986237E+02  0.00000000000E+00 0.  1.
<scales pt_clust_5="13000.00000" pt_clust_6="13000.00000" pt_clust_7="13000.00000" pt_clust_8="13000.00000" pt_clust_9="21.11408"></scales>
<clustering>
<clus scale="   21.114">  2  9  1 -1</clus>
<clus scale="   85.977">  5  6 -1 -1</clus>
<clus scale="   91.889">  7  8 -1 -1</clus>
<clus scale="  100.167">  2  5  1 -1</clus>
<clus scale="  105.286">  1  5  2 -1</clus>
</clustering>
</event>
<event>
 9    1  0.1175034E-005  0.1217519E+03  0.7546771E-02  0.1241380E+00
         -1   -1    0    0    0  501 -0.00000000000E+00  0.00000000000E+00  0.84295740992E+02  0.84295740992E+02  0.00000000000E+00 0.  1.
          1   -1    0    0  502    0  0.00000000000E+00 -0.00000000000E+00 -0.23914934740E+03  0.23914934740E+03  0.00000000000E+00 0. -1.
         23    2    1    2    0    0 -0.68044191761E+02  0.30894976160E+02 -0.66542928410E+02  0.13562807153E+03  0.91555998612E+02 0.  0.
         23    2    1    2    0    0  0.66326264053E+02 -0.54979983956E+02 -0.10223025911E+03  0.15994599939E+03  0.87805039170E+02 0.  0.
        -11    1    3    3    0    0 -0.50754297249E+01  0.27652380973E+02  0.15540201460E+02  0.32123387458E+02  0.00000000000E+00 0.  1.
         11    1    3    3    0    0 -0.62968762036E+02  0.32425951871E+01 -0.82083129870E+02  0.10350468407E+03  0.00000000000E+00 0. -1.
        -11    1    4    4    0    0  0.51079653436E+02 -0.22123237743E+02 -0.46486503013E+01  0.55858558816E+02  0.00000000000E+00 0.  1.
         11    1    4    4    0    0  0.15246610617E+02 -0.32856746213E+02 -0.97581608812E+02  0.10408744058E+03  0.00000000000E+00 0. -1.
         21    1    1    2  502  501  0.17179277084E+01  0.24085007797E+02  0.13919581117E+02  0.27871017467E+02  0.00000000000E+00 0. -1.
<scales pt_clust_5="13000.00000" pt_clust_6="13000.00000" pt_clust_7="13000.00000" pt_clust_8="13000.00000" pt_clust_9="24.14620"></scales>
<clustering>
<clus scale="   24.146">  1  9  2 -1</clus>
<clus scale="   87.805">  7  8 -1 -1</clus>
<clus scale="   91.556">  5  6 -1 -1</clus>
<clus scale="  118.957">  2  7  1 -1</clus>
<clus scale="  118.957">  2  5  1 -1</clus>
</clustering>
</event>
<event>
 9    1  0.1175034E-005  0.1273362E+03  0.7546771E-02  0.1232004E+00
          1   -1    0    0  502    0  0.00000000000E+00  0.00000000000E+00  0.58958640480E+03  0.58958640480E+03  0.00000000000E+00 0. -1.
         -1   -1    0    0    0  501 -0.00000000000E+00 -0.00000000000E+00 -0.80270228432E+02  0.80270228432E+02  0.00000000000E+00 0.  1.
         23    2    1    2    0    0 -0.60450496864E+02 -0.50475862819E+02  0.22765684304E+03  0.25750735472E+03  0.90996287016E+02 0.  0.
         23    2    1    2    0    0  0.58422005685E+02  0.75011506987E+02  0.33127545815E+03  0.35696090018E+03  0.92939755546E+02 0.  0.
        -11    1    3    3    0    0 -0.46969593027E+02 -0.37919816722E+01  0.34683785710E+02  0.58510569859E+02  0.00000000000E+00 0.  1.
         11    1    3    3    0    0 -0.13480903837E+02 -0.46683881147E+02  0.19297305733E+03  0.19899678486E+03  0.00000000000E+00 0. -1.
        -13    1    4    4    0    0  0.76095671676E+02  0.51583677319E+02  0.17221987808E+03  0.19522067877E+03  0.00000000000E+00 0. -1.
         13    1    4    4    0    0 -0.17673665991E+02  0.23427829669E+02  0.15905558007E+03  0.16174022142E+03  0.00000000000E+00 0.  1.
         21    1    1    2  502  501  0.20284911789E+01 -0.24535644168E+02 -0.49616124825E+02  0.55388378328E+02  0.00000000000E+00 0.  1.
<scales pt_clust_5="13000.00000" pt_clust_6="13000.00000" pt_clust_7="13000.00000" pt_clust_8="13000.00000" pt_clust_9="24.61935"></scales>
<clustering>
<clus scale="   24.619">  2  9  1 -1</clus>
<clus scale="   90.996">  5  6 -1 -1</clus>
<clus scale="   92.940">  7  8 -1 -1</clus>
<clus scale="  125.925">  2  5  1 -1</clus>
<clus scale="  127.336">  1  5  2 -1</clus>
</clustering>
</event>
<event>
 9    1  0.1175034E-005  0.1222428E+03  0.7546771E-02  0.1239899E+00
         -2   -1    0    0    0  501 -0.00000000000E+00  0.00000000000E+00  0.51868874707E+02  0.51868874707E+02  0.00000000000E+00 0.  1.
          2   -1    0    0  502    0  0.00000000000E+00 -0.00000000000E+00 -0.70784973359E+03  0.70784973359E+03  0.00000000000E+00 0. -1.
         23    2    1    2    0    0 -0.82074943413E+02 -0.10584276590E+02 -0.17382408047E+03  0.21211323805E+03  0.89044323555E+02 0.  0.
         23    2    1    2    0    0  0.75400904641E+02  0.34392249084E+02 -0.50143966075E+03  0.51624947926E+03  0.90574103622E+02 0.  0.
        -13    1    4    4    0    0  0.87222601553E+02  0.51390753201E+02 -0.43663716452E+03  0.44821959482E+03  0.00000000000E+00 0. -1.
         13    1    4    4    0    0 -0.11821696913E+02 -0.16998504117E+02 -0.64802496225E+02  0.68029884441E+02  0.00000000000E+00 0.  1.
        -13    1    3    3    0    0 -0.43985435163E+02 -0.43478456340E+02 -0.53830004158E+02  0.81992463189E+02  0.00000000000E+00 0.  1.
         13    1    3    3    0    0 -0.38089508250E+02  0.32894179750E+02 -0.11999407632E+03  0.13012077486E+03  0.00000000000E+00 0. -1.
         21    1    1    2  502  501  0.66740387723E+01 -0.23807972494E+02  0.19282882343E+02  0.31355890981E+02  0.00000000000E+00 0.  1.
<scales pt_clust_5="13000.00000" pt_clust_6="13000.00000" pt_clust_7="13000.00000" pt_clust_8="13000.00000" pt_clust_9="24.72574"></scales>
<clustering>
<clus scale="   24.726">  1  9  2 -1</clus>
<clus scale="   89.044">  7  8 -1 -1</clus>
<clus scale="   90.574">  5  6 -1 -1</clus>
<clus scale="  121.114">  1  7  2 -1</clus>
<clus scale="  122.243">  2  5  1 -1</clus>
</clustering>
</event>
<event>
 9    1  0.1175034E-005  0.9971111E+02  0.7546771E-02  0.1285772E+00
          2   -1    0    0  502    0  0.00000000000E+00  0.00000000000E+00  0.17271667289E+03  0.17271667289E+03  0.00000000000E+00 0. -1.
         -2   -1    0    0    0  501 -0.00000000000E+00 -0.00000000000E+00 -0.10102803683E+03  0.10102803683E+03  0.00000000000E+00 0.  1.
         23    2    1    2    0    0 -0.14706046242E+02  0.36033142875E+02 -0.17367293795E+02  0.94761130009E+02  0.84636834093E+02 0.  0.
         23    2    1    2    0    0  0.28036926303E+02 -0.17634482333E+02  0.10974911210E+03  0.14825198579E+03  0.94003933325E+02 0.  0.
        -13    1    4    4    0    0 -0.12285550174E+02 -0.36859117823E+02  0.92567802591E+02  0.10039087302E+03  0.00000000000E+00 0.  1.
         13    1    4    4    0    0  0.40322476477E+02  0.19224635490E+02  0.17181309509E+02  0.47861112768E+02  0.00000000000E+00 0. -1.
        -13    1    3    3    0    0  0.19146751081E+02  0.21122281506E+02 -0.41678673711E+02  0.50496145351E+02  0.00000000000E+00 0.  1.
         13    1    3    3    0    0 -0.33852797324E+02  0.14910861369E+02  0.24311379915E+02  0.44264984658E+02  0.00000000000E+00 0. -1.
         21    1    1    2  502  501 -0.13330880061E+02 -0.18398660542E+02 -0.20693182246E+02  0.30731593912E+02  0.00000000000E+00 0. -1.
<scales pt_clust_5="13000.00000" pt_clust_6="13000.00000" pt_clust_7="13000.00000" pt_clust_8="13000.00000" pt_clust_9="22.72054"></scales>
<clustering>
<clus scale="   22.721">  2  9  1 -1</clus>
<clus scale="   84.637">  7  8 -1 -1</clus>
<clus scale="   90.934">  2  7  1 -1</clus>
<clus scale="   94.004">  5  6 -1 -1</clus>
<clus scale="   99.711">  1  5  2 -1</clus>
</clustering>
</event>
<event>
 9    1  0.1175034E-005  0.1829185E+03  0.7546771E-02  0.1165974E+00
         -2   -1    0    0    0  501 -0.00000000000E+00  0.00000000000E+00  0.20928920756E+03  0.20928920756E+03  0.00000000000E+00 0.  1.
          2   -1    0    0  502    0  0.00000000000E+00 -0.00000000000E+00 -0.82903702507E+03  0.82903702507E+03  0.00000000000E+00 0. -1.
         23    2    1    2    0    0 -0.14212707019E+03 -0.81071661806E+01 -0.28199292012E+03  0.32809975625E+03  0.88677014113E+02 0.  0.
         23    2    1    2    0    0  0.16341923113E+03  0.27195188264E+02 -0.50519638863E+03  0.54036075973E+03  0.96544995754E+02 0.  0.
        -13    1    3    3    0    0 -0.25147098032E+02 -0.56811760011E+01 -0.34889110926E+01  0.26015856718E+02  0.00000000000E+00 0.  1.
         13    1    3    3    0    0 -0.11697997215E+03 -0.24259901796E+01 -0.27850400903E+03  0.30208389954E+03  0.00000000000E+00 0. -1.
        -13    1    4    4    0    0 -0.30035680037E+01  0.23191131072E+02 -0.91148742134E+02  0.94100707616E+02  0.00000000000E+00 0. -1.
         13    1    4    4    0    0  0.16642279914E+03  0.40040571914E+01 -0.41404764649E+03  0.44626005211E+03  0.00000000000E+00 0.  1.
         21    1    1    2  502  501 -0.21292160945E+02 -0.19088022083E+02  0.16744149123E+03  0.16986571664E+03  0.00000000000E+00 0.  1.
<scales pt_clust_5="13000.00000" pt_clust_6="13000.00000" pt_clust_7="13000.00000" pt_clust_8="13000.00000" pt_clust_9="28.59561"></scales>
<clustering>
<clus scale="   28.596">  1  9  2 -1</clus>
<clus scale="   88.677">  5  6 -1 -1</clus>
<clus scale="   96.545">  7  8 -1 -1</clus>
<clus scale="  178.891">  1  5  2 -1</clus>
<clus scale="  182.918">  2  5  1 -1</clus>
</clustering>
</event>
<event>
 9    1  0.1175034E-005  0.9449780E+02  0.7546771E-02  0.1292324E+00
         -1   -1    0    0    0  501 -0.00000000000E+00  0.00000000000E+00  0.16398186526E+03  0.16398186526E+03  0.00000000000E+00 0.  1.
          1   -1    0    0  502    0  0.00000000000E+00 -0.00000000000E+00 -0.80532118681E+02  0.80532118681E+02  0.00000000000E+00 0. -1.
         23    2    1    2    0    0 -0.11912888991E+02 -0.15706019325E+01  0.68904389394E+02  0.11552696615E+03  0.91947165890E+02 0.  0.
         23    2    1    2    0    0  0.79957796243E+01  0.28845746551E+02 -0.21968173429E+01  0.96744535448E+02  0.91971025583E+02 0.  0.
        -13    1    3    3    0    0  0.16993196740E+02  0.30180345355E+02  0.63391387086E+02  0.72236347761E+02  0.00000000000E+00 0.  1.
         13    1    3    3    0    0 -0.28906085731E+02 -0.31750947287E+02  0.55130023071E+01  0.43290618387E+02  0.00000000000E+00 0. -1.
        -13    1    4    4    0    0  0.29486853573E+02 -0.17496405498E+02  0.21460642952E+02  0.40449449130E+02  0.00000000000E+00 0.  1.
         13    1    4    4    0    0 -0.21491073949E+02  0.46342152049E+02 -0.23657460295E+02  0.56295086318E+02  0.00000000000E+00 0. -1.
         21    1    1    2  502  501  0.39171093663E+01 -0.27275144618E+02  0.16742174527E+02  0.32242482343E+02  0.00000000000E+00 0. -1.
<scales pt_clust_5="13000.00000" pt_clust_6="13000.00000" pt_clust_7="13000.00000" pt_clust_8="13000.00000" pt_clust_9="27.55499"></scales>
<clustering>
<clus scale="   27.555">  1  9  2 -1</clus>
<clus scale="   91.947">  5  6 -1 -1</clus>
<clus scale="   91.971">  7  8 -1 -1</clus>
<clus scale="   94.475">  1  5  2 -1</clus>
<clus scale="   94.498">  2  5  1 -1</clus>
</clustering>
</event>
<event>
 9    1  0.1175034E-005  0.1022727E+03  0.7546771E-02  0.1276986E+00
         -2   -1    0    0    0  501 -0.00000000000E+00  0.00000000000E+00  0.58160243362E+02  0.58160243362E+02  0.00000000000E+00 0.  1.
          2   -1    0    0  502    0  0.00000000000E+00 -0.00000000000E+00 -0.33024214779E+03  0.33024214779E+03  0.00000000000E+00 0. -1.
         23    2    1    2    0    0 -0.17445705966E+02  0.24651629953E+02 -0.11554849999E+03  0.15198081783E+03  0.93992859419E+02 0.  0.
         23    2    1    2    0    0  0.49762267098E+02 -0.15410269101E+02 -0.17036970862E+03  0.20007317325E+03  0.91047665646E+02 0.  0.
        -11    1    4    4    0    0 -0.16315430909E+02  0.20819765952E+02 -0.25322625344E+02  0.36618182565E+02  0.00000000000E+00 0.  1.
         11    1    4    4    0    0  0.66077698007E+02 -0.36230035053E+02 -0.14504708328E+03  0.16345499069E+03  0.00000000000E+00 0. -1.
        -13    1    3    3    0    0 -0.34211675120E+02 -0.27488014521E+02 -0.48568383769E+02  0.65459281685E+02  0.00000000000E+00 0.  1.
         13    1    3    3    0    0  0.16765969154E+02  0.52139644474E+02 -0.66980116223E+02  0.86521536144E+02  0.00000000000E+00 0. -1.
         21    1    1    2  502  501 -0.32316561132E+02 -0.92413608518E+01  0.13836304187E+02  0.36348400066E+02  0.00000000000E+00 0.  1.
<scales pt_clust_5="13000.00000" pt_clust_6="13000.00000" pt_clust_7="13000.00000" pt_clust_8="13000.00000" pt_clust_9="33.61195"></scales>
<clustering>
<clus scale="   33.612">  1  9  2 -1</clus>
<clus scale="   91.048">  5  6 -1 -1</clus>
<clus scale="   93.993">  7  8 -1 -1</clus>
<clus scale="   99.573">  2  5  1 -1</clus>
<clus scale="   99.573">  2  5  1 -1</clus>
</clustering>
</event>
<event>
 9    1  0.1175034E-005  0.1876727E+03  0.7546771E-02  0.1160784E+00
          2   -1    0    0  502    0  0.00000000000E+00  0.00000000000E+00  0.13025800603E+03  0.13025800603E+03  0.00000000000E+00 0. -1.
         -2   -1    0    0    0  501 -0.00000000000E+00 -0.00000000000E+00 -0.10809117595E+04  0.10809117595E+04  0.00000000000E+00 0.  1.
         23    2    1    2    0    0  0.23470622890E+03  0.17210688212E+02 -0.45723469009E+03  0.52251087670E+03  0.92578792257E+02 0.  0.
         23    2    1    2    0    0 -0.14438512314E+03 -0.46925939835E+02  0.92172149653E+01  0.17710818105E+03  0.90737220195E+02 0.  0.
        -11    1    3    3    0    0  0.17963727308E+03 -0.21374668632E+02 -0.37444111507E+03  0.41585162618E+03  0.00000000000E+00 0.  1.
         11    1    3    3    0    0  0.55068955816E+02  0.38585356845E+02 -0.82793575022E+02  0.10665925052E+03  0.00000000000E+00 0. -1.
        -11    1    4    4    0    0 -0.89460939296E+02 -0.33975024358E+02 -0.38556837742E+02  0.10317069195E+03  0.00000000000E+00 0.  1.
         11    1    4    4    0    0 -0.54924183847E+02 -0.12950915478E+02  0.47774052708E+02  0.73937489104E+02  0.00000000000E+00 0. -1.
         21    1    1    2  502  501 -0.90321105754E+02  0.29715251623E+02 -0.50263627833E+03  0.51155070776E+03  0.00000000000E+00 0.  1.
<scales pt_clust_5="13000.00000" pt_clust_6="13000.00000" pt_clust_7="13000.00000" pt_clust_8="13000.00000" pt_clust_9="95.08364"></scales>
<clustering>
<clus scale="   90.737">  7  8 -1 -1</clus>
<clus scale="   92.579">  5  6 -1 -1</clus>
<clus scale="   95.084">  2  9  1 -1</clus>
<clus scale="  186.771">  1  7  2 -1</clus>
<clus scale="  186.771">  1  5  2 -1</clus>
</clustering>
</event>
<event>
 9    1  0.1175034E-005  0.9706979E+02  0.7546771E-02  0.1287366E+00
          2   -1    0    0  502    0  0.00000000000E+00  0.00000000000E+00  0.19246939353E+03  0.19246939353E+03  0.00000000000E+00 0. -1.
         -2   -1    0    0    0  501 -0.00000000000E+00 -0.00000000000E+00 -0.10039452061E+03  0.10039452061E+03  0.00000000000E+00 0.  1.
         23    2    1    2    0    0 -0.63087657317E+01 -0.55554796512E+02  0.45235133385E+01  0.10455525663E+03  0.88233800640E+02 0.  0.
         23    2    1    2    0    0  0.54571415862E+01  0.30042689579E+02  0.11617197767E+03  0.14995852526E+03  0.89773533455E+02 0.  0.
        -11    1    4    4    0    0  0.36153211983E+02  0.27981131376E+02  0.10924239803E+03  0.11842254844E+03  0.00000000000E+00 0. -1.
         11    1    4    4    0    0 -0.30696070396E+02  0.20615582031E+01  0.69295796385E+01  0.31535976820E+02  0.00000000000E+00 0.  1.
        -13    1    3    3    0    0 -0.10466926630E+02 -0.79447090806E+02  0.18278185626E+01  0.80154461581E+02  0.00000000000E+00 0.  1.
         13    1    3    3    0    0  0.41581608980E+01  0.23892294294E+02  0.26956947759E+01  0.24400795049E+02  0.00000000000E+00 0. -1.
         21    1    1    2  502  501  0.85162414549E+00  0.25512106933E+02 -0.28620618095E+02  0.38350132255E+02  0.00000000000E+00 0. -1.
<scales pt_clust_5="13000.00000" pt_clust_6="13000.00000" pt_clust_7="13000.00000" pt_clust_8="13000.00000" pt_clust_9="25.52632"></scales>
<clustering>
<clus scale="   25.526">  2  9  1 -1</clus>
<clus scale="   88.234">  7  8 -1 -1</clus>
<clus scale="   89.774">  5  6 -1 -1</clus>
<clus scale="   95.648">  2  7  1 -1</clus>
<clus scale="   97.070">  1  5  2 -1</clus>
</clustering>
</event>
<event>
 9    1  0.1175034E-005  0.1186373E+03  0.7546771E-02  0.1250672E+00
         -1   -1    0    0    0  501 -0.00000000000E+00  0.00000000000E+00  0.16225577355E+03  0.16225577355E+03  0.00000000000E+00 0.  1.
          1   -1    0    0  502    0  0.00000000000E+00 -0.00000000000E+00 -0.28267444911E+03  0.28267444911E+03  0.00000000000E+00 0. -1.
         23    2    1    2    0    0  0.95649835834E+02 -0.39263345709E+02 -0.20622585471E+02  0.14795541327E+03  0.10380275466E+03 0.  0.
         23    2    1    2    0    0 -0.19711711654E+02  0.47868632267E+02 -0.16608443566E+03  0.19580764862E+03  0.89870117159E+02 0.  0.
        -11    1    4    4    0    0  0.22498592749E+02  0.58829524500E+01 -0.46102202042E+01  0.23707592361E+02  0.00000000000E+00 0.  1.
         11    1    4    4    0    0 -0.42210304403E+02  0.41985679816E+02 -0.16147421545E+03  0.17210005626E+03  0.00000000000E+00 0. -1.
        -13    1    3    3    0    0  0.33672583363E+02 -0.39953701244E+02  0.36443563102E+02  0.63704587001E+02  0.00000000000E+00 0.  1.
         13    1    3    3    0    0  0.61977252471E+02  0.69035553552E+00 -0.57066148573E+02  0.84250826273E+02  0.00000000000E+00 0. -1.
         21    1    1    2  502  501 -0.75938124181E+02 -0.86052865580E+01  0.66288345569E+02  0.10116716077E+03  0.00000000000E+00 0. -1.
<scales pt_clust_5="13000.00000" pt_clust_6="13000.00000" pt_clust_7="13000.00000" pt_clust_8="13000.00000" pt_clust_9="76.42414"></scales>
<clustering>
<clus scale="   76.424">  1  9  2 -1</clus>
<clus scale="   89.870">  5  6 -1 -1</clus>
<clus scale="  103.803">  7  8 -1 -1</clus>
<clus scale="  106.660">  2  5  1 -1</clus>
<clus scale="  106.660">  2  5  1 -1</clus>
</clustering>
</event>
<event>
 9    1  0.1175034E-005  0.1184994E+03  0.7546771E-02  0.1246469E+00
         -1   -1    0    0    0  501 -0.00000000000E+00  0.00000000000E+00  0.17378799291E+03  0.17378799291E+03  0.00000000000E+00 0.  1.
          1   -1    0    0  502    0  0.00000000000E+00 -0.00000000000E+00 -0.11257488899E+03  0.11257488899E+03  0.00000000000E+00 0. -1.
         23    2    1    2    0    0 -0.36645712754E+02  0.44881031188E+02  0.41287327186E+02  0.11758113153E+03  0.93613374487E+02 0.  0.
         23    2    1    2    0    0  0.59392354635E+02 -0.72902823122E+02  0.21781101741E+02  0.13264212156E+03  0.90979352657E+02 0.  0.
        -13    1    3    3    0    0 -0.67988378480E+02  0.28908705673E+02  0.20295896887E+02  0.76616292670E+02  0.00000000000E+00 0.  1.
         13    1    3    3    0    0  0.31342665726E+02  0.15972325515E+02  0.20991430299E+02  0.40964838864E+02  0.00000000000E+00 0. -1.
        -13    1    4    4    0    0  0.75476337015E+02 -0.46379732871E+02 -0.88744673986E+01  0.89030967882E+02  0.00000000000E+00 0. -1.
         13    1    4    4    0    0 -0.16083982379E+02 -0.26523090251E+02  0.30655569140E+02  0.43611153676E+02  0.00000000000E+00 0.  1.
         21    1    1    2  502  501 -0.22746641882E+02  0.28021791935E+02 -0.18553250058E+01  0.36139628817E+02  0.00000000000E+00 0.  1.
<scales pt_clust_5="13000.00000" pt_clust_6="13000.00000" pt_clust_7="13000.00000" pt_clust_8="13000.00000" pt_clust_9="36.09197"></scales>
<clustering>
<clus scale="   36.092">  2  9  1 -1</clus>
<clus scale="   90.979">  7  8 -1 -1</clus>
<clus scale="   93.613">  5  6 -1 -1</clus>
<clus scale="  116.430">  2  7  1 -1</clus>
<clus scale="   36.092">  2  5  1 -1</clus>
</clustering>
</event>
<event>
 9    1  0.1175034E-005  0.9362257E+02  0.7546771E-02  0.1295437E+00
          1   -1    0    0  502    0  0.00000000000E+00  0.00000000000E+00  0.42829198935E+03  0.42829198935E+03  0.00000000000E+00 0. -1.
         -1   -1    0    0    0  501 -0.00000000000E+00 -0.00000000000E+00 -0.31333204267E+02  0.31333204267E+02  0.00000000000E+00 0.  1.
         23    2    1    2    0    0 -0.58701504533E+01 -0.37491583077E+02  0.15022773547E+03  0.17895729503E+03  0.89539172837E+02 0.  0.
         23    2    1    2    0    0  0.11676869375E+01  0.82676258586E+01  0.22751563471E+03  0.24537788571E+03  0.91527185192E+02 0.  0.
        -11    1    3    3    0    0 -0.45897562285E+02 -0.13477549468E+02  0.54912199423E+02  0.72825683717E+02  0.00000000000E+00 0.  1.
         11    1    3    3    0    0  0.40027411832E+02 -0.24014033609E+02  0.95315536049E+02  0.10613161132E+03  0.00000000000E+00 0. -1.
        -13    1    4    4    0    0  0.34069081088E+02 -0.21578549620E+02  0.15650647673E+03  0.16161872834E+03  0.00000000000E+00 0. -1.
         13    1    4    4    0    0 -0.32901394150E+02  0.29846175479E+02  0.71009157979E+02  0.83759157378E+02  0.00000000000E+00 0.  1.
         21    1    1    2  502  501  0.47024635157E+01  0.29223957219E+02  0.19215414902E+02  0.35290012872E+02  0.00000000000E+00 0. -1.
<scales pt_clust_5="13000.00000" pt_clust_6="13000.00000" pt_clust_7="13000.00000" pt_clust_8="13000.00000" pt_clust_9="29.59988"></scales>
<clustering>
<clus scale="   29.600">  2  9  1 -1</clus>
<clus scale="   89.539">  5  6 -1 -1</clus>
<clus scale="   91.527">  7  8 -1 -1</clus>
<clus scale="   91.680">  2  5  1 -1</clus>
<clus scale="   93.623">  1  5  2 -1</clus>
</clustering>
</event>
<event>
 9    1  0.1175034E-005  0.9372962E+02  0.7546771E-02  0.1294679E+00
          2   -1    0    0  502    0  0.00000000000E+00  0.00000000000E+00  0.31927098723E+03  0.31927098723E+03  0.00000000000E+00 0. -1.
         -2   -1    0    0    0  501 -0.00000000000E+00 -0.00000000000E+00 -0.59781366162E+02  0.59781366162E+02  0.00000000000E+00 0.  1.
         23    2    1    2    0    0  0.61149361090E+00  0.35852387647E+02  0.64926533741E+02  0.11861724451E+03  0.92567965771E+02 0.  0.
         23    2    1    2    0    0  0.15374887164E+02  0.11300290496E+00  0.20022398575E+03  0.22067181603E+03  0.91487736861E+02 0.  0.
        -11    1    3    3    0    0  0.15523573989E+02  0.55330598031E+02  0.98236677907E+01  0.58300607859E+02  0.00000000000E+00 0.  1.
         11    1    3    3    0    0 -0.14912080378E+02 -0.19478210384E+02  0.55102865951E+02  0.60316636651E+02  0.00000000000E+00 0. -1.
        -13    1    4    4    0    0  0.37056982746E+02 -0.27042515559E+02  0.16473318921E+03  0.17100158258E+03  0.00000000000E+00 0.  1.
         13    1    4    4    0    0 -0.21682095582E+02  0.27155518464E+02  0.35490796537E+02  0.49670233448E+02  0.00000000000E+00 0. -1.
         21    1    1    2  502  501 -0.15986380775E+02 -0.35965390552E+02 -0.56608984183E+01  0.39763292856E+02  0.00000000000E+00 0.  1.
<scales pt_clust_5="13000.00000" pt_clust_6="13000.00000" pt_clust_7="13000.00000" pt_clust_8="13000.00000" pt_clust_9="39.35827"></scales>
<clustering>
<clus scale="   39.358">  2  9  1 -1</clus>
<clus scale="   91.488">  7  8 -1 -1</clus>
<clus scale="   92.568">  5  6 -1 -1</clus>
<clus scale="   92.663">  1  7  2 -1</clus>
<clus scale="   92.663">  1  5  2 -1</clus>
</clustering>
</event>
<event>
 9    1  0.1175034E-005  0.1094693E+03  0.7546771E-02  0.1263226E+00
         -1   -1    0    0    0  501 -0.00000000000E+00  0.00000000000E+00  0.18187762541E+03  0.18187762541E+03  0.00000000000E+00 0.  1.
          1   -1    0    0  502    0  0.00000000000E+00 -0.00000000000E+00 -0.34463177850E+03  0.34463177850E+03  0.00000000000E+00 0. -1.
         23    2    1    2    0    0 -0.80093616889E+02  0.12394571015E+02 -0.14162557209E+03  0.18653400865E+03  0.90379869747E+02 0.  0.
         23    2    1    2    0    0  0.34370453950E+02 -0.20168435478E+02 -0.16196595670E+03  0.19169792903E+03  0.94482966562E+02 0.  0.
        -11    1    4    4    0    0 -0.29424231554E+02 -0.20102471638E+02 -0.81956277853E+02  0.89368485766E+02  0.00000000000E+00 0.  1.
         11    1    4    4    0    0  0.63794685504E+02 -0.65963840173E-01 -0.80009678849E+02  0.10232944327E+03  0.00000000000E+00 0. -1.
        -13    1    3    3    0    0  0.12051447155E+02 -0.18904856698E+02 -0.39824179617E+02  0.45701162649E+02  0.00000000000E+00 0. -1.
         13    1    3    3    0    0 -0.92145064043E+02  0.31299427714E+02 -0.10180139247E+03  0.14083284600E+03  0.00000000000E+00 0.  1.
         21    1    1    2  502  501  0.45723162939E+02  0.77738644625E+01  0.14083737570E+03  0.14827746623E+03  0.00000000000E+00 0.  1.
<scales pt_clust_5="13000.00000" pt_clust_6="13000.00000" pt_clust_7="13000.00000" pt_clust_8="13000.00000" pt_clust_9="46.37931"></scales>
<clustering>
<clus scale="   46.379">  1  9  2 -1</clus>
<clus scale="   90.380">  7  8 -1 -1</clus>
<clus scale="   94.483">  5  6 -1 -1</clus>
<clus scale="  105.948">  1  7  2 -1</clus>
<clus scale="  109.469">  2  5  1 -1</clus>
</clustering>
</event>
<event>
 9    1  0.1175034E-005  0.1095980E+03  0.7546771E-02  0.1261921E+00
         -3   -1    0    0    0  501 -0.00000000000E+00  0.00000000000E+00  0.28526208780E+03  0.28526208780E+03  0.00000000000E+00 0.  1.
          3   -1    0    0  502    0  0.00000000000E+00 -0.00000000000E+00 -0.20337442326E+03  0.20337442326E+03  0.00000000000E+00 0. -1.
         23    2    1    2    0    0  0.55669113864E+01  0.78391137014E+02 -0.38829395804E+02  0.12537720942E+03  0.89641295158E+02 0.  0.
         23    2    1    2    0    0 -0.18909660561E+02 -0.48809020185E+02 -0.97046196940E+02  0.14309125942E+03  0.91198949925E+02 0.  0.
        -11    1    3    3    0    0  0.14456468622E+02  0.96900816444E+02 -0.26772285524E+02  0.10156531389E+03  0.00000000000E+00 0.  1.
         11    1    3    3    0    0 -0.88895572361E+01 -0.18509679430E+02 -0.12057110279E+02  0.23811895530E+02  0.00000000000E+00 0. -1.
        -13    1    4    4    0    0 -0.27177644388E+02 -0.65395705658E+00  0.70620451432E+01  0.28087799770E+02  0.00000000000E+00 0.  1.
         13    1    4    4    0    0  0.82679838267E+01 -0.48155063128E+02 -0.10410824208E+03  0.11500345965E+03  0.00000000000E+00 0. -1.
         21    1    1    2  502  501  0.13342749175E+02 -0.29582116829E+02  0.21776325729E+03  0.22016804222E+03  0.00000000000E+00 0.  1.
<scales pt_clust_5="13000.00000" pt_clust_6="13000.00000" pt_clust_7="13000.00000" pt_clust_8="13000.00000" pt_clust_9="32.45197"></scales>
<clustering>
<clus scale="   32.452">  1  9  2 -1</clus>
<clus scale="   89.641">  5  6 -1 -1</clus>
<clus scale="   91.199">  7  8 -1 -1</clus>
<clus scale="  108.305">  1  5  2 -1</clus>
<clus scale="  109.598">  2  5  1 -1</clus>
</clustering>
</event>
<event>
 9    1  0.1175034E-005  0.1033149E+03  0.7546771E-02  0.1273949E+00
          3   -1    0    0  502    0  0.00000000000E+00  0.00000000000E+00  0.32994035553E+02  0.32994035553E+02  0.00000000000E+00 0. -1.
         -3   -1    0    0    0  501 -0.00000000000E+00 -0.00000000000E+00 -0.45348020013E+03  0.45348020013E+03  0.00000000000E+00 0.  1.
         23    2    1    2    0    0 -0.20836228944E+02  0.43772742419E+02 -0.16320833991E+03  0.19397130124E+03  0.92939238612E+02 0.  0.
         23    2    1    2    0    0  0.40220144193E+02 -0.22776763955E+02 -0.15289008774E+03  0.18427462529E+03  0.91898409233E+02 0.  0.
        -11    1    3    3    0    0 -0.32106142384E+02 -0.12360934571E+02 -0.11197612652E+03  0.11714200780E+03  0.00000000000E+00 0.  1.
         11    1    3    3    0    0  0.11269913439E+02  0.56133676990E+02 -0.51232213394E+02  0.76829293441E+02  0.00000000000E+00 0. -1.
        -13    1    4    4    0    0  0.38712948884E+02  0.20416370174E+02 -0.27606830040E+02  0.51746088232E+02  0.00000000000E+00 0. -1.
         13    1    4    4    0    0  0.15071953091E+01 -0.43193134129E+02 -0.12528325770E+03  0.13252853705E+03  0.00000000000E+00 0.  1.
         21    1    1    2  502  501 -0.19383915249E+02 -0.20995978465E+02 -0.10438773693E+03  0.10822830916E+03  0.00000000000E+00 0.  1.
<scales pt_clust_5="13000.00000" pt_clust_6="13000.00000" pt_clust_7="13000.00000" pt_clust_8="13000.00000" pt_clust_9="28.57564"></scales>
<clustering>
<clus scale="   28.576">  2  9  1 -1</clus>
<clus scale="   91.898">  7  8 -1 -1</clus>
<clus scale="   92.939">  5  6 -1 -1</clus>
<clus scale="  102.380">  1  7  2 -1</clus>
<clus scale="  102.380">  1  5  2 -1</clus>
</clustering>
</event>
<event>
 9    1  0.1175034E-005  0.1088988E+03  0.7546771E-02  0.1263645E+00
         -1   -1    0    0    0  501 -0.00000000000E+00  0.00000000000E+00  0.18465143272E+03  0.18465143272E+03  0.00000000000E+00 0.  1.
          1   -1    0    0  502    0  0.00000000000E+00 -0.00000000000E+00 -0.16557902733E+03  0.16557902733E+03  0.00000000000E+00 0. -1.
         23    2    1    2    0    0 -0.24941383334E+02 -0.54169142560E+02  0.29522947873E+02  0.11323406476E+03  0.91618668197E+02 0.  0.
         23    2    1    2    0    0 -0.17554545118E+01  0.54669004782E+02 -0.97379256308E+02  0.14605920653E+03  0.94121148251E+02 0.  0.
        -13    1    3    3    0    0 -0.52783046647E+02 -0.57324402551E+01  0.98246854760E+01  0.53994771315E+02  0.00000000000E+00 0. -1.
         13    1    3    3    0    0  0.27841663313E+02 -0.48436702305E+02  0.19698262397E+02  0.59239293443E+02  0.00000000000E+00 0.  1.
        -13    1    4    4    0    0  0.25515192107E+02 -0.17215549620E+02 -0.18512233100E+02  0.35918003165E+02  0.00000000000E+00 0.  1.
         13    1    4    4    0    0 -0.27270646619E+02  0.71884554403E+02 -0.78867023208E+02  0.11014120336E+03  0.00000000000E+00 0. -1.
         21    1    1    2  502  501  0.26696837846E+02 -0.49986222195E+00  0.86928713826E+02  0.90937188766E+02  0.00000000000E+00 0.  1.
<scales pt_clust_5="13000.00000" pt_clust_6="13000.00000" pt_clust_7="13000.00000" pt_clust_8="13000.00000" pt_clust_9="26.70152"></scales>
<clustering>
<clus scale="   26.702">  1  9  2 -1</clus>
<clus scale="   91.619">  5  6 -1 -1</clus>
<clus scale="   94.121">  7  8 -1 -1</clus>
<clus scale="  106.743">  1  5  2 -1</clus>
<clus scale="  108.899">  2  5  1 -1</clus>
</clustering>
</event>
<event>
 9    1  0.1175034E-005  0.1229887E+03  0.7546771E-02  0.1247466E+00
         -1   -1    0    0    0  501 -0.00000000000E+00  0.00000000000E+00  0.15200377703E+03  0.15200377703E+03  0.00000000000E+00 0.  1.
          1   -1    0    0  502    0  0.00000000000E+00 -0.00000000000E+00 -0.19770865406E+03  0.19770865406E+03  0.00000000000E+00 0. -1.
         23    2    1    2    0    0 -0.75802605621E+02 -0.13458132944E+02  0.48165056870E+02  0.12879954247E+03  0.91336154266E+02 0.  0.
         23    2    1    2    0    0  0.32280060997E+02  0.19335308046E+02 -0.11992907825E+03  0.16984595135E+03  0.11423137444E+03 0.  0.
        -11    1    4    4    0    0  0.51586133837E+02 -0.23832901982E+00 -0.51763020855E+01  0.51845733752E+02  0.00000000000E+00 0.  1.
         11    1    4    4    0    0 -0.19306072840E+02  0.19573637066E+02 -0.11475277616E+03  0.11800021760E+03  0.00000000000E+00 0. -1.
        -13    1    3    3    0    0 -0.18620421906E+02 -0.45532346768E+02  0.38627714050E+02  0.62546103051E+02  0.00000000000E+00 0.  1.
         13    1    3    3    0    0 -0.57182183715E+02  0.32074213824E+02  0.95373428197E+01  0.66253439419E+02  0.00000000000E+00 0. -1.
         21    1    1    2  502  501  0.43522544624E+02 -0.58771751027E+01  0.26059144354E+02  0.51066937271E+02  0.00000000000E+00 0. -1.
<scales pt_clust_5="13000.00000" pt_clust_6="13000.00000" pt_clust_7="13000.00000" pt_clust_8="13000.00000" pt_clust_9="43.91757"></scales>
<clustering>
<clus scale="   43.918">  1  9  2 -1</clus>
<clus scale="   91.336">  7  8 -1 -1</clus>
<clus scale="  102.077">  1  7  2 -1</clus>
<clus scale="  114.231">  5  6 -1 -1</clus>
<clus scale="  122.989">  2  5  1 -1</clus>
</clustering>
</event>
<event>
 9    1  0.1175034E-005  0.1023669E+03  0.7546771E-02  0.1275556E+00
         -2   -1    0    0    0  501 -0.00000000000E+00  0.00000000000E+00  0.20909633768E+03  0.20909633768E+03  0.00000000000E+00 0.  1.
          2   -1    0    0  502    0  0.00000000000E+00 -0.00000000000E+00 -0.75841663154E+02  0.75841663154E+02  0.00000000000E+00 0. -1.
         23    2    1    2    0    0  0.39683123498E+02 -0.37568510297E+02  0.12189035940E+03  0.16122139940E+03  0.90271460903E+02 0.  0.
         23    2    1    2    0    0 -0.30958639529E+02  0.14222380872E+02 -0.40230934453E+00  0.96155545011E+02  0.89916703145E+02 0.  0.
        -11    1    4    4    0    0  0.14752737316E+02  0.35897729510E+02  0.17388821317E+02  0.42528359351E+02  0.00000000000E+00 0.  1.
         11    1    4    4    0    0 -0.45711376845E+02 -0.21675348638E+02 -0.17791130662E+02  0.53627185660E+02  0.00000000000E+00 0. -1.
        -13    1    3    3    0    0  0.58200639667E+02 -0.50925439192E+02  0.69115011261E+02  0.10371884880E+03  0.00000000000E+00 0.  1.
         13    1    3    3    0    0 -0.18517516168E+02  0.13356928895E+02  0.52775348138E+02  0.57502550601E+02  0.00000000000E+00 0. -1.
         21    1    1    2  502  501 -0.87244839697E+01  0.23346129425E+02  0.11766624472E+02  0.27561056422E+02  0.00000000000E+00 0. -1.
<scales pt_clust_5="13000.00000" pt_clust_6="13000.00000" pt_clust_7="13000.00000" pt_clust_8="13000.00000" pt_clust_9="24.92305"></scales>
<clustering>
<clus scale="   24.923">  2  9  1 -1</clus>
<clus scale="   89.917">  5  6 -1 -1</clus>
<clus scale="   90.271">  7  8 -1 -1</clus>
<clus scale="  102.054">  2  5  1 -1</clus>
<clus scale="   24.923">  2  5  1 -1</clus>
</clustering>
</event>
<event>
 9    1  0.1175034E-005  0.9153744E+02  0.7546771E-02  0.1299695E+00
          2   -1    0    0  502    0  0.00000000000E+00  0.00000000000E+00  0.20933076750E+03  0.20933076750E+03  0.00000000000E+00 0. -1.
         -2   -1    0    0    0  501 -0.00000000000E+00 -0.00000000000E+00 -0.10239191418E+03  0.10239191418E+03  0.00000000000E+00 0.  1.
         23    2    1    2    0    0 -0.26676053019E+02 -0.80982813291E+01 -0.50929089199E+02  0.10779615249E+03  0.90824250065E+02 0.  0.
         23    2    1    2    0    0  0.67029350438E+00  0.10996168767E+02  0.15223667739E+03  0.17716072215E+03  0.89936369215E+02 0.  0.
        -11    1    3    3    0    0 -0.38969509944E+02  0.12435794600E+02 -0.67330666201E+02  0.78782550756E+02  0.00000000000E+00 0. -1.
         11    1    3    3    0    0  0.12293456925E+02 -0.20534075929E+02  0.16401577002E+02  0.29013601734E+02  0.00000000000E+00 0.  1.
        -13    1    4    4    0    0 -0.21462640010E+02 -0.33195320007E+02  0.51205903224E+02  0.64688628920E+02  0.00000000000E+00 0.  1.
         13    1    4    4    0    0  0.22132933514E+02  0.44191488774E+02  0.10103077417E+03  0.11247209323E+03  0.00000000000E+00 0. -1.
         21    1    1    2  502  501  0.26005759515E+02 -0.28978874379E+01  0.56312651279E+01  0.26765807040E+02  0.00000000000E+00 0.  1.
<scales pt_clust_5="13000.00000" pt_clust_6="13000.00000" pt_clust_7="13000.00000" pt_clust_8="13000.00000" pt_clust_9="26.16672"></scales>
<clustering>
<clus scale="   26.167">  2  9  1 -1</clus>
<clus scale="   89.936">  7  8 -1 -1</clus>
<clus scale="   90.657">  1  7  2 -1</clus>
<clus scale="   90.824">  5  6 -1 -1</clus>
<clus scale="   90.657">  1  5  2 -1</clus>
</clustering>
</event>
<event>
 9    1  0.1175034E-005  0.9766004E+02  0.7546771E-02  0.1287332E+00
         -1   -1    0    0    0  501 -0.00000000000E+00  0.00000000000E+00  0.44608332845E+02  0.44608332845E+02  0.00000000000E+00 0.  1.
          1   -1    0    0  502    0  0.00000000000E+00 -0.00000000000E+00 -0.28476836284E+03  0.28476836284E+03  0.00000000000E+00 0. -1.
         23    2    1    2    0    0 -0.39397027063E+01  0.40328498510E+02 -0.94521512064E+02  0.13717754136E+03  0.90782446326E+02 0.  0.
         23    2    1    2    0    0  0.41864636689E+00 -0.11999239769E+02 -0.12379055412E+03  0.15625088230E+03  0.94583719063E+02 0.  0.
        -11    1    4    4    0    0  0.39931408200E+02 -0.26002591873E+02 -0.92109006811E+02  0.10370497230E+03  0.00000000000E+00 0.  1.
         11    1    4    4    0    0 -0.39512761834E+02  0.14003352103E+02 -0.31681547308E+02  0.52545910000E+02  0.00000000000E+00 0. -1.
        -11    1    3    3    0    0  0.33186128781E+02  0.21604702653E+02 -0.69067285227E+01  0.40196830958E+02  0.00000000000E+00 0.  1.
         11    1    3    3    0    0 -0.37125831487E+02  0.18723795857E+02 -0.87614783541E+02  0.96980710401E+02  0.00000000000E+00 0. -1.
         21    1    1    2  502  501  0.35210563394E+01 -0.28329258741E+02 -0.21847963811E+02  0.35948272020E+02  0.00000000000E+00 0. -1.
<scales pt_clust_5="13000.00000" pt_clust_6="13000.00000" pt_clust_7="13000.00000" pt_clust_8="13000.00000" pt_clust_9="28.54724"></scales>
<clustering>
<clus scale="   28.547">  1  9  2 -1</clus>
<clus scale="   90.782">  7  8 -1 -1</clus>
<clus scale="   93.983">  1  7  2 -1</clus>
<clus scale="   94.584">  5  6 -1 -1</clus>
<clus scale="   97.660">  2  5  1 -1</clus>
</clustering>
</event>
<event>
 9    1  0.1175034E-005  0.1123531E+03  0.7546771E-02  0.1256418E+00
          1   -1    0    0  502    0  0.00000000000E+00  0.00000000000E+00  0.12469557941E+03  0.12469557941E+03  0.00000000000E+00 0. -1.
         -1   -1    0    0    0  501 -0.00000000000E+00 -0.00000000000E+00 -0.37806841675E+03  0.37806841675E+03  0.00000000000E+00 0.  1.
         23    2    1    2    0    0 -0.76887371122E+02  0.62108230603E+02 -0.21835580472E+03  0.25664768040E+03  0.91758782983E+02 0.  0.
         23    2    1    2    0    0  0.48143680006E+02 -0.36852846097E+02  0.72862170462E+02  0.13165253685E+03  0.91364918784E+02 0.  0.
        -11    1    4    4    0    0  0.72876749554E+02 -0.41834155341E+02  0.60588623592E+02  0.10359584204E+03  0.00000000000E+00 0.  1.
         11    1    4    4    0    0 -0.24733069547E+02  0.49813092440E+01  0.12273546870E+02  0.28056694812E+02  0.00000000000E+00 0. -1.
        -13    1    3    3    0    0  0.16607621049E+02  0.25267303530E+02 -0.80973352661E+02  0.86434562217E+02  0.00000000000E+00 0.  1.
         13    1    3    3    0    0 -0.93494992170E+02  0.36840927073E+02 -0.13738245206E+03  0.17021311818E+03  0.00000000000E+00 0. -1.
         21    1    1    2  502  501  0.28743691115E+02 -0.25255384506E+02 -0.10787920308E+03  0.11446377891E+03  0.00000000000E+00 0.  1.
<scales pt_clust_5="13000.00000" pt_clust_6="13000.00000" pt_clust_7="13000.00000" pt_clust_8="13000.00000" pt_clust_9="38.26270"></scales>
<clustering>
<clus scale="   38.263">  2  9  1 -1</clus>
<clus scale="   91.365">  5  6 -1 -1</clus>
<clus scale="   91.759">  7  8 -1 -1</clus>
<clus scale="  112.032">  1  5  2 -1</clus>
<clus scale="  112.032">  1  5  2 -1</clus>
</clustering>
</event>
<event>
 9    1  0.1175034E-005  0.1158963E+03  0.7546771E-02  0.1255677E+00
          1   -1    0    0  502    0  0.00000000000E+00  0.00000000000E+00  0.36132408247E+03  0.36132408247E+03  0.00000000000E+00 0. -1.
         -1   -1    0    0    0  501 -0.00000000000E+00 -0.00000000000E+00 -0.70809491760E+02  0.70809491760E+02  0.00000000000E+00 0.  1.
         23    2    1    2    0    0  0.36150455251E+02  0.18717648333E+02  0.99975969004E+02  0.14914493005E+03  0.10291651961E+03 0.  0.
         23    2    1    2    0    0 -0.57412524023E+02 -0.16935545364E+02  0.22112445067E+03  0.24569595866E+03  0.88811433967E+02 0.  0.
        -11    1    3    3    0    0  0.47304609076E+02  0.20643204363E+01  0.11482210850E+03  0.12420186818E+03  0.00000000000E+00 0. -1.
         11    1    3    3    0    0 -0.11154153825E+02  0.16653327896E+02 -0.14846139497E+02  0.24943061872E+02  0.00000000000E+00 0.  1.
        -13    1    4    4    0    0 -0.22800468895E+02 -0.51406695829E+02  0.14170468518E+03  0.15245565768E+03  0.00000000000E+00 0.  1.
         13    1    4    4    0    0 -0.34612055129E+02  0.34471150465E+02  0.79419765496E+02  0.93240300976E+02  0.00000000000E+00 0. -1.
         21    1    1    2  502  501  0.21262068772E+02 -0.17821029687E+01 -0.30585828970E+02  0.37292685519E+02  0.00000000000E+00 0.  1.
<scales pt_clust_5="13000.00000" pt_clust_6="13000.00000" pt_clust_7="13000.00000" pt_clust_8="13000.00000" pt_clust_9="21.33662"></scales>
<clustering>
<clus scale="   21.337">  2  9  1 -1</clus>
<clus scale="   88.811">  7  8 -1 -1</clus>
<clus scale="  102.917">  5  6 -1 -1</clus>
<clus scale="  103.574">  1  7  2 -1</clus>
<clus scale="  103.574">  1  5  2 -1</clus>
</clustering>
</event>
<event>
 9    1  0.1175034E-005  0.1022907E+03  0.7546771E-02  0.1275775E+00
         -1   -1    0    0    0  501 -0.00000000000E+00  0.00000000000E+00  0.28618192025E+02  0.28618192025E+02  0.00000000000E+00 0.  1.
          1   -1    0    0  502    0  0.00000000000E+00 -0.00000000000E+00 -0.58789460608E+03  0.58789460608E+03  0.00000000000E+00 0. -1.
         23    2    1    2    0    0  0.75150552090E+01 -0.35360404429E+02 -0.12618019828E+03  0.15901312186E+03  0.89760215181E+02 0.  0.
         23    2    1    2    0    0 -0.36556197905E+02  0.42359701837E+02 -0.39651380178E+03  0.41026990654E+03  0.89260860740E+02 0.  0.
        -11    1    3    3    0    0 -0.34387456472E+02 -0.27043370664E+02 -0.99379295640E+02  0.10858215996E+03  0.00000000000E+00 0. -1.
         11    1    3    3    0    0  0.41902511681E+02 -0.83170337650E+01 -0.26800902636E+02  0.50430961897E+02  0.00000000000E+00 0.  1.
        -13    1    4    4    0    0 -0.65593632735E+02  0.37429985631E+02 -0.30016560917E+03  0.30952047010E+03  0.00000000000E+00 0. -1.
         13    1    4    4    0    0  0.29037434830E+02  0.49297162063E+01 -0.96348192613E+02  0.10074943644E+03  0.00000000000E+00 0.  1.
         21    1    1    2  502  501  0.29041142696E+02 -0.69992974082E+01 -0.36582414001E+02  0.47229769717E+02  0.00000000000E+00 0.  1.
<scales pt_clust_5="13000.00000" pt_clust_6="13000.00000" pt_clust_7="13000.00000" pt_clust_8="13000.00000" pt_clust_9="29.87270"></scales>
<clustering>
<clus scale="   29.873">  1  9  2 -1</clus>
<clus scale="   89.261">  7  8 -1 -1</clus>
<clus scale="   89.760">  5  6 -1 -1</clus>
<clus scale="  101.853">  2  7  1 -1</clus>
<clus scale="  101.853">  2  5  1 -1</clus>
</clustering>
</event>
<event>
 9    1  0.1175034E-005  0.1296493E+03  0.7546771E-02  0.1229819E+00
          2   -1    0    0  502    0  0.00000000000E+00  0.00000000000E+00  0.11193339576E+04  0.11193339576E+04  0.00000000000E+00 0. -1.
         -2   -1    0    0    0  501 -0.00000000000E+00 -0.00000000000E+00 -0.21232753920E+02  0.21232753920E+02  0.00000000000E+00 0.  1.
         23    2    1    2    0    0  0.67325076175E+02 -0.27233737150E+02  0.37214691779E+03  0.39154109809E+03  0.97656340069E+02 0.  0.
         23    2    1    2    0    0 -0.87980272332E+02  0.30208516718E+02  0.71225962476E+03  0.72406504080E+03  0.91122595734E+02 0.  0.
        -13    1    3    3    0    0  0.40742555818E+01 -0.49044782903E+02  0.10227970394E+03  0.11350386834E+03  0.00000000000E+00 0.  1.
         13    1    3    3    0    0  0.63250820593E+02  0.21811045753E+02  0.26986721384E+03  0.27803722975E+03  0.00000000000E+00 0. -1.
        -13    1    4    4    0    0  0.68302662584E+01 -0.21233519320E+02  0.12934785550E+03  0.13125693354E+03  0.00000000000E+00 0.  1.
         13    1    4    4    0    0 -0.94810538590E+02  0.51442036038E+02  0.58291176926E+03  0.59280810726E+03  0.00000000000E+00 0. -1.
         21    1    1    2  502  501  0.20655196157E+02 -0.29747795678E+01  0.13694661121E+02  0.24960572609E+02  0.00000000000E+00 0. -1.
<scales pt_clust_5="13000.00000" pt_clust_6="13000.00000" pt_clust_7="13000.00000" pt_clust_8="13000.00000" pt_clust_9="20.86831"></scales>
<clustering>
<clus scale="   20.868">  2  9  1 -1</clus>
<clus scale="   91.123">  7  8 -1 -1</clus>
<clus scale="   97.656">  5  6 -1 -1</clus>
<clus scale="  124.802">  1  7  2 -1</clus>
<clus scale="  124.802">  1  5  2 -1</clus>
</clustering>
</event>
<event>
 9    1  0.1175034E-005  0.9502133E+02  0.7546771E-02  0.1291770E+00
          1   -1    0    0  502    0  0.00000000000E+00  0.00000000000E+00  0.61484045680E+02  0.61484045680E+02  0.00000000000E+00 0. -1.
         -1   -1    0    0    0  501 -0.00000000000E+00 -0.00000000000E+00 -0.24899045306E+03  0.24899045306E+03  0.00000000000E+00 0.  1.
         23    2    1    2    0    0  0.38580056981E+02 -0.15606647384E+02 -0.13182950573E+03  0.16598897369E+03  0.91876724831E+02 0.  0.
         23    2    1    2    0    0 -0.97693784584E+01  0.49350071183E+01 -0.17189783913E+02  0.95239232455E+02  0.93033476109E+02 0.  0.
        -11    1    3    3    0    0  0.11132333727E+02 -0.52037921631E+02 -0.87317570530E+02  0.10225571996E+03  0.00000000000E+00 0.  1.
         11    1    3    3    0    0  0.27447723253E+02  0.36431274247E+02 -0.44511935198E+02  0.63733253723E+02  0.00000000000E+00 0. -1.
        -13    1    4    4    0    0  0.38897542743E+02  0.18612456696E+02 -0.76469750410E+01  0.43794047575E+02  0.00000000000E+00 0. -1.
         13    1    4    4    0    0 -0.48666921202E+02 -0.13677449577E+02 -0.95428088718E+01  0.51445184880E+02  0.00000000000E+00 0.  1.
         21    1    1    2  502  501 -0.28810678522E+02  0.10671640266E+02 -0.38487117737E+02  0.49246292598E+02  0.00000000000E+00 0.  1.
<scales pt_clust_5="13000.00000" pt_clust_6="13000.00000" pt_clust_7="13000.00000" pt_clust_8="13000.00000" pt_clust_9="30.72359"></scales>
<clustering>
<clus scale="   30.724">  2  9  1 -1</clus>
<clus scale="   91.877">  5  6 -1 -1</clus>
<clus scale="   93.033">  7  8 -1 -1</clus>
<clus scale="   93.889">  2  5  1 -1</clus>
<clus scale="   95.021">  1  5  2 -1</clus>
</clustering>
</event>
<event>
 9    1  0.1175034E-005  0.1123246E+03  0.7546771E-02  0.1257650E+00
         -2   -1    0    0    0  501 -0.00000000000E+00  0.00000000000E+00  0.90271568508E+02  0.90271568508E+02  0.00000000000E+00 0.  1.
          2   -1    0    0  502    0  0.00000000000E+00 -0.00000000000E+00 -0.27847640066E+03  0.27847640066E+03  0.00000000000E+00 0. -1.
         23    2    1    2    0    0  0.17649203662E+02  0.51013566050E+02 -0.53783154634E+01  0.10638797589E+03  0.91518286841E+02 0.  0.
         23    2    1    2    0    0  0.29358790884E+02 -0.59498689035E+02 -0.18057136784E+03  0.21453913423E+03  0.94968355960E+02 0.  0.
        -13    1    4    4    0    0  0.34787315879E+02 -0.31905423672E+02 -0.19567915744E+02  0.51098108891E+02  0.00000000000E+00 0.  1.
         13    1    4    4    0    0 -0.54285249941E+01 -0.27593265364E+02 -0.16100345210E+03  0.16344102534E+03  0.00000000000E+00 0. -1.
        -13    1    3    3    0    0 -0.21131715190E+02  0.62095229491E+02 -0.73731099652E+01  0.66005527518E+02  0.00000000000E+00 0.  1.
         13    1    3    3    0    0  0.38780918853E+02 -0.11081663440E+02  0.19947945018E+01  0.40382448375E+02  0.00000000000E+00 0. -1.
         21    1    1    2  502  501 -0.47007994547E+02  0.84851229851E+01 -0.22551488485E+01  0.47820859044E+02  0.00000000000E+00 0.  1.
<scales pt_clust_5="13000.00000" pt_clust_6="13000.00000" pt_clust_7="13000.00000" pt_clust_8="13000.00000" pt_clust_9="47.76765"></scales>
<clustering>
<clus scale="   47.768">  1  9  2 -1</clus>
<clus scale="   91.518">  7  8 -1 -1</clus>
<clus scale="   94.968">  5  6 -1 -1</clus>
<clus scale="  109.423">  1  7  2 -1</clus>
<clus scale="  112.325">  2  5  1 -1</clus>
</clustering>
</event>
<event>
 9    1  0.1175034E-005  0.1429774E+03  0.7546771E-02  0.1209551E+00
          2   -1    0    0  502    0  0.00000000000E+00  0.00000000000E+00  0.11230557490E+04  0.11230557490E+04  0.00000000000E+00 0. -1.
         -2   -1    0    0    0  501 -0.00000000000E+00 -0.00000000000E+00 -0.37089547136E+02  0.37089547136E+02  0.00000000000E+00 0.  1.
         23    2    1    2    0    0 -0.15079372419E+03  0.35383128203E+02  0.46947345925E+03  0.50271798087E+03  0.91265143016E+02 0.  0.
         23    2    1    2    0    0  0.58341883773E+02 -0.70259232267E+02  0.37895066257E+03  0.40015328778E+03  0.90437348124E+02 0.  0.
        -11    1    4    4    0    0 -0.11900246915E+02 -0.55121376560E+02  0.17983989987E+03  0.18847379557E+03  0.00000000000E+00 0. -1.
         11    1    4    4    0    0  0.70242130688E+02 -0.15137855707E+02  0.19911076270E+03  0.21167949221E+03  0.00000000000E+00 0.  1.
        -13    1    3    3    0    0 -0.89071477509E+02  0.63925866601E+02  0.25084881462E+03  0.27376152455E+03  0.00000000000E+00 0.  1.
         13    1    3    3    0    0 -0.61722246680E+02 -0.28542738398E+02  0.21862464463E+03  0.22895645632E+03  0.00000000000E+00 0. -1.
         21    1    1    2  502  501  0.92451840416E+02  0.34876104064E+02  0.23754208005E+03  0.25727402750E+03  0.00000000000E+00 0.  1.
<scales pt_clust_5="13000.00000" pt_clust_6="13000.00000" pt_clust_7="13000.00000" pt_clust_8="13000.00000" pt_clust_9="98.81136"></scales>
<clustering>
<clus scale="   90.437">  5  6 -1 -1</clus>
<clus scale="   91.265">  7  8 -1 -1</clus>
<clus scale="   98.811">  2  9  1 -1</clus>
<clus scale="  142.450">  1  5  2 -1</clus>
<clus scale="  142.450">  1  5  2 -1</clus>
</clustering>
</event>
<event>
 9    1  0.1175034E-005  0.1160701E+03  0.7546771E-02  0.1249758E+00
         -1   -1    0    0    0  501 -0.00000000000E+00  0.00000000000E+00  0.24628968939E+03  0.24628968939E+03  0.00000000000E+00 0.  1.
          1   -1    0    0  502    0  0.00000000000E+00 -0.00000000000E+00 -0.16450723543E+03  0.16450723543E+03  0.00000000000E+00 0. -1.
         23    2    1    2    0    0  0.44353065554E+02  0.15676216661E+02  0.47461704959E+02  0.11309376017E+03  0.91239503277E+02 0.  0.
         23    2    1    2    0    0  0.12912993534E+02 -0.10065445645E+03 -0.68417945422E+02  0.15259650701E+03  0.91140625907E+02 0.  0.
        -13    1    4    4    0    0 -0.91898150362E+01 -0.84680937229E+02 -0.70828135946E+01  0.85472101172E+02  0.00000000000E+00 0.  1.
         13    1    4    4    0    0  0.22102808570E+02 -0.15973519225E+02 -0.61335131828E+02  0.67124405840E+02  0.00000000000E+00 0. -1.
        -13    1    3    3    0    0  0.62624460104E+02  0.36710065433E+02  0.23368487153E+02  0.76259675446E+02  0.00000000000E+00 0. -1.
         13    1    3    3    0    0 -0.18271394550E+02 -0.21033848772E+02  0.24093217806E+02  0.36834084721E+02  0.00000000000E+00 0.  1.
         21    1    1    2  502  501 -0.57266059088E+02  0.84978239793E+02  0.10273869442E+03  0.14510665765E+03  0.00000000000E+00 0.  1.
<scales pt_clust_5="13000.00000" pt_clust_6="13000.00000" pt_clust_7="13000.00000" pt_clust_8="13000.00000" pt_clust_9="102.47294"></scales>
<clustering>
<clus scale="   91.141">  5  6 -1 -1</clus>
<clus scale="   91.240">  7  8 -1 -1</clus>
<clus scale="  102.473">  1  9  2 -1</clus>
<clus scale="  115.992">  2  5  1 -1</clus>
<clus scale="  115.992">  2  5  1 -1</clus>
</clustering>
</event>
<event>
 9    1  0.1175034E-005  0.9937197E+02  0.7546771E-02  0.1283600E+00
          2   -1    0    0  502    0  0.00000000000E+00  0.00000000000E+00  0.16417858788E+03  0.16417858788E+03  0.00000000000E+00 0. -1.
         -2   -1    0    0    0  501 -0.00000000000E+00 -0.00000000000E+00 -0.29894999238E+03  0.29894999238E+03  0.00000000000E+00 0.  1.
         23    2    1    2    0    0 -0.11972030164E+02  0.54506823210E+00 -0.21449900415E+02  0.94805694660E+02  0.91566341559E+02 0.  0.
         23    2    1    2    0    0 -0.28560842490E+02 -0.47040292617E+02  0.10144059173E+03  0.14487831205E+03  0.87584363888E+02 0.  0.
        -13    1    4    4    0    0  0.21407850017E+02  0.13172141818E+02  0.26757066165E+02  0.36711605143E+02  0.00000000000E+00 0.  1.
         13    1    4    4    0    0 -0.49968692507E+02 -0.60212434435E+02  0.74683525564E+02  0.10816670690E+03  0.00000000000E+00 0. -1.
        -13    1    3    3    0    0 -0.36068355389E+02 -0.34397743635E+02 -0.98720235681E+01  0.50809328641E+02  0.00000000000E+00 0. -1.
         13    1    3    3    0    0  0.24096325225E+02  0.34942811867E+02 -0.11577876847E+02  0.43996366018E+02  0.00000000000E+00 0.  1.
         21    1    1    2  502  501  0.40532872655E+02  0.46495224385E+02 -0.21476209581E+03  0.22344457356E+03  0.00000000000E+00 0.  1.
<scales pt_clust_5="13000.00000" pt_clust_6="13000.00000" pt_clust_7="13000.00000" pt_clust_8="13000.00000" pt_clust_9="61.68241"></scales>
<clustering>
<clus scale="   61.682">  2  9  1 -1</clus>
<clus scale="   87.584">  5  6 -1 -1</clus>
<clus scale="   91.566">  7  8 -1 -1</clus>
<clus scale="   95.715">  1  5  2 -1</clus>
<clus scale="   95.715">  1  5  2 -1</clus>
</clustering>
</event>
<event>
 9    1  0.1175034E-005  0.9864409E+02  0.7546771E-02  0.1287069E+00
         -1   -1    0    0    0  501 -0.00000000000E+00  0.00000000000E+00  0.20030100118E+03  0.20030100118E+03  0.00000000000E+00 0.  1.
          1   -1    0    0  502    0  0.00000000000E+00 -0.00000000000E+00 -0.20351452321E+03  0.20351452321E+03  0.00000000000E+00 0. -1.
         23    2    1    2    0    0 -0.40510862609E+01 -0.16529560209E+02  0.28780500570E+01  0.94205329131E+02  0.92610599846E+02 0.  0.
         23    2    1    2    0    0  0.41738936613E+02 -0.16816155096E+02 -0.13809045930E+03  0.16834442793E+03  0.85123143522E+02 0.  0.
        -11    1    4    4    0    0 -0.23734640583E+02  0.84368320058E+01 -0.47364174558E+02  0.53645860320E+02  0.00000000000E+00 0.  1.
         11    1    4    4    0    0  0.65473577196E+02 -0.25252987102E+02 -0.90726284741E+02  0.11469856761E+03  0.00000000000E+00 0. -1.
        -11    1    3    3    0    0 -0.10098756358E+02  0.35800837966E+02 -0.12642825017E+02  0.39287732226E+02  0.00000000000E+00 0.  1.
         11    1    3    3    0    0  0.60476700974E+01 -0.52330398175E+02  0.15520875074E+02  0.54917596905E+02  0.00000000000E+00 0. -1.
         21    1    1    2  502  501 -0.37687850352E+02  0.33345715305E+02  0.13199888722E+03  0.14126576733E+03  0.00000000000E+00 0.  1.
<scales pt_clust_5="13000.00000" pt_clust_6="13000.00000" pt_clust_7="13000.00000" pt_clust_8="13000.00000" pt_clust_9="50.32207"></scales>
<clustering>
<clus scale="   50.322">  1  9  2 -1</clus>
<clus scale="   85.123">  5  6 -1 -1</clus>
<clus scale="   91.651">  2  5  1 -1</clus>
<clus scale="   92.611">  7  8 -1 -1</clus>
<clus scale="   91.651">  2  5  1 -1</clus>
</clustering>
</event>
<event>
 9    1  0.1175034E-005  0.1004686E+03  0.7546771E-02  0.1279717E+00
          3   -1    0    0  502    0  0.00000000000E+00  0.00000000000E+00  0.97859385123E+02  0.97859385123E+02  0.00000000000E+00 0. -1.
         -3   -1    0    0    0  501 -0.00000000000E+00 -0.00000000000E+00 -0.16587684905E+03  0.16587684905E+03  0.00000000000E+00 0.  1.
         23    2    1    2    0    0 -0.15580791316E+02  0.17834355199E+02 -0.86083787403E+02  0.12775014524E+03  0.91372073814E+02 0.  0.
         23    2    1    2    0    0  0.37635038391E+02 -0.30274756107E+02  0.31487571817E+02  0.10732804824E+03  0.90525608467E+02 0.  0.
        -11    1    3    3    0    0 -0.34938640416E+02  0.41617007364E+02 -0.79646060091E+02  0.96416693493E+02  0.00000000000E+00 0.  1.
         11    1    3    3    0    0  0.19357849100E+02 -0.23782652164E+02 -0.64377273116E+01  0.31333451752E+02  0.00000000000E+00 0. -1.
        -13    1    4    4    0    0  0.14068339496E+02  0.32195906690E+02  0.49624638444E+01  0.35484089831E+02  0.00000000000E+00 0.  1.
         13    1    4    4    0    0  0.23566698895E+02 -0.62470662797E+02  0.26525107973E+02  0.71843958410E+02  0.00000000000E+00 0. -1.
         21    1    1    2  502  501 -0.22054247075E+02  0.12440400908E+02 -0.13421248338E+02  0.28658040682E+02  0.00000000000E+00 0.  1.
<scales pt_clust_5="13000.00000" pt_clust_6="13000.00000" pt_clust_7="13000.00000" pt_clust_8="13000.00000" pt_clust_9="25.32101"></scales>
<clustering>
<clus scale="   25.321">  2  9  1 -1</clus>
<clus scale="   90.526">  7  8 -1 -1</clus>
<clus scale="   91.372">  5  6 -1 -1</clus>
<clus scale="   99.699">  1  7  2 -1</clus>
<clus scale="   99.699">  1  5  2 -1</clus>
</clustering>
</event>
<event>
 9    1  0.1175034E-005  0.1156781E+03  0.7546771E-02  0.1252204E+00
         -2   -1    0    0    0  501 -0.00000000000E+00  0.00000000000E+00  0.70478673145E+03  0.70478673145E+03  0.00000000000E+00 0.  1.
          2   -1    0    0  502    0  0.00000000000E+00 -0.00000000000E+00 -0.40178895775E+02  0.40178895775E+02  0.00000000000E+00 0. -1.
         23    2    1    2    0    0  0.89020139415E+01  0.77909741465E+02  0.45345069615E+03  0.46878953472E+03  0.89425501756E+02 0.  0.
         23    2    1    2    0    0 -0.45257948535E+02 -0.22684682961E+02  0.98595579203E+02  0.14563236063E+03  0.94471262711E+02 0.  0.
        -11    1    3    3    0    0 -0.22114023184E+02  0.39063295333E+01  0.28270893749E+02  0.36104471539E+02  0.00000000000E+00 0. -1.
         11    1    3    3    0    0  0.31016037125E+02  0.74003411932E+02  0.42517980240E+03  0.43268506318E+03  0.00000000000E+00 0.  1.
        -11    1    4    4    0    0  0.25851949084E+02  0.11432520042E+02  0.24217206847E+02  0.37222290276E+02  0.00000000000E+00 0.  1.
         11    1    4    4    0    0 -0.71109897620E+02 -0.34117203003E+02  0.74378372356E+02  0.10841007036E+03  0.00000000000E+00 0. -1.
         21    1    1    2  502  501  0.36355934594E+02 -0.55225058505E+02  0.11256156032E+03  0.13054373187E+03  0.00000000000E+00 0. -1.
<scales pt_clust_5="13000.00000" pt_clust_6="13000.00000" pt_clust_7="13000.00000" pt_clust_8="13000.00000" pt_clust_9="66.11778"></scales>
<clustering>
<clus scale="   66.118">  2  9  1 -1</clus>
<clus scale="   89.426">  5  6 -1 -1</clus>
<clus scale="   94.471">  7  8 -1 -1</clus>
<clus scale="  111.595">  1  5  2 -1</clus>
<clus scale="   66.118">  2  5  1 -1</clus>
</clustering>
</event>
<event>
 9    1  0.1175034E-005  0.3379079E+03  0.7546771E-02  0.1067743E+00
          1   -1    0    0  502    0  0.00000000000E+00  0.00000000000E+00  0.25120417986E+04  0.25120417986E+04  0.00000000000E+00 0. -1.
         -1   -1    0    0    0  501 -0.00000000000E+00 -0.00000000000E+00 -0.81584052909E+02  0.81584052909E+02  0.00000000000E+00 0.  1.
         23    2    1    2    0    0  0.11697054143E+03 -0.23506584967E+03  0.59631474442E+03  0.65795874314E+03  0.91544371851E+02 0.  0.
         23    2    1    2    0    0 -0.16275889203E+02  0.38941176553E+03  0.15152404331E+04  0.15673453431E+04  0.93335025411E+02 0.  0.
        -11    1    3    3    0    0  0.21609570603E+02 -0.13880261824E+03  0.34367507177E+03  0.37127576723E+03  0.00000000000E+00 0.  1.
         11    1    3    3    0    0  0.95360970832E+02 -0.96263231432E+02  0.25263967265E+03  0.28668297592E+03  0.00000000000E+00 0. -1.
        -11    1    4    4    0    0 -0.32375087977E+02  0.15026315606E+03  0.74419488693E+03  0.75990340973E+03  0.00000000000E+00 0. -1.
         11    1    4    4    0    0  0.16099198774E+02  0.23914860947E+03  0.77104554614E+03  0.80744193342E+03  0.00000000000E+00 0.  1.
         21    1    1    2  502  501 -0.10069465223E+03 -0.15434591586E+03  0.31890256818E+03  0.36832176520E+03  0.00000000000E+00 0.  1.
<scales pt_clust_5="13000.00000" pt_clust_6="13000.00000" pt_clust_7="13000.00000" pt_clust_8="13000.00000" pt_clust_9="184.28802"></scales>
<clustering>
<clus scale="   91.544">  5  6 -1 -1</clus>
<clus scale="   93.335">  7  8 -1 -1</clus>
<clus scale="  184.288">  2  9  1 -1</clus>
<clus scale="  337.418">  2  5  1 -1</clus>
<clus scale="  337.908">  1  5  2 -1</clus>
</clustering>
</event>
<event>
 9    1  0.1175034E-005  0.1069440E+03  0.7546771E-02  0.1270053E+00
          2   -1    0    0  502    0  0.00000000000E+00  0.00000000000E+00  0.34715006639E+03  0.34715006639E+03  0.00000000000E+00 0. -1.
         -2   -1    0    0    0  501 -0.00000000000E+00 -0.00000000000E+00 -0.10978947466E+03  0.10978947466E+03  0.00000000000E+00 0.  1.
         23    2    1    2    0    0 -0.58426891069E+02  0.38439560999E+02 -0.51375739273E+02  0.11897520363E+03  0.81389993500E+02 0.  0.
         23    2    1    2    0    0  0.16552519884E+02  0.27595314746E+02  0.13643737913E+03  0.16676550998E+03  0.90333214175E+02 0.  0.
        -11    1    4    4    0    0  0.45634611957E+02  0.17143348029E+02  0.12438255219E+03  0.13359427937E+03  0.00000000000E+00 0. -1.
         11    1    4    4    0    0 -0.29082092073E+02  0.10451966717E+02  0.12054826942E+02  0.33171230610E+02  0.00000000000E+00 0.  1.
        -13    1    3    3    0    0 -0.22706584398E+02 -0.15350744630E+02 -0.46809481153E+02  0.54243542118E+02  0.00000000000E+00 0.  1.
         13    1    3    3    0    0 -0.35720306671E+02  0.53790305629E+02 -0.45662581210E+01  0.64731661508E+02  0.00000000000E+00 0. -1.
         21    1    1    2  502  501  0.41874371185E+02 -0.66034875745E+02  0.15229895187E+03  0.17119882744E+03  0.00000000000E+00 0. -1.
<scales pt_clust_5="13000.00000" pt_clust_6="13000.00000" pt_clust_7="13000.00000" pt_clust_8="13000.00000" pt_clust_9="78.19250"></scales>
<clustering>
<clus scale="   78.193">  1  9  2 -1</clus>
<clus scale="   81.390">  7  8 -1 -1</clus>
<clus scale="   90.333">  5  6 -1 -1</clus>
<clus scale="   99.505">  2  7  1 -1</clus>
<clus scale="   78.193">  1  5  2 -1</clus>
</clustering>
</event>
<event>
 9    1  0.1175034E-005  0.1905197E+03  0.7546771E-02  0.1158194E+00
         -3   -1    0    0    0  501 -0.00000000000E+00  0.00000000000E+00  0.14538068678E+03  0.14538068678E+03  0.00000000000E+00 0.  1.
          3   -1    0    0  502    0  0.00000000000E+00 -0.00000000000E+00 -0.57208989731E+03  0.57208989731E+03  0.00000000000E+00 0. -1.
         23    2    1    2    0    0  0.18169574587E+03  0.26562432141E+02 -0.79824832864E+02  0.21939437350E+03  0.89682664503E+02 0.  0.
         23    2    1    2    0    0 -0.16084003485E+03 -0.20911892798E+02 -0.39972620293E+03  0.44098726442E+03  0.91552749821E+02 0.  0.
        -13    1    3    3    0    0  0.13282909051E+03  0.35303214744E+02 -0.95469970022E+02  0.16734515061E+03  0.00000000000E+00 0.  1.
         13    1    3    3    0    0  0.48866655353E+02 -0.87407826027E+01  0.15645137158E+02  0.52049222882E+02  0.00000000000E+00 0. -1.
        -13    1    4    4    0    0 -0.10117200543E+03  0.29831363233E+02 -0.26383584939E+03  0.28413912145E+03  0.00000000000E+00 0.  1.
         13    1    4    4    0    0 -0.59668029419E+02 -0.50743256031E+02 -0.13589035354E+03  0.15684814297E+03  0.00000000000E+00 0. -1.
         21    1    1    2  502  501 -0.20855711017E+02 -0.56505393428E+01  0.52841825265E+02  0.57088946164E+02  0.00000000000E+00 0. -1.
<scales pt_clust_5="13000.00000" pt_clust_6="13000.00000" pt_clust_7="13000.00000" pt_clust_8="13000.00000" pt_clust_9="21.60762"></scales>
<clustering>
<clus scale="   21.608">  1  9  2 -1</clus>
<clus scale="   89.683">  5  6 -1 -1</clus>
<clus scale="   91.553">  7  8 -1 -1</clus>
<clus scale="  189.628">  1  5  2 -1</clus>
<clus scale="  190.520">  2  5  1 -1</clus>
</clustering>
</event>
<event>
 9    1  0.1175034E-005  0.1552459E+03  0.7546771E-02  0.1194173E+00
          2   -1    0    0  502    0  0.00000000000E+00  0.00000000000E+00  0.67851956918E+03  0.67851956918E+03  0.00000000000E+00 0. -1.
         -2   -1    0    0    0  501 -0.00000000000E+00 -0.00000000000E+00 -0.14548906955E+03  0.14548906955E+03  0.00000000000E+00 0.  1.
         23    2    1    2    0    0 -0.99848092170E+02  0.19989012199E+02  0.71742809848E+02  0.15423825333E+03  0.90957165233E+02 0.  0.
         23    2    1    2    0    0  0.13058202495E+03  0.35697736478E+02  0.54257557577E+03  0.56655551723E+03  0.90944516308E+02 0.  0.
        -11    1    3    3    0    0 -0.87322055958E+01  0.32904326163E+02 -0.50042295046E+01  0.34409132621E+02  0.00000000000E+00 0. -1.
         11    1    3    3    0    0 -0.91115886574E+02 -0.12915313963E+02  0.76747039353E+02  0.11982912071E+03  0.00000000000E+00 0.  1.
        -13    1    4    4    0    0  0.46130683680E+02  0.97785492757E+01  0.61824731356E+02  0.77755754835E+02  0.00000000000E+00 0.  1.
         13    1    4    4    0    0  0.84451341265E+02  0.25919187202E+02  0.48075084442E+03  0.48879976239E+03  0.00000000000E+00 0. -1.
         21    1    1    2  502  501 -0.30733932776E+02 -0.55686748677E+02 -0.81287885992E+02  0.10321486817E+03  0.00000000000E+00 0.  1.
<scales pt_clust_5="13000.00000" pt_clust_6="13000.00000" pt_clust_7="13000.00000" pt_clust_8="13000.00000" pt_clust_9="63.60494"></scales>
<clustering>
<clus scale="   63.605">  2  9  1 -1</clus>
<clus scale="   90.945">  7  8 -1 -1</clus>
<clus scale="   90.957">  5  6 -1 -1</clus>
<clus scale="  155.238">  1  7  2 -1</clus>
<clus scale="  155.238">  1  5  2 -1</clus>
</clustering>
</event>
<event>
 9    1  0.1175034E-005  0.1820140E+03  0.7546771E-02  0.1166482E+00
         -1   -1    0    0    0  501 -0.00000000000E+00  0.00000000000E+00  0.30550427981E+03  0.30550427981E+03  0.00000000000E+00 0.  1.
          1   -1    0    0  502    0  0.00000000000E+00 -0.00000000000E+00 -0.12581589307E+03  0.12581589307E+03  0.00000000000E+00 0. -1.
         23    2    1    2    0    0  0.85279099947E+02  0.13501736063E+03  0.75086278138E+02  0.20040272584E+03  0.94979423023E+02 0.  0.
         23    2    1    2    0    0 -0.63379478213E+02 -0.13121017629E+03  0.70321689337E+02  0.19006117176E+03  0.99724823386E+02 0.  0.
        -11    1    4    4    0    0  0.17398175777E+02 -0.77623463310E+02  0.28714921735E+02  0.84573313208E+02  0.00000000000E+00 0. -1.
         11    1    4    4    0    0 -0.80777653990E+02 -0.53586712983E+02  0.41606767602E+02  0.10548785856E+03  0.00000000000E+00 0.  1.
        -13    1    3    3    0    0  0.36688442124E+02  0.11410231045E+03  0.84530488312E+02  0.14666554636E+03  0.00000000000E+00 0.  1.
         13    1    3    3    0    0  0.48590657823E+02  0.20915050180E+02 -0.94442101736E+01  0.53737179471E+02  0.00000000000E+00 0. -1.
         21    1    1    2  502  501 -0.21899621734E+02 -0.38071843384E+01  0.34280419270E+02  0.40856275283E+02  0.00000000000E+00 0. -1.
<scales pt_clust_5="13000.00000" pt_clust_6="13000.00000" pt_clust_7="13000.00000" pt_clust_8="13000.00000" pt_clust_9="22.22809"></scales>
<clustering>
<clus scale="   22.228">  1  9  2 -1</clus>
<clus scale="   94.979">  7  8 -1 -1</clus>
<clus scale="   99.725">  5  6 -1 -1</clus>
<clus scale="  179.458">  1  7  2 -1</clus>
<clus scale="  182.014">  2  5  1 -1</clus>
</clustering>
</event>
<event>
 9    1  0.1175034E-005  0.9529840E+02  0.7546771E-02  0.1291180E+00
         -2   -1    0    0    0  501 -0.00000000000E+00  0.00000000000E+00  0.30505317828E+03  0.30505317828E+03  0.00000000000E+00 0.  1.
          2   -1    0    0  502    0  0.00000000000E+00 -0.00000000000E+00 -0.62049770271E+02  0.62049770271E+02  0.00000000000E+00 0. -1.
         23    2    1    2    0    0 -0.65682405501E+01  0.47334149465E+02  0.11840358930E+03  0.15727945803E+03  0.91835474994E+02 0.  0.
         23    2    1    2    0    0  0.76016347558E+01 -0.15618160465E+02  0.12221422783E+02  0.93050738002E+02  0.90594508004E+02 0.  0.
        -11    1    3    3    0    0 -0.32203570352E+02  0.97160028890E+01  0.36603329706E+01  0.33835908337E+02  0.00000000000E+00 0.  1.
         11    1    3    3    0    0  0.25635329802E+02  0.37618146576E+02  0.11474325633E+03  0.12344354969E+03  0.00000000000E+00 0. -1.
        -11    1    4    4    0    0 -0.19090579224E+02  0.11745748960E+02 -0.29118083673E+02  0.36746096806E+02  0.00000000000E+00 0. -1.
         11    1    4    4    0    0  0.26692213980E+02 -0.27363909425E+02  0.41339506456E+02  0.56304641196E+02  0.00000000000E+00 0.  1.
         21    1    1    2  502  501 -0.10333942057E+01 -0.31715989000E+02  0.11237839592E+03  0.11677275253E+03  0.00000000000E+00 0.  1.
<scales pt_clust_5="13000.00000" pt_clust_6="13000.00000" pt_clust_7="13000.00000" pt_clust_8="13000.00000" pt_clust_9="31.73282"></scales>
<clustering>
<clus scale="   31.733">  1  9  2 -1</clus>
<clus scale="   90.595">  7  8 -1 -1</clus>
<clus scale="   91.835">  5  6 -1 -1</clus>
<clus scale="   94.103">  2  7  1 -1</clus>
<clus scale="   94.103">  2  5  1 -1</clus>
</clustering>
</event>
<event>
 9    1  0.1175034E-005  0.1255432E+03  0.7546771E-02  0.1235226E+00
         -2   -1    0    0    0  501 -0.00000000000E+00  0.00000000000E+00  0.11358900948E+03  0.11358900948E+03  0.00000000000E+00 0.  1.
          2   -1    0    0  502    0  0.00000000000E+00 -0.00000000000E+00 -0.16685676618E+03  0.16685676618E+03  0.00000000000E+00 0. -1.
         23    2    1    2    0    0 -0.26835489998E+02 -0.79559265356E+02 -0.23413827644E+02  0.12530022855E+03  0.90011775463E+02 0.  0.
         23    2    1    2    0    0  0.68230936546E+01  0.84598803710E+02 -0.39603130311E+02  0.13232143970E+03  0.93472152417E+02 0.  0.
        -11    1    3    3    0    0  0.24096573397E+02  0.47629074868E+01 -0.55782721471E+01  0.25188236488E+02  0.00000000000E+00 0.  1.
         11    1    3    3    0    0 -0.50932063395E+02 -0.84322172842E+02 -0.17835555497E+02  0.10011199206E+03  0.00000000000E+00 0. -1.
        -11    1    4    4    0    0  0.38110504495E+02  0.71918283284E+02 -0.14884488917E+01  0.81405561871E+02  0.00000000000E+00 0.  1.
         11    1    4    4    0    0 -0.31287410840E+02  0.12680520426E+02 -0.38114681419E+02  0.50915877828E+02  0.00000000000E+00 0. -1.
         21    1    1    2  502  501  0.20012396344E+02 -0.50395383540E+01  0.97492012553E+01  0.22824107416E+02  0.00000000000E+00 0. -1.
<scales pt_clust_5="13000.00000" pt_clust_6="13000.00000" pt_clust_7="13000.00000" pt_clust_8="13000.00000" pt_clust_9="20.63717"></scales>
<clustering>
<clus scale="   20.637">  1  9  2 -1</clus>
<clus scale="   90.012">  5  6 -1 -1</clus>
<clus scale="   93.472">  7  8 -1 -1</clus>
<clus scale="  122.988">  1  5  2 -1</clus>
<clus scale="  125.543">  2  5  1 -1</clus>
</clustering>
</event>
<event>
 9    1  0.1175034E-005  0.1128627E+03  0.7546771E-02  0.1255643E+00
         -1   -1    0    0    0  501 -0.00000000000E+00  0.00000000000E+00  0.99970198853E+02  0.99970198853E+02  0.00000000000E+00 0.  1.
          1   -1    0    0  502    0  0.00000000000E+00 -0.00000000000E+00 -0.36727700357E+03  0.36727700357E+03  0.00000000000E+00 0. -1.
         23    2    1    2    0    0  0.10770834079E+03  0.76879801902E+01 -0.45670797529E+02  0.14868195281E+03  0.91434728792E+02 0.  0.
         23    2    1    2    0    0 -0.56916090088E+02  0.45913588320E+01 -0.24028067476E+03  0.26308319371E+03  0.90650109002E+02 0.  0.
        -11    1    4    4    0    0 -0.34529174698E+01 -0.33337246203E+02 -0.39130969030E+02  0.51522105554E+02  0.00000000000E+00 0.  1.
         11    1    4    4    0    0 -0.53463172618E+02  0.37928605035E+02 -0.20114970573E+03  0.21156108815E+03  0.00000000000E+00 0. -1.
        -13    1    3    3    0    0  0.30680588355E+02 -0.23843255463E+02  0.19024833100E+02  0.43263652266E+02  0.00000000000E+00 0. -1.
         13    1    3    3    0    0  0.77027752438E+02  0.31531235654E+02 -0.64695630629E+02  0.10541830055E+03  0.00000000000E+00 0.  1.
         21    1    1    2  502  501 -0.50792250705E+02 -0.12279339022E+02  0.18644667571E+02  0.55482055904E+02  0.00000000000E+00 0.  1.
<scales pt_clust_5="13000.00000" pt_clust_6="13000.00000" pt_clust_7="13000.00000" pt_clust_8="13000.00000" pt_clust_9="52.25548"></scales>
<clustering>
<clus scale="   52.255">  1  9  2 -1</clus>
<clus scale="   90.650">  5  6 -1 -1</clus>
<clus scale="   91.435">  7  8 -1 -1</clus>
<clus scale="  112.228">  2  5  1 -1</clus>
<clus scale="  112.228">  2  5  1 -1</clus>
</clustering>
</event>
<event>
 9    1  0.1175034E-005  0.1090775E+03  0.7546771E-02  0.1263854E+00
          2   -1    0    0  502    0  0.00000000000E+00  0.00000000000E+00  0.77740829884E+03  0.77740829884E+03  0.00000000000E+00 0. -1.
         -2   -1    0    0    0  501 -0.00000000000E+00 -0.00000000000E+00 -0.32046610394E+02  0.32046610394E+02  0.00000000000E+00 0.  1.
         23    2    1    2    0    0 -0.35058856516E+02  0.10135590861E+02  0.15983030123E+03  0.18760338265E+03  0.91200056838E+02 0.  0.
         23    2    1    2    0    0  0.58737137205E+02 -0.13202378272E+02  0.58724175792E+03  0.59791428511E+03  0.94996084226E+02 0.  0.
        -11    1    3    3    0    0 -0.57732980144E+02 -0.80063151855E+01  0.14207685153E+03  0.15356767179E+03  0.00000000000E+00 0.  1.
         11    1    3    3    0    0  0.22674123627E+02  0.18141906047E+02  0.17753449704E+02  0.34035710859E+02  0.00000000000E+00 0. -1.
        -11    1    4    4    0    0 -0.25094447645E+02 -0.13326619068E+02  0.16551537062E+03  0.16793649988E+03  0.00000000000E+00 0. -1.
         11    1    4    4    0    0  0.83831584850E+02  0.12424079684E+00  0.42172638730E+03  0.42997778523E+03  0.00000000000E+00 0.  1.
         21    1    1    2  502  501 -0.23678280689E+02  0.30667874103E+01 -0.17103707040E+01  0.23937241473E+02  0.00000000000E+00 0.  1.
<scales pt_clust_5="13000.00000" pt_clust_6="13000.00000" pt_clust_7="13000.00000" pt_clust_8="13000.00000" pt_clust_9="23.87606"></scales>
<clustering>
<clus scale="   23.876">  2  9  1 -1</clus>
<clus scale="   91.200">  5  6 -1 -1</clus>
<clus scale="   94.996">  7  8 -1 -1</clus>
<clus scale="  105.788">  2  5  1 -1</clus>
<clus scale="  109.077">  1  5  2 -1</clus>
</clustering>
</event>
<event>
 9    1  0.1175034E-005  0.1508080E+03  0.7546771E-02  0.1200947E+00
         -1   -1    0    0    0  501 -0.00000000000E+00  0.00000000000E+00  0.48966241032E+02  0.48966241032E+02  0.00000000000E+00 0.  1.
          1   -1    0    0  502    0  0.00000000000E+00 -0.00000000000E+00 -0.61262029748E+03  0.61262029748E+03  0.00000000000E+00 0. -1.
         23    2    1    2    0    0 -0.73142912329E+02  0.60810936527E+02 -0.13049202164E+03  0.18556037413E+03  0.91414600089E+02 0.  0.
         23    2    1    2    0    0  0.86086917327E+02 -0.90227682890E+02 -0.39676412487E+03  0.42747001050E+03  0.98776753345E+02 0.  0.
        -11    1    4    4    0    0  0.78467149456E+01  0.18487722549E+02 -0.98270561142E+02  0.10030189434E+03  0.00000000000E+00 0.  1.
         11    1    4    4    0    0  0.78240202382E+02 -0.10871540544E+03 -0.29849356372E+03  0.32716811616E+03  0.00000000000E+00 0. -1.
        -13    1    3    3    0    0 -0.16467117595E+02  0.37340408078E+02  0.61203750980E+00  0.40814784420E+02  0.00000000000E+00 0.  1.
         13    1    3    3    0    0 -0.56675794735E+02  0.23470528449E+02 -0.13110405915E+03  0.14474558971E+03  0.00000000000E+00 0. -1.
         21    1    1    2  502  501 -0.12944004998E+02  0.29416746363E+02 -0.36397909947E+02  0.48556153889E+02  0.00000000000E+00 0.  1.
<scales pt_clust_5="13000.00000" pt_clust_6="13000.00000" pt_clust_7="13000.00000" pt_clust_8="13000.00000" pt_clust_9="32.13864"></scales>
<clustering>
<clus scale="   32.139">  1  9  2 -1</clus>
<clus scale="   91.415">  7  8 -1 -1</clus>
<clus scale="   98.777">  5  6 -1 -1</clus>
<clus scale="  146.092">  1  7  2 -1</clus>
<clus scale="  150.808">  2  5  1 -1</clus>
</clustering>
</event>
<event>
 9    1  0.1175034E-005  0.1840437E+03  0.7546771E-02  0.1163978E+00
          1   -1    0    0  502    0  0.00000000000E+00  0.00000000000E+00  0.65925767667E+03  0.65925767667E+03  0.00000000000E+00 0. -1.
         -1   -1    0    0    0  501 -0.00000000000E+00 -0.00000000000E+00 -0.11720873338E+03  0.11720873338E+03  0.00000000000E+00 0.  1.
         23    2    1    2    0    0 -0.10091363489E+03 -0.89423446930E+02  0.32634855896E+02  0.16541557263E+03  0.90095301102E+02 0.  0.
         23    2    1    2    0    0  0.12471630618E+03  0.11040311746E+03  0.53671937145E+03  0.56919044717E+03  0.90371876650E+02 0.  0.
        -11    1    4    4    0    0  0.10795189418E+03  0.63594704066E+02  0.26711177181E+03  0.29503660193E+03  0.00000000000E+00 0. -1.
         11    1    4    4    0    0  0.16764412000E+02  0.46808413394E+02  0.26960759964E+03  0.27415384523E+03  0.00000000000E+00 0.  1.
        -13    1    3    3    0    0 -0.79352565940E+02 -0.29933656974E+02 -0.15111211130E+02  0.86146400058E+02  0.00000000000E+00 0.  1.
         13    1    3    3    0    0 -0.21561068948E+02 -0.59489789956E+02  0.47746067026E+02  0.79269172568E+02  0.00000000000E+00 0. -1.
         21    1    1    2  502  501 -0.23802671287E+02 -0.20979670530E+02 -0.27305284048E+02  0.41860390262E+02  0.00000000000E+00 0.  1.
<scales pt_clust_5="13000.00000" pt_clust_6="13000.00000" pt_clust_7="13000.00000" pt_clust_8="13000.00000" pt_clust_9="31.72875"></scales>
<clustering>
<clus scale="   31.729">  2  9  1 -1</clus>
<clus scale="   90.095">  7  8 -1 -1</clus>
<clus scale="   90.372">  5  6 -1 -1</clus>
<clus scale="  183.908">  2  7  1 -1</clus>
<clus scale="  184.044">  1  5  2 -1</clus>
</clustering>
</event>
<event>
 9    1  0.1175034E-005  0.1519890E+03  0.7546771E-02  0.1212275E+00
          2   -1    0    0  502    0  0.00000000000E+00  0.00000000000E+00  0.12519217988E+04  0.12519217988E+04  0.00000000000E+00 0. -1.
         -2   -1    0    0    0  501 -0.00000000000E+00 -0.00000000000E+00 -0.16024672411E+03  0.16024672411E+03  0.00000000000E+00 0.  1.
         23    2    1    2    0    0 -0.13253111887E+02 -0.12174945795E+03 -0.10382399162E+03  0.18374285169E+03  0.89350091353E+02 0.  0.
         23    2    1    2    0    0 -0.63903958698E+02 -0.39732739269E+01  0.28720775084E+03  0.30823409736E+03  0.91763085112E+02 0.  0.
        -11    1    4    4    0    0  0.12013326839E+02 -0.26542425939E+02  0.46914470002E+02  0.55224884717E+02  0.00000000000E+00 0.  1.
         11    1    4    4    0    0 -0.75917285536E+02  0.22569152012E+02  0.24029328084E+03  0.25300921264E+03  0.00000000000E+00 0. -1.
        -11    1    3    3    0    0  0.82339223526E+01 -0.19480857117E+02 -0.71188777674E+02  0.74264011056E+02  0.00000000000E+00 0. -1.
         11    1    3    3    0    0 -0.21487034239E+02 -0.10226860084E+03 -0.32635213943E+02  0.10947884063E+03  0.00000000000E+00 0.  1.
         21    1    1    2  502  501  0.77157070584E+02  0.12572273188E+03  0.90829131544E+03  0.92019157384E+03  0.00000000000E+00 0. -1.
<scales pt_clust_5="13000.00000" pt_clust_6="13000.00000" pt_clust_7="13000.00000" pt_clust_8="13000.00000" pt_clust_9="122.95208"></scales>
<clustering>
<clus scale="   89.350">  7  8 -1 -1</clus>
<clus scale="   91.763">  5  6 -1 -1</clus>
<clus scale="  111.893">  1  5  2 -1</clus>
<clus scale="  122.952">  1  9  2 -1</clus>
<clus scale="  111.893">  1  5  2 -1</clus>
</clustering>
</event>
<event>
 9    1  0.1175034E-005  0.1098012E+03  0.7546771E-02  0.1267092E+00
          1   -1    0    0  502    0  0.00000000000E+00  0.00000000000E+00  0.17081653618E+03  0.17081653618E+03  0.00000000000E+00 0. -1.
         -1   -1    0    0    0  501 -0.00000000000E+00 -0.00000000000E+00 -0.18388367312E+03  0.18388367312E+03  0.00000000000E+00 0.  1.
         23    2    1    2    0    0  0.46634387960E+01 -0.24501454936E+02  0.21115378596E+02  0.97214861960E+02  0.91557638771E+02 0.  0.
         23    2    1    2    0    0  0.43633639534E+02  0.25526510910E+02  0.74828484686E+02  0.13825004769E+03  0.10468178594E+03 0.  0.
        -13    1    3    3    0    0 -0.18063344809E+02  0.27936999648E+02 -0.62492687796E+01  0.33849870536E+02  0.00000000000E+00 0.  1.
         13    1    3    3    0    0  0.22726783605E+02 -0.52438454583E+02  0.27364647376E+02  0.63364991424E+02  0.00000000000E+00 0. -1.
        -13    1    4    4    0    0  0.75069084500E+02  0.14616075193E+02  0.71692634012E+02  0.10482762457E+03  0.00000000000E+00 0. -1.
         13    1    4    4    0    0 -0.31435444966E+02  0.10910435717E+02  0.31358506744E+01  0.33422423119E+02  0.00000000000E+00 0.  1.
         21    1    1    2  502  501 -0.48297078330E+02 -0.10250559748E+01 -0.10901100022E+03  0.11923529965E+03  0.00000000000E+00 0.  1.
<scales pt_clust_5="13000.00000" pt_clust_6="13000.00000" pt_clust_7="13000.00000" pt_clust_8="13000.00000" pt_clust_9="48.30795"></scales>
<clustering>
<clus scale="   48.308">  2  9  1 -1</clus>
<clus scale="   91.558">  5  6 -1 -1</clus>
<clus scale="   97.370">  2  5  1 -1</clus>
<clus scale="  104.682">  7  8 -1 -1</clus>
<clus scale="  109.801">  1  5  2 -1</clus>
</clustering>
</event>
<event>
 9    1  0.1175034E-005  0.1065624E+03  0.7546771E-02  0.1272633E+00
          1   -1    0    0  502    0  0.00000000000E+00  0.00000000000E+00  0.17855853178E+03  0.17855853178E+03  0.00000000000E+00 0. -1.
         -1   -1    0    0    0  501 -0.00000000000E+00 -0.00000000000E+00 -0.12973307278E+03  0.12973307278E+03  0.00000000000E+00 0.  1.
         23    2    1    2    0    0 -0.25272731069E+02  0.32458676462E+02  0.37162168251E+02  0.10739828293E+03  0.91984171534E+02 0.  0.
         23    2    1    2    0    0  0.19333056603E+02 -0.11032377278E+01  0.75609725060E+02  0.12942591836E+03  0.10324366135E+03 0.  0.
        -11    1    4    4    0    0  0.50504144557E+02  0.19212174343E+02  0.11414104104E+02  0.55227330489E+02  0.00000000000E+00 0.  1.
         11    1    4    4    0    0 -0.31171087955E+02 -0.20315412071E+02  0.64195620956E+02  0.74198587869E+02  0.00000000000E+00 0. -1.
        -13    1    3    3    0    0  0.25946770879E+02  0.19796146845E+02 -0.12492824217E+02  0.34945572050E+02  0.00000000000E+00 0.  1.
         13    1    3    3    0    0 -0.51219501949E+02  0.12662529617E+02  0.49654992469E+02  0.72452710876E+02  0.00000000000E+00 0. -1.
         21    1    1    2  502  501  0.59396744668E+01 -0.31355438734E+02 -0.63946434303E+02  0.71467403276E+02  0.00000000000E+00 0.  1.
<scales pt_clust_5="13000.00000" pt_clust_6="13000.00000" pt_clust_7="13000.00000" pt_clust_8="13000.00000" pt_clust_9="31.91306"></scales>
<clustering>
<clus scale="   31.913">  2  9  1 -1</clus>
<clus scale="   91.984">  7  8 -1 -1</clus>
<clus scale="   95.694">  2  7  1 -1</clus>
<clus scale="  103.244">  5  6 -1 -1</clus>
<clus scale="  106.562">  1  5  2 -1</clus>
</clustering>
</event>
<event>
 9    1  0.1175034E-005  0.1388425E+03  0.7546771E-02  0.1214942E+00
         -1   -1    0    0    0  501 -0.00000000000E+00  0.00000000000E+00  0.34192477042E+03  0.34192477042E+03  0.00000000000E+00 0.  1.
          1   -1    0    0  502    0  0.00000000000E+00 -0.00000000000E+00 -0.83833342040E+02  0.83833342040E+02  0.00000000000E+00 0. -1.
         23    2    1    2    0    0 -0.10408485401E+03 -0.14245504348E+00  0.15979241966E+03  0.21165472189E+03  0.91817355602E+02 0.  0.
         23    2    1    2    0    0  0.98555391152E+02  0.40777444072E+02  0.47165782478E+02  0.14855658196E+03  0.92024355127E+02 0.  0.
        -11    1    4    4    0    0  0.18567145119E+02  0.34857286320E+02  0.55281746402E+02  0.67939979192E+02  0.00000000000E+00 0.  1.
         11    1    4    4    0    0  0.79988246033E+02  0.59201577521E+01 -0.81159639232E+01  0.80616602767E+02  0.00000000000E+00 0. -1.
        -13    1    3    3    0    0 -0.10684052665E+03  0.21210545639E+02  0.15525013693E+03  0.18965070630E+03  0.00000000000E+00 0.  1.
         13    1    3    3    0    0  0.27556726401E+01 -0.21353000683E+02  0.45422827286E+01  0.22004015594E+02  0.00000000000E+00 0. -1.
         21    1    1    2  502  501  0.55294628623E+01 -0.40634989029E+02  0.51133226241E+02  0.65546808608E+02  0.00000000000E+00 0. -1.
<scales pt_clust_5="13000.00000" pt_clust_6="13000.00000" pt_clust_7="13000.00000" pt_clust_8="13000.00000" pt_clust_9="41.00948"></scales>
<clustering>
<clus scale="   41.009">  1  9  2 -1</clus>
<clus scale="   91.817">  7  8 -1 -1</clus>
<clus scale="   92.024">  5  6 -1 -1</clus>
<clus scale="  138.705">  1  7  2 -1</clus>
<clus scale="  138.842">  2  5  1 -1</clus>
</clustering>
</event>
<event>
 9    1  0.1175034E-005  0.2862320E+03  0.7546771E-02  0.1092509E+00
         -2   -1    0    0    0  501 -0.00000000000E+00  0.00000000000E+00  0.25401715497E+03  0.25401715497E+03  0.00000000000E+00 0.  1.
          2   -1    0    0  502    0  0.00000000000E+00 -0.00000000000E+00 -0.62546610227E+03  0.62546610227E+03  0.00000000000E+00 0. -1.
         23    2    1    2    0    0  0.17375047051E+03 -0.28525778340E+03 -0.18700046563E+03  0.39424776743E+03  0.94344575792E+02 0.  0.
         23    2    1    2    0    0 -0.53776573802E+02  0.23443637170E+03 -0.23237902626E+03  0.34640505768E+03  0.90244777548E+02 0.  0.
        -11    1    4    4    0    0 -0.94047353684E+01  0.28014929239E+02  0.35873589126E+01  0.29768346471E+02  0.00000000000E+00 0. -1.
         11    1    4    4    0    0 -0.44371838434E+02  0.20642144246E+03 -0.23596638518E+03  0.31663671121E+03  0.00000000000E+00 0.  1.
        -13    1    3    3    0    0  0.13836435027E+03 -0.16164075992E+03 -0.81227060698E+02  0.22775044255E+03  0.00000000000E+00 0. -1.
         13    1    3    3    0    0  0.35386120249E+02 -0.12361702348E+03 -0.10577340494E+03  0.16649732488E+03  0.00000000000E+00 0.  1.
         21    1    1    2  502  501 -0.11997389671E+03  0.50821411708E+02  0.47930544595E+02  0.13883043213E+03  0.00000000000E+00 0.  1.
<scales pt_clust_5="13000.00000" pt_clust_6="13000.00000" pt_clust_7="13000.00000" pt_clust_8="13000.00000" pt_clust_9="130.29410"></scales>
<clustering>
<clus scale="   90.245">  5  6 -1 -1</clus>
<clus scale="   94.345">  7  8 -1 -1</clus>
<clus scale="  130.294">  1  9  2 -1</clus>
<clus scale="  284.907">  2  5  1 -1</clus>
<clus scale="  284.907">  2  5  1 -1</clus>
</clustering>
</event>
<event>
 9    1  0.1175034E-005  0.1202893E+03  0.7546771E-02  0.1243953E+00
         -1   -1    0    0    0  501 -0.00000000000E+00  0.00000000000E+00  0.49338286578E+02  0.49338286578E+02  0.00000000000E+00 0.  1.
          1   -1    0    0  502    0  0.00000000000E+00 -0.00000000000E+00 -0.40092782376E+03  0.40092782376E+03  0.00000000000E+00 0. -1.
         23    2    1    2    0    0 -0.11699686060E+02 -0.67140014635E+02 -0.14125978440E+03  0.18019555003E+03  0.88721166265E+02 0.  0.
         23    2    1    2    0    0 -0.44024659833E+01  0.84504796332E+02 -0.21187795291E+03  0.24633847511E+03  0.92897443902E+02 0.  0.
        -13    1    4    4    0    0  0.21260140033E+02  0.34951855742E+02 -0.17436033541E+03  0.17909537219E+03  0.00000000000E+00 0.  1.
         13    1    4    4    0    0 -0.25662606016E+02  0.49552940591E+02 -0.37517617495E+02  0.67243102927E+02  0.00000000000E+00 0. -1.
        -13    1    3    3    0    0  0.19260342570E+02 -0.26094805790E+02 -0.28645458142E+01  0.32559258405E+02  0.00000000000E+00 0.  1.
         13    1    3    3    0    0 -0.30960028630E+02 -0.41045208845E+02 -0.13839523859E+03  0.14763629163E+03  0.00000000000E+00 0. -1.
         21    1    1    2  502  501  0.16102152044E+02 -0.17364781697E+02  0.15482001287E+01  0.23732085190E+02  0.00000000000E+00 0.  1.
<scales pt_clust_5="13000.00000" pt_clust_6="13000.00000" pt_clust_7="13000.00000" pt_clust_8="13000.00000" pt_clust_9="23.68153"></scales>
<clustering>
<clus scale="   23.682">  1  9  2 -1</clus>
<clus scale="   88.721">  7  8 -1 -1</clus>
<clus scale="   92.897">  5  6 -1 -1</clus>
<clus scale="  117.094">  1  7  2 -1</clus>
<clus scale="  120.289">  2  5  1 -1</clus>
</clustering>
</event>
<event>
 9    1  0.1175034E-005  0.9634961E+02  0.7546771E-02  0.1290015E+00
         -3   -1    0    0    0  501 -0.00000000000E+00  0.00000000000E+00  0.14866624265E+03  0.14866624265E+03  0.00000000000E+00 0.  1.
          3   -1    0    0  502    0  0.00000000000E+00 -0.00000000000E+00 -0.10075707866E+03  0.10075707866E+03  0.00000000000E+00 0. -1.
         23    2    1    2    0    0 -0.32733470077E+02  0.67095800485E+01  0.23834869059E+02  0.99675216053E+02  0.90832533733E+02 0.  0.
         23    2    1    2    0    0  0.22339144051E+02  0.36081282166E+02 -0.45782051562E+01  0.97211778175E+02  0.87339988401E+02 0.  0.
        -11    1    3    3    0    0 -0.61517138435E+02  0.18462931369E+02  0.24051483860E+02  0.68583613435E+02  0.00000000000E+00 0. -1.
         11    1    3    3    0    0  0.28783668357E+02 -0.11753351321E+02 -0.21661480084E+00  0.31091602618E+02  0.00000000000E+00 0.  1.
        -11    1    4    4    0    0  0.25481237018E+02 -0.17387298828E+02  0.21537945690E+02  0.37623060814E+02  0.00000000000E+00 0.  1.
         11    1    4    4    0    0 -0.31420929677E+01  0.53468580994E+02 -0.26116150846E+02  0.59588717361E+02  0.00000000000E+00 0. -1.
         21    1    1    2  502  501  0.10394326027E+02 -0.42790862214E+02  0.28652500079E+02  0.52536327083E+02  0.00000000000E+00 0.  1.
<scales pt_clust_5="13000.00000" pt_clust_6="13000.00000" pt_clust_7="13000.00000" pt_clust_8="13000.00000" pt_clust_9="44.03521"></scales>
<clustering>
<clus scale="   44.035">  1  9  2 -1</clus>
<clus scale="   87.340">  7  8 -1 -1</clus>
<clus scale="   90.833">  5  6 -1 -1</clus>
<clus scale="   93.064">  2  7  1 -1</clus>
<clus scale="   93.064">  2  5  1 -1</clus>
</clustering>
</event>
<event>
 9    1  0.1175034E-005  0.3975368E+03  0.7546771E-02  0.1069174E+00
         -2   -1    0    0    0  501 -0.00000000000E+00  0.00000000000E+00  0.28641827179E+03  0.28641827179E+03  0.00000000000E+00 0.  1.
          2   -1    0    0  502    0  0.00000000000E+00 -0.00000000000E+00 -0.12035269540E+04  0.12035269540E+04  0.00000000000E+00 0. -1.
         23    2    1    2    0    0  0.17210380184E+03 -0.42669248997E+02 -0.10895708551E+03  0.22706259000E+03  0.90804129180E+02 0.  0.
         23    2    1    2    0    0 -0.26869491315E+03  0.32008879685E+03 -0.86384170090E+03  0.96389628830E+03  0.90662981162E+02 0.  0.
        -11    1    3    3    0    0  0.14947081036E+03 -0.58605217982E+01 -0.10679873631E+03  0.18379836491E+03  0.00000000000E+00 0.  1.
         11    1    3    3    0    0  0.22632991478E+02 -0.36808727199E+02 -0.21583491998E+01  0.43264225089E+02  0.00000000000E+00 0. -1.
        -13    1    4    4    0    0 -0.13396229365E+03  0.92181727770E+02 -0.31221539493E+03  0.35202531143E+03  0.00000000000E+00 0.  1.
         13    1    4    4    0    0 -0.13473261950E+03  0.22790706908E+03 -0.55162630597E+03  0.61187097687E+03  0.00000000000E+00 0. -1.
         21    1    1    2  502  501  0.96591111313E+02 -0.27741954785E+03  0.55690104157E+02  0.29898634754E+03  0.00000000000E+00 0.  1.
<scales pt_clust_5="13000.00000" pt_clust_6="13000.00000" pt_clust_7="13000.00000" pt_clust_8="13000.00000" pt_clust_9="387.06033"></scales>
<clustering>
<clus scale="   90.663">  7  8 -1 -1</clus>
<clus scale="   90.804">  5  6 -1 -1</clus>
<clus scale="  199.213">  1  5  2 -1</clus>
<clus scale="  387.060">  1  9  2 -1</clus>
<clus scale="  397.537">  2  5  1 -1</clus>
</clustering>
</event>
<event>
 9    1  0.1175034E-005  0.9265397E+02  0.7546771E-02  0.1298015E+00
         -1   -1    0    0    0  501 -0.00000000000E+00  0.00000000000E+00  0.32237933207E+03  0.32237933207E+03  0.00000000000E+00 0.  1.
          1   -1    0    0  502    0  0.00000000000E+00 -0.00000000000E+00 -0.91780861531E+02  0.91780861531E+02  0.00000000000E+00 0. -1.
         23    2    1    2    0    0 -0.18547844272E+02 -0.12982676456E+02  0.20210111415E+03  0.22312210531E+03  0.91793469938E+02 0.  0.
         23    2    1    2    0    0  0.10872578120E+02 -0.68044930698E+01 -0.54485653630E+02  0.10538400642E+03  0.89289351423E+02 0.  0.
        -13    1    3    3    0    0  0.32123987544E+02  0.22285673162E+01  0.12853736662E+03  0.13250951553E+03  0.00000000000E+00 0.  1.
         13    1    3    3    0    0 -0.50671831816E+02 -0.15211243772E+02  0.73563747530E+02  0.90612589784E+02  0.00000000000E+00 0. -1.
        -13    1    4    4    0    0  0.45926108045E+02  0.13226213633E+02 -0.40538386215E+02  0.62669776481E+02  0.00000000000E+00 0.  1.
         13    1    4    4    0    0 -0.35053529926E+02 -0.20030706703E+02 -0.13947267415E+02  0.42714229943E+02  0.00000000000E+00 0. -1.
         21    1    1    2  502  501  0.76752661522E+01  0.19787169525E+02  0.82983010017E+02  0.85654081863E+02  0.00000000000E+00 0. -1.
<scales pt_clust_5="13000.00000" pt_clust_6="13000.00000" pt_clust_7="13000.00000" pt_clust_8="13000.00000" pt_clust_9="21.22361"></scales>
<clustering>
<clus scale="   21.224">  1  9  2 -1</clus>
<clus scale="   89.289">  7  8 -1 -1</clus>
<clus scale="   90.174">  2  7  1 -1</clus>
<clus scale="   91.793">  5  6 -1 -1</clus>
<clus scale="   90.174">  2  5  1 -1</clus>
</clustering>
</event>
<event>
 9    1  0.1175034E-005  0.1111222E+03  0.7546771E-02  0.1259941E+00
         -1   -1    0    0    0  501 -0.00000000000E+00  0.00000000000E+00  0.12553172035E+03  0.12553172035E+03  0.00000000000E+00 0.  1.
          1   -1    0    0  502    0  0.00000000000E+00 -0.00000000000E+00 -0.30980908991E+03  0.30980908991E+03  0.00000000000E+00 0. -1.
         23    2    1    2    0    0 -0.68696518400E+02  0.64635133817E+02 -0.15173977993E+03  0.20156075020E+03  0.93299855525E+02 0.  0.
         23    2    1    2    0    0  0.11434740114E+02 -0.35016566331E+02 -0.10085974107E+03  0.13984344756E+03  0.89591234258E+02 0.  0.
        -11    1    3    3    0    0 -0.90364459816E+02  0.63419776439E+02 -0.11942575163E+03  0.16263552439E+03  0.00000000000E+00 0. -1.
         11    1    3    3    0    0  0.21667941415E+02  0.12153573775E+01 -0.32314028305E+02  0.38925225806E+02  0.00000000000E+00 0.  1.
        -13    1    4    4    0    0  0.34013474850E+02 -0.34773931042E+02 -0.14761452957E+02  0.50833485469E+02  0.00000000000E+00 0.  1.
         13    1    4    4    0    0 -0.22578734736E+02 -0.24263528910E+00 -0.86098288117E+02  0.89009962088E+02  0.00000000000E+00 0. -1.
         21    1    1    2  502  501  0.57261778287E+02 -0.29618567486E+02  0.68322151445E+02  0.93936612514E+02  0.00000000000E+00 0.  1.
<scales pt_clust_5="13000.00000" pt_clust_6="13000.00000" pt_clust_7="13000.00000" pt_clust_8="13000.00000" pt_clust_9="64.46837"></scales>
<clustering>
<clus scale="   64.468">  1  9  2 -1</clus>
<clus scale="   89.591">  7  8 -1 -1</clus>
<clus scale="   93.300">  5  6 -1 -1</clus>
<clus scale="  108.027">  2  7  1 -1</clus>
<clus scale="  108.027">  2  5  1 -1</clus>
</clustering>
</event>
<event>
 9    1  0.1175034E-005  0.1137786E+03  0.7546771E-02  0.1255207E+00
         -1   -1    0    0    0  501 -0.00000000000E+00  0.00000000000E+00  0.11919519896E+03  0.11919519896E+03  0.00000000000E+00 0.  1.
          1   -1    0    0  502    0  0.00000000000E+00 -0.00000000000E+00 -0.16774502908E+03  0.16774502908E+03  0.00000000000E+00 0. -1.
         23    2    1    2    0    0  0.51416952666E+02 -0.61998538846E+02  0.69692988738E+01  0.12487848572E+03  0.95176379576E+02 0.  0.
         23    2    1    2    0    0 -0.44596493928E+02  0.13433360899E+02 -0.29718169494E+02  0.10664708110E+03  0.91220216257E+02 0.  0.
        -13    1    4    4    0    0 -0.78713907805E+01  0.49311107311E+02 -0.67038994163E+01  0.50383393737E+02  0.00000000000E+00 0.  1.
         13    1    4    4    0    0 -0.36725103148E+02 -0.35877746412E+02 -0.23014270077E+02  0.56263687366E+02  0.00000000000E+00 0. -1.
        -13    1    3    3    0    0  0.70324576220E+02 -0.14971293569E+02  0.15305831183E+02  0.73511591738E+02  0.00000000000E+00 0.  1.
         13    1    3    3    0    0 -0.18907623554E+02 -0.47027245277E+02 -0.83365323095E+01  0.51366893985E+02  0.00000000000E+00 0. -1.
         21    1    1    2  502  501 -0.68204587381E+01  0.48565177947E+02 -0.25800959494E+02  0.55414661212E+02  0.00000000000E+00 0. -1.
<scales pt_clust_5="13000.00000" pt_clust_6="13000.00000" pt_clust_7="13000.00000" pt_clust_8="13000.00000" pt_clust_9="49.04177"></scales>
<clustering>
<clus scale="   49.042">  2  9  1 -1</clus>
<clus scale="   91.220">  5  6 -1 -1</clus>
<clus scale="   95.176">  7  8 -1 -1</clus>
<clus scale="  110.490">  2  5  1 -1</clus>
<clus scale="   49.042">  2  5  1 -1</clus>
</clustering>
</event>
<event>
 9    1  0.1175034E-005  0.1867521E+03  0.7546771E-02  0.1161861E+00
          2   -1    0    0  502    0  0.00000000000E+00  0.00000000000E+00  0.92000073180E+03  0.92000073180E+03  0.00000000000E+00 0. -1.
         -2   -1    0    0    0  501 -0.00000000000E+00 -0.00000000000E+00 -0.82877790631E+02  0.82877790631E+02  0.00000000000E+00 0.  1.
         23    2    1    2    0    0  0.11088601324E+03  0.91063700512E+02  0.32202079205E+03  0.36350879863E+03  0.88616875827E+02 0.  0.
         23    2    1    2    0    0 -0.10723028262E+03 -0.14622100955E+03  0.54122024621E+03  0.57823178058E+03  0.92486323380E+02 0.  0.
        -13    1    4    4    0    0 -0.97477803897E+02 -0.55268699828E+02  0.30204172691E+03  0.32215796782E+03  0.00000000000E+00 0.  1.
         13    1    4    4    0    0 -0.97524787273E+01 -0.90952309724E+02  0.23917851930E+03  0.25607381276E+03  0.00000000000E+00 0. -1.
        -13    1    3    3    0    0  0.50317683119E+02 -0.26523847520E+01  0.15206520763E+03  0.16019591677E+03  0.00000000000E+00 0. -1.
         13    1    3    3    0    0  0.60568330123E+02  0.93716085264E+02  0.16995558442E+03  0.20331288185E+03  0.00000000000E+00 0.  1.
         21    1    1    2  502  501 -0.36557306177E+01  0.55157309040E+02 -0.26118097092E+02  0.61137943232E+02  0.00000000000E+00 0.  1.
<scales pt_clust_5="13000.00000" pt_clust_6="13000.00000" pt_clust_7="13000.00000" pt_clust_8="13000.00000" pt_clust_9="55.27832"></scales>
<clustering>
<clus scale="   55.278">  2  9  1 -1</clus>
<clus scale="   88.617">  7  8 -1 -1</clus>
<clus scale="   92.486">  5  6 -1 -1</clus>
<clus scale="  184.866">  2  7  1 -1</clus>
<clus scale="  186.752">  1  5  2 -1</clus>
</clustering>
</event>
<event>
 9    1  0.1175034E-005  0.1126869E+03  0.7546771E-02  0.1256768E+00
         -2   -1    0    0    0  501 -0.00000000000E+00  0.00000000000E+00  0.22770095652E+03  0.22770095652E+03  0.00000000000E+00 0.  1.
          2   -1    0    0  502    0  0.00000000000E+00 -0.00000000000E+00 -0.96113880079E+02  0.96113880079E+02  0.00000000000E+00 0. -1.
         23    2    1    2    0    0 -0.96851374170E+01  0.64015358925E+02  0.14810127959E+03  0.18429827895E+03  0.88544330945E+02 0.  0.
         23    2    1    2    0    0 -0.11320712151E+02 -0.70944112260E+02 -0.12400089474E+02  0.11701812948E+03  0.91532807338E+02 0.  0.
        -11    1    4    4    0    0 -0.33650744590E+02 -0.30596175100E+02  0.29909934764E+02  0.54434389313E+02  0.00000000000E+00 0.  1.
         11    1    4    4    0    0  0.22330032440E+02 -0.40347937160E+02 -0.42310024238E+02  0.62583740163E+02  0.00000000000E+00 0. -1.
        -13    1    3    3    0    0  0.16338997811E+02  0.28160743131E+02  0.13385937314E+03  0.13776183100E+03  0.00000000000E+00 0.  1.
         13    1    3    3    0    0 -0.26024135228E+02  0.35854615794E+02  0.14241906445E+02  0.46536447945E+02  0.00000000000E+00 0. -1.
         21    1    1    2  502  501  0.21005849568E+02  0.69287533349E+01 -0.41141136768E+01  0.22498428171E+02  0.00000000000E+00 0.  1.
<scales pt_clust_5="13000.00000" pt_clust_6="13000.00000" pt_clust_7="13000.00000" pt_clust_8="13000.00000" pt_clust_9="22.11907"></scales>
<clustering>
<clus scale="   22.119">  2  9  1 -1</clus>
<clus scale="   88.544">  7  8 -1 -1</clus>
<clus scale="   91.533">  5  6 -1 -1</clus>
<clus scale="  110.273">  1  7  2 -1</clus>
<clus scale="   22.119">  2  5  1 -1</clus>
</clustering>
</event>
<event>
 9    1  0.1175034E-005  0.1063524E+03  0.7546771E-02  0.1268642E+00
          2   -1    0    0  502    0  0.00000000000E+00  0.00000000000E+00  0.37065674820E+03  0.37065674820E+03  0.00000000000E+00 0. -1.
         -2   -1    0    0    0  501 -0.00000000000E+00 -0.00000000000E+00 -0.18034455159E+03  0.18034455159E+03  0.00000000000E+00 0.  1.
         23    2    1    2    0    0  0.17672516426E+02  0.87083242913E+02 -0.11703348811E+03  0.16822830930E+03  0.81903099325E+02 0.  0.
         23    2    1    2    0    0 -0.32162295431E+02 -0.54026730661E+02  0.32561188242E+03  0.34232128253E+03  0.84896770419E+02 0.  0.
        -11    1    3    3    0    0  0.11936166887E+02  0.40376258999E+02 -0.11347706716E+03  0.12103618939E+03  0.00000000000E+00 0.  1.
         11    1    3    3    0    0  0.57363495397E+01  0.46706983914E+02 -0.35564209534E+01  0.47192119918E+02  0.00000000000E+00 0. -1.
        -13    1    4    4    0    0 -0.14338792228E+02  0.18905079994E+02  0.35850657200E+02  0.42991541422E+02  0.00000000000E+00 0.  1.
         13    1    4    4    0    0 -0.17823503203E+02 -0.72931810655E+02  0.28976122522E+03  0.29932974111E+03  0.00000000000E+00 0. -1.
         21    1    1    2  502  501  0.14489779004E+02 -0.33056512252E+02 -0.18266197705E+02  0.40451707955E+02  0.00000000000E+00 0. -1.
<scales pt_clust_5="13000.00000" pt_clust_6="13000.00000" pt_clust_7="13000.00000" pt_clust_8="13000.00000" pt_clust_9="36.09275"></scales>
<clustering>
<clus scale="   36.093">  2  9  1 -1</clus>
<clus scale="   81.903">  5  6 -1 -1</clus>
<clus scale="   84.897">  7  8 -1 -1</clus>
<clus scale="  103.978">  2  5  1 -1</clus>
<clus scale="  106.352">  1  5  2 -1</clus>
</clustering>
</event>
<event>
 9    1  0.2019852E-005  0.1058891E+03  0.7546771E-02  0.1268808E+00
         -3   -1    0    0    0  501 -0.00000000000E+00  0.00000000000E+00  0.36009195577E+03  0.36009195577E+03  0.00000000000E+00 0.  1.
          3   -1    0    0  502    0  0.00000000000E+00 -0.00000000000E+00 -0.11825513398E+03  0.11825513398E+03  0.00000000000E+00 0. -1.
         23    2    1    2    0    0  0.47061295310E+02 -0.18414056025E+02  0.27131182870E+03  0.29092195230E+03  0.92041463272E+02 0.  0.
         23    2    1    2    0    0 -0.51586264017E+02 -0.13788190291E+02 -0.76434144510E+02  0.13030578335E+03  0.91028357671E+02 0.  0.
        -11    1    4    4    0    0 -0.54407475535E+01  0.34420566502E+02 -0.10266089828E+02  0.36328635160E+02  0.00000000000E+00 0.  1.
         11    1    4    4    0    0 -0.46145516463E+02 -0.48208756793E+02 -0.66168054682E+02  0.93977148188E+02  0.00000000000E+00 0. -1.
        -13    1    3    3    0    0 -0.25346252534E+02 -0.54801563055E+01  0.35895958566E+02  0.44283004325E+02  0.00000000000E+00 0. -1.
         13    1    3    3    0    0  0.72407547844E+02 -0.12933899719E+02  0.23541587013E+03  0.24663894797E+03  0.00000000000E+00 0.  1.
         21    1    1    2  502  501  0.45249687073E+01  0.32202246316E+02  0.46959137597E+02  0.57119354105E+02  0.00000000000E+00 0. -1.
<scales pt_clust_5="13000.00000" pt_clust_6="13000.00000" pt_clust_7="13000.00000" pt_clust_8="13000.00000" pt_clust_9="32.51861"></scales>
<clustering>
<clus scale="   32.519">  1  9  2 -1</clus>
<clus scale="   91.028">  5  6 -1 -1</clus>
<clus scale="   92.041">  7  8 -1 -1</clus>
<clus scale="  105.010">  2  5  1 -1</clus>
<clus scale="  105.010">  2  5  1 -1</clus>
</clustering>
</event>
<event>
 9    1  0.1175034E-005  0.9890569E+02  0.7546771E-02  0.1286020E+00
          3   -1    0    0  502    0  0.00000000000E+00  0.00000000000E+00  0.23990834420E+03  0.23990834420E+03  0.00000000000E+00 0. -1.
         -3   -1    0    0    0  501 -0.00000000000E+00 -0.00000000000E+00 -0.70866020771E+02  0.70866020771E+02  0.00000000000E+00 0.  1.
         23    2    1    2    0    0 -0.53635833080E+02 -0.69193446065E+01  0.68532706977E+02  0.12865105129E+03  0.94496990180E+02 0.  0.
         23    2    1    2    0    0  0.75429129090E+01 -0.25760686442E+02  0.80243800605E+02  0.12209627801E+03  0.88022298695E+02 0.  0.
        -11    1    3    3    0    0 -0.43208032068E+02 -0.36791156775E+02  0.41344083811E+01  0.56900057862E+02  0.00000000000E+00 0.  1.
         11    1    3    3    0    0 -0.10427801012E+02  0.29871812168E+02  0.64398298596E+02  0.71750993430E+02  0.00000000000E+00 0. -1.
        -13    1    4    4    0    0  0.29034854778E+02  0.22301355024E+02  0.47963582358E+02  0.60339692247E+02  0.00000000000E+00 0. -1.
         13    1    4    4    0    0 -0.21491941869E+02 -0.48062041466E+02  0.32280218247E+02  0.61756585764E+02  0.00000000000E+00 0.  1.
         21    1    1    2  502  501  0.46092920171E+02  0.32680031049E+02  0.20265815848E+02  0.60027035669E+02  0.00000000000E+00 0. -1.
<scales pt_clust_5="13000.00000" pt_clust_6="13000.00000" pt_clust_7="13000.00000" pt_clust_8="13000.00000" pt_clust_9="56.50258"></scales>
<clustering>
<clus scale="   56.503">  2  9  1 -1</clus>
<clus scale="   88.022">  7  8 -1 -1</clus>
<clus scale="   92.739">  1  7  2 -1</clus>
<clus scale="   94.497">  5  6 -1 -1</clus>
<clus scale="   92.739">  1  5  2 -1</clus>
</clustering>
</event>
<event>
 9    1  0.1175034E-005  0.1194887E+03  0.7546771E-02  0.1246904E+00
         -1   -1    0    0    0  501 -0.00000000000E+00  0.00000000000E+00  0.47860747086E+03  0.47860747086E+03  0.00000000000E+00 0.  1.
          1   -1    0    0  502    0  0.00000000000E+00 -0.00000000000E+00 -0.24128084138E+03  0.24128084138E+03  0.00000000000E+00 0. -1.
         23    2    1    2    0    0 -0.70051362519E+02 -0.24715120235E+01  0.42236465753E+03  0.43658505725E+03  0.85447682968E+02 0.  0.
         23    2    1    2    0    0  0.70079434883E+02 -0.22331910709E+02 -0.21399687365E+03  0.24517419382E+03  0.94370980466E+02 0.  0.
        -11    1    4    4    0    0  0.89902547851E+02 -0.26783315850E+02 -0.14062972583E+03  0.16904595205E+03  0.00000000000E+00 0.  1.
         11    1    4    4    0    0 -0.19823112968E+02  0.44514051416E+01 -0.73367147824E+02  0.76128241772E+02  0.00000000000E+00 0. -1.
        -13    1    3    3    0    0 -0.71556966118E+02  0.24868681569E+02  0.36797319209E+03  0.37569019260E+03  0.00000000000E+00 0.  1.
         13    1    3    3    0    0  0.15056035992E+01 -0.27340193593E+02  0.54391465444E+02  0.60894864652E+02  0.00000000000E+00 0. -1.
         21    1    1    2  502  501 -0.28072364248E-01  0.24803422732E+02  0.28958845594E+02  0.38129061166E+02  0.00000000000E+00 0.  1.
<scales pt_clust_5="13000.00000" pt_clust_6="13000.00000" pt_clust_7="13000.00000" pt_clust_8="13000.00000" pt_clust_9="24.80344"></scales>
<clustering>
<clus scale="   24.803">  1  9  2 -1</clus>
<clus scale="   85.448">  7  8 -1 -1</clus>
<clus scale="   94.371">  5  6 -1 -1</clus>
<clus scale="  112.574">  1  7  2 -1</clus>
<clus scale="  119.489">  2  5  1 -1</clus>
</clustering>
</event>
<event>
 9    1  0.1175034E-005  0.9503975E+02  0.7546771E-02  0.1303088E+00
          2   -1    0    0  502    0  0.00000000000E+00  0.00000000000E+00  0.14361779924E+03  0.14361779924E+03  0.00000000000E+00 0. -1.
         -2   -1    0    0    0  501 -0.00000000000E+00 -0.00000000000E+00 -0.90606931240E+02  0.90606931240E+02  0.00000000000E+00 0.  1.
         23    2    1    2    0    0  0.22852463528E+02 -0.12169162439E+02  0.37078239779E+02  0.87156343209E+02  0.74505762815E+02 0.  0.
         23    2    1    2    0    0 -0.32592997797E+01  0.19502247191E+01  0.50096703345E+02  0.10638051705E+03  0.93769442302E+02 0.  0.
        -13    1    3    3    0    0  0.96156677272E+01  0.31588731643E+02  0.12998083641E+02  0.35486042482E+02  0.00000000000E+00 0. -1.
         13    1    3    3    0    0  0.13236795801E+02 -0.43757894082E+02  0.24080156138E+02  0.51670300727E+02  0.00000000000E+00 0.  1.
        -13    1    4    4    0    0 -0.33790593891E+02 -0.78794235737E+01 -0.11815041604E+02  0.36653577717E+02  0.00000000000E+00 0.  1.
         13    1    4    4    0    0  0.30531294112E+02  0.98296482928E+01  0.61911744949E+02  0.69726939330E+02  0.00000000000E+00 0. -1.
         21    1    1    2  502  501 -0.19593163748E+02  0.10218937720E+02 -0.34164075128E+02  0.40687870221E+02  0.00000000000E+00 0.  1.
<scales pt_clust_5="13000.00000" pt_clust_6="13000.00000" pt_clust_7="13000.00000" pt_clust_8="13000.00000" pt_clust_9="22.09794"></scales>
<clustering>
<clus scale="   22.098">  2  9  1 -1</clus>
<clus scale="   74.506">  5  6 -1 -1</clus>
<clus scale="   76.098">  2  5  1 -1</clus>
<clus scale="   93.769">  7  8 -1 -1</clus>
<clus scale="   95.040">  1  5  2 -1</clus>
</clustering>
</event>
<event>
 9    1  0.1175034E-005  0.9222051E+02  0.7546771E-02  0.1300213E+00
          2   -1    0    0  502    0  0.00000000000E+00  0.00000000000E+00  0.23129855534E+03  0.23129855534E+03  0.00000000000E+00 0. -1.
         -2   -1    0    0    0  501 -0.00000000000E+00 -0.00000000000E+00 -0.98141819702E+02  0.98141819702E+02  0.00000000000E+00 0.  1.
         23    2    1    2    0    0  0.62547314107E+01 -0.12310594843E+02  0.81898824915E+00  0.88470934196E+02  0.87382853269E+02 0.  0.
         23    2    1    2    0    0  0.12057029192E+02  0.34499575440E+00  0.17218945154E+03  0.19550896942E+03  0.91809906468E+02 0.  0.
        -11    1    3    3    0    0 -0.53829416655E+01  0.33066998720E+02  0.18652984406E+02  0.38344964370E+02  0.00000000000E+00 0. -1.
         11    1    3    3    0    0  0.11637673076E+02 -0.45377593562E+02 -0.17833996157E+02  0.50125969827E+02  0.00000000000E+00 0.  1.
        -11    1    4    4    0    0 -0.26692125141E+02  0.31586035839E+02  0.95669809455E+02  0.10422504327E+03  0.00000000000E+00 0. -1.
         11    1    4    4    0    0  0.38749154333E+02 -0.31241040084E+02  0.76519642088E+02  0.91283926144E+02  0.00000000000E+00 0.  1.
         21    1    1    2  502  501 -0.18311760602E+02  0.11965599088E+02 -0.39851704157E+02  0.45460471424E+02  0.00000000000E+00 0.  1.
<scales pt_clust_5="13000.00000" pt_clust_6="13000.00000" pt_clust_7="13000.00000" pt_clust_8="13000.00000" pt_clust_9="21.87455"></scales>
<clustering>
<clus scale="   21.875">  2  9  1 -1</clus>
<clus scale="   87.383">  5  6 -1 -1</clus>
<clus scale="   87.814">  2  5  1 -1</clus>
<clus scale="   91.810">  7  8 -1 -1</clus>
<clus scale="   92.221">  1  5  2 -1</clus>
</clustering>
</event>
<event>
 9    1  0.1175034E-005  0.9285825E+02  0.7546771E-02  0.1297651E+00
         -4   -1    0    0    0  501 -0.00000000000E+00  0.00000000000E+00  0.16012286449E+03  0.16012286449E+03  0.00000000000E+00 0.  1.
          4   -1    0    0  502    0  0.00000000000E+00 -0.00000000000E+00 -0.20510462738E+03  0.20510462738E+03  0.00000000000E+00 0. -1.
         23    2    1    2    0    0  0.12186425945E+02 -0.86079736094E+01  0.10605475595E+03  0.14153872313E+03  0.92536439847E+02 0.  0.
         23    2    1    2    0    0  0.76389606909E+01 -0.61102756686E+01 -0.17001434354E+03  0.19254666465E+03  0.89853502283E+02 0.  0.
        -13    1    3    3    0    0 -0.16191224332E+02  0.23352506187E+02  0.92398450665E+02  0.96669379722E+02  0.00000000000E+00 0.  1.
         13    1    3    3    0    0  0.28377650276E+02 -0.31960479797E+02  0.13656305284E+02  0.44869343410E+02  0.00000000000E+00 0. -1.
        -13    1    4    4    0    0  0.38778129852E+02 -0.31636666981E+02 -0.90339587927E+02  0.10327566606E+03  0.00000000000E+00 0. -1.
         13    1    4    4    0    0 -0.31139169161E+02  0.25526391312E+02 -0.79674755609E+02  0.89270998598E+02  0.00000000000E+00 0.  1.
         21    1    1    2  502  501 -0.19825386635E+02  0.14718249278E+02  0.18977824694E+02  0.31142104090E+02  0.00000000000E+00 0.  1.
<scales pt_clust_5="13000.00000" pt_clust_6="13000.00000" pt_clust_7="13000.00000" pt_clust_8="13000.00000" pt_clust_9="24.69155"></scales>
<clustering>
<clus scale="   24.692">  1  9  2 -1</clus>
<clus scale="   89.854">  7  8 -1 -1</clus>
<clus scale="   90.185">  2  7  1 -1</clus>
<clus scale="   92.536">  5  6 -1 -1</clus>
<clus scale="   90.185">  2  5  1 -1</clus>
</clustering>
</event>
<event>
 9    1  0.1175034E-005  0.9450776E+02  0.7546771E-02  0.1292409E+00
          1   -1    0    0  502    0  0.00000000000E+00  0.00000000000E+00  0.30243284674E+03  0.30243284674E+03  0.00000000000E+00 0. -1.
         -1   -1    0    0    0  501 -0.00000000000E+00 -0.00000000000E+00 -0.43781505200E+02  0.43781505200E+02  0.00000000000E+00 0.  1.
         23    2    1    2    0    0 -0.45741359958E+02  0.10467055400E+02  0.97414114659E+02  0.14035009353E+03  0.89480767536E+02 0.  0.
         23    2    1    2    0    0  0.11742351439E+02 -0.18104789517E+02  0.12732861853E+03  0.15724264508E+03  0.89705106400E+02 0.  0.
        -11    1    3    3    0    0 -0.63897506286E+02  0.22267311813E+02  0.39112233300E+02  0.78156837696E+02  0.00000000000E+00 0. -1.
         11    1    3    3    0    0  0.18156146328E+02 -0.11800256413E+02  0.58301881359E+02  0.62193255831E+02  0.00000000000E+00 0.  1.
        -11    1    4    4    0    0  0.38248573040E+02  0.27610211663E+01  0.17136861532E+02  0.42002959427E+02  0.00000000000E+00 0.  1.
         11    1    4    4    0    0 -0.26506221600E+02 -0.20865810684E+02  0.11019175700E+03  0.11523968566E+03  0.00000000000E+00 0. -1.
         21    1    1    2  502  501  0.33999008519E+02  0.76377341177E+01  0.33908608348E+02  0.48621613330E+02  0.00000000000E+00 0.  1.
<scales pt_clust_5="13000.00000" pt_clust_6="13000.00000" pt_clust_7="13000.00000" pt_clust_8="13000.00000" pt_clust_9="34.84634"></scales>
<clustering>
<clus scale="   34.846">  2  9  1 -1</clus>
<clus scale="   89.481">  5  6 -1 -1</clus>
<clus scale="   89.705">  7  8 -1 -1</clus>
<clus scale="   94.295">  2  5  1 -1</clus>
<clus scale="   94.508">  1  5  2 -1</clus>
</clustering>
</event>
<event>
 9    1  0.1175034E-005  0.1531023E+03  0.7546771E-02  0.1199762E+00
          1   -1    0    0  502    0  0.00000000000E+00  0.00000000000E+00  0.94787844163E+03  0.94787844163E+03  0.00000000000E+00 0. -1.
         -1   -1    0    0    0  501 -0.00000000000E+00 -0.00000000000E+00 -0.34977989405E+02  0.34977989405E+02  0.00000000000E+00 0.  1.
         23    2    1    2    0    0 -0.13451860154E+03  0.51811614253E+02  0.34235105746E+03  0.37874295220E+03  0.73907237566E+02 0.  0.
         23    2    1    2    0    0  0.10629306421E+03 -0.34102774618E+02  0.53980796601E+03  0.55877784825E+03  0.91535942608E+02 0.  0.
        -11    1    4    4    0    0  0.72821836209E+02 -0.54805694258E+02  0.46894109303E+03  0.47771584931E+03  0.00000000000E+00 0. -1.
         11    1    4    4    0    0  0.33471228001E+02  0.20702919640E+02  0.70866872981E+02  0.81061998936E+02  0.00000000000E+00 0.  1.
        -11    1    3    3    0    0 -0.50760084291E+02  0.27144258461E+02  0.59776482977E+02  0.82985690584E+02  0.00000000000E+00 0.  1.
         11    1    3    3    0    0 -0.83758517249E+02  0.24667355791E+02  0.28257457448E+03  0.29575726162E+03  0.00000000000E+00 0. -1.
         21    1    1    2  502  501  0.28225537330E+02 -0.17708839634E+02  0.30741428748E+02  0.45335630581E+02  0.00000000000E+00 0.  1.
<scales pt_clust_5="13000.00000" pt_clust_6="13000.00000" pt_clust_7="13000.00000" pt_clust_8="13000.00000" pt_clust_9="33.32092"></scales>
<clustering>
<clus scale="   33.321">  2  9  1 -1</clus>
<clus scale="   73.907">  7  8 -1 -1</clus>
<clus scale="   91.536">  5  6 -1 -1</clus>
<clus scale="  143.261">  2  7  1 -1</clus>
<clus scale="  153.102">  1  5  2 -1</clus>
</clustering>
</event>
<event>
 9    1  0.1175034E-005  0.9170062E+02  0.7546771E-02  0.1299127E+00
          1   -1    0    0  502    0  0.00000000000E+00  0.00000000000E+00  0.24706397227E+03  0.24706397227E+03  0.00000000000E+00 0. -1.
         -1   -1    0    0    0  501 -0.00000000000E+00 -0.00000000000E+00 -0.89758067589E+02  0.89758067589E+02  0.00000000000E+00 0.  1.
         23    2    1    2    0    0  0.29209951304E+01  0.16692053670E+02 -0.56896724334E+01  0.92700039440E+02  0.90960255450E+02 0.  0.
         23    2    1    2    0    0 -0.52819351658E+01  0.66193436698E+01  0.18835741461E+03  0.20959348923E+03  0.91537973222E+02 0.  0.
        -13    1    4    4    0    0 -0.22125184553E+02  0.43630951637E+02  0.12584419096E+03  0.13501831035E+03  0.00000000000E+00 0.  1.
         13    1    4    4    0    0  0.16843249387E+02 -0.37011607967E+02  0.62513223649E+02  0.74575178881E+02  0.00000000000E+00 0. -1.
        -13    1    3    3    0    0 -0.18186485028E+02  0.41929622561E+02 -0.27394245231E+02  0.53284952449E+02  0.00000000000E+00 0.  1.
         13    1    3    3    0    0  0.21107480158E+02 -0.25237568891E+02  0.21704572798E+02  0.39415086991E+02  0.00000000000E+00 0. -1.
         21    1    1    2  502  501  0.23609400354E+01 -0.23311397340E+02 -0.25361837493E+02  0.34528511187E+02  0.00000000000E+00 0.  1.
<scales pt_clust_5="13000.00000" pt_clust_6="13000.00000" pt_clust_7="13000.00000" pt_clust_8="13000.00000" pt_clust_9="23.43065"></scales>
<clustering>
<clus scale="   23.431">  2  9  1 -1</clus>
<clus scale="   90.960">  7  8 -1 -1</clus>
<clus scale="   91.124">  2  7  1 -1</clus>
<clus scale="   91.538">  5  6 -1 -1</clus>
<clus scale="   91.701">  1  5  2 -1</clus>
</clustering>
</event>
<event>
 9    1  0.1175034E-005  0.1081502E+03  0.7546771E-02  0.1266090E+00
         -2   -1    0    0    0  501 -0.00000000000E+00  0.00000000000E+00  0.25047722456E+03  0.25047722456E+03  0.00000000000E+00 0.  1.
          2   -1    0    0  502    0  0.00000000000E+00 -0.00000000000E+00 -0.79867929817E+02  0.79867929817E+02  0.00000000000E+00 0. -1.
         23    2    1    2    0    0 -0.26777663228E+02  0.38995330145E+02  0.54833040873E+02  0.11503361660E+03  0.89377802363E+02 0.  0.
         23    2    1    2    0    0  0.63569684611E+01 -0.75436567352E+02  0.25815150328E+02  0.11612500293E+03  0.84187336209E+02 0.  0.
        -11    1    4    4    0    0 -0.18659499643E+02 -0.19648829723E+02  0.44580847187E+02  0.52169966191E+02  0.00000000000E+00 0.  1.
         11    1    4    4    0    0  0.25016468104E+02 -0.55787737630E+02 -0.18765696859E+02  0.63955036743E+02  0.00000000000E+00 0. -1.
        -13    1    3    3    0    0 -0.58334261843E+02  0.37866468460E+02  0.37549048822E+02  0.79035982981E+02  0.00000000000E+00 0.  1.
         13    1    3    3    0    0  0.31556598615E+02  0.11288616853E+01  0.17283992051E+02  0.35997633617E+02  0.00000000000E+00 0. -1.
         21    1    1    2  502  501  0.20420694767E+02  0.36441237207E+02  0.89961103539E+02  0.99186534842E+02  0.00000000000E+00 0.  1.
<scales pt_clust_5="13000.00000" pt_clust_6="13000.00000" pt_clust_7="13000.00000" pt_clust_8="13000.00000" pt_clust_9="41.77282"></scales>
<clustering>
<clus scale="   41.773">  1  9  2 -1</clus>
<clus scale="   84.187">  5  6 -1 -1</clus>
<clus scale="   89.378">  7  8 -1 -1</clus>
<clus scale="  103.902">  2  5  1 -1</clus>
<clus scale="  103.902">  2  5  1 -1</clus>
</clustering>
</event>
<event>
 9    1  0.1175034E-005  0.9827300E+02  0.7546771E-02  0.1284098E+00
          1   -1    0    0  502    0  0.00000000000E+00  0.00000000000E+00  0.55269453070E+03  0.55269453070E+03  0.00000000000E+00 0. -1.
         -1   -1    0    0    0  501 -0.00000000000E+00 -0.00000000000E+00 -0.21629950370E+03  0.21629950370E+03  0.00000000000E+00 0.  1.
         23    2    1    2    0    0 -0.56405019121E+01 -0.35354923648E+02  0.10424360460E+03  0.14326845176E+03  0.91527778751E+02 0.  0.
         23    2    1    2    0    0  0.35387553786E+02  0.17417952257E+02  0.42157574212E+03  0.43314262665E+03  0.91273022609E+02 0.  0.
        -11    1    4    4    0    0 -0.35469182011E+01  0.47173251710E+02  0.15347405142E+03  0.16059944198E+03  0.00000000000E+00 0. -1.
         11    1    4    4    0    0  0.38934471987E+02 -0.29755299454E+02  0.26810169070E+03  0.27254318467E+03  0.00000000000E+00 0.  1.
        -13    1    3    3    0    0 -0.21197094208E+02  0.92703615100E+01  0.91417720032E+02  0.94299819413E+02  0.00000000000E+00 0. -1.
         13    1    3    3    0    0  0.15556592296E+02 -0.44625285158E+02  0.12825884564E+02  0.48968632349E+02  0.00000000000E+00 0.  1.
         21    1    1    2  502  501 -0.29747051874E+02  0.17936971391E+02 -0.18942431971E+03  0.19258295598E+03  0.00000000000E+00 0.  1.
<scales pt_clust_5="13000.00000" pt_clust_6="13000.00000" pt_clust_7="13000.00000" pt_clust_8="13000.00000" pt_clust_9="34.73647"></scales>
<clustering>
<clus scale="   34.736">  2  9  1 -1</clus>
<clus scale="   91.273">  5  6 -1 -1</clus>
<clus scale="   91.528">  7  8 -1 -1</clus>
<clus scale="   98.036">  1  5  2 -1</clus>
<clus scale="   98.036">  1  5  2 -1</clus>
</clustering>
</event>
<event>
 9    1  0.1175034E-005  0.1535226E+03  0.7546771E-02  0.1196234E+00
          2   -1    0    0  502    0  0.00000000000E+00  0.00000000000E+00  0.52196334768E+03  0.52196334768E+03  0.00000000000E+00 0. -1.
         -2   -1    0    0    0  501 -0.00000000000E+00 -0.00000000000E+00 -0.76516275462E+02  0.76516275462E+02  0.00000000000E+00 0.  1.
         23    2    1    2    0    0 -0.12611567847E+03  0.24431168050E+02  0.53507720516E+02  0.16541056227E+03  0.89417736653E+02 0.  0.
         23    2    1    2    0    0  0.11562693133E+03  0.98575678444E+01  0.33654373849E+03  0.36708114388E+03  0.89555119235E+02 0.  0.
        -13    1    4    4    0    0  0.43083429234E+02  0.67275323692E+01  0.25151821282E+03  0.25527015679E+03  0.00000000000E+00 0. -1.
         13    1    4    4    0    0  0.72543502100E+02  0.31300354752E+01  0.85025525673E+02  0.11181098709E+03  0.00000000000E+00 0.  1.
        -13    1    3    3    0    0 -0.82623595032E+02 -0.18524245769E+02  0.60233540715E+02  0.10391287487E+03  0.00000000000E+00 0.  1.
         13    1    3    3    0    0 -0.43492083439E+02  0.42955413819E+02 -0.67258201982E+01  0.61497687400E+02  0.00000000000E+00 0. -1.
         21    1    1    2  502  501  0.10488747138E+02 -0.34288735894E+02  0.55395613211E+02  0.65987916991E+02  0.00000000000E+00 0. -1.
<scales pt_clust_5="13000.00000" pt_clust_6="13000.00000" pt_clust_7="13000.00000" pt_clust_8="13000.00000" pt_clust_9="35.85709"></scales>
<clustering>
<clus scale="   35.857">  1  9  2 -1</clus>
<clus scale="   89.418">  7  8 -1 -1</clus>
<clus scale="   89.555">  5  6 -1 -1</clus>
<clus scale="  153.443">  2  7  1 -1</clus>
<clus scale="   35.857">  1  5  2 -1</clus>
</clustering>
</event>
<event>
 9    1  0.1175034E-005  0.1314117E+03  0.7546771E-02  0.1225507E+00
          2   -1    0    0  502    0  0.00000000000E+00  0.00000000000E+00  0.73702917272E+03  0.73702917272E+03  0.00000000000E+00 0. -1.
         -2   -1    0    0    0  501 -0.00000000000E+00 -0.00000000000E+00 -0.43911173474E+02  0.43911173474E+02  0.00000000000E+00 0.  1.
         23    2    1    2    0    0 -0.97500774295E+02 -0.70208456036E+02  0.20312070525E+03  0.25338569451E+03  0.92253243825E+02 0.  0.
         23    2    1    2    0    0  0.71501493020E+02  0.44614025739E+02  0.46900682305E+03  0.48546382894E+03  0.92762354100E+02 0.  0.
        -13    1    3    3    0    0 -0.70550441349E+02 -0.53504630724E+02  0.20322702499E+03  0.22167844724E+03  0.00000000000E+00 0. -1.
         13    1    3    3    0    0 -0.26950332946E+02 -0.16703825312E+02 -0.10631974079E+00  0.31707247276E+02  0.00000000000E+00 0.  1.
        -13    1    4    4    0    0 -0.12931134544E+02  0.35152914139E+02  0.99532507878E+02  0.10634689341E+03  0.00000000000E+00 0. -1.
         13    1    4    4    0    0  0.84432627564E+02  0.94611116000E+01  0.36947431518E+03  0.37911693553E+03  0.00000000000E+00 0.  1.
         21    1    1    2  502  501  0.25999281275E+02  0.25594430297E+02  0.20990470948E+02  0.42090822748E+02  0.00000000000E+00 0.  1.
<scales pt_clust_5="13000.00000" pt_clust_6="13000.00000" pt_clust_7="13000.00000" pt_clust_8="13000.00000" pt_clust_9="36.48339"></scales>
<clustering>
<clus scale="   36.483">  2  9  1 -1</clus>
<clus scale="   92.253">  5  6 -1 -1</clus>
<clus scale="   92.762">  7  8 -1 -1</clus>
<clus scale="  131.053">  2  5  1 -1</clus>
<clus scale="  131.412">  1  5  2 -1</clus>
</clustering>
</event>
<event>
 9    1  0.1175034E-005  0.1630443E+03  0.7546771E-02  0.1186116E+00
         -1   -1    0    0    0  501 -0.00000000000E+00  0.00000000000E+00  0.38741866868E+02  0.38741866868E+02  0.00000000000E+00 0.  1.
          1   -1    0    0  502    0  0.00000000000E+00 -0.00000000000E+00 -0.12452676834E+04  0.12452676834E+04  0.00000000000E+00 0. -1.
         23    2    1    2    0    0  0.13495545248E+03  0.13623904583E+01 -0.29262833935E+03  0.33438781967E+03  0.89269472332E+02 0.  0.
         23    2    1    2    0    0 -0.12100025883E+03  0.81613671185E+02 -0.62411731294E+03  0.64787296454E+03  0.94419827902E+02 0.  0.
        -11    1    4    4    0    0 -0.39590149771E+02  0.55613669279E+02 -0.13428187595E+03  0.15063825005E+03  0.00000000000E+00 0.  1.
         11    1    4    4    0    0 -0.81410109062E+02  0.26000001906E+02 -0.48983543699E+03  0.49723471449E+03  0.00000000000E+00 0. -1.
        -13    1    3    3    0    0  0.11116390685E+03 -0.51949318647E+01 -0.28869024395E+03  0.30939692703E+03  0.00000000000E+00 0.  1.
         13    1    3    3    0    0  0.23791545631E+02  0.65573223230E+01 -0.39380953999E+01  0.24990892640E+02  0.00000000000E+00 0. -1.
         21    1    1    2  502  501 -0.13955193643E+02 -0.82976061644E+02 -0.28978016429E+03  0.30174876611E+03  0.00000000000E+00 0.  1.
<scales pt_clust_5="13000.00000" pt_clust_6="13000.00000" pt_clust_7="13000.00000" pt_clust_8="13000.00000" pt_clust_9="84.14139"></scales>
<clustering>
<clus scale="   84.141">  2  9  1 -1</clus>
<clus scale="   89.269">  7  8 -1 -1</clus>
<clus scale="   94.420">  5  6 -1 -1</clus>
<clus scale="  160.117">  1  7  2 -1</clus>
<clus scale="   84.141">  2  5  1 -1</clus>
</clustering>
</event>
<event>
 9    1  0.1175034E-005  0.1329216E+03  0.7546771E-02  0.1225592E+00
         -2   -1    0    0    0  501 -0.00000000000E+00  0.00000000000E+00  0.52467967031E+02  0.52467967031E+02  0.00000000000E+00 0.  1.
          2   -1    0    0  502    0  0.00000000000E+00 -0.00000000000E+00 -0.56903966397E+03  0.56903966397E+03  0.00000000000E+00 0. -1.
         23    2    1    2    0    0 -0.36116421092E+02 -0.62601391403E+02 -0.62716283786E+02  0.13890438421E+03  0.10068647189E+03 0.  0.
         23    2    1    2    0    0  0.61359365152E+02  0.66936960522E+02 -0.42408003198E+03  0.44332759647E+03  0.91923641639E+02 0.  0.
        -11    1    3    3    0    0 -0.24350762339E+02  0.17945604269E+02 -0.47163198357E+02  0.56030095648E+02  0.00000000000E+00 0. -1.
         11    1    3    3    0    0 -0.11765658753E+02 -0.80546995672E+02 -0.15553085429E+02  0.82874288558E+02  0.00000000000E+00 0.  1.
        -13    1    4    4    0    0  0.46871894408E+02  0.89447675380E+02 -0.35962682341E+03  0.37353622747E+03  0.00000000000E+00 0. -1.
         13    1    4    4    0    0  0.14487470744E+02 -0.22510714859E+02 -0.64453208569E+02  0.69791368999E+02  0.00000000000E+00 0.  1.
         21    1    1    2  502  501 -0.25242944060E+02 -0.43355691190E+01 -0.29775381175E+02  0.39275650326E+02  0.00000000000E+00 0. -1.
<scales pt_clust_5="13000.00000" pt_clust_6="13000.00000" pt_clust_7="13000.00000" pt_clust_8="13000.00000" pt_clust_9="25.61256"></scales>
<clustering>
<clus scale="   25.613">  1  9  2 -1</clus>
<clus scale="   91.924">  7  8 -1 -1</clus>
<clus scale="  100.686">  5  6 -1 -1</clus>
<clus scale="  126.413">  2  7  1 -1</clus>
<clus scale="  126.413">  2  5  1 -1</clus>
</clustering>
</event>
<event>
 9    1  0.1175034E-005  0.1643739E+03  0.7546771E-02  0.1184011E+00
          3   -1    0    0  502    0  0.00000000000E+00  0.00000000000E+00  0.22620016797E+03  0.22620016797E+03  0.00000000000E+00 0. -1.
         -3   -1    0    0    0  501 -0.00000000000E+00 -0.00000000000E+00 -0.15163183890E+03  0.15163183890E+03  0.00000000000E+00 0.  1.
         23    2    1    2    0    0 -0.13076107651E+03  0.12080609310E+02  0.32476478160E+02  0.16340598864E+03  0.91664580058E+02 0.  0.
         23    2    1    2    0    0  0.14129762973E+03  0.54545898938E+01  0.68210792840E+02  0.18124919963E+03  0.90574761319E+02 0.  0.
        -13    1    4    4    0    0  0.36271951551E+02  0.53791664846E+01  0.66813276326E+02  0.76214196806E+02  0.00000000000E+00 0.  1.
         13    1    4    4    0    0  0.10502567818E+03  0.75423409242E-01  0.13975165144E+01  0.10503500282E+03  0.00000000000E+00 0. -1.
        -13    1    3    3    0    0 -0.86716871464E+02  0.23828747636E+02 -0.21791149897E+02  0.92533665356E+02  0.00000000000E+00 0.  1.
         13    1    3    3    0    0 -0.44044205047E+02 -0.11748138326E+02  0.54267628056E+02  0.70872323281E+02  0.00000000000E+00 0. -1.
         21    1    1    2  502  501 -0.10536553218E+02 -0.17535199204E+02 -0.26118941935E+02  0.33176818603E+02  0.00000000000E+00 0.  1.
<scales pt_clust_5="13000.00000" pt_clust_6="13000.00000" pt_clust_7="13000.00000" pt_clust_8="13000.00000" pt_clust_9="20.45733"></scales>
<clustering>
<clus scale="   20.457">  2  9  1 -1</clus>
<clus scale="   90.575">  5  6 -1 -1</clus>
<clus scale="   91.665">  7  8 -1 -1</clus>
<clus scale="  163.769">  1  5  2 -1</clus>
<clus scale="  163.769">  1  5  2 -1</clus>
</clustering>
</event>
<event>
 9    1  0.1175034E-005  0.9658139E+02  0.7546771E-02  0.1288049E+00
          4   -1    0    0  502    0  0.00000000000E+00  0.00000000000E+00  0.45514558980E+03  0.45514558980E+03  0.00000000000E+00 0. -1.
         -4   -1    0    0    0  501 -0.00000000000E+00 -0.00000000000E+00 -0.42663318561E+02  0.42663318561E+02  0.00000000000E+00 0.  1.
         23    2    1    2    0    0  0.58817839135E+02  0.13804880391E+02  0.14771741560E+03  0.18104872647E+03  0.85487388314E+02 0.  0.
         23    2    1    2    0    0 -0.34367414064E+02 -0.89310854419E+01  0.27455329121E+03  0.28997603296E+03  0.86288507575E+02 0.  0.
        -11    1    3    3    0    0  0.21345896806E+02  0.41768143596E+02  0.33526146427E+02  0.57656115237E+02  0.00000000000E+00 0.  1.
         11    1    3    3    0    0  0.37471942330E+02 -0.27963263205E+02  0.11419126917E+03  0.12339261123E+03  0.00000000000E+00 0. -1.
        -13    1    4    4    0    0 -0.15103080053E+01  0.26852851431E+02  0.28555623996E+02  0.39227290526E+02  0.00000000000E+00 0.  1.
         13    1    4    4    0    0 -0.32857106059E+02 -0.35783936873E+02  0.24599766721E+03  0.25074874243E+03  0.00000000000E+00 0. -1.
         21    1    1    2  502  501 -0.24450425071E+02 -0.48737949494E+01 -0.97884355694E+01  0.26784148937E+02  0.00000000000E+00 0.  1.
<scales pt_clust_5="13000.00000" pt_clust_6="13000.00000" pt_clust_7="13000.00000" pt_clust_8="13000.00000" pt_clust_9="24.93145"></scales>
<clustering>
<clus scale="   24.931">  2  9  1 -1</clus>
<clus scale="   85.487">  5  6 -1 -1</clus>
<clus scale="   86.289">  7  8 -1 -1</clus>
<clus scale="   95.866">  2  5  1 -1</clus>
<clus scale="   96.581">  1  5  2 -1</clus>
</clustering>
</event>
<event>
 9    1  0.1175034E-005  0.9210523E+02  0.7546771E-02  0.1314910E+00
         -1   -1    0    0    0  501 -0.00000000000E+00  0.00000000000E+00  0.59514120852E+02  0.59514120852E+02  0.00000000000E+00 0.  1.
          1   -1    0    0  502    0  0.00000000000E+00 -0.00000000000E+00 -0.32012306409E+03  0.32012306409E+03  0.00000000000E+00 0. -1.
         23    2    1    2    0    0 -0.23608427499E+00 -0.50974859029E+02 -0.33708184062E+02  0.11033766824E+03  0.91867662269E+02 0.  0.
         23    2    1    2    0    0  0.69951392374E+01 -0.48121940522E+01 -0.19097404169E+03  0.20260162210E+03  0.67113660989E+02 0.  0.
        -11    1    3    3    0    0  0.45487019231E+02 -0.28245195173E+02 -0.22397225127E+02  0.58038742769E+02  0.00000000000E+00 0. -1.
         11    1    3    3    0    0 -0.45723103506E+02 -0.22729663857E+02 -0.11310958935E+02  0.52298925470E+02  0.00000000000E+00 0.  1.
        -13    1    4    4    0    0  0.17906304444E+02 -0.31075863668E+02 -0.74189848482E+02  0.82404360682E+02  0.00000000000E+00 0.  1.
         13    1    4    4    0    0 -0.10911165207E+02  0.26263669616E+02 -0.11678419321E+03  0.12019726141E+03  0.00000000000E+00 0. -1.
         21    1    1    2  502  501 -0.67590549624E+01  0.55787053082E+02 -0.35926717481E+02  0.66697894603E+02  0.00000000000E+00 0. -1.
<scales pt_clust_5="13000.00000" pt_clust_6="13000.00000" pt_clust_7="13000.00000" pt_clust_8="13000.00000" pt_clust_9="56.19502"></scales>
<clustering>
<clus scale="   56.195">  1  9  2 -1</clus>
<clus scale="   67.114">  7  8 -1 -1</clus>
<clus scale="   67.438">  2  7  1 -1</clus>
<clus scale="   91.868">  5  6 -1 -1</clus>
<clus scale="   67.438">  2  5  1 -1</clus>
</clustering>
</event>
<event>
 9    1  0.1175034E-005  0.9566622E+02  0.7546771E-02  0.1289918E+00
         -2   -1    0    0    0  501 -0.00000000000E+00  0.00000000000E+00  0.85216988373E+02  0.85216988373E+02  0.00000000000E+00 0.  1.
          2   -1    0    0  502    0  0.00000000000E+00 -0.00000000000E+00 -0.17916369223E+03  0.17916369223E+03  0.00000000000E+00 0. -1.
         23    2    1    2    0    0  0.41629436309E+02  0.19555342011E+01  0.10422645906E+01  0.99795434979E+02  0.90670879811E+02 0.  0.
         23    2    1    2    0    0 -0.35197759156E+01  0.11029718748E+02 -0.79408326458E+02  0.12141442893E+03  0.91113872286E+02 0.  0.
        -11    1    3    3    0    0  0.45306605353E+02 -0.28697203433E+02 -0.25219405055E+02  0.59264123758E+02  0.00000000000E+00 0. -1.
         11    1    3    3    0    0 -0.36771690447E+01  0.30652737634E+02  0.26261669646E+02  0.40531311220E+02  0.00000000000E+00 0.  1.
        -11    1    4    4    0    0  0.43563097488E+02  0.40316697505E+01 -0.44350753136E+02  0.62297569193E+02  0.00000000000E+00 0.  1.
         11    1    4    4    0    0 -0.47082873403E+02  0.69980489971E+01 -0.35057573322E+02  0.59116859735E+02  0.00000000000E+00 0. -1.
         21    1    1    2  502  501 -0.38109660393E+02 -0.12985252949E+02 -0.15580641990E+02  0.43170816696E+02  0.00000000000E+00 0.  1.
<scales pt_clust_5="13000.00000" pt_clust_6="13000.00000" pt_clust_7="13000.00000" pt_clust_8="13000.00000" pt_clust_9="40.26118"></scales>
<clustering>
<clus scale="   40.261">  2  9  1 -1</clus>
<clus scale="   90.671">  5  6 -1 -1</clus>
<clus scale="   91.114">  7  8 -1 -1</clus>
<clus scale="   95.244">  1  5  2 -1</clus>
<clus scale="   40.261">  2  5  1 -1</clus>
</clustering>
</event>
<event>
 9    1  0.1175034E-005  0.9366247E+02  0.7546771E-02  0.1297308E+00
         -2   -1    0    0    0  501 -0.00000000000E+00  0.00000000000E+00  0.12360897264E+03  0.12360897264E+03  0.00000000000E+00 0.  1.
          2   -1    0    0  502    0  0.00000000000E+00 -0.00000000000E+00 -0.32826502707E+03  0.32826502707E+03  0.00000000000E+00 0. -1.
         23    2    1    2    0    0 -0.27073637988E+02  0.24016663733E+02 -0.36852638079E+02  0.10514521932E+03  0.91583940740E+02 0.  0.
         23    2    1    2    0    0  0.83412102644E+01 -0.13911178167E+02 -0.24836113705E+03  0.26340668818E+03  0.86236490619E+02 0.  0.
        -13    1    3    3    0    0  0.24875922206E+02  0.13376710933E+02  0.14132349252E+02  0.31582767395E+02  0.00000000000E+00 0.  1.
         13    1    3    3    0    0 -0.51949560194E+02  0.10639952801E+02 -0.50984987331E+02  0.73562451924E+02  0.00000000000E+00 0. -1.
        -13    1    4    4    0    0  0.45620536999E+02 -0.20097193252E+02 -0.14771470920E+03  0.15589985852E+03  0.00000000000E+00 0.  1.
         13    1    4    4    0    0 -0.37279326735E+02  0.61860150845E+01 -0.10064642786E+03  0.10750682966E+03  0.00000000000E+00 0. -1.
         21    1    1    2  502  501  0.18732427724E+02 -0.10105485566E+02  0.80557720701E+02  0.83322092218E+02  0.00000000000E+00 0.  1.
<scales pt_clust_5="13000.00000" pt_clust_6="13000.00000" pt_clust_7="13000.00000" pt_clust_8="13000.00000" pt_clust_9="21.28438"></scales>
<clustering>
<clus scale="   21.284">  1  9  2 -1</clus>
<clus scale="   86.236">  7  8 -1 -1</clus>
<clus scale="   88.441">  2  7  1 -1</clus>
<clus scale="   91.584">  5  6 -1 -1</clus>
<clus scale="   88.441">  2  5  1 -1</clus>
</clustering>
</event>
<event>
 9    1  0.1175034E-005  0.1069853E+03  0.7546771E-02  0.1270190E+00
          1   -1    0    0  502    0  0.00000000000E+00  0.00000000000E+00  0.51877510790E+03  0.51877510790E+03  0.00000000000E+00 0. -1.
         -1   -1    0    0    0  501 -0.00000000000E+00 -0.00000000000E+00 -0.30921004991E+02  0.30921004991E+02  0.00000000000E+00 0.  1.
         23    2    1    2    0    0  0.45325477974E+02 -0.11728776574E+01  0.24053887995E+03  0.26527419876E+03  0.10225298608E+03 0.  0.
         23    2    1    2    0    0 -0.16344351259E+02 -0.20300308824E+02  0.21458538429E+03  0.23571620828E+03  0.94000017759E+02 0.  0.
        -11    1    4    4    0    0 -0.44987021826E+02 -0.41253805812E+02  0.11870587570E+03  0.13347956230E+03  0.00000000000E+00 0.  1.
         11    1    4    4    0    0  0.28642670567E+02  0.20953496988E+02  0.95879508593E+02  0.10223664598E+03  0.00000000000E+00 0. -1.
        -13    1    3    3    0    0 -0.18310285439E+01  0.38705308748E+02  0.15500682865E+03  0.15977662695E+03  0.00000000000E+00 0. -1.
         13    1    3    3    0    0  0.47156506518E+02 -0.39878186405E+02  0.85532051301E+02  0.10549757181E+03  0.00000000000E+00 0.  1.
         21    1    1    2  502  501 -0.28981126716E+02  0.21473186482E+02  0.32729838666E+02  0.48705705851E+02  0.00000000000E+00 0. -1.
<scales pt_clust_5="13000.00000" pt_clust_6="13000.00000" pt_clust_7="13000.00000" pt_clust_8="13000.00000" pt_clust_9="36.06943"></scales>
<clustering>
<clus scale="   36.069">  2  9  1 -1</clus>
<clus scale="   94.000">  5  6 -1 -1</clus>
<clus scale="   99.127">  1  5  2 -1</clus>
<clus scale="  102.253">  7  8 -1 -1</clus>
<clus scale="   99.127">  1  5  2 -1</clus>
</clustering>
</event>
<event>
 9    1  0.1175034E-005  0.9308879E+02  0.7546771E-02  0.1296291E+00
          2   -1    0    0  502    0  0.00000000000E+00  0.00000000000E+00  0.54275523301E+03  0.54275523301E+03  0.00000000000E+00 0. -1.
         -2   -1    0    0    0  501 -0.00000000000E+00 -0.00000000000E+00 -0.35061872918E+02  0.35061872918E+02  0.00000000000E+00 0.  1.
         23    2    1    2    0    0  0.84714324301E+01 -0.29480508002E+02  0.16753212808E+03  0.19373913168E+03  0.92341603228E+02 0.  0.
         23    2    1    2    0    0 -0.48480841376E+01  0.13629785483E+01  0.34362552906E+03  0.35551706618E+03  0.91041301042E+02 0.  0.
        -11    1    4    4    0    0  0.39950699820E+02 -0.15967896708E+02  0.17158474557E+03  0.17689645856E+03  0.00000000000E+00 0. -1.
         11    1    4    4    0    0 -0.44798783957E+02  0.17330875257E+02  0.17204078349E+03  0.17862060762E+03  0.00000000000E+00 0.  1.
        -11    1    3    3    0    0 -0.15364638518E+01  0.24120680379E+02  0.85031033384E+01  0.25621684361E+02  0.00000000000E+00 0.  1.
         11    1    3    3    0    0  0.10007896282E+02 -0.53601188380E+02  0.15902902474E+03  0.16811744732E+03  0.00000000000E+00 0. -1.
         21    1    1    2  502  501 -0.36233482925E+01  0.28117529453E+02 -0.34642970456E+01  0.28560908064E+02  0.00000000000E+00 0.  1.
<scales pt_clust_5="13000.00000" pt_clust_6="13000.00000" pt_clust_7="13000.00000" pt_clust_8="13000.00000" pt_clust_9="28.35003"></scales>
<clustering>
<clus scale="   28.350">  2  9  1 -1</clus>
<clus scale="   91.041">  5  6 -1 -1</clus>
<clus scale="   91.799">  1  5  2 -1</clus>
<clus scale="   92.342">  7  8 -1 -1</clus>
<clus scale="   91.799">  1  5  2 -1</clus>
</clustering>
</event>
<event>
 9    1  0.1175034E-005  0.9301799E+02  0.7546771E-02  0.1296718E+00
         -1   -1    0    0    0  501 -0.00000000000E+00  0.00000000000E+00  0.46179787370E+02  0.46179787370E+02  0.00000000000E+00 0.  1.
          1   -1    0    0  502    0  0.00000000000E+00 -0.00000000000E+00 -0.49208327701E+03  0.49208327701E+03  0.00000000000E+00 0. -1.
         23    2    1    2    0    0 -0.29641064359E+02 -0.31083313246E+02 -0.65892063937E+02  0.11973514154E+03  0.90277211809E+02 0.  0.
         23    2    1    2    0    0 -0.13426138597E+02  0.81140338590E+01 -0.34764492911E+03  0.35996204653E+03  0.92030318168E+02 0.  0.
        -11    1    3    3    0    0  0.31268795050E+02 -0.21367767203E+02 -0.19800064192E+02  0.42735951623E+02  0.00000000000E+00 0.  1.
         11    1    3    3    0    0 -0.60909859408E+02 -0.97155460424E+01 -0.46091999745E+02  0.76999189921E+02  0.00000000000E+00 0. -1.
        -13    1    4    4    0    0 -0.29076831957E+02  0.43931872522E+02 -0.23139861858E+03  0.23732002078E+03  0.00000000000E+00 0. -1.
         13    1    4    4    0    0  0.15650693360E+02 -0.35817838663E+02 -0.11624631053E+03  0.12264202576E+03  0.00000000000E+00 0.  1.
         21    1    1    2  502  501  0.43067202955E+02  0.22969279387E+02 -0.32366496592E+02  0.58565876306E+02  0.00000000000E+00 0.  1.
<scales pt_clust_5="13000.00000" pt_clust_6="13000.00000" pt_clust_7="13000.00000" pt_clust_8="13000.00000" pt_clust_9="48.80955"></scales>
<clustering>
<clus scale="   48.810">  1  9  2 -1</clus>
<clus scale="   90.277">  5  6 -1 -1</clus>
<clus scale="   91.284">  1  5  2 -1</clus>
<clus scale="   92.030">  7  8 -1 -1</clus>
<clus scale="   93.018">  2  5  1 -1</clus>
</clustering>
</event>
<event>
 9    1  0.1175034E-005  0.1012452E+03  0.7546771E-02  0.1283282E+00
         -2   -1    0    0    0  501 -0.00000000000E+00  0.00000000000E+00  0.41585213437E+03  0.41585213437E+03  0.00000000000E+00 0.  1.
          2   -1    0    0  502    0  0.00000000000E+00 -0.00000000000E+00 -0.43784990611E+02  0.43784990611E+02  0.00000000000E+00 0. -1.
         23    2    1    2    0    0  0.69429727460E+01 -0.72361899012E+01  0.10581723340E+03  0.14495155122E+03  0.98555050618E+02 0.  0.
         23    2    1    2    0    0 -0.30247414539E+02 -0.31111070218E+02  0.91238334811E+02  0.13401277298E+03  0.88046492297E+02 0.  0.
        -11    1    3    3    0    0 -0.14301025376E+02 -0.41925929477E+02  0.91795195395E+02  0.10192478004E+03  0.00000000000E+00 0.  1.
         11    1    3    3    0    0  0.21243998122E+02  0.34689739576E+02  0.14022038001E+02  0.43026771175E+02  0.00000000000E+00 0. -1.
        -13    1    4    4    0    0 -0.28994229947E+02 -0.61310136290E+02  0.66035384566E+02  0.94658703757E+02  0.00000000000E+00 0.  1.
         13    1    4    4    0    0 -0.12531845925E+01  0.30199066072E+02  0.25202950244E+02  0.39354069221E+02  0.00000000000E+00 0. -1.
         21    1    1    2  502  501  0.23304441793E+02  0.38347260119E+02  0.17501157555E+03  0.18067280078E+03  0.00000000000E+00 0.  1.
<scales pt_clust_5="13000.00000" pt_clust_6="13000.00000" pt_clust_7="13000.00000" pt_clust_8="13000.00000" pt_clust_9="44.87326"></scales>
<clustering>
<clus scale="   44.873">  1  9  2 -1</clus>
<clus scale="   88.046">  7  8 -1 -1</clus>
<clus scale="   91.048">  2  7  1 -1</clus>
<clus scale="   98.555">  5  6 -1 -1</clus>
<clus scale="   91.048">  2  5  1 -1</clus>
</clustering>
</event>
<event>
 9    1  0.1175034E-005  0.1061229E+03  0.7546771E-02  0.1268717E+00
          1   -1    0    0  502    0  0.00000000000E+00  0.00000000000E+00  0.31188938138E+02  0.31188938138E+02  0.00000000000E+00 0. -1.
         -1   -1    0    0    0  501 -0.00000000000E+00 -0.00000000000E+00 -0.83459387971E+03  0.83459387971E+03  0.00000000000E+00 0.  1.
         23    2    1    2    0    0 -0.43457061105E+02 -0.45580897653E+02 -0.47712220274E+03  0.49155608953E+03  0.10007826149E+03 0.  0.
         23    2    1    2    0    0 -0.70129216394E+01 -0.19398672849E+02 -0.16573927269E+03  0.19382781406E+03  0.98357640345E+02 0.  0.
        -11    1    4    4    0    0 -0.25229259442E+01 -0.57717443817E+02 -0.12507797516E+03  0.13777579013E+03  0.00000000000E+00 0.  1.
         11    1    4    4    0    0 -0.44899956952E+01  0.38318770968E+02 -0.40661297523E+02  0.56052023925E+02  0.00000000000E+00 0. -1.
        -11    1    3    3    0    0 -0.44290585541E+02 -0.73682890323E+02 -0.40753724354E+03  0.41650621744E+03  0.00000000000E+00 0.  1.
         11    1    3    3    0    0  0.83352443642E+00  0.28101992670E+02 -0.69584959195E+02  0.75049872093E+02  0.00000000000E+00 0. -1.
         21    1    1    2  502  501  0.50469982744E+02  0.64979570502E+02 -0.16054346615E+03  0.18039891425E+03  0.00000000000E+00 0.  1.
<scales pt_clust_5="13000.00000" pt_clust_6="13000.00000" pt_clust_7="13000.00000" pt_clust_8="13000.00000" pt_clust_9="82.27736"></scales>
<clustering>
<clus scale="   82.277">  1  9  2 -1</clus>
<clus scale="   98.358">  5  6 -1 -1</clus>
<clus scale="  100.078">  7  8 -1 -1</clus>
<clus scale="  104.502">  1  5  2 -1</clus>
<clus scale="   82.277">  1  5  2 -1</clus>
</clustering>
</event>
<event>
 9    1  0.1175034E-005  0.9707782E+02  0.7546771E-02  0.1290330E+00
         -1   -1    0    0    0  501 -0.00000000000E+00  0.00000000000E+00  0.18232449099E+03  0.18232449099E+03  0.00000000000E+00 0.  1.
          1   -1    0    0  502    0  0.00000000000E+00 -0.00000000000E+00 -0.12001278838E+03  0.12001278838E+03  0.00000000000E+00 0. -1.
         23    2    1    2    0    0  0.32512457389E+02  0.45464722332E+02  0.10747012932E+03  0.14375371320E+03  0.77402845560E+02 0.  0.
         23    2    1    2    0    0  0.23899381783E+02 -0.32133344905E+02 -0.26111585581E+02  0.97568786156E+02  0.85053634996E+02 0.  0.
        -11    1    4    4    0    0  0.82042539828E+01 -0.54074445292E+02 -0.39487164958E+02  0.67458073004E+02  0.00000000000E+00 0. -1.
         11    1    4    4    0    0  0.15695127800E+02  0.21941100387E+02  0.13375579377E+02  0.30110713152E+02  0.00000000000E+00 0.  1.
        -13    1    3    3    0    0  0.34906511478E+02  0.17505981742E+02  0.72991765361E+01  0.39726589564E+02  0.00000000000E+00 0. -1.
         13    1    3    3    0    0 -0.23940540887E+01  0.27958740591E+02  0.10017095279E+03  0.10402712364E+03  0.00000000000E+00 0.  1.
         21    1    1    2  502  501 -0.56411839172E+02 -0.13331377427E+02 -0.19046841126E+02  0.61014780011E+02  0.00000000000E+00 0. -1.
<scales pt_clust_5="13000.00000" pt_clust_6="13000.00000" pt_clust_7="13000.00000" pt_clust_8="13000.00000" pt_clust_9="57.96569"></scales>
<clustering>
<clus scale="   57.966">  2  9  1 -1</clus>
<clus scale="   77.403">  7  8 -1 -1</clus>
<clus scale="   85.054">  5  6 -1 -1</clus>
<clus scale="   90.450">  1  7  2 -1</clus>
<clus scale="   57.966">  2  5  1 -1</clus>
</clustering>
</event>
<event>
 9    1  0.1175034E-005  0.9796376E+02  0.7546771E-02  0.1285503E+00
          2   -1    0    0  502    0  0.00000000000E+00  0.00000000000E+00  0.15518865805E+03  0.15518865805E+03  0.00000000000E+00 0. -1.
         -2   -1    0    0    0  501 -0.00000000000E+00 -0.00000000000E+00 -0.86687057352E+02  0.86687057352E+02  0.00000000000E+00 0.  1.
         23    2    1    2    0    0  0.42813562225E+02  0.26550285980E+02  0.74105772561E+01  0.10235846410E+03  0.88794255003E+02 0.  0.
         23    2    1    2    0    0 -0.29714979383E+02 -0.93629756714E+01  0.67319291580E+02  0.11702796869E+03  0.90515264594E+02 0.  0.
        -11    1    3    3    0    0  0.39722191325E+02  0.51013745393E+02  0.27784697386E+02  0.70372182797E+02  0.00000000000E+00 0.  1.
         11    1    3    3    0    0  0.30913708990E+01 -0.24463459413E+02 -0.20374120130E+02  0.31986281303E+02  0.00000000000E+00 0. -1.
        -13    1    4    4    0    0  0.18229650026E+02  0.28200908054E+02  0.33170277476E+02  0.47200409564E+02  0.00000000000E+00 0.  1.
         13    1    4    4    0    0 -0.47944629409E+02 -0.37563883725E+02  0.34149014104E+02  0.69827559129E+02  0.00000000000E+00 0. -1.
         21    1    1    2  502  501 -0.13098582842E+02 -0.17187310309E+02 -0.62282681415E+01  0.22489282606E+02  0.00000000000E+00 0. -1.
<scales pt_clust_5="13000.00000" pt_clust_6="13000.00000" pt_clust_7="13000.00000" pt_clust_8="13000.00000" pt_clust_9="21.60964"></scales>
<clustering>
<clus scale="   21.610">  2  9  1 -1</clus>
<clus scale="   88.794">  5  6 -1 -1</clus>
<clus scale="   90.515">  7  8 -1 -1</clus>
<clus scale="   96.376">  2  5  1 -1</clus>
<clus scale="   97.964">  1  5  2 -1</clus>
</clustering>
</event>
<event>
 9    1  0.1175034E-005  0.1019461E+03  0.7546771E-02  0.1276383E+00
         -2   -1    0    0    0  501 -0.00000000000E+00  0.00000000000E+00  0.15155720284E+03  0.15155720284E+03  0.00000000000E+00 0.  1.
          2   -1    0    0  502    0  0.00000000000E+00 -0.00000000000E+00 -0.93906419118E+02  0.93906419118E+02  0.00000000000E+00 0. -1.
         23    2    1    2    0    0  0.57126580797E+02 -0.23293208758E+02  0.25607248762E+02  0.11260157099E+03  0.90649670667E+02 0.  0.
         23    2    1    2    0    0 -0.31417065976E+02  0.12816705476E+02  0.10295490702E+02  0.97595725640E+02  0.90926500870E+02 0.  0.
        -11    1    4    4    0    0 -0.73531829004E+01 -0.28804393764E+02  0.33009839490E+02  0.44423100996E+02  0.00000000000E+00 0.  1.
         11    1    4    4    0    0 -0.24063883076E+02  0.41621099240E+02 -0.22714348788E+02  0.53172624644E+02  0.00000000000E+00 0. -1.
        -13    1    3    3    0    0  0.33605283806E+02 -0.23685081464E+02  0.58903985304E+02  0.71832984543E+02  0.00000000000E+00 0.  1.
         13    1    3    3    0    0  0.23521296991E+02  0.39187270562E+00 -0.33296736542E+02  0.40768586445E+02  0.00000000000E+00 0. -1.
         21    1    1    2  502  501 -0.25709514821E+02  0.10476503282E+02  0.21748044262E+02  0.35266325334E+02  0.00000000000E+00 0. -1.
<scales pt_clust_5="13000.00000" pt_clust_6="13000.00000" pt_clust_7="13000.00000" pt_clust_8="13000.00000" pt_clust_9="27.76214"></scales>
<clustering>
<clus scale="   27.762">  1  9  2 -1</clus>
<clus scale="   90.650">  7  8 -1 -1</clus>
<clus scale="   90.927">  5  6 -1 -1</clus>
<clus scale="  101.699">  1  7  2 -1</clus>
<clus scale="  101.946">  2  5  1 -1</clus>
</clustering>
</event>
<event>
 9    1  0.1175034E-005  0.1071299E+03  0.7546771E-02  0.1266411E+00
         -1   -1    0    0    0  501 -0.00000000000E+00  0.00000000000E+00  0.33791292614E+02  0.33791292614E+02  0.00000000000E+00 0.  1.
          1   -1    0    0  502    0  0.00000000000E+00 -0.00000000000E+00 -0.59489801897E+03  0.59489801897E+03  0.00000000000E+00 0. -1.
         23    2    1    2    0    0  0.19847197237E+02  0.41167801761E+02 -0.96509019399E+02  0.14106090704E+03  0.92170979861E+02 0.  0.
         23    2    1    2    0    0  0.81433915782E+01 -0.58902440782E+02 -0.40581511111E+03  0.42014963709E+03  0.91126290290E+02 0.  0.
        -11    1    3    3    0    0  0.44076847457E+02  0.56688220125E+02 -0.54524187901E+02  0.90162130903E+02  0.00000000000E+00 0.  1.
         11    1    3    3    0    0 -0.24229650220E+02 -0.15520418364E+02 -0.41984831498E+02  0.50898776133E+02  0.00000000000E+00 0. -1.
        -13    1    4    4    0    0 -0.41082827692E+02 -0.30885782666E+02 -0.16824028069E+03  0.17591623674E+03  0.00000000000E+00 0.  1.
         13    1    4    4    0    0  0.49226219270E+02 -0.28016658116E+02 -0.23757483042E+03  0.24423340035E+03  0.00000000000E+00 0. -1.
         21    1    1    2  502  501 -0.27990588815E+02  0.17734639021E+02 -0.58782595842E+02  0.67478767456E+02  0.00000000000E+00 0. -1.
<scales pt_clust_5="13000.00000" pt_clust_6="13000.00000" pt_clust_7="13000.00000" pt_clust_8="13000.00000" pt_clust_9="33.13594"></scales>
<clustering>
<clus scale="   33.136">  1  9  2 -1</clus>
<clus scale="   91.126">  7  8 -1 -1</clus>
<clus scale="   92.171">  5  6 -1 -1</clus>
<clus scale="  106.232">  2  7  1 -1</clus>
<clus scale="  106.232">  2  5  1 -1</clus>
</clustering>
</event>
<event>
 9    1  0.1175034E-005  0.1340403E+03  0.7546771E-02  0.1229728E+00
          1   -1    0    0  502    0  0.00000000000E+00  0.00000000000E+00  0.23070780131E+03  0.23070780131E+03  0.00000000000E+00 0. -1.
         -1   -1    0    0    0  501 -0.00000000000E+00 -0.00000000000E+00 -0.94056921183E+02  0.94056921183E+02  0.00000000000E+00 0.  1.
         23    2    1    2    0    0  0.88559740806E+01  0.74438155844E+02  0.23592482573E+02  0.11995855321E+03  0.90631020803E+02 0.  0.
         23    2    1    2    0    0  0.26191766219E+02 -0.56085426236E+02  0.85452413649E+02  0.15656451579E+03  0.11566654207E+03 0.  0.
        -11    1    3    3    0    0  0.46705810594E+02  0.61780101830E+02  0.11795793998E+02  0.78341269337E+02  0.00000000000E+00 0.  1.
         11    1    3    3    0    0 -0.37849836514E+02  0.12658054015E+02  0.11796688576E+02  0.41617283872E+02  0.00000000000E+00 0. -1.
        -13    1    4    4    0    0  0.44314197912E+02  0.22983508535E+02  0.36201397585E+02  0.61664665638E+02  0.00000000000E+00 0.  1.
         13    1    4    4    0    0 -0.18122431693E+02 -0.79068934770E+02  0.49251016064E+02  0.94899850156E+02  0.00000000000E+00 0. -1.
         21    1    1    2  502  501 -0.35047740299E+02 -0.18352729609E+02  0.27605983904E+02  0.48241653490E+02  0.00000000000E+00 0. -1.
<scales pt_clust_5="13000.00000" pt_clust_6="13000.00000" pt_clust_7="13000.00000" pt_clust_8="13000.00000" pt_clust_9="39.56219"></scales>
<clustering>
<clus scale="   39.562">  1  9  2 -1</clus>
<clus scale="   90.631">  5  6 -1 -1</clus>
<clus scale="  113.146">  2  5  1 -1</clus>
<clus scale="  115.667">  7  8 -1 -1</clus>
<clus scale="   39.562">  1  5  2 -1</clus>
</clustering>
</event>
<event>
 9    1  0.1175034E-005  0.9479762E+02  0.7546771E-02  0.1292902E+00
          1   -1    0    0  502    0  0.00000000000E+00  0.00000000000E+00  0.20148569210E+03  0.20148569210E+03  0.00000000000E+00 0. -1.
         -1   -1    0    0    0  501 -0.00000000000E+00 -0.00000000000E+00 -0.11545010260E+03  0.11545010260E+03  0.00000000000E+00 0.  1.
         23    2    1    2    0    0 -0.31933472417E+02  0.44359143184E+02 -0.34747334933E+01  0.10473607759E+03  0.89275371365E+02 0.  0.
         23    2    1    2    0    0  0.25315730622E+02 -0.10263967397E+02  0.13006885520E+03  0.15880243203E+03  0.86914153527E+02 0.  0.
        -11    1    3    3    0    0 -0.50920115630E+02 -0.56019929277E+01 -0.12521443763E+01  0.51242642067E+02  0.00000000000E+00 0. -1.
         11    1    3    3    0    0  0.18986643213E+02  0.49961136112E+02 -0.22225891171E+01  0.53493435527E+02  0.00000000000E+00 0.  1.
        -13    1    4    4    0    0 -0.19971809277E+02  0.23343724347E+02  0.69806673338E+02  0.76267780056E+02  0.00000000000E+00 0. -1.
         13    1    4    4    0    0  0.45287539898E+02 -0.33607691744E+02  0.60262181860E+02  0.82534651977E+02  0.00000000000E+00 0.  1.
         21    1    1    2  502  501  0.66177417951E+01 -0.34095175787E+02 -0.40558532208E+02  0.53397285074E+02  0.00000000000E+00 0. -1.
<scales pt_clust_5="13000.00000" pt_clust_6="13000.00000" pt_clust_7="13000.00000" pt_clust_8="13000.00000" pt_clust_9="34.73148"></scales>
<clustering>
<clus scale="   34.731">  2  9  1 -1</clus>
<clus scale="   86.914">  7  8 -1 -1</clus>
<clus scale="   89.275">  5  6 -1 -1</clus>
<clus scale="   92.577">  1  7  2 -1</clus>
<clus scale="   92.577">  1  5  2 -1</clus>
</clustering>
</event>
<event>
 9    1  0.1175034E-005  0.1238870E+03  0.7546771E-02  0.1238793E+00
          1   -1    0    0  502    0  0.00000000000E+00  0.00000000000E+00  0.60043433723E+03  0.60043433723E+03  0.00000000000E+00 0. -1.
         -1   -1    0    0    0  501 -0.00000000000E+00 -0.00000000000E+00 -0.52382716628E+02  0.52382716628E+02  0.00000000000E+00 0.  1.
         23    2    1    2    0    0  0.10545069161E+03 -0.45937215504E+02  0.14244681699E+03  0.20491440155E+03  0.92025758158E+02 0.  0.
         23    2    1    2    0    0 -0.59464699109E+02  0.23013215204E+02  0.36210148063E+03  0.38057687413E+03  0.98262995764E+02 0.  0.
        -13    1    3    3    0    0  0.70182572387E+02  0.18330356644E+02  0.56466301526E+02  0.91924091780E+02  0.00000000000E+00 0.  1.
         13    1    3    3    0    0  0.35268119222E+02 -0.64267572149E+02  0.85980515462E+02  0.11299030977E+03  0.00000000000E+00 0. -1.
        -13    1    4    4    0    0 -0.12571574140E+01  0.42932899568E+02  0.70477709008E+02  0.82534367249E+02  0.00000000000E+00 0.  1.
         13    1    4    4    0    0 -0.58207541695E+02 -0.19919684364E+02  0.29162377162E+03  0.29804250688E+03  0.00000000000E+00 0. -1.
         21    1    1    2  502  501 -0.45985992501E+02  0.22924000300E+02  0.43503322992E+02  0.67325778179E+02  0.00000000000E+00 0.  1.
<scales pt_clust_5="13000.00000" pt_clust_6="13000.00000" pt_clust_7="13000.00000" pt_clust_8="13000.00000" pt_clust_9="51.38308"></scales>
<clustering>
<clus scale="   51.383">  2  9  1 -1</clus>
<clus scale="   92.026">  5  6 -1 -1</clus>
<clus scale="   98.263">  7  8 -1 -1</clus>
<clus scale="  119.000">  2  5  1 -1</clus>
<clus scale="  123.887">  1  5  2 -1</clus>
</clustering>
</event>
<event>
 9    1  0.1175034E-005  0.9869100E+02  0.7546771E-02  0.1285155E+00
         -1   -1    0    0    0  501 -0.00000000000E+00  0.00000000000E+00  0.25062857715E+02  0.25062857715E+02  0.00000000000E+00 0.  1.
          1   -1    0    0  502    0  0.00000000000E+00 -0.00000000000E+00 -0.59863565099E+03  0.59863565099E+03  0.00000000000E+00 0. -1.
         23    2    1    2    0    0  0.26043023042E+01  0.16051041149E+02 -0.23690349527E+03  0.25600544509E+03  0.95661400420E+02 0.  0.
         23    2    1    2    0    0  0.18052615751E+02 -0.27123782217E+02 -0.32889886429E+03  0.34300109127E+03  0.91726164113E+02 0.  0.
        -13    1    4    4    0    0  0.22525995547E+02 -0.59773755932E+02 -0.23302020733E+03  0.24161692696E+03  0.00000000000E+00 0. -1.
         13    1    4    4    0    0 -0.44733797956E+01  0.32649973714E+02 -0.95878656966E+02  0.10138416431E+03  0.00000000000E+00 0.  1.
        -13    1    3    3    0    0 -0.41416975700E+02  0.12147988880E+02 -0.61594967448E+02  0.75212229889E+02  0.00000000000E+00 0.  1.
         13    1    3    3    0    0  0.44021278005E+02  0.39030522692E+01 -0.17530852782E+03  0.18079321520E+03  0.00000000000E+00 0. -1.
         21    1    1    2  502  501 -0.20656918055E+02  0.11072741068E+02 -0.77704337098E+01  0.24691972346E+02  0.00000000000E+00 0.  1.
<scales pt_clust_5="13000.00000" pt_clust_6="13000.00000" pt_clust_7="13000.00000" pt_clust_8="13000.00000" pt_clust_9="23.43745"></scales>
<clustering>
<clus scale="   23.437">  1  9  2 -1</clus>
<clus scale="   91.726">  5  6 -1 -1</clus>
<clus scale="   94.882">  2  5  1 -1</clus>
<clus scale="   95.661">  7  8 -1 -1</clus>
<clus scale="   94.882">  2  5  1 -1</clus>
</clustering>
</event>
<event>
 9    1  0.1175034E-005  0.9817399E+02  0.7546771E-02  0.1286446E+00
         -1   -1    0    0    0  501 -0.00000000000E+00  0.00000000000E+00  0.67758113996E+02  0.67758113996E+02  0.00000000000E+00 0.  1.
          1   -1    0    0  502    0  0.00000000000E+00 -0.00000000000E+00 -0.18356084326E+03  0.18356084326E+03  0.00000000000E+00 0. -1.
         23    2    1    2    0    0  0.20415580203E+02 -0.33105364006E+01 -0.47185560351E+02  0.10824981264E+03  0.95203935137E+02 0.  0.
         23    2    1    2    0    0 -0.24321548184E+02 -0.16329851213E+02 -0.75607028761E+02  0.12185925182E+03  0.90967316706E+02 0.  0.
        -11    1    4    4    0    0  0.93793085277E+01 -0.29882284899E+02  0.65797363875E+01  0.32003364044E+02  0.00000000000E+00 0.  1.
         11    1    4    4    0    0 -0.33700856711E+02  0.13552433686E+02 -0.82186765148E+02  0.89855887773E+02  0.00000000000E+00 0. -1.
        -13    1    3    3    0    0 -0.17810302034E+02 -0.34903151864E+02  0.87014555640E+00  0.39194311090E+02  0.00000000000E+00 0.  1.
         13    1    3    3    0    0  0.38225882237E+02  0.31592615463E+02 -0.48055705907E+02  0.69055501554E+02  0.00000000000E+00 0. -1.
         21    1    1    2  502  501  0.39059679810E+01  0.19640387613E+02  0.69898598509E+01  0.21209892791E+02  0.00000000000E+00 0.  1.
<scales pt_clust_5="13000.00000" pt_clust_6="13000.00000" pt_clust_7="13000.00000" pt_clust_8="13000.00000" pt_clust_9="20.02502"></scales>
<clustering>
<clus scale="   20.025">  1  9  2 -1</clus>
<clus scale="   90.967">  5  6 -1 -1</clus>
<clus scale="   94.071">  2  5  1 -1</clus>
<clus scale="   95.204">  7  8 -1 -1</clus>
<clus scale="   94.071">  2  5  1 -1</clus>
</clustering>
</event>
<event>
 9    1  0.1175034E-005  0.1008923E+03  0.7546771E-02  0.1279911E+00
         -1   -1    0    0    0  501 -0.00000000000E+00  0.00000000000E+00  0.59890147959E+02  0.59890147959E+02  0.00000000000E+00 0.  1.
          1   -1    0    0  502    0  0.00000000000E+00 -0.00000000000E+00 -0.21533172081E+03  0.21533172081E+03  0.00000000000E+00 0. -1.
         23    2    1    2    0    0  0.24324910372E+01  0.44701864652E+02 -0.48201224301E+02  0.11510374885E+03  0.94452852038E+02 0.  0.
         23    2    1    2    0    0 -0.10918452999E+02 -0.22072908547E+02 -0.86789078651E+02  0.12845843507E+03  0.91448343120E+02 0.  0.
        -11    1    3    3    0    0 -0.43009042972E+02  0.22599498754E+02 -0.54053190526E+01  0.48884891279E+02  0.00000000000E+00 0.  1.
         11    1    3    3    0    0  0.45441534009E+02  0.22102365898E+02 -0.42795905249E+02  0.66218857567E+02  0.00000000000E+00 0. -1.
        -11    1    4    4    0    0 -0.51433169741E+02 -0.11617217339E+02 -0.44969929585E+02  0.69300975860E+02  0.00000000000E+00 0.  1.
         11    1    4    4    0    0  0.40514716742E+02 -0.10455691208E+02 -0.41819149066E+02  0.59157459207E+02  0.00000000000E+00 0. -1.
         21    1    1    2  502  501  0.84859619621E+01 -0.22628956105E+02 -0.20451269902E+02  0.31659684860E+02  0.00000000000E+00 0. -1.
<scales pt_clust_5="13000.00000" pt_clust_6="13000.00000" pt_clust_7="13000.00000" pt_clust_8="13000.00000" pt_clust_9="24.16777"></scales>
<clustering>
<clus scale="   24.168">  2  9  1 -1</clus>
<clus scale="   91.448">  7  8 -1 -1</clus>
<clus scale="   94.453">  5  6 -1 -1</clus>
<clus scale="   98.085">  2  7  1 -1</clus>
<clus scale="   24.168">  2  5  1 -1</clus>
</clustering>
</event>
<event>
 9    1  0.1175034E-005  0.1391806E+03  0.7546771E-02  0.1214854E+00
         -3   -1    0    0    0  501 -0.00000000000E+00  0.00000000000E+00  0.17234159246E+03  0.17234159246E+03  0.00000000000E+00 0.  1.
          3   -1    0    0  502    0  0.00000000000E+00 -0.00000000000E+00 -0.16062308474E+03  0.16062308474E+03  0.00000000000E+00 0. -1.
         23    2    1    2    0    0 -0.18195034406E+02  0.11245167281E+03  0.21617941768E+01  0.14563674314E+03  0.90713558004E+02 0.  0.
         23    2    1    2    0    0 -0.14817232041E+02 -0.10036113297E+03 -0.26007848599E+02  0.13731964505E+03  0.88816492553E+02 0.  0.
        -11    1    3    3    0    0  0.30284891027E+02  0.12573911905E+02  0.10153851827E+02  0.34327519456E+02  0.00000000000E+00 0.  1.
         11    1    3    3    0    0 -0.48479925433E+02  0.99877760901E+02 -0.79920576506E+01  0.11130922369E+03  0.00000000000E+00 0. -1.
        -13    1    4    4    0    0  0.24904322334E+02 -0.34978975488E+02  0.20718416124E+02  0.47676060699E+02  0.00000000000E+00 0.  1.
         13    1    4    4    0    0 -0.39721554375E+02 -0.65382157486E+02 -0.46726264723E+02  0.89643584347E+02  0.00000000000E+00 0. -1.
         21    1    1    2  502  501  0.33012266447E+02 -0.12090539832E+02  0.35564562136E+02  0.50008289006E+02  0.00000000000E+00 0. -1.
<scales pt_clust_5="13000.00000" pt_clust_6="13000.00000" pt_clust_7="13000.00000" pt_clust_8="13000.00000" pt_clust_9="35.15666"></scales>
<clustering>
<clus scale="   35.157">  1  9  2 -1</clus>
<clus scale="   88.816">  7  8 -1 -1</clus>
<clus scale="   90.714">  5  6 -1 -1</clus>
<clus scale="  137.952">  2  7  1 -1</clus>
<clus scale="  137.952">  2  5  1 -1</clus>
</clustering>
</event>
<event>
 9    1  0.1175034E-005  0.1106783E+03  0.7546771E-02  0.1261176E+00
          2   -1    0    0  502    0  0.00000000000E+00  0.00000000000E+00  0.60051117920E+03  0.60051117920E+03  0.00000000000E+00 0. -1.
         -2   -1    0    0    0  501 -0.00000000000E+00 -0.00000000000E+00 -0.28507151862E+02  0.28507151862E+02  0.00000000000E+00 0.  1.
         23    2    1    2    0    0 -0.43791710597E+02  0.31506171613E+02  0.16815281460E+03  0.19630486223E+03  0.85731424282E+02 0.  0.
         23    2    1    2    0    0  0.69307821385E+02 -0.16459354435E+02  0.37092950623E+03  0.38842670585E+03  0.90620763435E+02 0.  0.
        -11    1    4    4    0    0 -0.96341787251E+01 -0.29108196010E+02  0.59963980691E+02  0.67348225329E+02  0.00000000000E+00 0.  1.
         11    1    4    4    0    0  0.78942000110E+02  0.12648841575E+02  0.31096552554E+03  0.32107848052E+03  0.00000000000E+00 0. -1.
        -13    1    3    3    0    0 -0.55944115613E+02  0.77433084753E+01  0.50824680698E+02  0.75979280504E+02  0.00000000000E+00 0.  1.
         13    1    3    3    0    0  0.12152405015E+02  0.23762863138E+02  0.11732813390E+03  0.12032558172E+03  0.00000000000E+00 0. -1.
         21    1    1    2  502  501 -0.25516110787E+02 -0.15046817178E+02  0.32921706501E+02  0.44286762987E+02  0.00000000000E+00 0.  1.
<scales pt_clust_5="13000.00000" pt_clust_6="13000.00000" pt_clust_7="13000.00000" pt_clust_8="13000.00000" pt_clust_9="29.62227"></scales>
<clustering>
<clus scale="   29.622">  2  9  1 -1</clus>
<clus scale="   85.731">  7  8 -1 -1</clus>
<clus scale="   90.621">  5  6 -1 -1</clus>
<clus scale="  106.712">  2  7  1 -1</clus>
<clus scale="  110.678">  1  5  2 -1</clus>
</clustering>
</event>
<event>
 9    1  0.1175034E-005  0.9948037E+02  0.7546771E-02  0.1281785E+00
          1   -1    0    0  502    0  0.00000000000E+00  0.00000000000E+00  0.11102434400E+03  0.11102434400E+03  0.00000000000E+00 0. -1.
         -1   -1    0    0    0  501 -0.00000000000E+00 -0.00000000000E+00 -0.17751124020E+03  0.17751124020E+03  0.00000000000E+00 0.  1.
         23    2    1    2    0    0  0.79196257965E+01 -0.18434265874E+02 -0.64144732711E+02  0.11241499361E+03  0.90111272453E+02 0.  0.
         23    2    1    2    0    0 -0.21828401658E+02  0.42343170356E+02  0.52059171955E+02  0.11509113002E+03  0.90919676796E+02 0.  0.
        -13    1    3    3    0    0  0.31935327575E+02 -0.13515314737E+02 -0.77207454588E+02  0.84637579855E+02  0.00000000000E+00 0.  1.
         13    1    3    3    0    0 -0.24015701778E+02 -0.49189511371E+01  0.13062721877E+02  0.27777413757E+02  0.00000000000E+00 0. -1.
        -13    1    4    4    0    0  0.30562904432E+02  0.92193836497E+01 -0.31583654852E+01  0.32079018606E+02  0.00000000000E+00 0.  1.
         13    1    4    4    0    0 -0.52391306090E+02  0.33123786707E+02  0.55217537440E+02  0.83012111409E+02  0.00000000000E+00 0. -1.
         21    1    1    2  502  501  0.13908775862E+02 -0.23908904483E+02 -0.54401335445E+02  0.61029460572E+02  0.00000000000E+00 0.  1.
<scales pt_clust_5="13000.00000" pt_clust_6="13000.00000" pt_clust_7="13000.00000" pt_clust_8="13000.00000" pt_clust_9="27.66026"></scales>
<clustering>
<clus scale="   27.660">  2  9  1 -1</clus>
<clus scale="   90.111">  5  6 -1 -1</clus>
<clus scale="   90.920">  7  8 -1 -1</clus>
<clus scale="   98.742">  2  5  1 -1</clus>
<clus scale="   99.480">  1  5  2 -1</clus>
</clustering>
</event>
<event>
 9    1  0.1175034E-005  0.1032652E+03  0.7546771E-02  0.1273636E+00
         -2   -1    0    0    0  501 -0.00000000000E+00  0.00000000000E+00  0.10107416684E+03  0.10107416684E+03  0.00000000000E+00 0. -1.
          2   -1    0    0  502    0  0.00000000000E+00 -0.00000000000E+00 -0.17513478788E+03  0.17513478788E+03  0.00000000000E+00 0.  1.
         23    2    1    2    0    0 -0.23377933399E+02  0.92180760920E+01 -0.10551412893E+02  0.93852965287E+02  0.89808385367E+02 0.  0.
         23    2    1    2    0    0  0.60717431261E+02 -0.35833291883E+02 -0.73139161614E+02  0.13550149321E+03  0.89669874727E+02 0.  0.
        -11    1    3    3    0    0 -0.34476989680E+02 -0.32818583749E+02 -0.15583237037E+02  0.50085522192E+02  0.00000000000E+00 0.  1.
         11    1    3    3    0    0  0.11099056281E+02  0.42036659841E+02  0.50318241441E+01  0.43767443095E+02  0.00000000000E+00 0. -1.
        -13    1    4    4    0    0  0.78103903252E+02 -0.93363297720E+01 -0.35507692241E+02  0.86302856065E+02  0.00000000000E+00 0.  1.
         13    1    4    4    0    0 -0.17386471991E+02 -0.26496962111E+02 -0.37631469373E+02  0.49198637142E+02  0.00000000000E+00 0. -1.
         21    1    1    2  502  501 -0.37339497862E+02  0.26615215791E+02  0.96299534706E+01  0.46854496221E+02  0.00000000000E+00 0. -1.
<scales pt_clust_5="13000.00000" pt_clust_6="13000.00000" pt_clust_7="13000.00000" pt_clust_8="13000.00000" pt_clust_9="45.85420"></scales>
<clustering>
<clus scale="   45.854">  1  9  2 -1</clus>
<clus scale="   89.670">  7  8 -1 -1</clus>
<clus scale="   89.808">  5  6 -1 -1</clus>
<clus scale="  103.145">  2  7  1 -1</clus>
<clus scale="  103.145">  2  5  1 -1</clus>
</clustering>
</event>
<event>
 9    1  0.1175034E-005  0.1166463E+03  0.7546771E-02  0.1261152E+00
          2   -1    0    0  502    0  0.00000000000E+00  0.00000000000E+00  0.35347431618E+03  0.35347431618E+03  0.00000000000E+00 0. -1.
         -2   -1    0    0    0  501 -0.00000000000E+00 -0.00000000000E+00 -0.94854575266E+02  0.94854575266E+02  0.00000000000E+00 0.  1.
         23    2    1    2    0    0 -0.46905619720E+02 -0.42066625598E+02  0.11228908912E+03  0.17213260521E+03  0.11424121888E+03 0.  0.
         23    2    1    2    0    0  0.63529961176E+01  0.85400997807E+01  0.18877509904E+03  0.20859396146E+03  0.88102831264E+02 0.  0.
        -11    1    4    4    0    0  0.46847609849E+02  0.86409584082E+01  0.11410952357E+03  0.12365414704E+03  0.00000000000E+00 0. -1.
         11    1    4    4    0    0 -0.40494613731E+02 -0.10085862747E+00  0.74665575463E+02  0.84939814415E+02  0.00000000000E+00 0.  1.
        -11    1    3    3    0    0 -0.11668884821E+01 -0.70809296456E+02  0.87853035661E+02  0.11284269568E+03  0.00000000000E+00 0. -1.
         11    1    3    3    0    0 -0.45738731238E+02  0.28742670858E+02  0.24436053457E+02  0.59289909528E+02  0.00000000000E+00 0.  1.
         21    1    1    2  502  501  0.40552623602E+02  0.33526525817E+02 -0.42444447239E+02  0.67602324781E+02  0.00000000000E+00 0.  1.
<scales pt_clust_5="13000.00000" pt_clust_6="13000.00000" pt_clust_7="13000.00000" pt_clust_8="13000.00000" pt_clust_9="52.61695"></scales>
<clustering>
<clus scale="   52.617">  2  9  1 -1</clus>
<clus scale="   88.103">  5  6 -1 -1</clus>
<clus scale="   91.200">  1  5  2 -1</clus>
<clus scale="  114.241">  7  8 -1 -1</clus>
<clus scale="   91.200">  1  5  2 -1</clus>
</clustering>
</event>
<event>
 9    1  0.1175034E-005  0.1435619E+03  0.7546771E-02  0.1208894E+00
         -2   -1    0    0    0  501 -0.00000000000E+00  0.00000000000E+00  0.62653538445E+02  0.62653538445E+02  0.00000000000E+00 0.  1.
          2   -1    0    0  502    0  0.00000000000E+00 -0.00000000000E+00 -0.46327124812E+03  0.46327124812E+03  0.00000000000E+00 0. -1.
         23    2    1    2    0    0 -0.45864135011E+02  0.81040658742E+02 -0.13695150876E+03  0.18911602009E+03  0.91312901910E+02 0.  0.
         23    2    1    2    0    0  0.83526864262E+02 -0.92786655354E+02 -0.25123491873E+03  0.29544469525E+03  0.92641692007E+02 0.  0.
        -11    1    3    3    0    0  0.12153213552E+02  0.19631399433E+02 -0.89059953623E+02  0.92004172638E+02  0.00000000000E+00 0. -1.
         11    1    3    3    0    0 -0.58017348563E+02  0.61409259309E+02 -0.47891555136E+02  0.97111847457E+02  0.00000000000E+00 0.  1.
        -13    1    4    4    0    0  0.53533716790E+01 -0.69280298702E+02 -0.15065156900E+03  0.16590453164E+03  0.00000000000E+00 0.  1.
         13    1    4    4    0    0  0.78173492583E+02 -0.23506356652E+02 -0.10058334973E+03  0.12954016361E+03  0.00000000000E+00 0. -1.
         21    1    1    2  502  501 -0.37662729251E+02  0.11745996611E+02 -0.12431282187E+02  0.41364071219E+02  0.00000000000E+00 0.  1.
<scales pt_clust_5="13000.00000" pt_clust_6="13000.00000" pt_clust_7="13000.00000" pt_clust_8="13000.00000" pt_clust_9="39.45186"></scales>
<clustering>
<clus scale="   39.452">  1  9  2 -1</clus>
<clus scale="   91.313">  5  6 -1 -1</clus>
<clus scale="   92.642">  7  8 -1 -1</clus>
<clus scale="  142.708">  1  5  2 -1</clus>
<clus scale="  143.562">  2  5  1 -1</clus>
</clustering>
</event>
<event>
 9    1  0.1175034E-005  0.1003766E+03  0.7546771E-02  0.1283412E+00
          2   -1    0    0  502    0  0.00000000000E+00  0.00000000000E+00  0.12467963947E+03  0.12467963947E+03  0.00000000000E+00 0. -1.
         -2   -1    0    0    0  501 -0.00000000000E+00 -0.00000000000E+00 -0.38589410674E+03  0.38589410674E+03  0.00000000000E+00 0.  1.
         23    2    1    2    0    0 -0.46371860400E+02  0.19668056212E+01 -0.33861421555E+03  0.35316235160E+03  0.88937291730E+02 0.  0.
         23    2    1    2    0    0  0.47084626564E+02 -0.24368505434E+02  0.89716983310E+02  0.13183682777E+03  0.80752869586E+02 0.  0.
        -11    1    3    3    0    0  0.23012825771E+02  0.65045749252E+01 -0.40384967091E+02  0.46934477859E+02  0.00000000000E+00 0. -1.
         11    1    3    3    0    0 -0.69384686171E+02 -0.45377693040E+01 -0.29822924845E+03  0.30622787375E+03  0.00000000000E+00 0.  1.
        -13    1    4    4    0    0  0.46643219803E+02  0.64709488882E+01  0.12548805839E+02  0.48733311616E+02  0.00000000000E+00 0.  1.
         13    1    4    4    0    0  0.44140676047E+00 -0.30839454323E+02  0.77168177471E+02  0.83103516153E+02  0.00000000000E+00 0. -1.
         21    1    1    2  502  501 -0.71276616385E+00  0.22401699813E+02 -0.12317235029E+02  0.25574566837E+02  0.00000000000E+00 0.  1.
<scales pt_clust_5="13000.00000" pt_clust_6="13000.00000" pt_clust_7="13000.00000" pt_clust_8="13000.00000" pt_clust_9="22.41304"></scales>
<clustering>
<clus scale="   22.413">  1  9  2 -1</clus>
<clus scale="   80.753">  7  8 -1 -1</clus>
<clus scale="   88.937">  5  6 -1 -1</clus>
<clus scale="   93.202">  1  7  2 -1</clus>
<clus scale="   22.413">  1  5  2 -1</clus>
</clustering>
</event>
<event>
 9    1  0.1175034E-005  0.2054900E+03  0.7546771E-02  0.1145198E+00
         -2   -1    0    0    0  501 -0.00000000000E+00  0.00000000000E+00  0.56314320206E+03  0.56314320206E+03  0.00000000000E+00 0.  1.
          2   -1    0    0  502    0  0.00000000000E+00 -0.00000000000E+00 -0.80267666632E+03  0.80267666632E+03  0.00000000000E+00 0. -1.
         23    2    1    2    0    0 -0.16627576672E+03  0.14865537588E+03  0.28767240322E+03  0.37508646542E+03  0.90489742994E+02 0.  0.
         23    2    1    2    0    0  0.14137045595E+03 -0.11605018388E+03 -0.74329422836E+03  0.77078442535E+03  0.90382904618E+02 0.  0.
        -11    1    3    3    0    0 -0.12966701779E+02  0.49300122102E+02  0.29764756774E+02  0.59030315433E+02  0.00000000000E+00 0. -1.
         11    1    3    3    0    0 -0.15330906494E+03  0.99355253777E+02  0.25790764645E+03  0.31605614998E+03  0.00000000000E+00 0.  1.
        -13    1    4    4    0    0  0.30979491899E+02 -0.44187599032E+02 -0.95125794367E+02  0.10936722352E+03  0.00000000000E+00 0.  1.
         13    1    4    4    0    0  0.11039096405E+03 -0.71862584851E+02 -0.64816843399E+03  0.66141720183E+03  0.00000000000E+00 0. -1.
         21    1    1    2  502  501  0.24905310769E+02 -0.32605191996E+02  0.21608836087E+03  0.21994897761E+03  0.00000000000E+00 0.  1.
<scales pt_clust_5="13000.00000" pt_clust_6="13000.00000" pt_clust_7="13000.00000" pt_clust_8="13000.00000" pt_clust_9="41.02893"></scales>
<clustering>
<clus scale="   41.029">  1  9  2 -1</clus>
<clus scale="   90.383">  7  8 -1 -1</clus>
<clus scale="   90.490">  5  6 -1 -1</clus>
<clus scale="  205.443">  2  7  1 -1</clus>
<clus scale="  205.443">  2  5  1 -1</clus>
</clustering>
</event>
<event>
 9    1  0.1175034E-005  0.2776167E+03  0.7546771E-02  0.1097244E+00
         -1   -1    0    0    0  501 -0.00000000000E+00  0.00000000000E+00  0.16023759165E+03  0.16023759165E+03  0.00000000000E+00 0.  1.
          1   -1    0    0  502    0  0.00000000000E+00 -0.00000000000E+00 -0.85084917859E+03  0.85084917859E+03  0.00000000000E+00 0. -1.
         23    2    1    2    0    0  0.84116022889E+02  0.19753699793E+03 -0.31282664839E+02  0.23410640173E+03  0.87925146325E+02 0.  0.
         23    2    1    2    0    0 -0.18233211007E+03 -0.21345665920E+03 -0.57462430875E+03  0.64631014650E+03  0.93353979795E+02 0.  0.
        -11    1    3    3    0    0 -0.18782295536E+02  0.30339320307E+02 -0.46872933325E+01  0.35989160883E+02  0.00000000000E+00 0. -1.
         11    1    3    3    0    0  0.10289831843E+03  0.16719767762E+03 -0.26595371507E+02  0.19811724085E+03  0.00000000000E+00 0.  1.
        -13    1    4    4    0    0 -0.18517059776E+03 -0.19271543665E+03 -0.56078611964E+03  0.62121531032E+03  0.00000000000E+00 0. -1.
         13    1    4    4    0    0  0.28384876894E+01 -0.20741222543E+02 -0.13838189114E+02  0.25094836180E+02  0.00000000000E+00 0.  1.
         21    1    1    2  502  501  0.98216087184E+02  0.15919661271E+02 -0.84704613346E+02  0.13067022201E+03  0.00000000000E+00 0.  1.
<scales pt_clust_5="13000.00000" pt_clust_6="13000.00000" pt_clust_7="13000.00000" pt_clust_8="13000.00000" pt_clust_9="99.49792"></scales>
<clustering>
<clus scale="   87.925">  5  6 -1 -1</clus>
<clus scale="   93.354">  7  8 -1 -1</clus>
<clus scale="   99.498">  1  9  2 -1</clus>
<clus scale="  275.838">  1  5  2 -1</clus>
<clus scale="  277.617">  2  5  1 -1</clus>
</clustering>
</event>
<event>
 9    1  0.1175034E-005  0.1002520E+03  0.7546771E-02  0.1280700E+00
          1   -1    0    0  502    0  0.00000000000E+00  0.00000000000E+00  0.28692452661E+03  0.28692452661E+03  0.00000000000E+00 0. -1.
         -1   -1    0    0    0  501 -0.00000000000E+00 -0.00000000000E+00 -0.90261688952E+02  0.90261688952E+02  0.00000000000E+00 0.  1.
         23    2    1    2    0    0 -0.46688169327E+02 -0.25610883798E+02  0.12665933705E+02  0.10647171647E+03  0.91324137043E+02 0.  0.
         23    2    1    2    0    0 -0.33807193132E+02  0.55026194074E+02  0.12489147821E+03  0.16660775000E+03  0.89383738387E+02 0.  0.
        -13    1    4    4    0    0  0.19518538468E+02  0.40719170924E+02  0.91627182798E+02  0.10214971783E+03  0.00000000000E+00 0.  1.
         13    1    4    4    0    0 -0.53325731600E+02  0.14307023149E+02  0.33264295413E+02  0.64458032171E+02  0.00000000000E+00 0. -1.
        -13    1    3    3    0    0 -0.29734572922E+02  0.15680858277E+02 -0.29754716850E+02  0.44892953990E+02  0.00000000000E+00 0.  1.
         13    1    3    3    0    0 -0.16953596405E+02 -0.41291742075E+02  0.42420650554E+02  0.61578762476E+02  0.00000000000E+00 0. -1.
         21    1    1    2  502  501  0.80495362459E+02 -0.29415310275E+02  0.59105425747E+02  0.10410674910E+03  0.00000000000E+00 0.  1.
<scales pt_clust_5="13000.00000" pt_clust_6="13000.00000" pt_clust_7="13000.00000" pt_clust_8="13000.00000" pt_clust_9="85.70160"></scales>
<clustering>
<clus scale="   85.702">  1  9  2 -1</clus>
<clus scale="   89.384">  5  6 -1 -1</clus>
<clus scale="   91.324">  7  8 -1 -1</clus>
<clus scale="   98.488">  1  5  2 -1</clus>
<clus scale="   85.702">  1  5  2 -1</clus>
</clustering>
</event>
<event>
 9    1  0.1175034E-005  0.1587163E+03  0.7546771E-02  0.1190792E+00
          2   -1    0    0  502    0  0.00000000000E+00  0.00000000000E+00  0.52239975642E+03  0.52239975642E+03  0.00000000000E+00 0. -1.
         -2   -1    0    0    0  501 -0.00000000000E+00 -0.00000000000E+00 -0.89351410003E+02  0.89351410003E+02  0.00000000000E+00 0.  1.
         23    2    1    2    0    0  0.13974469847E+03  0.48089616252E+00  0.81804989270E+02  0.18602479380E+03  0.91566127081E+02 0.  0.
         23    2    1    2    0    0 -0.12263903254E+03  0.11314679090E+02  0.36763569080E+03  0.39926039436E+03  0.95312680622E+02 0.  0.
        -11    1    4    4    0    0 -0.89994715546E+02 -0.11047179760E+01  0.34745514525E+03  0.35892248075E+03  0.00000000000E+00 0. -1.
         11    1    4    4    0    0 -0.32644316997E+02  0.12419397066E+02  0.20180545555E+02  0.40337913612E+02  0.00000000000E+00 0.  1.
        -11    1    3    3    0    0  0.95116507145E+02 -0.34213288172E+02  0.80932680282E+02  0.12949053153E+03  0.00000000000E+00 0. -1.
         11    1    3    3    0    0  0.44628191321E+02  0.34694184335E+02  0.87230898863E+00  0.56534262268E+02  0.00000000000E+00 0.  1.
         21    1    1    2  502  501 -0.17105665924E+02 -0.11795575252E+02 -0.16392333661E+02  0.26465978257E+02  0.00000000000E+00 0.  1.
<scales pt_clust_5="13000.00000" pt_clust_6="13000.00000" pt_clust_7="13000.00000" pt_clust_8="13000.00000" pt_clust_9="20.77834"></scales>
<clustering>
<clus scale="   20.778">  2  9  1 -1</clus>
<clus scale="   91.566">  7  8 -1 -1</clus>
<clus scale="   95.313">  5  6 -1 -1</clus>
<clus scale="  156.495">  2  7  1 -1</clus>
<clus scale="  158.716">  1  5  2 -1</clus>
</clustering>
</event>
<event>
 9    1  0.1175034E-005  0.1032815E+03  0.7546771E-02  0.1278985E+00
          2   -1    0    0  502    0  0.00000000000E+00  0.00000000000E+00  0.11307110613E+03  0.11307110613E+03  0.00000000000E+00 0. -1.
         -2   -1    0    0    0  501 -0.00000000000E+00 -0.00000000000E+00 -0.17823254656E+03  0.17823254656E+03  0.00000000000E+00 0.  1.
         23    2    1    2    0    0 -0.30167013617E+02  0.34450862423E+01 -0.64167201161E+02  0.12319191557E+03  0.10068217830E+03 0.  0.
         23    2    1    2    0    0  0.18311216159E+02  0.13303855322E+02  0.55316511937E+02  0.10817854365E+03  0.90168662015E+02 0.  0.
        -11    1    3    3    0    0 -0.18012594858E+02  0.44516724101E+02 -0.24726104568E+01  0.48086444043E+02  0.00000000000E+00 0. -1.
         11    1    3    3    0    0 -0.12154418759E+02 -0.41071637859E+02 -0.61694590704E+02  0.75105471531E+02  0.00000000000E+00 0.  1.
        -13    1    4    4    0    0  0.66358923996E-01  0.34202588636E+02  0.69174079583E+02  0.77167835003E+02  0.00000000000E+00 0. -1.
         13    1    4    4    0    0  0.18244857235E+02 -0.20898733315E+02 -0.13857567645E+02  0.31010708646E+02  0.00000000000E+00 0.  1.
         21    1    1    2  502  501  0.11855797458E+02 -0.16748941564E+02 -0.56310751209E+02  0.59933193463E+02  0.00000000000E+00 0. -1.
<scales pt_clust_5="13000.00000" pt_clust_6="13000.00000" pt_clust_7="13000.00000" pt_clust_8="13000.00000" pt_clust_9="20.52040"></scales>
<clustering>
<clus scale="   20.520">  2  9  1 -1</clus>
<clus scale="   90.169">  7  8 -1 -1</clus>
<clus scale="   93.062">  1  7  2 -1</clus>
<clus scale="  100.682">  5  6 -1 -1</clus>
<clus scale="   93.062">  1  5  2 -1</clus>
</clustering>
</event>
<event>
 9    1  0.1175034E-005  0.1438510E+03  0.7546771E-02  0.1210798E+00
          2   -1    0    0  502    0  0.00000000000E+00  0.00000000000E+00  0.10329412093E+03  0.10329412093E+03  0.00000000000E+00 0. -1.
         -2   -1    0    0    0  501 -0.00000000000E+00 -0.00000000000E+00 -0.29899592388E+03  0.29899592388E+03  0.00000000000E+00 0.  1.
         23    2    1    2    0    0  0.86143255056E+02  0.80044013252E+02 -0.16740426821E+03  0.22285943508E+03  0.88399289241E+02 0.  0.
         23    2    1    2    0    0 -0.84702904597E+02 -0.51458943744E+02 -0.21456435892E+01  0.14066074748E+03  0.99790967312E+02 0.  0.
        -13    1    4    4    0    0 -0.78086545285E+02 -0.20218273097E+02  0.38164370830E+02  0.89234557893E+02  0.00000000000E+00 0. -1.
         13    1    4    4    0    0 -0.66163593120E+01 -0.31240670647E+02 -0.40310014419E+02  0.51426189588E+02  0.00000000000E+00 0.  1.
        -13    1    3    3    0    0  0.10377755093E+03  0.67349140706E+02 -0.12901299349E+03  0.17874573931E+03  0.00000000000E+00 0.  1.
         13    1    3    3    0    0 -0.17634295873E+02  0.12694872546E+02 -0.38391274721E+02  0.44113695771E+02  0.00000000000E+00 0. -1.
         21    1    1    2  502  501 -0.14403504598E+01 -0.28585069508E+02 -0.26151891148E+02  0.38769862249E+02  0.00000000000E+00 0.  1.
<scales pt_clust_5="13000.00000" pt_clust_6="13000.00000" pt_clust_7="13000.00000" pt_clust_8="13000.00000" pt_clust_9="28.62133"></scales>
<clustering>
<clus scale="   28.621">  2  9  1 -1</clus>
<clus scale="   88.399">  7  8 -1 -1</clus>
<clus scale="   99.791">  5  6 -1 -1</clus>
<clus scale="  136.196">  2  7  1 -1</clus>
<clus scale="  143.851">  1  5  2 -1</clus>
</clustering>
</event>
<event>
 9    1  0.1175034E-005  0.1947065E+03  0.7546771E-02  0.1154818E+00
         -1   -1    0    0    0  501 -0.00000000000E+00  0.00000000000E+00  0.18096255908E+03  0.18096255908E+03  0.00000000000E+00 0.  1.
          1   -1    0    0  502    0  0.00000000000E+00 -0.00000000000E+00 -0.51458310340E+03  0.51458310340E+03  0.00000000000E+00 0. -1.
         23    2    1    2    0    0 -0.15155643214E+03  0.22105332493E+02 -0.10048959427E+03  0.20369033822E+03  0.89070744236E+02 0.  0.
         23    2    1    2    0    0  0.18051562927E+03 -0.25275070357E+01 -0.33061426839E+03  0.38829411675E+03  0.94203216182E+02 0.  0.
        -11    1    3    3    0    0 -0.63300164252E+02  0.43491919835E+02 -0.13579671391E+02  0.77992726330E+02  0.00000000000E+00 0.  1.
         11    1    3    3    0    0 -0.88256267892E+02 -0.21386587342E+02 -0.86909922874E+02  0.12569761189E+03  0.00000000000E+00 0. -1.
        -13    1    4    4    0    0  0.32023373093E+01 -0.23275562539E+02 -0.56280110845E+02  0.60987356497E+02  0.00000000000E+00 0. -1.
         13    1    4    4    0    0  0.17731329196E+03  0.20748055503E+02 -0.27433415754E+03  0.32730676025E+03  0.00000000000E+00 0.  1.
         21    1    1    2  502  501 -0.28959197129E+02 -0.19577825457E+02  0.97483318330E+02  0.10356120751E+03  0.00000000000E+00 0.  1.
<scales pt_clust_5="13000.00000" pt_clust_6="13000.00000" pt_clust_7="13000.00000" pt_clust_8="13000.00000" pt_clust_9="34.95606"></scales>
<clustering>
<clus scale="   34.956">  1  9  2 -1</clus>
<clus scale="   89.071">  5  6 -1 -1</clus>
<clus scale="   94.203">  7  8 -1 -1</clus>
<clus scale="  192.276">  1  5  2 -1</clus>
<clus scale="  194.707">  2  5  1 -1</clus>
</clustering>
</event>
<event>
 9    1  0.1175034E-005  0.1194019E+03  0.7546771E-02  0.1244655E+00
         -4   -1    0    0    0  501 -0.00000000000E+00  0.00000000000E+00  0.29719710598E+03  0.29719710598E+03  0.00000000000E+00 0.  1.
          4   -1    0    0  502    0  0.00000000000E+00 -0.00000000000E+00 -0.15729287480E+03  0.15729287480E+03  0.00000000000E+00 0. -1.
         23    2    1    2    0    0  0.10868187598E+03  0.49491536394E+02  0.13768666904E+03  0.20345156239E+03  0.90408832901E+02 0.  0.
         23    2    1    2    0    0 -0.69540898335E+02 -0.33192996902E+01 -0.86026802287E+02  0.14402926257E+03  0.92178432805E+02 0.  0.
        -11    1    4    4    0    0 -0.33414464254E+02  0.27215754004E+02 -0.86592293876E+02  0.96723570272E+02  0.00000000000E+00 0. -1.
         11    1    4    4    0    0 -0.36126434081E+02 -0.30535053694E+02  0.56549158865E+00  0.47305692303E+02  0.00000000000E+00 0.  1.
        -11    1    3    3    0    0  0.23784425699E+02  0.50930692729E+02  0.22953994071E+02  0.60716721021E+02  0.00000000000E+00 0. -1.
         11    1    3    3    0    0  0.84897450282E+02 -0.14391563355E+01  0.11473267497E+03  0.14273484137E+03  0.00000000000E+00 0.  1.
         21    1    1    2  502  501 -0.39140977646E+02 -0.46172236703E+02  0.88244364429E+02  0.10700915581E+03  0.00000000000E+00 0.  1.
<scales pt_clust_5="13000.00000" pt_clust_6="13000.00000" pt_clust_7="13000.00000" pt_clust_8="13000.00000" pt_clust_9="60.53009"></scales>
<clustering>
<clus scale="   60.530">  1  9  2 -1</clus>
<clus scale="   90.409">  7  8 -1 -1</clus>
<clus scale="   92.178">  5  6 -1 -1</clus>
<clus scale="  118.041">  1  7  2 -1</clus>
<clus scale="  119.402">  2  5  1 -1</clus>
</clustering>
</event>
<event>
 9    1  0.1175034E-005  0.1024779E+03  0.7546771E-02  0.1275326E+00
          1   -1    0    0  502    0  0.00000000000E+00  0.00000000000E+00  0.20271649565E+03  0.20271649565E+03  0.00000000000E+00 0. -1.
         -1   -1    0    0    0  501 -0.00000000000E+00 -0.00000000000E+00 -0.91611643091E+02  0.91611643091E+02  0.00000000000E+00 0.  1.
         23    2    1    2    0    0 -0.85299634770E+01 -0.30951420620E+02  0.41727196831E+02  0.10550801864E+03  0.91433212379E+02 0.  0.
         23    2    1    2    0    0  0.25717198450E+02  0.49446339867E+02  0.10164170340E+03  0.14785145091E+03  0.91775273603E+02 0.  0.
        -11    1    4    4    0    0 -0.72276750985E+01  0.26933307765E+02 -0.97397386048E+01  0.29538193286E+02  0.00000000000E+00 0.  1.
         11    1    4    4    0    0  0.32944873549E+02  0.22513032102E+02  0.11138144200E+03  0.11831325763E+03  0.00000000000E+00 0. -1.
        -13    1    3    3    0    0 -0.24125995999E+02  0.22367401334E+02  0.37364150121E+02  0.49783973723E+02  0.00000000000E+00 0.  1.
         13    1    3    3    0    0  0.15596032522E+02 -0.53318821954E+02  0.43630467097E+01  0.55724044914E+02  0.00000000000E+00 0. -1.
         21    1    1    2  502  501 -0.17187234973E+02 -0.18494919246E+02 -0.32264047665E+02  0.40968669196E+02  0.00000000000E+00 0.  1.
<scales pt_clust_5="13000.00000" pt_clust_6="13000.00000" pt_clust_7="13000.00000" pt_clust_8="13000.00000" pt_clust_9="25.24803"></scales>
<clustering>
<clus scale="   25.248">  2  9  1 -1</clus>
<clus scale="   91.433">  7  8 -1 -1</clus>
<clus scale="   91.775">  5  6 -1 -1</clus>
<clus scale="  102.172">  2  7  1 -1</clus>
<clus scale="  102.478">  1  5  2 -1</clus>
</clustering>
</event>
<event>
 9    1  0.1175034E-005  0.1061742E+03  0.7546771E-02  0.1268662E+00
          1   -1    0    0  502    0  0.00000000000E+00  0.00000000000E+00  0.14982602882E+03  0.14982602882E+03  0.00000000000E+00 0. -1.
         -1   -1    0    0    0  501 -0.00000000000E+00 -0.00000000000E+00 -0.17468758973E+03  0.17468758973E+03  0.00000000000E+00 0.  1.
         23    2    1    2    0    0 -0.55404517428E+01 -0.65213021124E+02 -0.37597826143E+02  0.11934153752E+03  0.92441177606E+02 0.  0.
         23    2    1    2    0    0  0.16992028346E+02  0.45547086326E+02  0.82534927171E+02  0.13175722691E+03  0.90469257430E+02 0.  0.
        -11    1    4    4    0    0 -0.31545141981E+02  0.34313205664E+02  0.17396474353E+02  0.49750672211E+02  0.00000000000E+00 0.  1.
         11    1    4    4    0    0  0.48537170327E+02  0.11233880662E+02  0.65138452818E+02  0.82006554699E+02  0.00000000000E+00 0. -1.
        -13    1    3    3    0    0 -0.41172431140E+02 -0.54299188274E+02 -0.25615932594E+01  0.68191881432E+02  0.00000000000E+00 0.  1.
         13    1    3    3    0    0  0.35631979397E+02 -0.10913832850E+02 -0.35036232884E+02  0.51149656088E+02  0.00000000000E+00 0. -1.
         21    1    1    2  502  501 -0.11451576603E+02  0.19665934798E+02 -0.69798661933E+02  0.73414854123E+02  0.00000000000E+00 0.  1.
<scales pt_clust_5="13000.00000" pt_clust_6="13000.00000" pt_clust_7="13000.00000" pt_clust_8="13000.00000" pt_clust_9="22.75714"></scales>
<clustering>
<clus scale="   22.757">  2  9  1 -1</clus>
<clus scale="   90.469">  5  6 -1 -1</clus>
<clus scale="   92.441">  7  8 -1 -1</clus>
<clus scale="  104.462">  1  5  2 -1</clus>
<clus scale="  104.462">  1  5  2 -1</clus>
</clustering>
</event>
<event>
 9    1  0.1175034E-005  0.3896713E+03  0.7546771E-02  0.1047422E+00
         -1   -1    0    0    0  501 -0.00000000000E+00  0.00000000000E+00  0.12377157544E+03  0.12377157544E+03  0.00000000000E+00 0.  1.
          1   -1    0    0  502    0  0.00000000000E+00 -0.00000000000E+00 -0.19199027079E+04  0.19199027079E+04  0.00000000000E+00 0. -1.
         23    2    1    2    0    0 -0.38890146510E+03  0.74754567018E+02 -0.69486889973E+03  0.80500970559E+03  0.91461704712E+02 0.  0.
         23    2    1    2    0    0  0.36084379050E+03 -0.77108780752E+02 -0.11336695915E+04  0.11957342583E+04  0.91758752224E+02 0.  0.
        -13    1    3    3    0    0 -0.17697418131E+03  0.36231994931E+02 -0.40862605017E+03  0.44677496258E+03  0.00000000000E+00 0. -1.
         13    1    3    3    0    0 -0.21192728379E+03  0.38522572087E+02 -0.28624284956E+03  0.35823474301E+03  0.00000000000E+00 0.  1.
        -13    1    4    4    0    0  0.19245364111E+03 -0.86335609583E+02 -0.59494014963E+03  0.63122580991E+03  0.00000000000E+00 0.  1.
         13    1    4    4    0    0  0.16839014938E+03  0.92268288316E+01 -0.53872944187E+03  0.56450844840E+03  0.00000000000E+00 0. -1.
         21    1    1    2  502  501  0.28057674606E+02  0.23542137333E+01  0.32407358758E+02  0.42930319453E+02  0.00000000000E+00 0.  1.
<scales pt_clust_5="13000.00000" pt_clust_6="13000.00000" pt_clust_7="13000.00000" pt_clust_8="13000.00000" pt_clust_9="28.15627"></scales>
<clustering>
<clus scale="   28.156">  1  9  2 -1</clus>
<clus scale="   91.462">  5  6 -1 -1</clus>
<clus scale="   91.759">  7  8 -1 -1</clus>
<clus scale="  389.601">  1  5  2 -1</clus>
<clus scale="  389.671">  2  5  1 -1</clus>
</clustering>
</event>
<event>
 9    1  0.1175034E-005  0.1035316E+03  0.7546771E-02  0.1274951E+00
          1   -1    0    0  502    0  0.00000000000E+00  0.00000000000E+00  0.53805991318E+03  0.53805991318E+03  0.00000000000E+00 0. -1.
         -1   -1    0    0    0  501 -0.00000000000E+00 -0.00000000000E+00 -0.56297675737E+02  0.56297675737E+02  0.00000000000E+00 0.  1.
         23    2    1    2    0    0 -0.15246360339E+02  0.22242455079E+02  0.47880411099E+02  0.10755547525E+03  0.92457926532E+02 0.  0.
         23    2    1    2    0    0  0.37986316500E+02 -0.14308951319E+02  0.44719701847E+03  0.45928229482E+03  0.96474590839E+02 0.  0.
        -11    1    4    4    0    0  0.42374751276E+02 -0.51791419008E+02  0.28901511580E+03  0.29666093068E+03  0.00000000000E+00 0. -1.
         11    1    4    4    0    0 -0.43884347760E+01  0.37482467689E+02  0.15818190267E+03  0.16262136414E+03  0.00000000000E+00 0.  1.
        -13    1    3    3    0    0 -0.42373509336E+02  0.28420358485E+02 -0.13139742277E+01  0.51038785234E+02  0.00000000000E+00 0.  1.
         13    1    3    3    0    0  0.27127148997E+02 -0.61779034055E+01  0.49194385327E+02  0.56516690020E+02  0.00000000000E+00 0. -1.
         21    1    1    2  502  501 -0.22739956160E+02 -0.79335037606E+01 -0.13315192122E+02  0.27519818846E+02  0.00000000000E+00 0.  1.
<scales pt_clust_5="13000.00000" pt_clust_6="13000.00000" pt_clust_7="13000.00000" pt_clust_8="13000.00000" pt_clust_9="24.08415"></scales>
<clustering>
<clus scale="   24.084">  2  9  1 -1</clus>
<clus scale="   92.458">  7  8 -1 -1</clus>
<clus scale="   96.475">  5  6 -1 -1</clus>
<clus scale="   99.799">  2  7  1 -1</clus>
<clus scale="  103.532">  1  5  2 -1</clus>
</clustering>
</event>
<event>
 9    1  0.1175034E-005  0.9809848E+02  0.7546771E-02  0.1284504E+00
         -2   -1    0    0    0  501 -0.00000000000E+00  0.00000000000E+00  0.56860619756E+02  0.56860619756E+02  0.00000000000E+00 0.  1.
          2   -1    0    0  502    0  0.00000000000E+00 -0.00000000000E+00 -0.41444355904E+03  0.41444355904E+03  0.00000000000E+00 0. -1.
         23    2    1    2    0    0  0.70381225612E+01  0.35886218340E+01 -0.39273640043E+02  0.10111048345E+03  0.92835864223E+02 0.  0.
         23    2    1    2    0    0  0.41641519315E+02 -0.51344982279E+01 -0.30231672470E+03  0.31893104122E+03  0.92526903214E+02 0.  0.
        -11    1    4    4    0    0  0.50201973069E+02 -0.39603080323E+02 -0.16132700699E+03  0.17353687001E+03  0.00000000000E+00 0. -1.
         11    1    4    4    0    0 -0.85604537533E+01  0.34468582095E+02 -0.14098971771E+03  0.14539417121E+03  0.00000000000E+00 0.  1.
        -13    1    3    3    0    0 -0.31857214944E+02 -0.20078916762E+01 -0.50943967974E+02  0.60118230562E+02  0.00000000000E+00 0.  1.
         13    1    3    3    0    0  0.38895337505E+02  0.55965135102E+01  0.11670327931E+02  0.40992252891E+02  0.00000000000E+00 0. -1.
         21    1    1    2  502  501 -0.48679641877E+02  0.15458763939E+01 -0.15992574540E+02  0.51262654121E+02  0.00000000000E+00 0.  1.
<scales pt_clust_5="13000.00000" pt_clust_6="13000.00000" pt_clust_7="13000.00000" pt_clust_8="13000.00000" pt_clust_9="48.70418"></scales>
<clustering>
<clus scale="   48.704">  1  9  2 -1</clus>
<clus scale="   92.527">  5  6 -1 -1</clus>
<clus scale="   92.836">  7  8 -1 -1</clus>
<clus scale="   97.806">  2  5  1 -1</clus>
<clus scale="   97.806">  2  5  1 -1</clus>
</clustering>
</event>
<event>
 9    1  0.1175034E-005  0.1070059E+03  0.7546771E-02  0.1266246E+00
          2   -1    0    0  502    0  0.00000000000E+00  0.00000000000E+00  0.12385655481E+03  0.12385655481E+03  0.00000000000E+00 0. -1.
         -2   -1    0    0    0  501 -0.00000000000E+00 -0.00000000000E+00 -0.19555763492E+03  0.19555763492E+03  0.00000000000E+00 0.  1.
         23    2    1    2    0    0  0.60207258483E+02 -0.12747532173E+02 -0.34365924145E+02  0.11524966830E+03  0.91181444115E+02 0.  0.
         23    2    1    2    0    0 -0.43965925162E+02  0.33466431214E+02  0.46523830567E+02  0.11627036174E+03  0.91111610760E+02 0.  0.
        -11    1    4    4    0    0 -0.16677261908E+00  0.33742941538E+02 -0.18031223966E+02  0.38258841520E+02  0.00000000000E+00 0.  1.
         11    1    4    4    0    0 -0.43799152543E+02 -0.27651032358E+00  0.64555054533E+02  0.78011520221E+02  0.00000000000E+00 0. -1.
        -11    1    3    3    0    0  0.34124591442E+02  0.39135104323E+02 -0.15327297241E+02  0.54138435258E+02  0.00000000000E+00 0. -1.
         11    1    3    3    0    0  0.26082667041E+02 -0.51882636497E+02 -0.19038626904E+02  0.61111233045E+02  0.00000000000E+00 0.  1.
         21    1    1    2  502  501 -0.16241333321E+02 -0.20718899041E+02 -0.83858986532E+02  0.87894159690E+02  0.00000000000E+00 0.  1.
<scales pt_clust_5="13000.00000" pt_clust_6="13000.00000" pt_clust_7="13000.00000" pt_clust_8="13000.00000" pt_clust_9="26.32591"></scales>
<clustering>
<clus scale="   26.326">  2  9  1 -1</clus>
<clus scale="   91.112">  5  6 -1 -1</clus>
<clus scale="   91.181">  7  8 -1 -1</clus>
<clus scale="  106.946">  1  5  2 -1</clus>
<clus scale="  106.946">  1  5  2 -1</clus>
</clustering>
</event>
<event>
 9    1  0.1175034E-005  0.1064168E+03  0.7546771E-02  0.1269358E+00
          1   -1    0    0  502    0  0.00000000000E+00  0.00000000000E+00  0.38157146684E+03  0.38157146684E+03  0.00000000000E+00 0. -1.
         -1   -1    0    0    0  501 -0.00000000000E+00 -0.00000000000E+00 -0.15306837625E+03  0.15306837625E+03  0.00000000000E+00 0.  1.
         23    2    1    2    0    0 -0.38488597135E+02 -0.38227608908E+02 -0.27402051178E+02  0.10571052215E+03  0.86493467336E+02 0.  0.
         23    2    1    2    0    0 -0.10738497538E+02  0.56641320200E+02  0.32480464175E+03  0.34227187630E+03  0.91260218706E+02 0.  0.
        -11    1    3    3    0    0 -0.39646198582E+02 -0.63682322927E+02 -0.12090954421E+02  0.75983225084E+02  0.00000000000E+00 0.  1.
         11    1    3    3    0    0  0.11576014468E+01  0.25454714018E+02 -0.15311096757E+02  0.29727297064E+02  0.00000000000E+00 0. -1.
        -13    1    4    4    0    0 -0.77269540001E+01  0.82002538759E+02  0.24394736977E+03  0.25747706966E+03  0.00000000000E+00 0. -1.
         13    1    4    4    0    0 -0.30115435377E+01 -0.25361218559E+02  0.80857271982E+02  0.84794806643E+02  0.00000000000E+00 0.  1.
         21    1    1    2  502  501  0.49227094673E+02 -0.18413711292E+02 -0.68899499986E+02  0.86657444642E+02  0.00000000000E+00 0. -1.
<scales pt_clust_5="13000.00000" pt_clust_6="13000.00000" pt_clust_7="13000.00000" pt_clust_8="13000.00000" pt_clust_9="52.55827"></scales>
<clustering>
<clus scale="   52.558">  2  9  1 -1</clus>
<clus scale="   86.493">  5  6 -1 -1</clus>
<clus scale="   91.260">  7  8 -1 -1</clus>
<clus scale="  102.358">  2  5  1 -1</clus>
<clus scale="  106.417">  1  5  2 -1</clus>
</clustering>
</event>
<event>
 9    1  0.1175034E-005  0.9416972E+02  0.7546771E-02  0.1295543E+00
         -2   -1    0    0    0  501 -0.00000000000E+00  0.00000000000E+00  0.42749239231E+03  0.42749239231E+03  0.00000000000E+00 0.  1.
          2   -1    0    0  502    0  0.00000000000E+00 -0.00000000000E+00 -0.74093956176E+02  0.74093956176E+02  0.00000000000E+00 0. -1.
         23    2    1    2    0    0 -0.57813847305E+02 -0.10648465270E+02  0.28296628316E+03  0.30288854250E+03  0.90640614630E+02 0.  0.
         23    2    1    2    0    0  0.65781065415E-02 -0.29434686421E+02 -0.10231518957E+02  0.91669924612E+02  0.86210731874E+02 0.  0.
        -13    1    4    4    0    0 -0.19726829823E+02 -0.53243607476E+02  0.53693179470E+01  0.57033841946E+02  0.00000000000E+00 0. -1.
         13    1    4    4    0    0  0.19733407930E+02  0.23808921055E+02 -0.15600836904E+02  0.34636082666E+02  0.00000000000E+00 0.  1.
        -13    1    3    3    0    0  0.24650824067E+02  0.45728849410E+00  0.57768728203E+02  0.62810016702E+02  0.00000000000E+00 0. -1.
         13    1    3    3    0    0 -0.82464671372E+02 -0.11105753764E+02  0.22519755496E+03  0.24007852580E+03  0.00000000000E+00 0.  1.
         21    1    1    2  502  501  0.57807269198E+02  0.40083151692E+02  0.80663671932E+02  0.10702788137E+03  0.00000000000E+00 0. -1.
<scales pt_clust_5="13000.00000" pt_clust_6="13000.00000" pt_clust_7="13000.00000" pt_clust_8="13000.00000" pt_clust_9="70.34443"></scales>
<clustering>
<clus scale="   70.344">  1  9  2 -1</clus>
<clus scale="   86.211">  5  6 -1 -1</clus>
<clus scale="   89.914">  2  5  1 -1</clus>
<clus scale="   90.641">  7  8 -1 -1</clus>
<clus scale="   89.914">  2  5  1 -1</clus>
</clustering>
</event>
<event>
 9    1  0.1175034E-005  0.1422816E+03  0.7546771E-02  0.1210518E+00
          1   -1    0    0  502    0  0.00000000000E+00  0.00000000000E+00  0.11804318918E+04  0.11804318918E+04  0.00000000000E+00 0. -1.
         -1   -1    0    0    0  501 -0.00000000000E+00 -0.00000000000E+00 -0.31132534913E+02  0.31132534913E+02  0.00000000000E+00 0.  1.
         23    2    1    2    0    0 -0.83799812910E+01 -0.63129313992E+02  0.21009206547E+03  0.23844609893E+03  0.93071648473E+02 0.  0.
         23    2    1    2    0    0 -0.30408505513E+02  0.13296050924E+03  0.74336750147E+03  0.76161379861E+03  0.94112495234E+02 0.  0.
        -11    1    3    3    0    0  0.28180213243E+02  0.88328121462E+01  0.80789292504E+02  0.86017746844E+02  0.00000000000E+00 0.  1.
         11    1    3    3    0    0 -0.36560194534E+02 -0.71962126138E+02  0.12930277297E+03  0.15242835209E+03  0.00000000000E+00 0. -1.
        -11    1    4    4    0    0  0.30960955271E+02  0.26484710904E+02  0.13758080747E+03  0.14348693058E+03  0.00000000000E+00 0.  1.
         11    1    4    4    0    0 -0.61369460784E+02  0.10647579833E+03  0.60578669400E+03  0.61812686802E+03  0.00000000000E+00 0. -1.
         21    1    1    2  502  501  0.38788486804E+02 -0.69831195247E+02  0.19583978998E+03  0.21150452922E+03  0.00000000000E+00 0. -1.
<scales pt_clust_5="13000.00000" pt_clust_6="13000.00000" pt_clust_7="13000.00000" pt_clust_8="13000.00000" pt_clust_9="79.88080"></scales>
<clustering>
<clus scale="   79.881">  2  9  1 -1</clus>
<clus scale="   93.072">  5  6 -1 -1</clus>
<clus scale="   94.112">  7  8 -1 -1</clus>
<clus scale="  141.595">  2  5  1 -1</clus>
<clus scale="  142.282">  1  5  2 -1</clus>
</clustering>
</event>
<event>
 9    1  0.1175034E-005  0.1008663E+03  0.7546771E-02  0.1278926E+00
          4   -1    0    0  502    0  0.00000000000E+00  0.00000000000E+00  0.69423107417E+02  0.69423107417E+02  0.00000000000E+00 0. -1.
         -4   -1    0    0    0  501 -0.00000000000E+00 -0.00000000000E+00 -0.43578719254E+03  0.43578719254E+03  0.00000000000E+00 0.  1.
         23    2    1    2    0    0  0.27426534761E+01  0.17009942307E+02 -0.84956049571E+02  0.12477007437E+03  0.89739516464E+02 0.  0.
         23    2    1    2    0    0 -0.57401139858E+02 -0.36209310332E+02 -0.21056864105E+02  0.11372146295E+03  0.88787243442E+02 0.  0.
        -11    1    3    3    0    0  0.26355592600E+02  0.20956365910E+02 -0.93478424478E+02  0.99357950745E+02  0.00000000000E+00 0.  1.
         11    1    3    3    0    0 -0.23612939124E+02 -0.39464236029E+01  0.85223749064E+01  0.25412123629E+02  0.00000000000E+00 0. -1.
        -13    1    4    4    0    0 -0.15484170629E+02  0.29516337849E+02 -0.15696385050E+01  0.33368210996E+02  0.00000000000E+00 0.  1.
         13    1    4    4    0    0 -0.41916969229E+02 -0.65725648181E+02 -0.19487225600E+02  0.80353251955E+02  0.00000000000E+00 0. -1.
         21    1    1    2  502  501  0.54658486382E+02  0.19199368025E+02 -0.26035117144E+03  0.26671876263E+03  0.00000000000E+00 0.  1.
<scales pt_clust_5="13000.00000" pt_clust_6="13000.00000" pt_clust_7="13000.00000" pt_clust_8="13000.00000" pt_clust_9="57.93242"></scales>
<clustering>
<clus scale="   57.932">  2  9  1 -1</clus>
<clus scale="   88.787">  7  8 -1 -1</clus>
<clus scale="   89.740">  5  6 -1 -1</clus>
<clus scale="  100.020">  1  7  2 -1</clus>
<clus scale="  100.020">  1  5  2 -1</clus>
</clustering>
</event>
<event>
 9    1  0.1175034E-005  0.9984861E+02  0.7546771E-02  0.1283451E+00
          1   -1    0    0  502    0  0.00000000000E+00  0.00000000000E+00  0.21810605772E+03  0.21810605772E+03  0.00000000000E+00 0. -1.
         -1   -1    0    0    0  501 -0.00000000000E+00 -0.00000000000E+00 -0.72711208739E+02  0.72711208739E+02  0.00000000000E+00 0.  1.
         23    2    1    2    0    0 -0.35485381754E+02  0.17975912321E+02  0.52919058723E+02  0.11586778096E+03  0.95092429485E+02 0.  0.
         23    2    1    2    0    0 -0.18057629246E+01 -0.33848458324E+02  0.94254415411E+02  0.13438187902E+03  0.89585800630E+02 0.  0.
        -11    1    3    3    0    0  0.23640266620E+02  0.33985243587E+02  0.16234176113E+02  0.44468049896E+02  0.00000000000E+00 0.  1.
         11    1    3    3    0    0 -0.59125648374E+02 -0.16009331266E+02  0.36684882610E+02  0.71399731059E+02  0.00000000000E+00 0. -1.
        -13    1    4    4    0    0 -0.19545465377E+02 -0.15970124211E+02 -0.99845807005E+01  0.27143358965E+02  0.00000000000E+00 0.  1.
         13    1    4    4    0    0  0.17739702453E+02 -0.17878334113E+02  0.10423899611E+03  0.10723852006E+03  0.00000000000E+00 0. -1.
         21    1    1    2  502  501  0.37291144679E+02  0.15872546003E+02 -0.17786251551E+01  0.40567606480E+02  0.00000000000E+00 0.  1.
<scales pt_clust_5="13000.00000" pt_clust_6="13000.00000" pt_clust_7="13000.00000" pt_clust_8="13000.00000" pt_clust_9="40.52860"></scales>
<clustering>
<clus scale="   40.529">  2  9  1 -1</clus>
<clus scale="   89.586">  7  8 -1 -1</clus>
<clus scale="   94.619">  1  7  2 -1</clus>
<clus scale="   95.092">  5  6 -1 -1</clus>
<clus scale="   94.619">  1  5  2 -1</clus>
</clustering>
</event>
<event>
 9    1  0.1175034E-005  0.1005302E+03  0.7546771E-02  0.1281196E+00
          1   -1    0    0  502    0  0.00000000000E+00  0.00000000000E+00  0.27487391690E+03  0.27487391690E+03  0.00000000000E+00 0. -1.
         -1   -1    0    0    0  501 -0.00000000000E+00 -0.00000000000E+00 -0.76771256789E+02  0.76771256789E+02  0.00000000000E+00 0.  1.
         23    2    1    2    0    0  0.34604289344E+02  0.23120289713E+02 -0.14143570064E+02  0.10428446289E+03  0.94568514789E+02 0.  0.
         23    2    1    2    0    0 -0.13819701475E+02 -0.30706920144E+02  0.19990863683E+03  0.22202748629E+03  0.90547459916E+02 0.  0.
        -11    1    4    4    0    0 -0.19884505998E+01 -0.61132231729E+02  0.15394529953E+03  0.16565101551E+03  0.00000000000E+00 0.  1.
         11    1    4    4    0    0 -0.11831250876E+02  0.30425311585E+02  0.45963337296E+02  0.56376470781E+02  0.00000000000E+00 0. -1.
        -13    1    3    3    0    0 -0.18363574622E+02  0.14129607351E+02  0.27753215597E+02  0.36153943806E+02  0.00000000000E+00 0. -1.
         13    1    3    3    0    0  0.52967863965E+02  0.89906823629E+01 -0.41896785661E+02  0.68130519087E+02  0.00000000000E+00 0.  1.
         21    1    1    2  502  501 -0.20784587868E+02  0.75866304308E+01  0.12337593347E+02  0.25333224503E+02  0.00000000000E+00 0. -1.
<scales pt_clust_5="13000.00000" pt_clust_6="13000.00000" pt_clust_7="13000.00000" pt_clust_8="13000.00000" pt_clust_9="22.12591"></scales>
<clustering>
<clus scale="   22.126">  2  9  1 -1</clus>
<clus scale="   90.547">  5  6 -1 -1</clus>
<clus scale="   94.569">  7  8 -1 -1</clus>
<clus scale="   96.757">  1  5  2 -1</clus>
<clus scale="   96.757">  1  5  2 -1</clus>
</clustering>
</event>
<event>
 9    1  0.1175034E-005  0.1293103E+03  0.7546771E-02  0.1229352E+00
          1   -1    0    0  502    0  0.00000000000E+00  0.00000000000E+00  0.57759764109E+03  0.57759764109E+03  0.00000000000E+00 0. -1.
         -1   -1    0    0    0  501 -0.00000000000E+00 -0.00000000000E+00 -0.10005957217E+03  0.10005957217E+03  0.00000000000E+00 0.  1.
         23    2    1    2    0    0 -0.72128740720E+02  0.58546524987E+02  0.48020099491E+02  0.14003438763E+03  0.93131353138E+02 0.  0.
         23    2    1    2    0    0  0.24224039626E+02 -0.88693680645E+02  0.45696757935E+03  0.47471660602E+03  0.89906142039E+02 0.  0.
        -13    1    3    3    0    0  0.11280887805E+02  0.45309217648E+02  0.22349330078E+02  0.51765588845E+02  0.00000000000E+00 0.  1.
         13    1    3    3    0    0 -0.83409628525E+02  0.13237307339E+02  0.25670769413E+02  0.88268798782E+02  0.00000000000E+00 0. -1.
        -13    1    4    4    0    0  0.14961041775E+02  0.16904396705E+02  0.77367365498E+02  0.80593428039E+02  0.00000000000E+00 0.  1.
         13    1    4    4    0    0  0.92629978518E+01 -0.10559807735E+03  0.37960021385E+03  0.39412317798E+03  0.00000000000E+00 0. -1.
         21    1    1    2  502  501  0.47904701093E+02  0.30147155658E+02 -0.27449609919E+02  0.62906219612E+02  0.00000000000E+00 0. -1.
<scales pt_clust_5="13000.00000" pt_clust_6="13000.00000" pt_clust_7="13000.00000" pt_clust_8="13000.00000" pt_clust_9="56.60134"></scales>
<clustering>
<clus scale="   56.601">  2  9  1 -1</clus>
<clus scale="   89.906">  7  8 -1 -1</clus>
<clus scale="   93.131">  5  6 -1 -1</clus>
<clus scale="  127.007">  1  7  2 -1</clus>
<clus scale="  127.007">  1  5  2 -1</clus>
</clustering>
</event>
<event>
 9    1  0.1175034E-005  0.2557816E+03  0.7546771E-02  0.1110387E+00
         -3   -1    0    0    0  501 -0.00000000000E+00  0.00000000000E+00  0.32471423553E+03  0.32471423553E+03  0.00000000000E+00 0.  1.
          3   -1    0    0  502    0  0.00000000000E+00 -0.00000000000E+00 -0.26912863819E+03  0.26912863819E+03  0.00000000000E+00 0. -1.
         23    2    1    2    0    0  0.69843027538E+02  0.21700686756E+03  0.40723676829E+02  0.24889886146E+03  0.91226072569E+02 0.  0.
         23    2    1    2    0    0 -0.10890332993E+03 -0.21399394552E+03 -0.53085599878E+02  0.26651155437E+03  0.10274718349E+03 0.  0.
        -11    1    3    3    0    0  0.90839562384E+02  0.17086867937E+03  0.42698342333E+02  0.19816932184E+03  0.00000000000E+00 0.  1.
         11    1    3    3    0    0 -0.20996534847E+02  0.46138188196E+02 -0.19746655045E+01  0.50729539614E+02  0.00000000000E+00 0. -1.
        -13    1    4    4    0    0 -0.47910865510E+02 -0.15103621672E+03  0.96048994816E+01  0.15874395701E+03  0.00000000000E+00 0. -1.
         13    1    4    4    0    0 -0.60992464416E+02 -0.62957728797E+02 -0.62690499359E+02  0.10776759736E+03  0.00000000000E+00 0.  1.
         21    1    1    2  502  501  0.39060302389E+02 -0.30129220460E+01  0.67947520393E+02  0.78432457882E+02  0.00000000000E+00 0. -1.
<scales pt_clust_5="13000.00000" pt_clust_6="13000.00000" pt_clust_7="13000.00000" pt_clust_8="13000.00000" pt_clust_9="39.17633"></scales>
<clustering>
<clus scale="   39.176">  1  9  2 -1</clus>
<clus scale="   91.226">  5  6 -1 -1</clus>
<clus scale="  102.747">  7  8 -1 -1</clus>
<clus scale="  251.375">  1  5  2 -1</clus>
<clus scale="  255.782">  2  5  1 -1</clus>
</clustering>
</event>
<event>
 9    1  0.1175034E-005  0.1067813E+03  0.7546771E-02  0.1266806E+00
          2   -1    0    0  502    0  0.00000000000E+00  0.00000000000E+00  0.58397061992E+03  0.58397061992E+03  0.00000000000E+00 0. -1.
         -2   -1    0    0    0  501 -0.00000000000E+00 -0.00000000000E+00 -0.33645547993E+02  0.33645547993E+02  0.00000000000E+00 0.  1.
         23    2    1    2    0    0 -0.48498108038E+02  0.55900258556E+02  0.28436120977E+03  0.30732999008E+03  0.90075078616E+02 0.  0.
         23    2    1    2    0    0  0.45182924710E+02 -0.12870453121E+02  0.23857658780E+03  0.25917240872E+03  0.89690601224E+02 0.  0.
        -13    1    4    4    0    0  0.16806491755E+02  0.27933388162E+02  0.28514062494E+02  0.43310323241E+02  0.00000000000E+00 0. -1.
         13    1    4    4    0    0  0.28376432955E+02 -0.40803841283E+02  0.21006252531E+03  0.21586208548E+03  0.00000000000E+00 0.  1.
        -13    1    3    3    0    0 -0.28253497913E+02  0.14758710086E+02  0.17117768249E+02  0.36181454608E+02  0.00000000000E+00 0.  1.
         13    1    3    3    0    0 -0.20244610125E+02  0.41141548471E+02  0.26724344152E+03  0.27114853547E+03  0.00000000000E+00 0. -1.
         21    1    1    2  502  501  0.33151833273E+01 -0.43029805436E+02  0.27387274355E+02  0.51113769113E+02  0.00000000000E+00 0.  1.
<scales pt_clust_5="13000.00000" pt_clust_6="13000.00000" pt_clust_7="13000.00000" pt_clust_8="13000.00000" pt_clust_9="43.15732"></scales>
<clustering>
<clus scale="   43.157">  2  9  1 -1</clus>
<clus scale="   89.691">  5  6 -1 -1</clus>
<clus scale="   90.075">  7  8 -1 -1</clus>
<clus scale="  106.457">  1  5  2 -1</clus>
<clus scale="  106.457">  1  5  2 -1</clus>
</clustering>
</event>
<event>
 9    1  0.1175034E-005  0.9391040E+02  0.7546771E-02  0.1294256E+00
         -1   -1    0    0    0  501 -0.00000000000E+00  0.00000000000E+00  0.74154071133E+02  0.74154071133E+02  0.00000000000E+00 0.  1.
          1   -1    0    0  502    0  0.00000000000E+00 -0.00000000000E+00 -0.23190676016E+03  0.23190676016E+03  0.00000000000E+00 0. -1.
         23    2    1    2    0    0 -0.29867459839E+02 -0.40149088296E+01  0.51393172860E+01  0.97422688397E+02  0.92501799886E+02 0.  0.
         23    2    1    2    0    0  0.10718307140E+02 -0.10066318911E+02 -0.15976553730E+03  0.18466428563E+03  0.91431168611E+02 0.  0.
        -11    1    3    3    0    0  0.48618369189E+01  0.37845045324E+02  0.16970469939E+02  0.41759810389E+02  0.00000000000E+00 0.  1.
         11    1    3    3    0    0 -0.34729296758E+02 -0.41859954153E+02 -0.11831152653E+02  0.55662878008E+02  0.00000000000E+00 0. -1.
        -13    1    4    4    0    0 -0.34209715925E+02  0.12287649042E+02 -0.10125441183E+03  0.10758135014E+03  0.00000000000E+00 0.  1.
         13    1    4    4    0    0  0.44928023065E+02 -0.22353967953E+02 -0.58511125463E+02  0.77082935483E+02  0.00000000000E+00 0. -1.
         21    1    1    2  502  501  0.19149152699E+02  0.14081227741E+02 -0.31264690131E+01  0.23973857267E+02  0.00000000000E+00 0.  1.
<scales pt_clust_5="13000.00000" pt_clust_6="13000.00000" pt_clust_7="13000.00000" pt_clust_8="13000.00000" pt_clust_9="23.76912"></scales>
<clustering>
<clus scale="   23.769">  1  9  2 -1</clus>
<clus scale="   91.431">  7  8 -1 -1</clus>
<clus scale="   92.502">  5  6 -1 -1</clus>
<clus scale="   92.856">  2  7  1 -1</clus>
<clus scale="   92.856">  2  5  1 -1</clus>
</clustering>
</event>
<event>
 9    1  0.1175034E-005  0.2270500E+03  0.7546771E-02  0.1128793E+00
         -1   -1    0    0    0  501 -0.00000000000E+00  0.00000000000E+00  0.18353669186E+03  0.18353669186E+03  0.00000000000E+00 0.  1.
          1   -1    0    0  502    0  0.00000000000E+00 -0.00000000000E+00 -0.71425828565E+03  0.71425828565E+03  0.00000000000E+00 0. -1.
         23    2    1    2    0    0  0.17929661975E+03 -0.28302420197E+02 -0.54038977361E+02  0.20975038669E+03  0.90148260087E+02 0.  0.
         23    2    1    2    0    0 -0.12795871271E+03  0.20747831703E+03 -0.41849995379E+03  0.49278884844E+03  0.90983260160E+02 0.  0.
        -11    1    4    4    0    0 -0.15532834872E+02  0.31347346650E+02 -0.14181611659E+03  0.14606757349E+03  0.00000000000E+00 0.  1.
         11    1    4    4    0    0 -0.11242587784E+03  0.17613097038E+03 -0.27668383720E+03  0.34672127495E+03  0.00000000000E+00 0. -1.
        -13    1    3    3    0    0  0.15517338134E+03 -0.57439725605E+01 -0.73090860221E+02  0.17162180906E+03  0.00000000000E+00 0. -1.
         13    1    3    3    0    0  0.24123238416E+02 -0.22558447636E+02  0.19051882860E+02  0.38128577628E+02  0.00000000000E+00 0.  1.
         21    1    1    2  502  501 -0.51337907040E+02 -0.17917589683E+03 -0.58182662646E+02  0.19525574239E+03  0.00000000000E+00 0.  1.
<scales pt_clust_5="13000.00000" pt_clust_6="13000.00000" pt_clust_7="13000.00000" pt_clust_8="13000.00000" pt_clust_9="186.38558"></scales>
<clustering>
<clus scale="   90.148">  7  8 -1 -1</clus>
<clus scale="   90.983">  5  6 -1 -1</clus>
<clus scale="  186.386">  1  9  2 -1</clus>
<clus scale="  226.717">  1  7  2 -1</clus>
<clus scale="  227.050">  2  5  1 -1</clus>
</clustering>
</event>
<event>
 9    1  0.1175034E-005  0.1034245E+03  0.7546771E-02  0.1273593E+00
          3   -1    0    0  502    0  0.00000000000E+00  0.00000000000E+00  0.61782180136E+03  0.61782180136E+03  0.00000000000E+00 0. -1.
         -3   -1    0    0    0  501 -0.00000000000E+00 -0.00000000000E+00 -0.17136783186E+03  0.17136783186E+03  0.00000000000E+00 0.  1.
         23    2    1    2    0    0  0.33611847584E+02  0.46693797929E+01  0.20320832920E+03  0.22578791435E+03  0.92385051856E+02 0.  0.
         23    2    1    2    0    0 -0.54537972773E+02  0.52175402450E+01  0.39536758196E+03  0.40952924232E+03  0.91635485725E+02 0.  0.
        -11    1    3    3    0    0 -0.15696585598E+02 -0.21813263533E+02  0.18094591291E+02  0.32397769975E+02  0.00000000000E+00 0. -1.
         11    1    3    3    0    0  0.49308433182E+02  0.26482643325E+02  0.18511373791E+03  0.19339014438E+03  0.00000000000E+00 0.  1.
        -11    1    4    4    0    0 -0.46249488773E+01  0.41362343612E+02  0.11065058405E+03  0.11821922590E+03  0.00000000000E+00 0.  1.
         11    1    4    4    0    0 -0.49913023895E+02 -0.36144803367E+02  0.28471699791E+03  0.29131001642E+03  0.00000000000E+00 0. -1.
         21    1    1    2  502  501  0.20926125188E+02 -0.98869200378E+01 -0.15212194167E+03  0.15387247655E+03  0.00000000000E+00 0.  1.
<scales pt_clust_5="13000.00000" pt_clust_6="13000.00000" pt_clust_7="13000.00000" pt_clust_8="13000.00000" pt_clust_9="23.14420"></scales>
<clustering>
<clus scale="   23.144">  2  9  1 -1</clus>
<clus scale="   91.635">  7  8 -1 -1</clus>
<clus scale="   92.385">  5  6 -1 -1</clus>
<clus scale="  102.756">  1  7  2 -1</clus>
<clus scale="  102.756">  1  5  2 -1</clus>
</clustering>
</event>
<event>
 9    1  0.1224784E-005  0.9843649E+02  0.7546771E-02  0.1285975E+00
          1   -1    0    0  502    0  0.00000000000E+00  0.00000000000E+00  0.31995850715E+03  0.31995850715E+03  0.00000000000E+00 0. -1.
         -1   -1    0    0    0  501 -0.00000000000E+00 -0.00000000000E+00 -0.10736760732E+03  0.10736760732E+03  0.00000000000E+00 0.  1.
         23    2    1    2    0    0 -0.49042643436E+02  0.10209839392E+02 -0.35297311504E+02  0.10634305817E+03  0.86911012679E+02 0.  0.
         23    2    1    2    0    0  0.13007586007E+02 -0.34702419063E+02  0.25800063338E+03  0.27625417411E+03  0.91534620268E+02 0.  0.
        -11    1    4    4    0    0  0.72833620806E+01 -0.66255586634E+02  0.17733061718E+03  0.18944391759E+03  0.00000000000E+00 0.  1.
         11    1    4    4    0    0  0.57242239261E+01  0.31553167571E+02  0.80670016201E+02  0.86810256520E+02  0.00000000000E+00 0. -1.
        -11    1    3    3    0    0 -0.68686689930E+02 -0.78812931175E+01 -0.39005594774E+02  0.79381437241E+02  0.00000000000E+00 0.  1.
         11    1    3    3    0    0  0.19644046493E+02  0.18091132509E+02  0.37082832696E+01  0.26961620925E+02  0.00000000000E+00 0. -1.
         21    1    1    2  502  501  0.36035057430E+02  0.24492579671E+02 -0.10112422040E+02  0.44728882195E+02  0.00000000000E+00 0. -1.
<scales pt_clust_5="13000.00000" pt_clust_6="13000.00000" pt_clust_7="13000.00000" pt_clust_8="13000.00000" pt_clust_9="43.57077"></scales>
<clustering>
<clus scale="   43.571">  2  9  1 -1</clus>
<clus scale="   86.911">  7  8 -1 -1</clus>
<clus scale="   91.535">  5  6 -1 -1</clus>
<clus scale="   94.152">  2  7  1 -1</clus>
<clus scale="   98.436">  1  5  2 -1</clus>
</clustering>
</event>
<event>
 9    1  0.1175034E-005  0.1162608E+03  0.7546771E-02  0.1256340E+00
          1   -1    0    0  502    0  0.00000000000E+00  0.00000000000E+00  0.99375202551E+02  0.99375202551E+02  0.00000000000E+00 0. -1.
         -1   -1    0    0    0  501 -0.00000000000E+00 -0.00000000000E+00 -0.24917732857E+03  0.24917732857E+03  0.00000000000E+00 0.  1.
         23    2    1    2    0    0 -0.52750125765E+01  0.26880586856E+02 -0.58416214743E+02  0.11257072144E+03  0.92245983506E+02 0.  0.
         23    2    1    2    0    0 -0.56205956819E+01 -0.50570679003E+02  0.20082261543E+02  0.12150435209E+03  0.10849435781E+03 0.  0.
        -11    1    4    4    0    0 -0.36058716804E+02  0.11135465877E+02  0.34582898365E+02  0.51187952852E+02  0.00000000000E+00 0.  1.
         11    1    4    4    0    0  0.30438121122E+02 -0.61706144881E+02 -0.14500636822E+02  0.70316399238E+02  0.00000000000E+00 0. -1.
        -13    1    3    3    0    0  0.34241094522E+02  0.30252323782E+02 -0.48885577494E+01  0.45951644641E+02  0.00000000000E+00 0. -1.
         13    1    3    3    0    0 -0.39516107099E+02 -0.33717369266E+01 -0.53527656994E+02  0.66619076798E+02  0.00000000000E+00 0.  1.
         21    1    1    2  502  501  0.10895608258E+02  0.23690092148E+02 -0.11146817281E+03  0.11447745759E+03  0.00000000000E+00 0.  1.
<scales pt_clust_5="13000.00000" pt_clust_6="13000.00000" pt_clust_7="13000.00000" pt_clust_8="13000.00000" pt_clust_9="26.07556"></scales>
<clustering>
<clus scale="   26.076">  2  9  1 -1</clus>
<clus scale="   92.246">  7  8 -1 -1</clus>
<clus scale="  101.266">  2  7  1 -1</clus>
<clus scale="  108.494">  5  6 -1 -1</clus>
<clus scale="  116.261">  1  5  2 -1</clus>
</clustering>
</event>
<event>
 9    1  0.1175034E-005  0.1216416E+03  0.7546771E-02  0.1241660E+00
          1   -1    0    0  502    0  0.00000000000E+00  0.00000000000E+00  0.53186798574E+03  0.53186798574E+03  0.00000000000E+00 0. -1.
         -1   -1    0    0    0  501 -0.00000000000E+00 -0.00000000000E+00 -0.45523254669E+02  0.45523254669E+02  0.00000000000E+00 0.  1.
         23    2    1    2    0    0  0.16284736476E+02  0.54175364638E+02  0.16608730247E+03  0.19735516655E+03  0.90354341048E+02 0.  0.
         23    2    1    2    0    0 -0.48218636406E+02 -0.95623510802E+02  0.15746370772E+03  0.20904040625E+03  0.86221687986E+02 0.  0.
        -11    1    4    4    0    0 -0.16169256119E+02 -0.76983676409E+02  0.45004998477E+02  0.90627706386E+02  0.00000000000E+00 0.  1.
         11    1    4    4    0    0 -0.32049380287E+02 -0.18639834393E+02  0.11245870925E+03  0.11841269986E+03  0.00000000000E+00 0. -1.
        -13    1    3    3    0    0 -0.23476034610E+02  0.39087743408E+02  0.29515326445E+02  0.54315102696E+02  0.00000000000E+00 0.  1.
         13    1    3    3    0    0  0.39760771086E+02  0.15087621230E+02  0.13657197603E+03  0.14304006385E+03  0.00000000000E+00 0. -1.
         21    1    1    2  502  501  0.31933899930E+02  0.41448146164E+02  0.16279372088E+03  0.17099566761E+03  0.00000000000E+00 0. -1.
<scales pt_clust_5="13000.00000" pt_clust_6="13000.00000" pt_clust_7="13000.00000" pt_clust_8="13000.00000" pt_clust_9="52.32325"></scales>
<clustering>
<clus scale="   52.323">  1  9  2 -1</clus>
<clus scale="   86.222">  5  6 -1 -1</clus>
<clus scale="   90.354">  7  8 -1 -1</clus>
<clus scale="  118.604">  1  5  2 -1</clus>
<clus scale="   52.323">  1  5  2 -1</clus>
</clustering>
</event>
<event>
 9    1  0.1175034E-005  0.1109833E+03  0.7546771E-02  0.1263605E+00
         -1   -1    0    0    0  501 -0.00000000000E+00  0.00000000000E+00  0.58355409566E+03  0.58355409566E+03  0.00000000000E+00 0.  1.
          1   -1    0    0  502    0  0.00000000000E+00 -0.00000000000E+00 -0.54069106272E+03  0.54069106272E+03  0.00000000000E+00 0. -1.
         23    2    1    2    0    0 -0.38576498268E+02 -0.23286131729E+01 -0.75817827034E+02  0.13247499385E+03  0.10152690501E+03 0.  0.
         23    2    1    2    0    0 -0.64179626155E+02  0.14096387081E+02 -0.42442893044E+03  0.43889988494E+03  0.90418247369E+02 0.  0.
        -13    1    3    3    0    0  0.31254340288E+02 -0.45711783765E+01 -0.47595739129E+02  0.57123408878E+02  0.00000000000E+00 0.  1.
         13    1    3    3    0    0 -0.69830838557E+02  0.22425652036E+01 -0.28222087905E+02  0.75351584973E+02  0.00000000000E+00 0. -1.
        -13    1    4    4    0    0  0.18278339852E+02  0.10706899767E+02 -0.35738963907E+02  0.41545263888E+02  0.00000000000E+00 0.  1.
         13    1    4    4    0    0 -0.82457966007E+02  0.33894873137E+01 -0.38868996654E+03  0.39735462105E+03  0.00000000000E+00 0. -1.
         21    1    1    2  502  501  0.10275612442E+03 -0.11767773908E+02  0.54310979042E+03  0.55287027959E+03  0.00000000000E+00 0.  1.
<scales pt_clust_5="13000.00000" pt_clust_6="13000.00000" pt_clust_7="13000.00000" pt_clust_8="13000.00000" pt_clust_9="103.42776"></scales>
<clustering>
<clus scale="   90.418">  7  8 -1 -1</clus>
<clus scale="  101.527">  5  6 -1 -1</clus>
<clus scale="  103.428">  1  9  2 -1</clus>
<clus scale="  100.921">  2  7  1 -1</clus>
<clus scale="  100.921">  2  5  1 -1</clus>
</clustering>
</event>
<event>
 9    1  0.1175034E-005  0.5243443E+03  0.7546771E-02  0.1007727E+00
         -1   -1    0    0    0  501 -0.00000000000E+00  0.00000000000E+00  0.23652705593E+03  0.23652705593E+03  0.00000000000E+00 0.  1.
          1   -1    0    0  502    0  0.00000000000E+00 -0.00000000000E+00 -0.12690138443E+04  0.12690138443E+04  0.00000000000E+00 0. -1.
         23    2    1    2    0    0  0.51995300638E+03  0.76968737987E+02 -0.40093700634E+03  0.66718199877E+03  0.90033443539E+02 0.  0.
         23    2    1    2    0    0 -0.50478603803E+03 -0.49194949391E+02 -0.61212018672E+03  0.80122496233E+03  0.10020593810E+03 0.  0.
        -11    1    4    4    0    0 -0.15179526262E+03 -0.23968283665E+02 -0.11952069237E+03  0.19468301487E+03  0.00000000000E+00 0.  1.
         11    1    4    4    0    0 -0.35299077541E+03 -0.25226665727E+02 -0.49259949435E+03  0.60654194746E+03  0.00000000000E+00 0. -1.
        -13    1    3    3    0    0  0.87419296393E+02  0.16474077212E+02 -0.29119789564E+02  0.93602835139E+02  0.00000000000E+00 0. -1.
         13    1    3    3    0    0  0.43253370999E+03  0.60494660774E+02 -0.37181721678E+03  0.57357916363E+03  0.00000000000E+00 0.  1.
         21    1    1    2  502  501 -0.15166968351E+02 -0.27773788595E+02 -0.19429595325E+02  0.37133939144E+02  0.00000000000E+00 0.  1.
<scales pt_clust_5="13000.00000" pt_clust_6="13000.00000" pt_clust_7="13000.00000" pt_clust_8="13000.00000" pt_clust_9="31.64522"></scales>
<clustering>
<clus scale="   31.645">  1  9  2 -1</clus>
<clus scale="   90.033">  7  8 -1 -1</clus>
<clus scale="  100.206">  5  6 -1 -1</clus>
<clus scale="  522.496">  1  7  2 -1</clus>
<clus scale="  524.344">  2  5  1 -1</clus>
</clustering>
</event>
<event>
 9    1  0.1175034E-005  0.1120863E+03  0.7546771E-02  0.1257278E+00
         -2   -1    0    0    0  501 -0.00000000000E+00  0.00000000000E+00  0.31418792261E+02  0.31418792261E+02  0.00000000000E+00 0.  1.
          2   -1    0    0  502    0  0.00000000000E+00 -0.00000000000E+00 -0.63502034249E+03  0.63502034249E+03  0.00000000000E+00 0. -1.
         23    2    1    2    0    0 -0.56544280697E+02 -0.45383969301E+02 -0.25673046060E+03  0.28087306157E+03  0.87875974904E+02 0.  0.
         23    2    1    2    0    0  0.16654593452E+02  0.68645145695E+02 -0.29446124258E+03  0.31571579370E+03  0.89328089091E+02 0.  0.
        -13    1    4    4    0    0 -0.33511302632E+02  0.44198295674E+02 -0.11320007112E+03  0.12605852944E+03  0.00000000000E+00 0. -1.
         13    1    4    4    0    0  0.50165896084E+02  0.24446850021E+02 -0.18126117146E+03  0.18965726426E+03  0.00000000000E+00 0.  1.
        -13    1    3    3    0    0 -0.58323321841E+02 -0.55337479437E+01 -0.21623337086E+03  0.22402924566E+03  0.00000000000E+00 0. -1.
         13    1    3    3    0    0  0.17790411444E+01 -0.39850221357E+02 -0.40497089739E+02  0.56843815908E+02  0.00000000000E+00 0.  1.
         21    1    1    2  502  501  0.39889687245E+02 -0.23261176394E+02 -0.52409847043E+02  0.69850279476E+02  0.00000000000E+00 0.  1.
<scales pt_clust_5="13000.00000" pt_clust_6="13000.00000" pt_clust_7="13000.00000" pt_clust_8="13000.00000" pt_clust_9="46.17650"></scales>
<clustering>
<clus scale="   46.177">  1  9  2 -1</clus>
<clus scale="   87.876">  7  8 -1 -1</clus>
<clus scale="   89.328">  5  6 -1 -1</clus>
<clus scale="  110.932">  1  7  2 -1</clus>
<clus scale="  112.086">  2  5  1 -1</clus>
</clustering>
</event>
<event>
 9    1  0.1175034E-005  0.1520477E+03  0.7546771E-02  0.1198600E+00
         -2   -1    0    0    0  501 -0.00000000000E+00  0.00000000000E+00  0.11342080804E+03  0.11342080804E+03  0.00000000000E+00 0.  1.
          2   -1    0    0  502    0  0.00000000000E+00 -0.00000000000E+00 -0.63975171123E+03  0.63975171123E+03  0.00000000000E+00 0. -1.
         23    2    1    2    0    0 -0.96502699091E+02 -0.71571369064E+02  0.32704751243E+02  0.15444453512E+03  0.91368932759E+02 0.  0.
         23    2    1    2    0    0  0.79453729652E+02  0.11420788227E+03 -0.47859726600E+03  0.50610577326E+03  0.87928238788E+02 0.  0.
        -11    1    3    3    0    0 -0.77632478909E+02 -0.50864720945E+02  0.63773364197E+02  0.11261022866E+03  0.00000000000E+00 0.  1.
         11    1    3    3    0    0 -0.18870220183E+02 -0.20706648119E+02 -0.31068612954E+02  0.41834306460E+02  0.00000000000E+00 0. -1.
        -11    1    4    4    0    0 -0.17539976073E+02  0.10192598946E+02 -0.37338217539E+02  0.42493320921E+02  0.00000000000E+00 0.  1.
         11    1    4    4    0    0  0.96993705724E+02  0.10401528332E+03 -0.44125904846E+03  0.46361245234E+03  0.00000000000E+00 0. -1.
         21    1    1    2  502  501  0.17048969440E+02 -0.42636513203E+02 -0.80438388430E+02  0.92622210891E+02  0.00000000000E+00 0. -1.
<scales pt_clust_5="13000.00000" pt_clust_6="13000.00000" pt_clust_7="13000.00000" pt_clust_8="13000.00000" pt_clust_9="45.91884"></scales>
<clustering>
<clus scale="   45.919">  2  9  1 -1</clus>
<clus scale="   87.928">  7  8 -1 -1</clus>
<clus scale="   91.369">  5  6 -1 -1</clus>
<clus scale="  150.005">  2  7  1 -1</clus>
<clus scale="   45.919">  2  5  1 -1</clus>
</clustering>
</event>
<event>
 9    1  0.1175034E-005  0.1769005E+03  0.7546771E-02  0.1172529E+00
         -1   -1    0    0    0  501 -0.00000000000E+00  0.00000000000E+00  0.14721321534E+03  0.14721321534E+03  0.00000000000E+00 0.  1.
          1   -1    0    0  502    0  0.00000000000E+00 -0.00000000000E+00 -0.63035138713E+03  0.63035138713E+03  0.00000000000E+00 0. -1.
         23    2    1    2    0    0  0.68935566291E+02  0.10146132249E+03 -0.63759393280E+01  0.15983580095E+03  0.10227569800E+03 0.  0.
         23    2    1    2    0    0 -0.28659629152E+02 -0.14727660800E+03 -0.51620754329E+03  0.54508498523E+03  0.90197781367E+02 0.  0.
        -11    1    3    3    0    0  0.77913896373E+02  0.24440181692E+02  0.31016234557E+01  0.81716080408E+02  0.00000000000E+00 0. -1.
         11    1    3    3    0    0 -0.89783300827E+01  0.77021140796E+02 -0.94775627837E+01  0.78119720538E+02  0.00000000000E+00 0.  1.
        -13    1    4    4    0    0 -0.25762721022E+02 -0.23643558268E+02 -0.40222499684E+02  0.53297139913E+02  0.00000000000E+00 0.  1.
         13    1    4    4    0    0 -0.28969081303E+01 -0.12363304973E+03 -0.47598504360E+03  0.49178784531E+03  0.00000000000E+00 0. -1.
         21    1    1    2  502  501 -0.40275937138E+02  0.45815285512E+02  0.39445310830E+02  0.72643816292E+02  0.00000000000E+00 0. -1.
<scales pt_clust_5="13000.00000" pt_clust_6="13000.00000" pt_clust_7="13000.00000" pt_clust_8="13000.00000" pt_clust_9="61.00157"></scales>
<clustering>
<clus scale="   61.002">  1  9  2 -1</clus>
<clus scale="   90.198">  7  8 -1 -1</clus>
<clus scale="  102.276">  5  6 -1 -1</clus>
<clus scale="  170.203">  2  7  1 -1</clus>
<clus scale="  170.203">  2  5  1 -1</clus>
</clustering>
</event>
<event>
 9    1  0.1175034E-005  0.1361124E+03  0.7546771E-02  0.1218765E+00
          1   -1    0    0  502    0  0.00000000000E+00  0.00000000000E+00  0.20150271487E+03  0.20150271487E+03  0.00000000000E+00 0. -1.
         -1   -1    0    0    0  501 -0.00000000000E+00 -0.00000000000E+00 -0.16541563957E+03  0.16541563957E+03  0.00000000000E+00 0.  1.
         23    2    1    2    0    0  0.16353069648E+02 -0.91737482839E+02 -0.30039622029E+02  0.13360707631E+03  0.90913603518E+02 0.  0.
         23    2    1    2    0    0  0.79223546057E+01  0.10515635983E+03  0.11283955407E+03  0.17898399708E+03  0.90453759082E+02 0.  0.
        -11    1    4    4    0    0 -0.25800428974E+02  0.91187026130E+02  0.52163424212E+02  0.10817466753E+03  0.00000000000E+00 0.  1.
         11    1    4    4    0    0  0.33722783580E+02  0.13969333698E+02  0.60676129857E+02  0.70809329546E+02  0.00000000000E+00 0. -1.
        -13    1    3    3    0    0  0.13663595123E+02  0.16508363398E+02 -0.92955409779E+01  0.23358659547E+02  0.00000000000E+00 0. -1.
         13    1    3    3    0    0  0.26894745252E+01 -0.10824584624E+03 -0.20744081052E+02  0.11024841677E+03  0.00000000000E+00 0.  1.
         21    1    1    2  502  501 -0.24275424254E+02 -0.13418876989E+02 -0.46712856731E+02  0.54327281051E+02  0.00000000000E+00 0.  1.
<scales pt_clust_5="13000.00000" pt_clust_6="13000.00000" pt_clust_7="13000.00000" pt_clust_8="13000.00000" pt_clust_9="27.73738"></scales>
<clustering>
<clus scale="   27.737">  2  9  1 -1</clus>
<clus scale="   90.454">  5  6 -1 -1</clus>
<clus scale="   90.914">  7  8 -1 -1</clus>
<clus scale="  135.806">  1  5  2 -1</clus>
<clus scale="  135.806">  1  5  2 -1</clus>
</clustering>
</event>
<event>
 9    1  0.1175034E-005  0.1943889E+03  0.7546771E-02  0.1154621E+00
         -1   -1    0    0    0  501 -0.00000000000E+00  0.00000000000E+00  0.18617007446E+03  0.18617007446E+03  0.00000000000E+00 0.  1.
          1   -1    0    0  502    0  0.00000000000E+00 -0.00000000000E+00 -0.40120377913E+03  0.40120377913E+03  0.00000000000E+00 0. -1.
         23    2    1    2    0    0  0.66741907492E+02  0.12536524300E+03  0.15633400710E+02  0.16921763090E+03  0.90660228435E+02 0.  0.
         23    2    1    2    0    0  0.18326978096E+02 -0.19289157145E+03 -0.22313408568E+03  0.30928351393E+03  0.91238343548E+02 0.  0.
        -11    1    4    4    0    0  0.48281095708E+02 -0.16793861150E+03 -0.17447876901E+03  0.24693578572E+03  0.00000000000E+00 0.  1.
         11    1    4    4    0    0 -0.29954117612E+02 -0.24952959947E+02 -0.48655316667E+02  0.62347728202E+02  0.00000000000E+00 0. -1.
        -13    1    3    3    0    0  0.62285549300E+02  0.49769334289E+02  0.40614655013E+02  0.89476401856E+02  0.00000000000E+00 0.  1.
         13    1    3    3    0    0  0.44563581921E+01  0.75595908713E+02 -0.24981254303E+02  0.79741229041E+02  0.00000000000E+00 0. -1.
         21    1    1    2  502  501 -0.85068885588E+02  0.67526328443E+02 -0.75330197044E+01  0.10887270877E+03  0.00000000000E+00 0. -1.
<scales pt_clust_5="13000.00000" pt_clust_6="13000.00000" pt_clust_7="13000.00000" pt_clust_8="13000.00000" pt_clust_9="108.61179"></scales>
<clustering>
<clus scale="   90.660">  7  8 -1 -1</clus>
<clus scale="   91.238">  5  6 -1 -1</clus>
<clus scale="  108.612">  1  9  2 -1</clus>
<clus scale="  194.118">  1  7  2 -1</clus>
<clus scale="  194.389">  2  5  1 -1</clus>
</clustering>
</event>
<event>
 9    1  0.1175034E-005  0.9983858E+02  0.7546771E-02  0.1280934E+00
          1   -1    0    0  502    0  0.00000000000E+00  0.00000000000E+00  0.41459785724E+03  0.41459785724E+03  0.00000000000E+00 0. -1.
         -1   -1    0    0    0  501 -0.00000000000E+00 -0.00000000000E+00 -0.69687174392E+02  0.69687174392E+02  0.00000000000E+00 0.  1.
         23    2    1    2    0    0  0.23241752501E+02 -0.44354256933E+02 -0.10512948862E+02  0.10327558348E+03  0.89709781422E+02 0.  0.
         23    2    1    2    0    0 -0.33812119343E+02  0.25098256622E+02  0.33963659136E+03  0.35395844362E+03  0.90334842201E+02 0.  0.
        -13    1    4    4    0    0  0.21226409374E+02 -0.17025211947E+02  0.60354205205E+02  0.66204594876E+02  0.00000000000E+00 0.  1.
         13    1    4    4    0    0 -0.55038528717E+02  0.42123468569E+02  0.27928238616E+03  0.28775384874E+03  0.00000000000E+00 0. -1.
        -13    1    3    3    0    0  0.21325904129E+02  0.18450626029E+02 -0.26222258418E+02  0.38507487900E+02  0.00000000000E+00 0. -1.
         13    1    3    3    0    0  0.19158483718E+01 -0.62804882962E+02  0.15709309556E+02  0.64768095584E+02  0.00000000000E+00 0.  1.
         21    1    1    2  502  501  0.10570366842E+02  0.19256000311E+02  0.15787040345E+02  0.27051004528E+02  0.00000000000E+00 0. -1.
<scales pt_clust_5="13000.00000" pt_clust_6="13000.00000" pt_clust_7="13000.00000" pt_clust_8="13000.00000" pt_clust_9="21.96648"></scales>
<clustering>
<clus scale="   21.966">  2  9  1 -1</clus>
<clus scale="   89.710">  7  8 -1 -1</clus>
<clus scale="   90.335">  5  6 -1 -1</clus>
<clus scale="   99.273">  2  7  1 -1</clus>
<clus scale="   99.839">  1  5  2 -1</clus>
</clustering>
</event>
<event>
 9    1  0.1175034E-005  0.1072420E+03  0.7546771E-02  0.1266480E+00
          1   -1    0    0  502    0  0.00000000000E+00  0.00000000000E+00  0.44239675277E+03  0.44239675277E+03  0.00000000000E+00 0. -1.
         -1   -1    0    0    0  501 -0.00000000000E+00 -0.00000000000E+00 -0.97219630513E+02  0.97219630513E+02  0.00000000000E+00 0.  1.
         23    2    1    2    0    0  0.61857033985E+02  0.71261542220E+02 -0.14165887312E+02  0.13227901774E+03  0.91610949770E+02 0.  0.
         23    2    1    2    0    0 -0.30395901377E+02 -0.41932245976E+02  0.34760769436E+03  0.36275342105E+03  0.89870524850E+02 0.  0.
        -13    1    3    3    0    0  0.68405953261E+02  0.20860977340E+02 -0.32091340297E+02  0.78386280300E+02  0.00000000000E+00 0.  1.
         13    1    3    3    0    0 -0.65489192768E+01  0.50400564880E+02  0.17925452986E+02  0.53892737439E+02  0.00000000000E+00 0. -1.
        -13    1    4    4    0    0 -0.60867082256E+02 -0.33983672279E+02  0.27325211871E+03  0.28200427667E+03  0.00000000000E+00 0. -1.
         13    1    4    4    0    0  0.30471180879E+02 -0.79485736968E+01  0.74355575651E+02  0.80749144381E+02  0.00000000000E+00 0.  1.
         21    1    1    2  502  501 -0.31461132607E+02 -0.29329296244E+02  0.11735315212E+02  0.44583944489E+02  0.00000000000E+00 0. -1.
<scales pt_clust_5="13000.00000" pt_clust_6="13000.00000" pt_clust_7="13000.00000" pt_clust_8="13000.00000" pt_clust_9="43.01175"></scales>
<clustering>
<clus scale="   43.012">  2  9  1 -1</clus>
<clus scale="   89.871">  7  8 -1 -1</clus>
<clus scale="   91.611">  5  6 -1 -1</clus>
<clus scale="  105.759">  1  7  2 -1</clus>
<clus scale="  105.759">  1  5  2 -1</clus>
</clustering>
</event>
<event>
 9    1  0.1175034E-005  0.1037735E+03  0.7546771E-02  0.1272929E+00
          3   -1    0    0  502    0  0.00000000000E+00  0.00000000000E+00  0.36483359552E+03  0.36483359552E+03  0.00000000000E+00 0. -1.
         -3   -1    0    0    0  501 -0.00000000000E+00 -0.00000000000E+00 -0.45036050592E+02  0.45036050592E+02  0.00000000000E+00 0.  1.
         23    2    1    2    0    0 -0.55149017654E+02 -0.39686789455E+02  0.12778227261E+03  0.16923304654E+03  0.87721487910E+02 0.  0.
         23    2    1    2    0    0  0.48828798109E+02  0.24872338543E+00  0.16067273002E+03  0.18986592706E+03  0.88594755473E+02 0.  0.
        -11    1    4    4    0    0 -0.20331323337E+02 -0.69969716186E+01  0.95804502187E+01  0.23539442365E+02  0.00000000000E+00 0.  1.
         11    1    4    4    0    0  0.69160121447E+02  0.72456950041E+01  0.15109227980E+03  0.16632648469E+03  0.00000000000E+00 0. -1.
        -11    1    3    3    0    0  0.20521218164E+01  0.22099936521E+02  0.97401379808E+01  0.24238165898E+02  0.00000000000E+00 0. -1.
         11    1    3    3    0    0 -0.57201139471E+02 -0.61786725976E+02  0.11804213463E+03  0.14499488064E+03  0.00000000000E+00 0.  1.
         21    1    1    2  502  501  0.63202195451E+01  0.39438066069E+02  0.31342542299E+02  0.50770672520E+02  0.00000000000E+00 0. -1.
<scales pt_clust_5="13000.00000" pt_clust_6="13000.00000" pt_clust_7="13000.00000" pt_clust_8="13000.00000" pt_clust_9="39.94128"></scales>
<clustering>
<clus scale="   39.941">  2  9  1 -1</clus>
<clus scale="   87.721">  7  8 -1 -1</clus>
<clus scale="   88.595">  5  6 -1 -1</clus>
<clus scale="  103.029">  2  7  1 -1</clus>
<clus scale="  103.774">  1  5  2 -1</clus>
</clustering>
</event>
<event>
 9    1  0.2713969E-005  0.1336232E+03  0.7546771E-02  0.1224432E+00
         -1   -1    0    0    0  501 -0.00000000000E+00  0.00000000000E+00  0.33721446737E+03  0.33721446737E+03  0.00000000000E+00 0.  1.
          1   -1    0    0  502    0  0.00000000000E+00 -0.00000000000E+00 -0.30742854570E+03  0.30742854570E+03  0.00000000000E+00 0. -1.
         23    2    1    2    0    0 -0.67706893655E+02 -0.58566811716E+02  0.22567863952E+03  0.25762802133E+03  0.86180358301E+02 0.  0.
         23    2    1    2    0    0  0.89715415765E+02  0.30094019706E+02 -0.27175692030E+03  0.30304802119E+03  0.95035643670E+02 0.  0.
        -11    1    3    3    0    0 -0.23596658482E+02 -0.59127049618E+02  0.64914986855E+02  0.90921756508E+02  0.00000000000E+00 0.  1.
         11    1    3    3    0    0 -0.44110235172E+02  0.56023790174E+00  0.16076365266E+03  0.16670626482E+03  0.00000000000E+00 0. -1.
        -13    1    4    4    0    0 -0.18870517491E+02  0.15755936277E+02 -0.50272554648E+02  0.55961376941E+02  0.00000000000E+00 0.  1.
         13    1    4    4    0    0  0.10858593326E+03  0.14338083429E+02 -0.22148436565E+03  0.24708664425E+03  0.00000000000E+00 0. -1.
         21    1    1    2  502  501 -0.22008522110E+02  0.28472792010E+02  0.75864202452E+02  0.83966970554E+02  0.00000000000E+00 0. -1.
<scales pt_clust_5="13000.00000" pt_clust_6="13000.00000" pt_clust_7="13000.00000" pt_clust_8="13000.00000" pt_clust_9="35.98715"></scales>
<clustering>
<clus scale="   35.987">  1  9  2 -1</clus>
<clus scale="   86.180">  5  6 -1 -1</clus>
<clus scale="   95.036">  7  8 -1 -1</clus>
<clus scale="  127.477">  1  5  2 -1</clus>
<clus scale="  133.623">  2  5  1 -1</clus>
</clustering>
</event>
<event>
 9    1  0.1175034E-005  0.9659374E+02  0.7546771E-02  0.1288199E+00
          2   -1    0    0  502    0  0.00000000000E+00  0.00000000000E+00  0.26762682959E+02  0.26762682959E+02  0.00000000000E+00 0.  1.
         -2   -1    0    0    0  501 -0.00000000000E+00 -0.00000000000E+00 -0.46225025958E+03  0.46225025958E+03  0.00000000000E+00 0. -1.
         23    2    1    2    0    0  0.20480002498E+02  0.59231784726E+01 -0.24554548211E+03  0.26251910178E+03  0.90383518797E+02 0.  0.
         23    2    1    2    0    0 -0.26721742943E+02 -0.27173936974E+02 -0.13680730085E+03  0.16892770177E+03  0.91475988448E+02 0.  0.
        -11    1    4    4    0    0  0.21727524338E+02 -0.41434959762E+02 -0.81928378814E+02  0.94346173528E+02  0.00000000000E+00 0.  1.
         11    1    4    4    0    0 -0.48449267281E+02  0.14261022788E+02 -0.54878922041E+02  0.74581528245E+02  0.00000000000E+00 0. -1.
        -11    1    3    3    0    0  0.42833574627E+02  0.34625256768E+02 -0.16940523589E+03  0.17813409968E+03  0.00000000000E+00 0.  1.
         11    1    3    3    0    0 -0.22353572129E+02 -0.28702078295E+02 -0.76140246220E+02  0.84385002102E+02  0.00000000000E+00 0. -1.
         21    1    1    2  502  501  0.62417404453E+01  0.21250758501E+02 -0.53134793654E+02  0.57566138982E+02  0.00000000000E+00 0. -1.
<scales pt_clust_5="13000.00000" pt_clust_6="13000.00000" pt_clust_7="13000.00000" pt_clust_8="13000.00000" pt_clust_9="22.14846"></scales>
<clustering>
<clus scale="   22.148">  2  9  1 -1</clus>
<clus scale="   90.384">  7  8 -1 -1</clus>
<clus scale="   91.476">  5  6 -1 -1</clus>
<clus scale="   95.560">  2  7  1 -1</clus>
<clus scale="   96.594">  1  5  2 -1</clus>
</clustering>
</event>
<event>
 9    1  0.1175034E-005  0.9912263E+02  0.7546771E-02  0.1285096E+00
          2   -1    0    0  502    0  0.00000000000E+00  0.00000000000E+00  0.36934658926E+03  0.36934658926E+03  0.00000000000E+00 0. -1.
         -2   -1    0    0    0  501 -0.00000000000E+00 -0.00000000000E+00 -0.10912308710E+03  0.10912308710E+03  0.00000000000E+00 0.  1.
         23    2    1    2    0    0  0.24479247618E+02  0.20131056143E+02 -0.42416267186E+02  0.10178494560E+03  0.86928375364E+02 0.  0.
         23    2    1    2    0    0 -0.35268873404E+02  0.10640804363E+02  0.32312823816E+03  0.33817368328E+03  0.92695531821E+02 0.  0.
        -13    1    4    4    0    0 -0.53752568917E+02 -0.20597972362E+02  0.13806847947E+03  0.14958783424E+03  0.00000000000E+00 0. -1.
         13    1    4    4    0    0  0.18483695513E+02  0.31238776726E+02  0.18505975869E+03  0.18858584903E+03  0.00000000000E+00 0.  1.
        -13    1    3    3    0    0 -0.24830520562E+02  0.66618462799E+01 -0.43644975362E+02  0.50653912204E+02  0.00000000000E+00 0.  1.
         13    1    3    3    0    0  0.49309768180E+02  0.13469209863E+02  0.12287081762E+01  0.51131033396E+02  0.00000000000E+00 0. -1.
         21    1    1    2  502  501  0.10789625785E+02 -0.30771860506E+02 -0.20488468819E+02  0.38511047482E+02  0.00000000000E+00 0. -1.
<scales pt_clust_5="13000.00000" pt_clust_6="13000.00000" pt_clust_7="13000.00000" pt_clust_8="13000.00000" pt_clust_9="32.60864"></scales>
<clustering>
<clus scale="   32.609">  2  9  1 -1</clus>
<clus scale="   86.928">  7  8 -1 -1</clus>
<clus scale="   92.696">  5  6 -1 -1</clus>
<clus scale="   93.752">  2  7  1 -1</clus>
<clus scale="   99.123">  1  5  2 -1</clus>
</clustering>
</event>
<event>
 9    1  0.1175034E-005  0.2490276E+03  0.7546771E-02  0.1114377E+00
          2   -1    0    0  502    0  0.00000000000E+00  0.00000000000E+00  0.18098484127E+04  0.18098484127E+04  0.00000000000E+00 0. -1.
         -2   -1    0    0    0  501 -0.00000000000E+00 -0.00000000000E+00 -0.49071929172E+02  0.49071929172E+02  0.00000000000E+00 0.  1.
         23    2    1    2    0    0  0.21383427028E+03  0.46089809827E+02  0.54869720392E+03  0.59789494666E+03  0.92522321244E+02 0.  0.
         23    2    1    2    0    0 -0.25793023434E+03  0.15406040506E+02  0.97185089547E+03  0.10091606097E+04  0.84531776333E+02 0.  0.
        -11    1    3    3    0    0  0.14427525629E+03 -0.95504936969E+01  0.28537165829E+03  0.31991177669E+03  0.00000000000E+00 0.  1.
         11    1    3    3    0    0  0.69559013989E+02  0.55640303524E+02  0.26332554563E+03  0.27798316997E+03  0.00000000000E+00 0. -1.
        -13    1    4    4    0    0 -0.11791886092E+03 -0.15643264891E+01  0.59961630682E+03  0.61110311755E+03  0.00000000000E+00 0. -1.
         13    1    4    4    0    0 -0.14001137341E+03  0.16970366995E+02  0.37223458865E+03  0.39805749211E+03  0.00000000000E+00 0.  1.
         21    1    1    2  502  501  0.44095964056E+02 -0.61495850333E+02  0.24022838415E+03  0.25186478556E+03  0.00000000000E+00 0. -1.
<scales pt_clust_5="13000.00000" pt_clust_6="13000.00000" pt_clust_7="13000.00000" pt_clust_8="13000.00000" pt_clust_9="75.67162"></scales>
<clustering>
<clus scale="   75.672">  1  9  2 -1</clus>
<clus scale="   84.532">  7  8 -1 -1</clus>
<clus scale="   92.522">  5  6 -1 -1</clus>
<clus scale="  246.171">  1  7  2 -1</clus>
<clus scale="   75.672">  1  5  2 -1</clus>
</clustering>
</event>
<event>
 9    1  0.1175034E-005  0.1185448E+03  0.7546771E-02  0.1246744E+00
         -2   -1    0    0    0  501 -0.00000000000E+00  0.00000000000E+00  0.82984558278E+02  0.82984558278E+02  0.00000000000E+00 0.  1.
          2   -1    0    0  502    0  0.00000000000E+00 -0.00000000000E+00 -0.22608620841E+03  0.22608620841E+03  0.00000000000E+00 0. -1.
         23    2    1    2    0    0 -0.27731382517E+02  0.82423487374E+02 -0.34132350419E+02  0.12845142033E+03  0.88159453222E+02 0.  0.
         23    2    1    2    0    0  0.34604133140E+02 -0.48832526925E+02 -0.85467536734E+02  0.13905108698E+03  0.91915413493E+02 0.  0.
        -11    1    3    3    0    0  0.32104967705E+02  0.24177615486E+02 -0.82573758535E+01  0.41030114525E+02  0.00000000000E+00 0. -1.
         11    1    3    3    0    0 -0.59836350222E+02  0.58245871889E+02 -0.25874974565E+02  0.87421305805E+02  0.00000000000E+00 0.  1.
        -11    1    4    4    0    0  0.51956523353E+02 -0.91032193848E+00 -0.67114442058E+02  0.84880252932E+02  0.00000000000E+00 0. -1.
         11    1    4    4    0    0 -0.17352390214E+02 -0.47922204986E+02 -0.18353094676E+02  0.54170834045E+02  0.00000000000E+00 0.  1.
         21    1    1    2  502  501 -0.68727506229E+01 -0.33590960450E+02 -0.23501762980E+02  0.41568259384E+02  0.00000000000E+00 0.  1.
<scales pt_clust_5="13000.00000" pt_clust_6="13000.00000" pt_clust_7="13000.00000" pt_clust_8="13000.00000" pt_clust_9="34.28684"></scales>
<clustering>
<clus scale="   34.287">  2  9  1 -1</clus>
<clus scale="   88.159">  5  6 -1 -1</clus>
<clus scale="   91.915">  7  8 -1 -1</clus>
<clus scale="  115.657">  1  5  2 -1</clus>
<clus scale="   34.287">  2  5  1 -1</clus>
</clustering>
</event>
<event>
 9    1  0.1175034E-005  0.1068599E+03  0.7546771E-02  0.1268443E+00
         -1   -1    0    0    0  501 -0.00000000000E+00  0.00000000000E+00  0.29275178970E+02  0.29275178970E+02  0.00000000000E+00 0.  1.
          1   -1    0    0  502    0  0.00000000000E+00 -0.00000000000E+00 -0.55846660719E+03  0.55846660719E+03  0.00000000000E+00 0. -1.
         23    2    1    2    0    0  0.15620198164E+02 -0.11226577849E+02 -0.11868813009E+03  0.15706067407E+03  0.10105026706E+03 0.  0.
         23    2    1    2    0    0 -0.29118265172E+02  0.28497406366E+02 -0.36996312387E+03  0.38459439969E+03  0.96851245304E+02 0.  0.
        -11    1    3    3    0    0 -0.52583405620E+01  0.43229806357E+02 -0.61686007497E+02  0.75509137355E+02  0.00000000000E+00 0. -1.
         11    1    3    3    0    0  0.20878538726E+02 -0.54456384207E+02 -0.57002122595E+02  0.81551536715E+02  0.00000000000E+00 0.  1.
        -13    1    4    4    0    0 -0.62926061361E+02  0.98411077672E+01 -0.18539200773E+03  0.19602737852E+03  0.00000000000E+00 0. -1.
         13    1    4    4    0    0  0.33807796188E+02  0.18656298599E+02 -0.18457111614E+03  0.18856702117E+03  0.00000000000E+00 0.  1.
         21    1    1    2  502  501  0.13498067009E+02 -0.17270828517E+02 -0.40540174264E+02  0.46086712402E+02  0.00000000000E+00 0. -1.
<scales pt_clust_5="13000.00000" pt_clust_6="13000.00000" pt_clust_7="13000.00000" pt_clust_8="13000.00000" pt_clust_9="21.91984"></scales>
<clustering>
<clus scale="   21.920">  1  9  2 -1</clus>
<clus scale="   96.851">  7  8 -1 -1</clus>
<clus scale="  101.050">  5  6 -1 -1</clus>
<clus scale="  102.898">  2  7  1 -1</clus>
<clus scale="  102.898">  2  5  1 -1</clus>
</clustering>
</event>
<event>
 9    1  0.1175034E-005  0.1306829E+03  0.7546771E-02  0.1226580E+00
         -1   -1    0    0    0  501 -0.00000000000E+00  0.00000000000E+00  0.52262534708E+03  0.52262534708E+03  0.00000000000E+00 0.  1.
          1   -1    0    0  502    0  0.00000000000E+00 -0.00000000000E+00 -0.65034372475E+02  0.65034372475E+02  0.00000000000E+00 0. -1.
         23    2    1    2    0    0  0.43123381420E+02  0.61351916425E+02  0.35444634293E+03  0.37340852663E+03  0.90432483497E+02 0.  0.
         23    2    1    2    0    0 -0.25220239914E+02 -0.96973079558E+02  0.41564908566E+02  0.14089281210E+03  0.89907197802E+02 0.  0.
        -11    1    3    3    0    0  0.52400229899E+02  0.18556802957E+02  0.93210162404E+02  0.10852775408E+03  0.00000000000E+00 0. -1.
         11    1    3    3    0    0 -0.92768484788E+01  0.42795113468E+02  0.26123618053E+03  0.26488077256E+03  0.00000000000E+00 0.  1.
        -13    1    4    4    0    0 -0.57130844014E+02 -0.58658093660E+02  0.39690004423E+02  0.90994514893E+02  0.00000000000E+00 0.  1.
         13    1    4    4    0    0  0.31910604100E+02 -0.38314985899E+02  0.18749041427E+01  0.49898297205E+02  0.00000000000E+00 0. -1.
         21    1    1    2  502  501 -0.17903141506E+02  0.35621163134E+02  0.61579723106E+02  0.73358380820E+02  0.00000000000E+00 0.  1.
<scales pt_clust_5="13000.00000" pt_clust_6="13000.00000" pt_clust_7="13000.00000" pt_clust_8="13000.00000" pt_clust_9="39.86715"></scales>
<clustering>
<clus scale="   39.867">  1  9  2 -1</clus>
<clus scale="   89.907">  7  8 -1 -1</clus>
<clus scale="   90.432">  5  6 -1 -1</clus>
<clus scale="  130.320">  2  7  1 -1</clus>
<clus scale="  130.320">  2  5  1 -1</clus>
</clustering>
</event>
<event>
 9    1  0.1175034E-005  0.4460605E+03  0.7546771E-02  0.1028920E+00
         -1   -1    0    0    0  501 -0.00000000000E+00  0.00000000000E+00  0.17215235718E+04  0.17215235718E+04  0.00000000000E+00 0.  1.
          1   -1    0    0  502    0  0.00000000000E+00 -0.00000000000E+00 -0.36828086202E+03  0.36828086202E+03  0.00000000000E+00 0. -1.
         23    2    1    2    0    0  0.11047391218E+03 -0.41904599294E+03  0.14327996552E+04  0.14996554529E+04  0.90816276310E+02 0.  0.
         23    2    1    2    0    0 -0.40569351472E+02  0.46967699251E+03 -0.11964645634E+03  0.49497905598E+03  0.91905613426E+02 0.  0.
        -11    1    4    4    0    0 -0.62148860569E+02  0.37805713530E+03 -0.11780643102E+03  0.40083417221E+03  0.00000000000E+00 0. -1.
         11    1    4    4    0    0  0.21579509098E+02  0.91619857203E+02 -0.18400253146E+01  0.94144883770E+02  0.00000000000E+00 0.  1.
        -13    1    3    3    0    0  0.76418919396E+02 -0.14350941211E+03  0.60902693451E+03  0.63035593879E+03  0.00000000000E+00 0. -1.
         13    1    3    3    0    0  0.34054992785E+02 -0.27553658083E+03  0.82377272072E+03  0.86929951416E+03  0.00000000000E+00 0.  1.
         21    1    1    2  502  501 -0.69904560710E+02 -0.50630999570E+02  0.40089510911E+02  0.95169924927E+02  0.00000000000E+00 0. -1.
<scales pt_clust_5="13000.00000" pt_clust_6="13000.00000" pt_clust_7="13000.00000" pt_clust_8="13000.00000" pt_clust_9="86.31423"></scales>
<clustering>
<clus scale="   86.314">  2  9  1 -1</clus>
<clus scale="   90.816">  7  8 -1 -1</clus>
<clus scale="   91.906">  5  6 -1 -1</clus>
<clus scale="  445.837">  1  7  2 -1</clus>
<clus scale="   86.314">  2  5  1 -1</clus>
</clustering>
</event>
<event>
 9    1  0.1175034E-005  0.1060143E+03  0.7546771E-02  0.1268188E+00
          1   -1    0    0  502    0  0.00000000000E+00  0.00000000000E+00  0.12769661392E+03  0.12769661392E+03  0.00000000000E+00 0. -1.
         -1   -1    0    0    0  501 -0.00000000000E+00 -0.00000000000E+00 -0.22130205872E+03  0.22130205872E+03  0.00000000000E+00 0.  1.
         23    2    1    2    0    0  0.64274151159E+02 -0.25722303965E+02 -0.32343278150E+02  0.11859636936E+03  0.90698444064E+02 0.  0.
         23    2    1    2    0    0  0.19722869362E+02  0.72617384452E+02 -0.31075541962E+01  0.11798963949E+03  0.90827429956E+02 0.  0.
        -11    1    3    3    0    0  0.12326654795E+02 -0.53590720793E+02 -0.12473527016E+02  0.56387061014E+02  0.00000000000E+00 0.  1.
         11    1    3    3    0    0  0.51947496363E+02  0.27868416828E+02 -0.19869751134E+02  0.62209308347E+02  0.00000000000E+00 0. -1.
        -13    1    4    4    0    0 -0.19744645564E+02  0.51463560161E+02 -0.32911370204E+02  0.64198966826E+02  0.00000000000E+00 0.  1.
         13    1    4    4    0    0  0.39467514926E+02  0.21153824291E+02  0.29803816008E+02  0.53790672659E+02  0.00000000000E+00 0. -1.
         21    1    1    2  502  501 -0.83997020521E+02 -0.46895080487E+02 -0.58154612459E+02  0.11241266379E+03  0.00000000000E+00 0.  1.
<scales pt_clust_5="13000.00000" pt_clust_6="13000.00000" pt_clust_7="13000.00000" pt_clust_8="13000.00000" pt_clust_9="96.20108"></scales>
<clustering>
<clus scale="   90.698">  5  6 -1 -1</clus>
<clus scale="   90.827">  7  8 -1 -1</clus>
<clus scale="   96.201">  2  9  1 -1</clus>
<clus scale="  105.904">  2  5  1 -1</clus>
<clus scale="  106.014">  1  5  2 -1</clus>
</clustering>
</event>
<event>
 9    1  0.1175034E-005  0.1014485E+03  0.7546771E-02  0.1280249E+00
          1   -1    0    0  502    0  0.00000000000E+00  0.00000000000E+00  0.62968407579E+03  0.62968407579E+03  0.00000000000E+00 0. -1.
         -1   -1    0    0    0  501 -0.00000000000E+00 -0.00000000000E+00 -0.24078582707E+02  0.24078582707E+02  0.00000000000E+00 0.  1.
         23    2    1    2    0    0  0.22773967928E+02 -0.24906961881E+02  0.16997818369E+03  0.19322653898E+03  0.85468719836E+02 0.  0.
         23    2    1    2    0    0 -0.49328258632E+02  0.13604722241E+02  0.40526411953E+03  0.41864585485E+03  0.91689583013E+02 0.  0.
        -11    1    4    4    0    0 -0.75259566549E+02  0.16603146530E+02  0.33327561964E+03  0.34207061475E+03  0.00000000000E+00 0. -1.
         11    1    4    4    0    0  0.25931307917E+02 -0.29984242881E+01  0.71988499895E+02  0.76575240095E+02  0.00000000000E+00 0.  1.
        -13    1    3    3    0    0  0.43350741921E+01  0.25247512807E+02  0.15912392913E+02  0.30156823762E+02  0.00000000000E+00 0.  1.
         13    1    3    3    0    0  0.18438893736E+02 -0.50154474689E+02  0.15406579078E+03  0.16306971522E+03  0.00000000000E+00 0. -1.
         21    1    1    2  502  501  0.26554290704E+02  0.11302239640E+02  0.30363189861E+02  0.41890264671E+02  0.00000000000E+00 0. -1.
<scales pt_clust_5="13000.00000" pt_clust_6="13000.00000" pt_clust_7="13000.00000" pt_clust_8="13000.00000" pt_clust_9="28.85950"></scales>
<clustering>
<clus scale="   28.860">  2  9  1 -1</clus>
<clus scale="   85.469">  7  8 -1 -1</clus>
<clus scale="   91.690">  5  6 -1 -1</clus>
<clus scale="   95.863">  2  7  1 -1</clus>
<clus scale="  101.448">  1  5  2 -1</clus>
</clustering>
</event>
<event>
 9    1  0.1175034E-005  0.1252065E+03  0.7546771E-02  0.1235563E+00
          3   -1    0    0  502    0  0.00000000000E+00  0.00000000000E+00  0.13494574276E+03  0.13494574276E+03  0.00000000000E+00 0. -1.
         -3   -1    0    0    0  501 -0.00000000000E+00 -0.00000000000E+00 -0.23225842687E+03  0.23225842687E+03  0.00000000000E+00 0.  1.
         23    2    1    2    0    0 -0.82409616784E+02 -0.18428413777E+02 -0.41274032963E+02  0.13003409407E+03  0.89857489676E+02 0.  0.
         23    2    1    2    0    0  0.63204397787E+02  0.62482906488E+02  0.35983155020E+02  0.13335460670E+03  0.92680926737E+02 0.  0.
        -11    1    3    3    0    0  0.11805301495E+02 -0.24213554341E+02  0.18360589428E+00  0.26938728039E+02  0.00000000000E+00 0.  1.
         11    1    3    3    0    0 -0.94214918278E+02  0.57851405640E+01 -0.41457638857E+02  0.10309536603E+03  0.00000000000E+00 0. -1.
        -13    1    4    4    0    0  0.45422541763E+02  0.34225759748E+02 -0.26320918067E+02  0.62668976842E+02  0.00000000000E+00 0.  1.
         13    1    4    4    0    0  0.17781856024E+02  0.28257146740E+02  0.62304073087E+02  0.70685629860E+02  0.00000000000E+00 0. -1.
         21    1    1    2  502  501  0.19205218996E+02 -0.44054492711E+02 -0.92021806164E+02  0.10381546886E+03  0.00000000000E+00 0.  1.
<scales pt_clust_5="13000.00000" pt_clust_6="13000.00000" pt_clust_7="13000.00000" pt_clust_8="13000.00000" pt_clust_9="48.05870"></scales>
<clustering>
<clus scale="   48.059">  2  9  1 -1</clus>
<clus scale="   89.857">  5  6 -1 -1</clus>
<clus scale="   92.681">  7  8 -1 -1</clus>
<clus scale="  123.131">  2  5  1 -1</clus>
<clus scale="  125.206">  1  5  2 -1</clus>
</clustering>
</event>
<event>
 9    1  0.1175034E-005  0.1108868E+03  0.7546771E-02  0.1259956E+00
         -1   -1    0    0    0  501 -0.00000000000E+00  0.00000000000E+00  0.34060848320E+02  0.34060848320E+02  0.00000000000E+00 0.  1.
          1   -1    0    0  502    0  0.00000000000E+00 -0.00000000000E+00 -0.10487651312E+04  0.10487651312E+04  0.00000000000E+00 0. -1.
         23    2    1    2    0    0  0.82851466874E+02 -0.15317645213E+02 -0.37799414381E+03  0.39793780391E+03  0.91520091849E+02 0.  0.
         23    2    1    2    0    0 -0.52009252616E+02 -0.23744937625E+02 -0.62485723831E+03  0.63372550546E+03  0.88840663989E+02 0.  0.
        -11    1    4    4    0    0 -0.75235979174E+02 -0.43093657550E+01 -0.44363992694E+03  0.44999489772E+03  0.00000000000E+00 0.  1.
         11    1    4    4    0    0  0.23226726559E+02 -0.19435571870E+02 -0.18121731137E+03  0.18373060774E+03  0.00000000000E+00 0. -1.
        -13    1    3    3    0    0  0.64109873747E+02  0.54163547743E+01 -0.35759359085E+03  0.36333536716E+03  0.00000000000E+00 0. -1.
         13    1    3    3    0    0  0.18741593127E+02 -0.20733999988E+02 -0.20400552959E+02  0.34602436756E+02  0.00000000000E+00 0.  1.
         21    1    1    2  502  501 -0.30842214258E+02  0.39062582838E+02 -0.11852900737E+02  0.51162670124E+02  0.00000000000E+00 0.  1.
<scales pt_clust_5="13000.00000" pt_clust_6="13000.00000" pt_clust_7="13000.00000" pt_clust_8="13000.00000" pt_clust_9="49.77075"></scales>
<clustering>
<clus scale="   49.771">  1  9  2 -1</clus>
<clus scale="   88.841">  5  6 -1 -1</clus>
<clus scale="   91.520">  7  8 -1 -1</clus>
<clus scale="  108.686">  2  5  1 -1</clus>
<clus scale="  108.686">  2  5  1 -1</clus>
</clustering>
</event>
<event>
 9    1  0.1175034E-005  0.2249192E+03  0.7546771E-02  0.1130270E+00
         -1   -1    0    0    0  501 -0.00000000000E+00  0.00000000000E+00  0.11779123066E+03  0.11779123066E+03  0.00000000000E+00 0.  1.
          1   -1    0    0  502    0  0.00000000000E+00 -0.00000000000E+00 -0.49259510397E+03  0.49259510397E+03  0.00000000000E+00 0. -1.
         23    2    1    2    0    0  0.38339353940E+02  0.21635997558E+03 -0.19601157341E+03  0.30831179672E+03  0.91400667344E+02 0.  0.
         23    2    1    2    0    0 -0.21307745969E+02 -0.19101736346E+03 -0.15927107216E+03  0.26583364953E+03  0.91425388228E+02 0.  0.
        -11    1    3    3    0    0  0.58621707515E+02  0.11917576171E+03 -0.14522157056E+03  0.19679601451E+03  0.00000000000E+00 0.  1.
         11    1    3    3    0    0 -0.20282353576E+02  0.97184213867E+02 -0.50790002854E+02  0.11151578221E+03  0.00000000000E+00 0. -1.
        -11    1    4    4    0    0 -0.38185469151E+02 -0.43264478120E+02 -0.75897299922E+02  0.95343302107E+02  0.00000000000E+00 0. -1.
         11    1    4    4    0    0  0.16877723182E+02 -0.14775288534E+03 -0.83373772239E+02  0.17049034742E+03  0.00000000000E+00 0.  1.
         21    1    1    2  502  501 -0.17031607971E+02 -0.25342612114E+02 -0.19521227731E+02  0.36240888385E+02  0.00000000000E+00 0.  1.
<scales pt_clust_5="13000.00000" pt_clust_6="13000.00000" pt_clust_7="13000.00000" pt_clust_8="13000.00000" pt_clust_9="30.53398"></scales>
<clustering>
<clus scale="   30.534">  1  9  2 -1</clus>
<clus scale="   91.401">  5  6 -1 -1</clus>
<clus scale="   91.425">  7  8 -1 -1</clus>
<clus scale="  224.909">  1  5  2 -1</clus>
<clus scale="  224.919">  2  5  1 -1</clus>
</clustering>
</event>
<event>
 9    1  0.1175034E-005  0.2988001E+03  0.7546771E-02  0.1085883E+00
          2   -1    0    0  502    0  0.00000000000E+00  0.00000000000E+00  0.80475312401E+03  0.80475312401E+03  0.00000000000E+00 0. -1.
         -2   -1    0    0    0  501 -0.00000000000E+00 -0.00000000000E+00 -0.17686307030E+03  0.17686307030E+03  0.00000000000E+00 0.  1.
         23    2    1    2    0    0 -0.25196708226E+03 -0.10325478821E+03  0.10187628243E+03  0.30491554325E+03  0.91900760397E+02 0.  0.
         23    2    1    2    0    0  0.29172540702E+03  0.25177578718E+02  0.49722481916E+03  0.58447495619E+03  0.92956065157E+02 0.  0.
        -11    1    4    4    0    0  0.17455411733E+03  0.54838505773E+02  0.34063919763E+03  0.38666712371E+03  0.00000000000E+00 0.  1.
         11    1    4    4    0    0  0.11717128968E+03 -0.29660927055E+02  0.15658562153E+03  0.19780783248E+03  0.00000000000E+00 0. -1.
        -13    1    3    3    0    0 -0.14899346278E+03 -0.89034634302E+02  0.10129130552E+03  0.20096304793E+03  0.00000000000E+00 0. -1.
         13    1    3    3    0    0 -0.10297361948E+03 -0.14220153911E+02  0.58497690471E+00  0.10395249532E+03  0.00000000000E+00 0.  1.
         21    1    1    2  502  501 -0.39758324757E+02  0.78077209496E+02  0.28788952118E+02  0.92225694869E+02  0.00000000000E+00 0.  1.
<scales pt_clust_5="13000.00000" pt_clust_6="13000.00000" pt_clust_7="13000.00000" pt_clust_8="13000.00000" pt_clust_9="87.61721"></scales>
<clustering>
<clus scale="   87.617">  2  9  1 -1</clus>
<clus scale="   91.901">  7  8 -1 -1</clus>
<clus scale="   92.956">  5  6 -1 -1</clus>
<clus scale="  298.473">  2  7  1 -1</clus>
<clus scale="  298.800">  1  5  2 -1</clus>
</clustering>
</event>
<event>
 9    1  0.1175034E-005  0.9512846E+02  0.7546771E-02  0.1292937E+00
         -2   -1    0    0    0  501 -0.00000000000E+00  0.00000000000E+00  0.13188404502E+03  0.13188404502E+03  0.00000000000E+00 0.  1.
          2   -1    0    0  502    0  0.00000000000E+00 -0.00000000000E+00 -0.27026907764E+03  0.27026907764E+03  0.00000000000E+00 0. -1.
         23    2    1    2    0    0  0.81100120353E+01  0.56437514818E+01  0.61613294080E+02  0.11076273428E+03  0.91512627941E+02 0.  0.
         23    2    1    2    0    0  0.66479509305E+02  0.19465469733E+02 -0.17090771828E+03  0.20748369507E+03  0.95087359212E+02 0.  0.
        -11    1    3    3    0    0  0.33558975200E+02 -0.59898989868E+01 -0.86184051717E+01  0.35161919942E+02  0.00000000000E+00 0. -1.
         11    1    3    3    0    0 -0.25448963164E+02  0.11633650469E+02  0.70231699252E+02  0.75600814342E+02  0.00000000000E+00 0.  1.
        -11    1    4    4    0    0  0.73767169806E+02 -0.44769616719E+01 -0.16637410703E+03  0.18204939444E+03  0.00000000000E+00 0. -1.
         11    1    4    4    0    0 -0.72876605014E+01  0.23942431405E+02 -0.45336112463E+01  0.25434300622E+02  0.00000000000E+00 0.  1.
         21    1    1    2  502  501 -0.74589521340E+02 -0.25109221215E+02 -0.29090608424E+02  0.83906693310E+02  0.00000000000E+00 0.  1.
<scales pt_clust_5="13000.00000" pt_clust_6="13000.00000" pt_clust_7="13000.00000" pt_clust_8="13000.00000" pt_clust_9="78.70241"></scales>
<clustering>
<clus scale="   78.702">  2  9  1 -1</clus>
<clus scale="   91.513">  5  6 -1 -1</clus>
<clus scale="   91.555">  1  5  2 -1</clus>
<clus scale="   95.087">  7  8 -1 -1</clus>
<clus scale="   78.702">  2  5  1 -1</clus>
</clustering>
</event>
<event>
 9    1  0.1175034E-005  0.1254856E+03  0.7546771E-02  0.1237445E+00
         -1   -1    0    0    0  501 -0.00000000000E+00  0.00000000000E+00  0.38522169696E+03  0.38522169696E+03  0.00000000000E+00 0.  1.
          1   -1    0    0  502    0  0.00000000000E+00 -0.00000000000E+00 -0.83817576729E+02  0.83817576729E+02  0.00000000000E+00 0. -1.
         23    2    1    2    0    0 -0.78755220003E+02 -0.66568023964E+02  0.12227297349E+03  0.18988914947E+03  0.10234022937E+03 0.  0.
         23    2    1    2    0    0  0.39579264457E+01  0.66375942370E+02  0.39364702770E+02  0.12062778864E+03  0.92628573668E+02 0.  0.
        -11    1    4    4    0    0 -0.85500996515E+01  0.48936581500E+02 -0.22948611645E+02  0.54722317105E+02  0.00000000000E+00 0. -1.
         11    1    4    4    0    0  0.12508026097E+02  0.17439360870E+02  0.62313314414E+02  0.65905471531E+02  0.00000000000E+00 0.  1.
        -13    1    3    3    0    0  0.18990509381E+02 -0.39413006580E+02  0.33873239582E+02  0.55330108387E+02  0.00000000000E+00 0.  1.
         13    1    3    3    0    0 -0.97745729385E+02 -0.27155017384E+02  0.88399733910E+02  0.13455904108E+03  0.00000000000E+00 0. -1.
         21    1    1    2  502  501  0.74797293557E+02  0.19208159373E+00  0.13976644397E+03  0.15852233558E+03  0.00000000000E+00 0.  1.
<scales pt_clust_5="13000.00000" pt_clust_6="13000.00000" pt_clust_7="13000.00000" pt_clust_8="13000.00000" pt_clust_9="74.79754"></scales>
<clustering>
<clus scale="   74.798">  1  9  2 -1</clus>
<clus scale="   92.629">  5  6 -1 -1</clus>
<clus scale="  102.340">  7  8 -1 -1</clus>
<clus scale="  117.699">  2  5  1 -1</clus>
<clus scale="  117.699">  2  5  1 -1</clus>
</clustering>
</event>
<event>
 9    1  0.1175034E-005  0.1502589E+03  0.7546771E-02  0.1200479E+00
         -1   -1    0    0    0  501 -0.00000000000E+00  0.00000000000E+00  0.55316720664E+02  0.55316720664E+02  0.00000000000E+00 0.  1.
          1   -1    0    0  502    0  0.00000000000E+00 -0.00000000000E+00 -0.60730609078E+03  0.60730609078E+03  0.00000000000E+00 0. -1.
         23    2    1    2    0    0  0.10367977876E+03 -0.53680188532E+02 -0.21212143947E+03  0.25861143856E+03  0.90847740267E+02 0.  0.
         23    2    1    2    0    0 -0.85250541775E+02  0.87395588938E+02 -0.33076245141E+03  0.36452371972E+03  0.92564027199E+02 0.  0.
        -11    1    3    3    0    0  0.27030878695E+02 -0.25229903979E+02 -0.15380176186E+03  0.15818406497E+03  0.00000000000E+00 0. -1.
         11    1    3    3    0    0  0.76648900061E+02 -0.28450284553E+02 -0.58319677604E+02  0.10042737360E+03  0.00000000000E+00 0.  1.
        -11    1    4    4    0    0  0.77475104288E+01  0.53739812092E+02 -0.11477180712E+03  0.12696676349E+03  0.00000000000E+00 0.  1.
         11    1    4    4    0    0 -0.92998052204E+02  0.33655776846E+02 -0.21599064429E+03  0.23755695623E+03  0.00000000000E+00 0. -1.
         21    1    1    2  502  501 -0.18429236981E+02 -0.33715400406E+02 -0.91054792359E+01  0.39487653164E+02  0.00000000000E+00 0. -1.
<scales pt_clust_5="13000.00000" pt_clust_6="13000.00000" pt_clust_7="13000.00000" pt_clust_8="13000.00000" pt_clust_9="38.42350"></scales>
<clustering>
<clus scale="   38.423">  1  9  2 -1</clus>
<clus scale="   90.848">  5  6 -1 -1</clus>
<clus scale="   92.564">  7  8 -1 -1</clus>
<clus scale="  149.208">  1  5  2 -1</clus>
<clus scale="  150.259">  2  5  1 -1</clus>
</clustering>
</event>
<event>
 9    1  0.1175034E-005  0.1400054E+03  0.7546771E-02  0.1213847E+00
          1   -1    0    0  502    0  0.00000000000E+00  0.00000000000E+00  0.20553761389E+03  0.20553761389E+03  0.00000000000E+00 0. -1.
         -1   -1    0    0    0  501 -0.00000000000E+00 -0.00000000000E+00 -0.22959803334E+03  0.22959803334E+03  0.00000000000E+00 0.  1.
         23    2    1    2    0    0  0.10553476343E+03 -0.30500445078E+02 -0.14932342368E+03  0.20767639587E+03  0.93616970169E+02 0.  0.
         23    2    1    2    0    0 -0.91726020929E+02  0.47943740798E+02  0.14320710780E+03  0.19887707531E+03  0.91277325560E+02 0.  0.
        -13    1    4    4    0    0 -0.49472719369E+02  0.80262041027E+01  0.67710658569E+01  0.50574867740E+02  0.00000000000E+00 0.  1.
         13    1    4    4    0    0 -0.42253301560E+02  0.39917536695E+02  0.13643604194E+03  0.14830220757E+03  0.00000000000E+00 0. -1.
        -13    1    3    3    0    0  0.51506728968E+02  0.28055965015E+02 -0.34910883493E+02  0.68255769633E+02  0.00000000000E+00 0.  1.
         13    1    3    3    0    0  0.54028034458E+02 -0.58556410093E+02 -0.11441254018E+03  0.13942062624E+03  0.00000000000E+00 0. -1.
         21    1    1    2  502  501 -0.13808742498E+02 -0.17443295720E+02 -0.17944103566E+02  0.28582176050E+02  0.00000000000E+00 0. -1.
<scales pt_clust_5="13000.00000" pt_clust_6="13000.00000" pt_clust_7="13000.00000" pt_clust_8="13000.00000" pt_clust_9="22.24747"></scales>
<clustering>
<clus scale="   22.247">  2  9  1 -1</clus>
<clus scale="   91.277">  5  6 -1 -1</clus>
<clus scale="   93.617">  7  8 -1 -1</clus>
<clus scale="  138.452">  1  5  2 -1</clus>
<clus scale="  138.452">  1  5  2 -1</clus>
</clustering>
</event>
<event>
 9    1  0.1175034E-005  0.1384753E+03  0.7546771E-02  0.1216287E+00
          2   -1    0    0  502    0  0.00000000000E+00  0.00000000000E+00  0.27929523583E+03  0.27929523583E+03  0.00000000000E+00 0. -1.
         -2   -1    0    0    0  501 -0.00000000000E+00 -0.00000000000E+00 -0.20289070653E+03  0.20289070653E+03  0.00000000000E+00 0.  1.
         23    2    1    2    0    0  0.11276149897E+03 -0.18727473491E+02  0.30351588676E+02  0.15226191122E+03  0.95898888209E+02 0.  0.
         23    2    1    2    0    0 -0.80703225467E+02  0.53588198022E+02  0.15883172809E+03  0.20760453998E+03  0.92127203394E+02 0.  0.
        -13    1    4    4    0    0 -0.15995130139E+02  0.53436856085E+02  0.29762484400E+02  0.63222996244E+02  0.00000000000E+00 0.  1.
         13    1    4    4    0    0 -0.64708095328E+02  0.15134193720E+00  0.12906924369E+03  0.14438154374E+03  0.00000000000E+00 0. -1.
        -13    1    3    3    0    0  0.39504345856E+00 -0.27272197346E+02 -0.14599471941E+02  0.30936602728E+02  0.00000000000E+00 0. -1.
         13    1    3    3    0    0  0.11236645551E+03  0.85447238547E+01  0.44951060617E+02  0.12132530849E+03  0.00000000000E+00 0.  1.
         21    1    1    2  502  501 -0.32058273504E+02 -0.34860724531E+02 -0.11277878747E+03  0.12231949116E+03  0.00000000000E+00 0.  1.
<scales pt_clust_5="13000.00000" pt_clust_6="13000.00000" pt_clust_7="13000.00000" pt_clust_8="13000.00000" pt_clust_9="47.36035"></scales>
<clustering>
<clus scale="   47.360">  2  9  1 -1</clus>
<clus scale="   92.127">  5  6 -1 -1</clus>
<clus scale="   95.899">  7  8 -1 -1</clus>
<clus scale="  135.891">  1  5  2 -1</clus>
<clus scale="  135.891">  1  5  2 -1</clus>
</clustering>
</event>
<event>
 9    1  0.1175034E-005  0.1611154E+03  0.7546771E-02  0.1187587E+00
          2   -1    0    0  502    0  0.00000000000E+00  0.00000000000E+00  0.74941030551E+03  0.74941030551E+03  0.00000000000E+00 0.  1.
         -2   -1    0    0    0  501 -0.00000000000E+00 -0.00000000000E+00 -0.22450165665E+03  0.22450165665E+03  0.00000000000E+00 0. -1.
         23    2    1    2    0    0 -0.11287377086E+03 -0.47321705329E+02 -0.17113196699E+02  0.15266018643E+03  0.89623875584E+02 0.  0.
         23    2    1    2    0    0  0.12990495486E+03  0.35312205354E+02  0.67113652086E+03  0.69046611636E+03  0.90537169485E+02 0.  0.
        -11    1    4    4    0    0  0.94030575341E+02  0.64890569058E+02  0.43202671561E+03  0.44687763208E+03  0.00000000000E+00 0.  1.
         11    1    4    4    0    0  0.35874379515E+02 -0.29578363703E+02  0.23910980525E+03  0.24358848428E+03  0.00000000000E+00 0. -1.
        -11    1    3    3    0    0 -0.10519349050E+03 -0.14883837663E+01 -0.10681810354E+02  0.10574491383E+03  0.00000000000E+00 0. -1.
         11    1    3    3    0    0 -0.76802803614E+01 -0.45833321563E+02 -0.64313863456E+01  0.46915272590E+02  0.00000000000E+00 0.  1.
         21    1    1    2  502  501 -0.17031183996E+02  0.12009499975E+02 -0.12911467531E+03  0.13078565938E+03  0.00000000000E+00 0. -1.
<scales pt_clust_5="13000.00000" pt_clust_6="13000.00000" pt_clust_7="13000.00000" pt_clust_8="13000.00000" pt_clust_9="20.83961"></scales>
<clustering>
<clus scale="   20.840">  2  9  1 -1</clus>
<clus scale="   89.624">  7  8 -1 -1</clus>
<clus scale="   90.537">  5  6 -1 -1</clus>
<clus scale="  160.604">  2  7  1 -1</clus>
<clus scale="  161.115">  1  5  2 -1</clus>
</clustering>
</event>
<event>
 9    1  0.1175034E-005  0.9634697E+02  0.7546771E-02  0.1289540E+00
         -2   -1    0    0    0  501 -0.00000000000E+00  0.00000000000E+00  0.23171372134E+03  0.23171372134E+03  0.00000000000E+00 0.  1.
          2   -1    0    0  502    0  0.00000000000E+00 -0.00000000000E+00 -0.63446852718E+02  0.63446852718E+02  0.00000000000E+00 0. -1.
         23    2    1    2    0    0 -0.39097857518E+01 -0.37290417974E+02  0.10907446249E+03  0.14634677646E+03  0.90079292377E+02 0.  0.
         23    2    1    2    0    0  0.16634281370E+02  0.17207977497E+02  0.12581360017E+02  0.96489741714E+02  0.92623786523E+02 0.  0.
        -11    1    4    4    0    0 -0.11604950086E+02  0.49152565121E+02 -0.41796629116E+01  0.50676613014E+02  0.00000000000E+00 0.  1.
         11    1    4    4    0    0  0.28239231456E+02 -0.31944587624E+02  0.16761022928E+02  0.45813128700E+02  0.00000000000E+00 0. -1.
        -13    1    3    3    0    0 -0.29602540961E+02 -0.56301411149E+02  0.57920384647E+02  0.86028659680E+02  0.00000000000E+00 0.  1.
         13    1    3    3    0    0  0.25692755210E+02  0.19010993175E+02  0.51154077842E+02  0.60318116778E+02  0.00000000000E+00 0. -1.
         21    1    1    2  502  501 -0.12724495618E+02  0.20082440477E+02  0.46611046115E+02  0.52324055885E+02  0.00000000000E+00 0.  1.
<scales pt_clust_5="13000.00000" pt_clust_6="13000.00000" pt_clust_7="13000.00000" pt_clust_8="13000.00000" pt_clust_9="23.77430"></scales>
<clustering>
<clus scale="   23.774">  1  9  2 -1</clus>
<clus scale="   90.079">  7  8 -1 -1</clus>
<clus scale="   92.624">  5  6 -1 -1</clus>
<clus scale="   93.903">  1  7  2 -1</clus>
<clus scale="   96.347">  2  5  1 -1</clus>
</clustering>
</event>
<event>
 9    1  0.1175034E-005  0.1575295E+03  0.7546771E-02  0.1194300E+00
          1   -1    0    0  502    0  0.00000000000E+00  0.00000000000E+00  0.37617464579E+03  0.37617464579E+03  0.00000000000E+00 0. -1.
         -1   -1    0    0    0  501 -0.00000000000E+00 -0.00000000000E+00 -0.15753197192E+03  0.15753197192E+03  0.00000000000E+00 0.  1.
         23    2    1    2    0    0 -0.14669422043E+03  0.10493038891E+03  0.78710581357E+02  0.21735658780E+03  0.92298157181E+02 0.  0.
         23    2    1    2    0    0  0.80318301119E+02 -0.45995647964E+02  0.17147496752E+03  0.22214801656E+03  0.10667449391E+03 0.  0.
        -11    1    4    4    0    0  0.62281978253E+02 -0.76387107965E+02  0.15370763297E+03  0.18259263816E+03  0.00000000000E+00 0. -1.
         11    1    4    4    0    0  0.18036322866E+02  0.30391460002E+02  0.17767334553E+02  0.39555378404E+02  0.00000000000E+00 0.  1.
        -11    1    3    3    0    0 -0.12785820458E+03  0.73938129983E+02  0.97036725995E+02  0.17672208050E+03  0.00000000000E+00 0.  1.
         11    1    3    3    0    0 -0.18836015846E+02  0.30992258926E+02 -0.18326144638E+02  0.40634507301E+02  0.00000000000E+00 0. -1.
         21    1    1    2  502  501  0.66375919310E+02 -0.58934740946E+02 -0.31542875004E+02  0.94202013344E+02  0.00000000000E+00 0. -1.
<scales pt_clust_5="13000.00000" pt_clust_6="13000.00000" pt_clust_7="13000.00000" pt_clust_8="13000.00000" pt_clust_9="88.76411"></scales>
<clustering>
<clus scale="   88.764">  2  9  1 -1</clus>
<clus scale="   92.298">  7  8 -1 -1</clus>
<clus scale="  106.674">  5  6 -1 -1</clus>
<clus scale="  148.172">  2  7  1 -1</clus>
<clus scale="  157.530">  1  5  2 -1</clus>
</clustering>
</event>
<event>
 9    1  0.1175034E-005  0.1678349E+03  0.7546771E-02  0.1203361E+00
         -2   -1    0    0    0  501 -0.00000000000E+00  0.00000000000E+00  0.38817808418E+03  0.38817808418E+03  0.00000000000E+00 0.  1.
          2   -1    0    0  502    0  0.00000000000E+00 -0.00000000000E+00 -0.11585214636E+03  0.11585214636E+03  0.00000000000E+00 0. -1.
         23    2    1    2    0    0  0.13142064976E+03  0.85416020856E+02  0.18886626972E+03  0.26194304794E+03  0.91522722430E+02 0.  0.
         23    2    1    2    0    0 -0.14601791768E+02 -0.40790721080E+02  0.23005545082E+02  0.10318878825E+03  0.90783124352E+02 0.  0.
        -11    1    4    4    0    0 -0.41853361324E+02 -0.20264998150E+02  0.43260360433E+02  0.63512461682E+02  0.00000000000E+00 0. -1.
         11    1    4    4    0    0  0.27251569556E+02 -0.20525722930E+02 -0.20254815351E+02  0.39676326569E+02  0.00000000000E+00 0.  1.
        -13    1    3    3    0    0  0.10187465051E+03  0.74428414826E+02  0.19255250409E+03  0.23020534351E+03  0.00000000000E+00 0.  1.
         13    1    3    3    0    0  0.29545999251E+02  0.10987606031E+02 -0.36862343737E+01  0.31737704421E+02  0.00000000000E+00 0. -1.
         21    1    1    2  502  501 -0.11681885800E+03 -0.44625299777E+02  0.60454123017E+02  0.13889839435E+03  0.00000000000E+00 0. -1.
<scales pt_clust_5="13000.00000" pt_clust_6="13000.00000" pt_clust_7="13000.00000" pt_clust_8="13000.00000" pt_clust_9="140.68455"></scales>
<clustering>
<clus scale="   90.783">  5  6 -1 -1</clus>
<clus scale="   91.523">  7  8 -1 -1</clus>
<clus scale="  100.592">  2  5  1 -1</clus>
<clus scale="  140.685">  2  9  1 -1</clus>
<clus scale="  100.592">  2  5  1 -1</clus>
</clustering>
</event>
<event>
 9    1  0.1175034E-005  0.1068023E+03  0.7546771E-02  0.1267157E+00
         -3   -1    0    0    0  501 -0.00000000000E+00  0.00000000000E+00  0.21252918753E+03  0.21252918753E+03  0.00000000000E+00 0.  1.
          3   -1    0    0  502    0  0.00000000000E+00 -0.00000000000E+00 -0.21295673179E+03  0.21295673179E+03  0.00000000000E+00 0. -1.
         23    2    1    2    0    0  0.87098107792E+01  0.11775366398E+03  0.10560759580E+03  0.18239730169E+03  0.90410315713E+02 0.  0.
         23    2    1    2    0    0  0.20796537021E+00 -0.49602126598E+02 -0.13443480007E+03  0.16871994501E+03  0.89069019096E+02 0.  0.
        -11    1    4    4    0    0 -0.35449575848E+02  0.58208602414E+01 -0.51427422344E+02  0.62732245383E+02  0.00000000000E+00 0. -1.
         11    1    4    4    0    0  0.35657541219E+02 -0.55422986839E+02 -0.83007377722E+02  0.10598769963E+03  0.00000000000E+00 0.  1.
        -13    1    3    3    0    0 -0.22026215359E+02  0.79158188724E+02  0.10464659653E+03  0.13304917576E+03  0.00000000000E+00 0.  1.
         13    1    3    3    0    0  0.30736026138E+02  0.38595475255E+02  0.96099927135E+00  0.49348125927E+02  0.00000000000E+00 0. -1.
         21    1    1    2  502  501 -0.89177761494E+01 -0.68151537381E+02  0.28399660013E+02  0.74368672623E+02  0.00000000000E+00 0. -1.
<scales pt_clust_5="13000.00000" pt_clust_6="13000.00000" pt_clust_7="13000.00000" pt_clust_8="13000.00000" pt_clust_9="68.73252"></scales>
<clustering>
<clus scale="   68.733">  1  9  2 -1</clus>
<clus scale="   89.069">  5  6 -1 -1</clus>
<clus scale="   90.410">  7  8 -1 -1</clus>
<clus scale="  105.669">  2  5  1 -1</clus>
<clus scale="  105.669">  2  5  1 -1</clus>
</clustering>
</event>
<event>
 9    1  0.1175034E-005  0.1504270E+03  0.7546771E-02  0.1200035E+00
          1   -1    0    0  502    0  0.00000000000E+00  0.00000000000E+00  0.52133189039E+03  0.52133189039E+03  0.00000000000E+00 0. -1.
         -1   -1    0    0    0  501 -0.00000000000E+00 -0.00000000000E+00 -0.82806980669E+02  0.82806980669E+02  0.00000000000E+00 0.  1.
         23    2    1    2    0    0  0.29004908082E+02 -0.13631046363E+03  0.95143060908E+02  0.19144558127E+03  0.90428874592E+02 0.  0.
         23    2    1    2    0    0 -0.29352265183E+02  0.11072354298E+03  0.35564674169E+03  0.38431656055E+03  0.89963077926E+02 0.  0.
        -11    1    3    3    0    0  0.60411975127E+02 -0.88260544172E+02  0.48306068624E+02  0.11735845373E+03  0.00000000000E+00 0. -1.
         11    1    3    3    0    0 -0.31407067045E+02 -0.48049919456E+02  0.46836992284E+02  0.74087127534E+02  0.00000000000E+00 0.  1.
        -13    1    4    4    0    0  0.12565335614E+02  0.75968400835E+02  0.28442835742E+03  0.29466689004E+03  0.00000000000E+00 0. -1.
         13    1    4    4    0    0 -0.41917600797E+02  0.34755142147E+02  0.71218384279E+02  0.89649670504E+02  0.00000000000E+00 0.  1.
         21    1    1    2  502  501  0.34735710103E+00  0.25586920646E+02 -0.12264892885E+02  0.28376729244E+02  0.00000000000E+00 0.  1.
<scales pt_clust_5="13000.00000" pt_clust_6="13000.00000" pt_clust_7="13000.00000" pt_clust_8="13000.00000" pt_clust_9="25.58928"></scales>
<clustering>
<clus scale="   25.589">  2  9  1 -1</clus>
<clus scale="   89.963">  7  8 -1 -1</clus>
<clus scale="   90.429">  5  6 -1 -1</clus>
<clus scale="  150.147">  1  7  2 -1</clus>
<clus scale="  150.147">  1  5  2 -1</clus>
</clustering>
</event>
<event>
 9    1  0.1175034E-005  0.9939257E+02  0.7546771E-02  0.1283341E+00
         -2   -1    0    0    0  501 -0.00000000000E+00  0.00000000000E+00  0.49037692229E+02  0.49037692229E+02  0.00000000000E+00 0.  1.
          2   -1    0    0  502    0  0.00000000000E+00 -0.00000000000E+00 -0.28078181130E+03  0.28078181130E+03  0.00000000000E+00 0. -1.
         23    2    1    2    0    0  0.23309256425E+01 -0.47318907279E+02 -0.44768412184E+02  0.10785114051E+03  0.85925232498E+02 0.  0.
         23    2    1    2    0    0  0.15456854102E+02  0.33822000050E+02 -0.14533688214E+03  0.17472047058E+03  0.89563337951E+02 0.  0.
        -11    1    4    4    0    0  0.19907344683E+02  0.61339858350E+02 -0.74150846398E+02  0.98271199323E+02  0.00000000000E+00 0. -1.
         11    1    4    4    0    0 -0.44504905808E+01 -0.27517858300E+02 -0.71186035741E+02  0.76449271261E+02  0.00000000000E+00 0.  1.
        -13    1    3    3    0    0 -0.28936138279E+02 -0.46148372952E+02 -0.52466886256E+02  0.75629006195E+02  0.00000000000E+00 0.  1.
         13    1    3    3    0    0  0.31267063922E+02 -0.11705343269E+01  0.76984740724E+01  0.32222134317E+02  0.00000000000E+00 0. -1.
         21    1    1    2  502  501 -0.17787779745E+02  0.13496907229E+02 -0.41638824745E+02  0.47247892430E+02  0.00000000000E+00 0.  1.
<scales pt_clust_5="13000.00000" pt_clust_6="13000.00000" pt_clust_7="13000.00000" pt_clust_8="13000.00000" pt_clust_9="22.32872"></scales>
<clustering>
<clus scale="   22.329">  2  9  1 -1</clus>
<clus scale="   85.925">  7  8 -1 -1</clus>
<clus scale="   89.563">  5  6 -1 -1</clus>
<clus scale="   96.127">  1  7  2 -1</clus>
<clus scale="   22.329">  2  5  1 -1</clus>
</clustering>
</event>
<event>
 9    1  0.1175034E-005  0.2192379E+03  0.7546771E-02  0.1134677E+00
          1   -1    0    0  502    0  0.00000000000E+00  0.00000000000E+00  0.11541503174E+04  0.11541503174E+04  0.00000000000E+00 0. -1.
         -1   -1    0    0    0  501 -0.00000000000E+00 -0.00000000000E+00 -0.77371456313E+02  0.77371456313E+02  0.00000000000E+00 0.  1.
         23    2    1    2    0    0  0.97859848701E+02 -0.14239718940E+03  0.27878684479E+03  0.34337415342E+03  0.10163756626E+03 0.  0.
         23    2    1    2    0    0 -0.14500512176E+03  0.14596039615E+03  0.80815025409E+03  0.83978892909E+03  0.99033780382E+02 0.  0.
        -11    1    3    3    0    0  0.79010813631E+02 -0.13532204444E+03  0.16397161362E+03  0.22680708643E+03  0.00000000000E+00 0.  1.
         11    1    3    3    0    0  0.18849035070E+02 -0.70751449669E+01  0.11481523117E+03  0.11656706700E+03  0.00000000000E+00 0. -1.
        -13    1    4    4    0    0 -0.80889970144E+02  0.41688751941E+02  0.50006203515E+03  0.50827470752E+03  0.00000000000E+00 0. -1.
         13    1    4    4    0    0 -0.64115151616E+02  0.10427164421E+03  0.30808821894E+03  0.33151422156E+03  0.00000000000E+00 0.  1.
         21    1    1    2  502  501  0.47145273059E+02 -0.35632067418E+01 -0.10158237836E+02  0.48358691153E+02  0.00000000000E+00 0.  1.
<scales pt_clust_5="13000.00000" pt_clust_6="13000.00000" pt_clust_7="13000.00000" pt_clust_8="13000.00000" pt_clust_9="47.27973"></scales>
<clustering>
<clus scale="   47.280">  2  9  1 -1</clus>
<clus scale="   99.034">  7  8 -1 -1</clus>
<clus scale="  101.638">  5  6 -1 -1</clus>
<clus scale="  218.043">  1  7  2 -1</clus>
<clus scale="  218.043">  1  5  2 -1</clus>
</clustering>
</event>
<event>
 9    1  0.1175034E-005  0.1410675E+03  0.7546771E-02  0.1211953E+00
          1   -1    0    0  502    0  0.00000000000E+00  0.00000000000E+00  0.43281622702E+03  0.43281622702E+03  0.00000000000E+00 0. -1.
         -1   -1    0    0    0  501 -0.00000000000E+00 -0.00000000000E+00 -0.62222523183E+02  0.62222523183E+02  0.00000000000E+00 0.  1.
         23    2    1    2    0    0  0.37476062565E+02 -0.93132146559E+02  0.85895106427E+02  0.16086400319E+03  0.91767130425E+02 0.  0.
         23    2    1    2    0    0 -0.43419379554E+02  0.11428698418E+03  0.25493428569E+03  0.29717793061E+03  0.91523085330E+02 0.  0.
        -11    1    4    4    0    0 -0.29201247500E+01  0.94700678837E+02  0.10877699041E+03  0.14425387116E+03  0.00000000000E+00 0.  1.
         11    1    4    4    0    0 -0.40499254804E+02  0.19586305344E+02  0.14615729528E+03  0.15292405946E+03  0.00000000000E+00 0. -1.
        -13    1    3    3    0    0  0.23828056498E+02 -0.11090602164E+03  0.74605373345E+02  0.13577143899E+03  0.00000000000E+00 0.  1.
         13    1    3    3    0    0  0.13648006068E+02  0.17773875085E+02  0.11289733082E+02  0.25092564202E+02  0.00000000000E+00 0. -1.
         21    1    1    2  502  501  0.59433169890E+01 -0.21154837622E+02  0.29764311716E+02  0.36996816398E+02  0.00000000000E+00 0. -1.
<scales pt_clust_5="13000.00000" pt_clust_6="13000.00000" pt_clust_7="13000.00000" pt_clust_8="13000.00000" pt_clust_9="21.97385"></scales>
<clustering>
<clus scale="   21.974">  1  9  2 -1</clus>
<clus scale="   91.523">  5  6 -1 -1</clus>
<clus scale="   91.767">  7  8 -1 -1</clus>
<clus scale="  140.909">  1  5  2 -1</clus>
<clus scale="   21.974">  1  5  2 -1</clus>
</clustering>
</event>
<event>
 9    1  0.1175034E-005  0.1214013E+03  0.7546771E-02  0.1241003E+00
         -3   -1    0    0    0  501 -0.00000000000E+00  0.00000000000E+00  0.65092460725E+02  0.65092460725E+02  0.00000000000E+00 0.  1.
          3   -1    0    0  502    0  0.00000000000E+00 -0.00000000000E+00 -0.26791796945E+03  0.26791796945E+03  0.00000000000E+00 0. -1.
         23    2    1    2    0    0 -0.28475354456E+02 -0.70817452865E+02 -0.89428248508E+02  0.14888640442E+03  0.91344361335E+02 0.  0.
         23    2    1    2    0    0  0.49031013741E+02  0.67376433507E+02 -0.99399872404E+02  0.15901819758E+03  0.91993632540E+02 0.  0.
        -11    1    3    3    0    0 -0.42467840594E+02  0.42465535007E+01 -0.31967580654E+02  0.53324261966E+02  0.00000000000E+00 0.  1.
         11    1    3    3    0    0  0.13992486137E+02 -0.75064006365E+02 -0.57460667853E+02  0.95562142452E+02  0.00000000000E+00 0. -1.
        -13    1    4    4    0    0  0.15491817937E+02  0.13568787660E+02 -0.93044028492E+02  0.95295853318E+02  0.00000000000E+00 0. -1.
         13    1    4    4    0    0  0.33539195803E+02  0.53807645847E+02 -0.63558439121E+01  0.63722344264E+02  0.00000000000E+00 0.  1.
         21    1    1    2  502  501 -0.20555659284E+02  0.34410193575E+01 -0.13997387815E+02  0.25105828178E+02  0.00000000000E+00 0. -1.
<scales pt_clust_5="13000.00000" pt_clust_6="13000.00000" pt_clust_7="13000.00000" pt_clust_8="13000.00000" pt_clust_9="20.84168"></scales>
<clustering>
<clus scale="   20.842">  1  9  2 -1</clus>
<clus scale="   91.344">  5  6 -1 -1</clus>
<clus scale="   91.994">  7  8 -1 -1</clus>
<clus scale="  120.910">  1  5  2 -1</clus>
<clus scale="  121.401">  2  5  1 -1</clus>
</clustering>
</event>
<event>
 9    1  0.1175034E-005  0.1128025E+03  0.7546771E-02  0.1256932E+00
          2   -1    0    0  502    0  0.00000000000E+00  0.00000000000E+00  0.28806670849E+03  0.28806670849E+03  0.00000000000E+00 0. -1.
         -2   -1    0    0    0  501 -0.00000000000E+00 -0.00000000000E+00 -0.93665792259E+02  0.93665792259E+02  0.00000000000E+00 0.  1.
         23    2    1    2    0    0 -0.10636663430E+02  0.63570982397E+02 -0.18578739890E+02  0.11011713503E+03  0.87328148031E+02 0.  0.
         23    2    1    2    0    0 -0.24209259299E+02 -0.63817358913E+02  0.20690346249E+03  0.23624278932E+03  0.91339307975E+02 0.  0.
        -11    1    3    3    0    0 -0.21948174888E+02 -0.38553040682E+01 -0.33408634354E+02  0.40158717607E+02  0.00000000000E+00 0. -1.
         11    1    3    3    0    0  0.11311511458E+02  0.67426286466E+02  0.14829894465E+02  0.69958417420E+02  0.00000000000E+00 0.  1.
        -13    1    4    4    0    0 -0.22209996691E+02 -0.66302490223E+01  0.17342316913E+01  0.23243315483E+02  0.00000000000E+00 0.  1.
         13    1    4    4    0    0 -0.19992626080E+01 -0.57187109891E+02  0.20516923080E+03  0.21299947384E+03  0.00000000000E+00 0. -1.
         21    1    1    2  502  501  0.34845922729E+02  0.24637651549E+00  0.60761936299E+01  0.35372576401E+02  0.00000000000E+00 0. -1.
<scales pt_clust_5="13000.00000" pt_clust_6="13000.00000" pt_clust_7="13000.00000" pt_clust_8="13000.00000" pt_clust_9="34.84679"></scales>
<clustering>
<clus scale="   34.847">  2  9  1 -1</clus>
<clus scale="   87.328">  5  6 -1 -1</clus>
<clus scale="   91.339">  7  8 -1 -1</clus>
<clus scale="  109.580">  2  5  1 -1</clus>
<clus scale="  112.802">  1  5  2 -1</clus>
</clustering>
</event>
<event>
 9    1  0.1175034E-005  0.1393114E+03  0.7546771E-02  0.1215410E+00
          1   -1    0    0  502    0  0.00000000000E+00  0.00000000000E+00  0.44529663985E+03  0.44529663985E+03  0.00000000000E+00 0. -1.
         -1   -1    0    0    0  501 -0.00000000000E+00 -0.00000000000E+00 -0.33861621187E+03  0.33861621187E+03  0.00000000000E+00 0.  1.
         23    2    1    2    0    0  0.18735745767E+02  0.13086676873E+03 -0.40762976074E+01  0.15948790163E+03  0.89121463398E+02 0.  0.
         23    2    1    2    0    0 -0.96496584124E+02 -0.44896671436E+02  0.33946958943E+03  0.36801282147E+03  0.94162268265E+02 0.  0.
        -11    1    4    4    0    0 -0.29128333954E+02  0.23353945122E+02  0.45841634189E+02  0.59121248438E+02  0.00000000000E+00 0.  1.
         11    1    4    4    0    0 -0.67368250170E+02 -0.68250616557E+02  0.29362795524E+03  0.30889157304E+03  0.00000000000E+00 0. -1.
        -13    1    3    3    0    0  0.36585410372E+02  0.11031656005E+02  0.98379952711E+00  0.38225090553E+02  0.00000000000E+00 0.  1.
         13    1    3    3    0    0 -0.17849664605E+02  0.11983511272E+03 -0.50600971345E+01  0.12126281108E+03  0.00000000000E+00 0. -1.
         21    1    1    2  502  501  0.77760838358E+02 -0.85970097291E+02 -0.22871286385E+03  0.25641212861E+03  0.00000000000E+00 0.  1.
<scales pt_clust_5="13000.00000" pt_clust_6="13000.00000" pt_clust_7="13000.00000" pt_clust_8="13000.00000" pt_clust_9="115.92069"></scales>
<clustering>
<clus scale="   89.121">  7  8 -1 -1</clus>
<clus scale="   94.162">  5  6 -1 -1</clus>
<clus scale="  115.921">  2  9  1 -1</clus>
<clus scale="  135.955">  2  7  1 -1</clus>
<clus scale="  139.311">  1  5  2 -1</clus>
</clustering>
</event>
<event>
 9    1  0.1175034E-005  0.1033505E+03  0.7546771E-02  0.1274814E+00
          2   -1    0    0  502    0  0.00000000000E+00  0.00000000000E+00  0.15594158899E+03  0.15594158899E+03  0.00000000000E+00 0. -1.
         -2   -1    0    0    0  501 -0.00000000000E+00 -0.00000000000E+00 -0.24193082071E+03  0.24193082071E+03  0.00000000000E+00 0.  1.
         23    2    1    2    0    0  0.26298515046E+02  0.46588208420E+02 -0.10157393086E+03  0.15078098454E+03  0.97752589780E+02 0.  0.
         23    2    1    2    0    0 -0.20979201428E+02 -0.22424182828E+02  0.11061149345E+03  0.14889627832E+03  0.94827360749E+02 0.  0.
        -13    1    4    4    0    0  0.26919163478E+02 -0.29899073014E+02  0.85064469118E+02  0.94098670744E+02  0.00000000000E+00 0. -1.
         13    1    4    4    0    0 -0.47898364906E+02  0.74748901864E+01  0.25547024329E+02  0.54797607576E+02  0.00000000000E+00 0.  1.
        -13    1    3    3    0    0  0.40297632115E+02 -0.17138604698E+02 -0.25955835187E+02  0.50905169731E+02  0.00000000000E+00 0. -1.
         13    1    3    3    0    0 -0.13999117069E+02  0.63726813118E+02 -0.75618095678E+02  0.99875814804E+02  0.00000000000E+00 0.  1.
         21    1    1    2  502  501 -0.53193136177E+01 -0.24164025593E+02 -0.95026794296E+02  0.98195146848E+02  0.00000000000E+00 0.  1.
<scales pt_clust_5="13000.00000" pt_clust_6="13000.00000" pt_clust_7="13000.00000" pt_clust_8="13000.00000" pt_clust_9="24.74258"></scales>
<clustering>
<clus scale="   24.743">  2  9  1 -1</clus>
<clus scale="   94.827">  5  6 -1 -1</clus>
<clus scale="   97.753">  7  8 -1 -1</clus>
<clus scale="  100.588">  1  5  2 -1</clus>
<clus scale="  100.588">  1  5  2 -1</clus>
</clustering>
</event>
<event>
 9    1  0.1175034E-005  0.1061053E+03  0.7546771E-02  0.1271444E+00
          1   -1    0    0  502    0  0.00000000000E+00  0.00000000000E+00  0.43686679495E+02  0.43686679495E+02  0.00000000000E+00 0. -1.
         -1   -1    0    0    0  501 -0.00000000000E+00 -0.00000000000E+00 -0.42283315941E+03  0.42283315941E+03  0.00000000000E+00 0.  1.
         23    2    1    2    0    0  0.48090172729E+02  0.54129516701E+01 -0.30636021087E+03  0.32494837467E+03  0.96916988382E+02 0.  0.
         23    2    1    2    0    0 -0.27761671665E+02  0.10398870929E+02 -0.47149392705E+02  0.10523262664E+03  0.89286021002E+02 0.  0.
        -11    1    3    3    0    0 -0.16572970122E+02 -0.25947701431E+02 -0.50125242097E+02  0.58825899428E+02  0.00000000000E+00 0. -1.
         11    1    3    3    0    0  0.64663142851E+02  0.31360653101E+02 -0.25623496877E+03  0.26612247524E+03  0.00000000000E+00 0.  1.
        -13    1    4    4    0    0  0.27403568124E+02 -0.16279847109E+02 -0.23276873284E+02  0.39468997931E+02  0.00000000000E+00 0.  1.
         13    1    4    4    0    0 -0.55165239789E+02  0.26678718039E+02 -0.23872519421E+02  0.65763628707E+02  0.00000000000E+00 0. -1.
         21    1    1    2  502  501 -0.20328501064E+02 -0.15811822599E+02 -0.25636876334E+02  0.36338837593E+02  0.00000000000E+00 0. -1.
<scales pt_clust_5="13000.00000" pt_clust_6="13000.00000" pt_clust_7="13000.00000" pt_clust_8="13000.00000" pt_clust_9="25.75387"></scales>
<clustering>
<clus scale="   25.754">  1  9  2 -1</clus>
<clus scale="   89.286">  7  8 -1 -1</clus>
<clus scale="   96.917">  5  6 -1 -1</clus>
<clus scale="   99.184">  1  7  2 -1</clus>
<clus scale="   25.754">  1  5  2 -1</clus>
</clustering>
</event>
<event>
 9    1  0.1175034E-005  0.1122388E+03  0.7546771E-02  0.1259252E+00
          2   -1    0    0  502    0  0.00000000000E+00  0.00000000000E+00  0.82569875477E+02  0.82569875477E+02  0.00000000000E+00 0. -1.
         -2   -1    0    0    0  501 -0.00000000000E+00 -0.00000000000E+00 -0.20440955168E+03  0.20440955168E+03  0.00000000000E+00 0.  1.
         23    2    1    2    0    0  0.54238306305E+02  0.52806906933E+02 -0.62538528751E+02  0.12912646900E+03  0.83858297911E+02 0.  0.
         23    2    1    2    0    0 -0.31498077181E+02 -0.49991323737E+02 -0.17464661112E+02  0.11015246425E+03  0.91308760134E+02 0.  0.
        -11    1    4    4    0    0  0.23150866963E+02 -0.24439540562E+02  0.19982260996E+02  0.39147727119E+02  0.00000000000E+00 0. -1.
         11    1    4    4    0    0 -0.54648944144E+02 -0.25551783174E+02 -0.37446922108E+02  0.71004737129E+02  0.00000000000E+00 0.  1.
        -11    1    3    3    0    0  0.14083729435E+02  0.17115203617E+02  0.20521388692E+02  0.30206109043E+02  0.00000000000E+00 0. -1.
         11    1    3    3    0    0  0.40154576870E+02  0.35691703316E+02 -0.83059917443E+02  0.98920359961E+02  0.00000000000E+00 0.  1.
         21    1    1    2  502  501 -0.22740229124E+02 -0.28155831964E+01 -0.41836486340E+02  0.47700493903E+02  0.00000000000E+00 0.  1.
<scales pt_clust_5="13000.00000" pt_clust_6="13000.00000" pt_clust_7="13000.00000" pt_clust_8="13000.00000" pt_clust_9="22.91387"></scales>
<clustering>
<clus scale="   22.914">  2  9  1 -1</clus>
<clus scale="   83.858">  7  8 -1 -1</clus>
<clus scale="   91.309">  5  6 -1 -1</clus>
<clus scale="  106.266">  2  7  1 -1</clus>
<clus scale="  112.239">  1  5  2 -1</clus>
</clustering>
</event>
<event>
 9    1  0.1175034E-005  0.9594258E+02  0.7546771E-02  0.1289486E+00
         -1   -1    0    0    0  501 -0.00000000000E+00  0.00000000000E+00  0.71168727392E+02  0.71168727392E+02  0.00000000000E+00 0.  1.
          1   -1    0    0  502    0  0.00000000000E+00 -0.00000000000E+00 -0.42981516677E+03  0.42981516677E+03  0.00000000000E+00 0. -1.
         23    2    1    2    0    0  0.49981124114E+02  0.20584737518E+02 -0.33539169406E+02  0.11088077313E+03  0.90817541146E+02 0.  0.
         23    2    1    2    0    0  0.13294451750E+02 -0.32726784797E+02 -0.30887476617E+03  0.32365974670E+03  0.90023472284E+02 0.  0.
        -13    1    4    4    0    0 -0.33491757510E+02 -0.87821505055E+01 -0.59801186464E+02  0.69101417432E+02  0.00000000000E+00 0.  1.
         13    1    4    4    0    0  0.46786209260E+02 -0.23944634292E+02 -0.24907357971E+03  0.25455832926E+03  0.00000000000E+00 0. -1.
        -13    1    3    3    0    0  0.28380132944E+02  0.36691017578E+02  0.20332432752E+02  0.50646525433E+02  0.00000000000E+00 0.  1.
         13    1    3    3    0    0  0.21600991170E+02 -0.16106280060E+02 -0.53871602158E+02  0.60234247700E+02  0.00000000000E+00 0. -1.
         21    1    1    2  502  501 -0.63275575864E+02  0.12142047279E+02 -0.16232503796E+02  0.66443374331E+02  0.00000000000E+00 0.  1.
<scales pt_clust_5="13000.00000" pt_clust_6="13000.00000" pt_clust_7="13000.00000" pt_clust_8="13000.00000" pt_clust_9="64.43002"></scales>
<clustering>
<clus scale="   64.430">  1  9  2 -1</clus>
<clus scale="   90.023">  5  6 -1 -1</clus>
<clus scale="   90.818">  7  8 -1 -1</clus>
<clus scale="   95.191">  2  5  1 -1</clus>
<clus scale="   95.191">  2  5  1 -1</clus>
</clustering>
</event>
<event>
 9    1  0.1175034E-005  0.9750295E+02  0.7546771E-02  0.1286880E+00
          1   -1    0    0  502    0  0.00000000000E+00  0.00000000000E+00  0.27065647632E+03  0.27065647632E+03  0.00000000000E+00 0. -1.
         -1   -1    0    0    0  501 -0.00000000000E+00 -0.00000000000E+00 -0.10094588635E+03  0.10094588635E+03  0.00000000000E+00 0.  1.
         23    2    1    2    0    0 -0.22493619767E+02  0.14221001081E+02  0.20888787649E+02  0.95990423059E+02  0.89831064046E+02 0.  0.
         23    2    1    2    0    0 -0.40756111067E+02 -0.23689333155E+02  0.17751089856E+03  0.20551741768E+03  0.92222799598E+02 0.  0.
        -11    1    4    4    0    0 -0.13745640208E+02 -0.40083407031E+02  0.16688706709E+03  0.17218279619E+03  0.00000000000E+00 0. -1.
         11    1    4    4    0    0 -0.27010470859E+02  0.16394073876E+02  0.10623831475E+02  0.33334621484E+02  0.00000000000E+00 0.  1.
        -11    1    3    3    0    0 -0.50542646833E+02  0.57224915874E+01 -0.11666252390E+02  0.52186276967E+02  0.00000000000E+00 0.  1.
         11    1    3    3    0    0  0.28049027066E+02  0.84985094935E+01  0.32555040039E+02  0.43804146092E+02  0.00000000000E+00 0. -1.
         21    1    1    2  502  501  0.63249730834E+02  0.94683320740E+01 -0.28689096239E+02  0.70094521939E+02  0.00000000000E+00 0.  1.
<scales pt_clust_5="13000.00000" pt_clust_6="13000.00000" pt_clust_7="13000.00000" pt_clust_8="13000.00000" pt_clust_9="63.95450"></scales>
<clustering>
<clus scale="   63.954">  2  9  1 -1</clus>
<clus scale="   89.831">  7  8 -1 -1</clus>
<clus scale="   92.223">  5  6 -1 -1</clus>
<clus scale="   95.244">  2  7  1 -1</clus>
<clus scale="   97.503">  1  5  2 -1</clus>
</clustering>
</event>
<event>
 9    1  0.1175034E-005  0.1120288E+03  0.7546771E-02  0.1257804E+00
         -3   -1    0    0    0  501 -0.00000000000E+00  0.00000000000E+00  0.77612455681E+02  0.77612455681E+02  0.00000000000E+00 0.  1.
          3   -1    0    0  502    0  0.00000000000E+00 -0.00000000000E+00 -0.55437973771E+03  0.55437973771E+03  0.00000000000E+00 0. -1.
         23    2    1    2    0    0 -0.46934065135E+02  0.30213517276E+02 -0.17876898388E+03  0.20841439545E+03  0.91446965694E+02 0.  0.
         23    2    1    2    0    0  0.30825450105E+01 -0.83846860124E+02 -0.32652537444E+03  0.34865593622E+03  0.88895127383E+02 0.  0.
        -11    1    4    4    0    0 -0.40854971259E+02 -0.54044492677E+02 -0.20871311051E+03  0.21943358532E+03  0.00000000000E+00 0.  1.
         11    1    4    4    0    0  0.43937516269E+02 -0.29802367447E+02 -0.11781226392E+03  0.12922235090E+03  0.00000000000E+00 0. -1.
        -13    1    3    3    0    0 -0.74195673036E+02  0.29554039896E+02 -0.13275359396E+03  0.15492564629E+03  0.00000000000E+00 0. -1.
         13    1    3    3    0    0  0.27261607901E+02  0.65947738063E+00 -0.46015389928E+02  0.53488749153E+02  0.00000000000E+00 0.  1.
         21    1    1    2  502  501  0.43851520124E+02  0.53633342848E+02  0.28527076294E+02  0.74921861724E+02  0.00000000000E+00 0. -1.
<scales pt_clust_5="13000.00000" pt_clust_6="13000.00000" pt_clust_7="13000.00000" pt_clust_8="13000.00000" pt_clust_9="69.27836"></scales>
<clustering>
<clus scale="   69.278">  1  9  2 -1</clus>
<clus scale="   88.895">  5  6 -1 -1</clus>
<clus scale="   91.447">  7  8 -1 -1</clus>
<clus scale="  109.956">  2  5  1 -1</clus>
<clus scale="  109.956">  2  5  1 -1</clus>
</clustering>
</event>
<event>
 9    1  0.1175034E-005  0.1073488E+03  0.7546771E-02  0.1266514E+00
          1   -1    0    0  502    0  0.00000000000E+00  0.00000000000E+00  0.15489757396E+03  0.15489757396E+03  0.00000000000E+00 0. -1.
         -1   -1    0    0    0  501 -0.00000000000E+00 -0.00000000000E+00 -0.11502429857E+03  0.11502429857E+03  0.00000000000E+00 0.  1.
         23    2    1    2    0    0  0.13762388039E+02 -0.62220878370E+02 -0.13836777825E+02  0.11234980536E+03  0.91488695013E+02 0.  0.
         23    2    1    2    0    0 -0.32246430336E+02  0.37157751096E+02  0.65235881450E+02  0.12436566892E+03  0.93758032407E+02 0.  0.
        -11    1    3    3    0    0 -0.26690785162E+02 -0.65613011609E+02 -0.10643648582E+02  0.71629271671E+02  0.00000000000E+00 0. -1.
         11    1    3    3    0    0  0.40453173201E+02  0.33921332381E+01 -0.31931292434E+01  0.40720533694E+02  0.00000000000E+00 0.  1.
        -11    1    4    4    0    0 -0.14218296943E+02 -0.29084723151E+02  0.39444594580E+02  0.51028983238E+02  0.00000000000E+00 0. -1.
         11    1    4    4    0    0 -0.18028133394E+02  0.66242474248E+02  0.25791286870E+02  0.73336685680E+02  0.00000000000E+00 0.  1.
         21    1    1    2  502  501  0.18484042298E+02  0.25063127274E+02 -0.11525828235E+02  0.33206398253E+02  0.00000000000E+00 0.  1.
<scales pt_clust_5="13000.00000" pt_clust_6="13000.00000" pt_clust_7="13000.00000" pt_clust_8="13000.00000" pt_clust_9="31.14194"></scales>
<clustering>
<clus scale="   31.142">  2  9  1 -1</clus>
<clus scale="   91.489">  5  6 -1 -1</clus>
<clus scale="   93.758">  7  8 -1 -1</clus>
<clus scale="  105.373">  2  5  1 -1</clus>
<clus scale="  107.349">  1  5  2 -1</clus>
</clustering>
</event>
<event>
 9    1  0.1175034E-005  0.1067924E+03  0.7546771E-02  0.1267317E+00
          1   -1    0    0  502    0  0.00000000000E+00  0.00000000000E+00  0.23142011490E+03  0.23142011490E+03  0.00000000000E+00 0. -1.
         -1   -1    0    0    0  501 -0.00000000000E+00 -0.00000000000E+00 -0.24355842962E+03  0.24355842962E+03  0.00000000000E+00 0.  1.
         23    2    1    2    0    0  0.31345183277E+02 -0.15000504395E+00 -0.15924379339E+03  0.18615151055E+03  0.91166090906E+02 0.  0.
         23    2    1    2    0    0 -0.52836703384E+02 -0.23140320111E+02  0.20033783205E+03  0.22687537436E+03  0.89498586022E+02 0.  0.
        -11    1    4    4    0    0  0.17147876455E+02 -0.28823947905E+02  0.42620876169E+02  0.54234755694E+02  0.00000000000E+00 0.  1.
         11    1    4    4    0    0 -0.69984579839E+02  0.56836277930E+01  0.15771695588E+03  0.17264061867E+03  0.00000000000E+00 0. -1.
        -13    1    3    3    0    0  0.56857168463E+02  0.19914610449E+01 -0.14729177676E+03  0.15789734331E+03  0.00000000000E+00 0.  1.
         13    1    3    3    0    0 -0.25511985186E+02 -0.21414660888E+01 -0.11952016633E+02  0.28254167245E+02  0.00000000000E+00 0. -1.
         21    1    1    2  502  501  0.21491520107E+02  0.23290325155E+02 -0.53232353381E+02  0.61951659613E+02  0.00000000000E+00 0. -1.
<scales pt_clust_5="13000.00000" pt_clust_6="13000.00000" pt_clust_7="13000.00000" pt_clust_8="13000.00000" pt_clust_9="31.69108"></scales>
<clustering>
<clus scale="   31.691">  2  9  1 -1</clus>
<clus scale="   89.499">  5  6 -1 -1</clus>
<clus scale="   91.166">  7  8 -1 -1</clus>
<clus scale="  105.372">  1  5  2 -1</clus>
<clus scale="  105.372">  1  5  2 -1</clus>
</clustering>
</event>
<event>
 9    1  0.1175034E-005  0.1175184E+03  0.7546771E-02  0.1251685E+00
          1   -1    0    0  502    0  0.00000000000E+00  0.00000000000E+00  0.97591216639E+02  0.97591216639E+02  0.00000000000E+00 0. -1.
         -1   -1    0    0    0  501 -0.00000000000E+00 -0.00000000000E+00 -0.22919204664E+03  0.22919204664E+03  0.00000000000E+00 0.  1.
         23    2    1    2    0    0 -0.69569056458E+01  0.80813389332E+02 -0.91148634297E+02  0.15887397836E+03  0.10175296082E+03 0.  0.
         23    2    1    2    0    0  0.16891346414E+02 -0.48372152798E+02  0.13190323555E+02  0.10443766280E+03  0.90044755684E+02 0.  0.
        -11    1    4    4    0    0 -0.21897670467E+02 -0.58636425759E+02  0.13628830811E+01  0.62606675746E+02  0.00000000000E+00 0. -1.
         11    1    4    4    0    0  0.38789016881E+02  0.10264272961E+02  0.11827440474E+02  0.41830987057E+02  0.00000000000E+00 0.  1.
        -13    1    3    3    0    0 -0.37635783251E+02  0.37358466255E+02  0.35719266644E+00  0.53030507903E+02  0.00000000000E+00 0. -1.
         13    1    3    3    0    0  0.30678877605E+02  0.43454923078E+02 -0.91505826963E+02  0.10584347046E+03  0.00000000000E+00 0.  1.
         21    1    1    2  502  501 -0.99344407682E+01 -0.32441236535E+02 -0.53642519260E+02  0.63471622114E+02  0.00000000000E+00 0.  1.
<scales pt_clust_5="13000.00000" pt_clust_6="13000.00000" pt_clust_7="13000.00000" pt_clust_8="13000.00000" pt_clust_9="33.92826"></scales>
<clustering>
<clus scale="   33.928">  2  9  1 -1</clus>
<clus scale="   90.045">  5  6 -1 -1</clus>
<clus scale="  101.753">  7  8 -1 -1</clus>
<clus scale="  107.541">  1  5  2 -1</clus>
<clus scale="  107.541">  1  5  2 -1</clus>
</clustering>
</event>
<event>
 9    1  0.1175034E-005  0.1049466E+03  0.7546771E-02  0.1273350E+00
         -1   -1    0    0    0  501 -0.00000000000E+00  0.00000000000E+00  0.56424050263E+02  0.56424050263E+02  0.00000000000E+00 0.  1.
          1   -1    0    0  502    0  0.00000000000E+00 -0.00000000000E+00 -0.49647286144E+03  0.49647286144E+03  0.00000000000E+00 0. -1.
         23    2    1    2    0    0 -0.75629703016E+01  0.36703875084E+02 -0.21936417824E+02  0.99877343460E+02  0.89943895534E+02 0.  0.
         23    2    1    2    0    0 -0.38522118409E+02 -0.62489536738E+02 -0.30129434367E+03  0.32481975358E+03  0.96647270928E+02 0.  0.
        -11    1    4    4    0    0 -0.10641965712E+02 -0.17368577833E+02 -0.15604995652E+01  0.20429245925E+02  0.00000000000E+00 0.  1.
         11    1    4    4    0    0 -0.27880152697E+02 -0.45120958905E+02 -0.29973384410E+03  0.30439050765E+03  0.00000000000E+00 0. -1.
        -13    1    3    3    0    0  0.23027582946E+01 -0.29018069445E+02  0.21506540611E+01  0.29188634140E+02  0.00000000000E+00 0. -1.
         13    1    3    3    0    0 -0.98657285962E+01  0.65721944529E+02 -0.24087071885E+02  0.70688709320E+02  0.00000000000E+00 0.  1.
         21    1    1    2  502  501  0.46085088711E+02  0.25785661654E+02 -0.11681804968E+03  0.12819981467E+03  0.00000000000E+00 0. -1.
<scales pt_clust_5="13000.00000" pt_clust_6="13000.00000" pt_clust_7="13000.00000" pt_clust_8="13000.00000" pt_clust_9="52.80848"></scales>
<clustering>
<clus scale="   52.808">  2  9  1 -1</clus>
<clus scale="   89.944">  7  8 -1 -1</clus>
<clus scale="   96.647">  5  6 -1 -1</clus>
<clus scale="   98.808">  1  7  2 -1</clus>
<clus scale="   52.808">  2  5  1 -1</clus>
</clustering>
</event>
<event>
 9    1  0.1175034E-005  0.1247677E+03  0.7546771E-02  0.1235872E+00
         -1   -1    0    0    0  501 -0.00000000000E+00  0.00000000000E+00  0.11577737373E+03  0.11577737373E+03  0.00000000000E+00 0.  1.
          1   -1    0    0  502    0  0.00000000000E+00 -0.00000000000E+00 -0.15950113541E+03  0.15950113541E+03  0.00000000000E+00 0. -1.
         23    2    1    2    0    0 -0.72333544605E+02  0.54303628179E+02 -0.19408085951E+02  0.12891826636E+03  0.89789865194E+02 0.  0.
         23    2    1    2    0    0  0.73968967925E+02 -0.33344895399E+02 -0.27173928833E+02  0.12514438315E+03  0.91320337056E+02 0.  0.
        -11    1    3    3    0    0 -0.41275555159E+02  0.67410839619E+02  0.15325469279E+02  0.80515605695E+02  0.00000000000E+00 0.  1.
         11    1    3    3    0    0 -0.31057989446E+02 -0.13107211440E+02 -0.34733555230E+02  0.48402660661E+02  0.00000000000E+00 0. -1.
        -13    1    4    4    0    0  0.48095649655E+02  0.19757001400E+02  0.13138585051E+02  0.53629777523E+02  0.00000000000E+00 0.  1.
         13    1    4    4    0    0  0.25873318270E+02 -0.53101896799E+02 -0.40312513883E+02  0.71514605624E+02  0.00000000000E+00 0. -1.
         21    1    1    2  502  501 -0.16354233197E+01 -0.20958732780E+02  0.28582530991E+01  0.21215859632E+02  0.00000000000E+00 0.  1.
<scales pt_clust_5="13000.00000" pt_clust_6="13000.00000" pt_clust_7="13000.00000" pt_clust_8="13000.00000" pt_clust_9="21.02244"></scales>
<clustering>
<clus scale="   21.022">  1  9  2 -1</clus>
<clus scale="   89.790">  5  6 -1 -1</clus>
<clus scale="   91.320">  7  8 -1 -1</clus>
<clus scale="  123.652">  1  5  2 -1</clus>
<clus scale="  124.768">  2  5  1 -1</clus>
</clustering>
</event>
<event>
 9    1  0.1175034E-005  0.1103736E+03  0.7546771E-02  0.1260352E+00
         -1   -1    0    0    0  501 -0.00000000000E+00  0.00000000000E+00  0.40262657822E+02  0.40262657822E+02  0.00000000000E+00 0.  1.
          1   -1    0    0  502    0  0.00000000000E+00 -0.00000000000E+00 -0.55019359141E+03  0.55019359141E+03  0.00000000000E+00 0. -1.
         23    2    1    2    0    0 -0.30404976644E+02  0.70599048472E+02 -0.15260192929E+03  0.19403759331E+03  0.91948629927E+02 0.  0.
         23    2    1    2    0    0  0.45877240867E+02 -0.34414030193E+02 -0.33365521601E+03  0.35049268549E+03  0.90720850451E+02 0.  0.
        -11    1    3    3    0    0 -0.36952830668E+02  0.30714192449E+02 -0.14572284222E+02  0.50211799207E+02  0.00000000000E+00 0.  1.
         11    1    3    3    0    0  0.65478540238E+01  0.39884856023E+02 -0.13802964507E+03  0.14382579411E+03  0.00000000000E+00 0. -1.
        -13    1    4    4    0    0  0.71330359403E+02 -0.29065540020E+02 -0.19977541805E+03  0.21410988638E+03  0.00000000000E+00 0. -1.
         13    1    4    4    0    0 -0.25453118537E+02 -0.53484901736E+01 -0.13387979797E+03  0.13638279911E+03  0.00000000000E+00 0.  1.
         21    1    1    2  502  501 -0.15472264223E+02 -0.36185018279E+02 -0.23673788286E+02  0.45925970429E+02  0.00000000000E+00 0. -1.
<scales pt_clust_5="13000.00000" pt_clust_6="13000.00000" pt_clust_7="13000.00000" pt_clust_8="13000.00000" pt_clust_9="39.35412"></scales>
<clustering>
<clus scale="   39.354">  1  9  2 -1</clus>
<clus scale="   90.721">  7  8 -1 -1</clus>
<clus scale="   91.949">  5  6 -1 -1</clus>
<clus scale="  109.353">  2  7  1 -1</clus>
<clus scale="  109.353">  2  5  1 -1</clus>
</clustering>
</event>
<event>
 9    1  0.1175034E-005  0.9981483E+02  0.7546771E-02  0.1280752E+00
         -1   -1    0    0    0  501 -0.00000000000E+00  0.00000000000E+00  0.65280421451E+02  0.65280421451E+02  0.00000000000E+00 0.  1.
          1   -1    0    0  502    0  0.00000000000E+00 -0.00000000000E+00 -0.34441381770E+03  0.34441381770E+03  0.00000000000E+00 0. -1.
         23    2    1    2    0    0 -0.15781987167E+02 -0.37869030695E+02 -0.66090957241E+01  0.99695953522E+02  0.90622670440E+02 0.  0.
         23    2    1    2    0    0 -0.13258695292E+02  0.49027724444E+02 -0.14319603415E+03  0.17698069969E+03  0.90760966850E+02 0.  0.
        -11    1    3    3    0    0  0.34667152535E+02  0.86665995051E+00 -0.97221208660E+01  0.36015027398E+02  0.00000000000E+00 0. -1.
         11    1    3    3    0    0 -0.50449139702E+02 -0.38735690646E+02  0.31130251419E+01  0.63680926124E+02  0.00000000000E+00 0.  1.
        -13    1    4    4    0    0 -0.14631371723E+02 -0.25029226493E+02 -0.30131004952E+02  0.41814072712E+02  0.00000000000E+00 0.  1.
         13    1    4    4    0    0  0.13726764308E+01  0.74056950937E+02 -0.11306502920E+03  0.13516662698E+03  0.00000000000E+00 0. -1.
         21    1    1    2  502  501  0.29040682459E+02 -0.11158693749E+02 -0.12932826638E+03  0.13301758594E+03  0.00000000000E+00 0. -1.
<scales pt_clust_5="13000.00000" pt_clust_6="13000.00000" pt_clust_7="13000.00000" pt_clust_8="13000.00000" pt_clust_9="31.11073"></scales>
<clustering>
<clus scale="   31.111">  2  9  1 -1</clus>
<clus scale="   90.623">  5  6 -1 -1</clus>
<clus scale="   90.761">  7  8 -1 -1</clus>
<clus scale="   99.689">  1  5  2 -1</clus>
<clus scale="   31.111">  2  5  1 -1</clus>
</clustering>
</event>
<event>
 9    1  0.1175034E-005  0.1092605E+03  0.7546771E-02  0.1263380E+00
          1   -1    0    0  502    0  0.00000000000E+00  0.00000000000E+00  0.71037885687E+02  0.71037885687E+02  0.00000000000E+00 0. -1.
         -1   -1    0    0    0  501 -0.00000000000E+00 -0.00000000000E+00 -0.46219021536E+03  0.46219021536E+03  0.00000000000E+00 0.  1.
         23    2    1    2    0    0  0.75452887978E+01 -0.16455186930E+02 -0.29629834300E+03  0.30969353960E+03  0.88259140320E+02 0.  0.
         23    2    1    2    0    0 -0.57922934322E+02  0.34387200767E+02  0.82260631430E+00  0.11392856373E+03  0.91877609105E+02 0.  0.
        -13    1    4    4    0    0 -0.30533250565E+02 -0.41684012781E+01 -0.40660743830E+02  0.51019124336E+02  0.00000000000E+00 0.  1.
         13    1    4    4    0    0 -0.27389683758E+02  0.38555602045E+02  0.41483350144E+02  0.62909439392E+02  0.00000000000E+00 0. -1.
        -13    1    3    3    0    0 -0.26411137212E+02  0.11463779762E+02 -0.37971313165E+02  0.47652775772E+02  0.00000000000E+00 0. -1.
         13    1    3    3    0    0  0.33956426009E+02 -0.27918966691E+02 -0.25832702983E+03  0.26204076383E+03  0.00000000000E+00 0.  1.
         21    1    1    2  502  501  0.50377645525E+02 -0.17932013837E+02 -0.95676592994E+02  0.10960599772E+03  0.00000000000E+00 0.  1.
<scales pt_clust_5="13000.00000" pt_clust_6="13000.00000" pt_clust_7="13000.00000" pt_clust_8="13000.00000" pt_clust_9="53.47396"></scales>
<clustering>
<clus scale="   53.474">  2  9  1 -1</clus>
<clus scale="   88.259">  7  8 -1 -1</clus>
<clus scale="   91.878">  5  6 -1 -1</clus>
<clus scale="  106.236">  2  7  1 -1</clus>
<clus scale="  109.261">  1  5  2 -1</clus>
</clustering>
</event>
<event>
 9    1  0.1175034E-005  0.2067429E+03  0.7546771E-02  0.1144423E+00
          2   -1    0    0  502    0  0.00000000000E+00  0.00000000000E+00  0.49111999422E+03  0.49111999422E+03  0.00000000000E+00 0. -1.
         -2   -1    0    0    0  501 -0.00000000000E+00 -0.00000000000E+00 -0.16859485224E+03  0.16859485224E+03  0.00000000000E+00 0.  1.
         23    2    1    2    0    0  0.14404541677E+03 -0.76650749054E+02  0.21659706819E+02  0.18774424867E+03  0.90301387518E+02 0.  0.
         23    2    1    2    0    0 -0.20744056616E+03 -0.34058525335E+02  0.23355304442E+03  0.32772619981E+03  0.93090632443E+02 0.  0.
        -11    1    4    4    0    0 -0.37378377119E+02  0.19727071633E+02  0.13298195929E+02  0.44307363340E+02  0.00000000000E+00 0.  1.
         11    1    4    4    0    0 -0.17006218904E+03 -0.53785596968E+02  0.22025484850E+03  0.28341883647E+03  0.00000000000E+00 0. -1.
        -13    1    3    3    0    0  0.15246311593E+03 -0.57387663990E+02  0.29020852197E+02  0.16547070907E+03  0.00000000000E+00 0.  1.
         13    1    3    3    0    0 -0.84176991594E+01 -0.19263085064E+02 -0.73611453777E+01  0.22273539606E+02  0.00000000000E+00 0. -1.
         21    1    1    2  502  501  0.63395149389E+02  0.11070927439E+03  0.67312390736E+02  0.14424439798E+03  0.00000000000E+00 0.  1.
<scales pt_clust_5="13000.00000" pt_clust_6="13000.00000" pt_clust_7="13000.00000" pt_clust_8="13000.00000" pt_clust_9="127.57542"></scales>
<clustering>
<clus scale="   90.301">  7  8 -1 -1</clus>
<clus scale="   93.091">  5  6 -1 -1</clus>
<clus scale="  127.575">  2  9  1 -1</clus>
<clus scale="  205.502">  2  7  1 -1</clus>
<clus scale="  206.743">  1  5  2 -1</clus>
</clustering>
</event>
<event>
 9    1  0.1175034E-005  0.1301628E+03  0.7546771E-02  0.1227819E+00
         -1   -1    0    0    0  501 -0.00000000000E+00  0.00000000000E+00  0.93507891162E+02  0.93507891162E+02  0.00000000000E+00 0.  1.
          1   -1    0    0  502    0  0.00000000000E+00 -0.00000000000E+00 -0.45814248151E+03  0.45814248151E+03  0.00000000000E+00 0. -1.
         23    2    1    2    0    0 -0.62797914615E+02  0.10318570786E+03 -0.67600737613E+02  0.16396211369E+03  0.87879728119E+02 0.  0.
         23    2    1    2    0    0  0.79197127829E+02 -0.42483814828E+02 -0.29877490970E+03  0.32478607069E+03  0.90235721690E+02 0.  0.
        -11    1    3    3    0    0  0.19062399808E+02  0.43816148809E+02 -0.27849334562E+02  0.55306558548E+02  0.00000000000E+00 0. -1.
         11    1    3    3    0    0 -0.81860314423E+02  0.59369559052E+02 -0.39751403051E+02  0.10865555515E+03  0.00000000000E+00 0.  1.
        -11    1    4    4    0    0  0.58635633817E+02  0.97324872443E+01 -0.84677574435E+02  0.10345603159E+03  0.00000000000E+00 0.  1.
         11    1    4    4    0    0  0.20561494012E+02 -0.52216302073E+02 -0.21409733527E+03  0.22133003910E+03  0.00000000000E+00 0. -1.
         21    1    1    2  502  501 -0.16399213215E+02 -0.60701893033E+02  0.17410569682E+01  0.62902188286E+02  0.00000000000E+00 0. -1.
<scales pt_clust_5="13000.00000" pt_clust_6="13000.00000" pt_clust_7="13000.00000" pt_clust_8="13000.00000" pt_clust_9="62.87809"></scales>
<clustering>
<clus scale="   62.878">  1  9  2 -1</clus>
<clus scale="   87.880">  5  6 -1 -1</clus>
<clus scale="   90.236">  7  8 -1 -1</clus>
<clus scale="  128.541">  1  5  2 -1</clus>
<clus scale="  130.163">  2  5  1 -1</clus>
</clustering>
</event>
<event>
 9    1  0.1175034E-005  0.9609851E+02  0.7546771E-02  0.1289162E+00
         -2   -1    0    0    0  501 -0.00000000000E+00  0.00000000000E+00  0.13544336280E+03  0.13544336280E+03  0.00000000000E+00 0.  1.
          2   -1    0    0  502    0  0.00000000000E+00 -0.00000000000E+00 -0.21212088802E+03  0.21212088802E+03  0.00000000000E+00 0. -1.
         23    2    1    2    0    0 -0.68195511103E+01 -0.12878682281E+02 -0.37757877977E+02  0.98741599763E+02  0.90065972708E+02 0.  0.
         23    2    1    2    0    0 -0.16039818095E+02  0.40579739880E+02 -0.12202075567E+03  0.15829258106E+03  0.90903714722E+02 0.  0.
        -13    1    4    4    0    0  0.23251656592E+02  0.19238271927E+02 -0.20360547624E+01  0.30247250454E+02  0.00000000000E+00 0.  1.
         13    1    4    4    0    0 -0.39291474687E+02  0.21341467953E+02 -0.11998470091E+03  0.12804533060E+03  0.00000000000E+00 0. -1.
        -13    1    3    3    0    0  0.18860091895E+01 -0.47595746022E+02 -0.40939062507E+02  0.62808589453E+02  0.00000000000E+00 0. -1.
         13    1    3    3    0    0 -0.87055602998E+01  0.34717063741E+02  0.31811845306E+01  0.35933010310E+02  0.00000000000E+00 0.  1.
         21    1    1    2  502  501  0.22859369205E+02 -0.27701057599E+02  0.83101108423E+02  0.90530069997E+02  0.00000000000E+00 0.  1.
<scales pt_clust_5="13000.00000" pt_clust_6="13000.00000" pt_clust_7="13000.00000" pt_clust_8="13000.00000" pt_clust_9="35.91517"></scales>
<clustering>
<clus scale="   35.915">  1  9  2 -1</clus>
<clus scale="   90.066">  7  8 -1 -1</clus>
<clus scale="   90.904">  5  6 -1 -1</clus>
<clus scale="   95.306">  1  7  2 -1</clus>
<clus scale="   96.099">  2  5  1 -1</clus>
</clustering>
</event>
<event>
 9    1  0.1175034E-005  0.1644340E+03  0.7546771E-02  0.1184094E+00
         -1   -1    0    0    0  501 -0.00000000000E+00  0.00000000000E+00  0.36256393409E+03  0.36256393409E+03  0.00000000000E+00 0.  1.
          1   -1    0    0  502    0  0.00000000000E+00 -0.00000000000E+00 -0.89990601626E+02  0.89990601626E+02  0.00000000000E+00 0. -1.
         23    2    1    2    0    0 -0.12394670761E+03 -0.11608494462E+02  0.12380031836E+03  0.19856722593E+03  0.92762497364E+02 0.  0.
         23    2    1    2    0    0  0.14615959906E+03  0.32816877195E+02  0.12788705457E+03  0.21684661310E+03  0.90707105888E+02 0.  0.
        -11    1    4    4    0    0  0.11380025854E+03 -0.14257945342E+02  0.10437167720E+03  0.15507170874E+03  0.00000000000E+00 0.  1.
         11    1    4    4    0    0  0.32359340519E+02  0.47074822537E+02  0.23515377372E+02  0.61774904360E+02  0.00000000000E+00 0. -1.
        -11    1    3    3    0    0 -0.71540118655E+02 -0.34785903054E+02  0.11611564228E+03  0.14075116345E+03  0.00000000000E+00 0.  1.
         11    1    3    3    0    0 -0.52406588953E+02  0.23177408592E+02  0.76846760758E+01  0.57816062484E+02  0.00000000000E+00 0. -1.
         21    1    1    2  502  501 -0.22212891451E+02 -0.21208382733E+02  0.20885959532E+02  0.37140696686E+02  0.00000000000E+00 0. -1.
<scales pt_clust_5="13000.00000" pt_clust_6="13000.00000" pt_clust_7="13000.00000" pt_clust_8="13000.00000" pt_clust_9="30.71169"></scales>
<clustering>
<clus scale="   30.712">  2  9  1 -1</clus>
<clus scale="   90.707">  5  6 -1 -1</clus>
<clus scale="   92.762">  7  8 -1 -1</clus>
<clus scale="  163.283">  2  5  1 -1</clus>
<clus scale="   30.712">  2  5  1 -1</clus>
</clustering>
</event>
<event>
 9    1  0.1175034E-005  0.1291131E+03  0.7546771E-02  0.1234356E+00
         -2   -1    0    0    0  501 -0.00000000000E+00  0.00000000000E+00  0.45780307620E+02  0.45780307620E+02  0.00000000000E+00 0.  1.
          2   -1    0    0  502    0  0.00000000000E+00 -0.00000000000E+00 -0.50357120526E+03  0.50357120526E+03  0.00000000000E+00 0. -1.
         23    2    1    2    0    0  0.53426733290E+01 -0.69380456248E+02 -0.10752096579E+03  0.15724115737E+03  0.91224073680E+02 0.  0.
         23    2    1    2    0    0 -0.89035943838E+01  0.10050318870E+03 -0.33590536659E+03  0.35764812446E+03  0.69997147782E+02 0.  0.
        -11    1    3    3    0    0 -0.35690875163E+02 -0.55075991618E+02 -0.87546874854E+02  0.10941507537E+03  0.00000000000E+00 0.  1.
         11    1    3    3    0    0  0.41033548492E+02 -0.14304464630E+02 -0.19974090937E+02  0.47826081995E+02  0.00000000000E+00 0. -1.
        -13    1    4    4    0    0 -0.87974213215E+00  0.40269607447E+02 -0.44701245395E+02  0.60171559478E+02  0.00000000000E+00 0.  1.
         13    1    4    4    0    0 -0.80238522516E+01  0.60233581249E+02 -0.29120412119E+03  0.29747656498E+03  0.00000000000E+00 0. -1.
         21    1    1    2  502  501  0.35609210547E+01 -0.31122732448E+02 -0.14364565262E+02  0.34462231050E+02  0.00000000000E+00 0.  1.
<scales pt_clust_5="13000.00000" pt_clust_6="13000.00000" pt_clust_7="13000.00000" pt_clust_8="13000.00000" pt_clust_9="31.32578"></scales>
<clustering>
<clus scale="   31.326">  1  9  2 -1</clus>
<clus scale="   69.997">  7  8 -1 -1</clus>
<clus scale="   91.224">  5  6 -1 -1</clus>
<clus scale="  115.100">  2  7  1 -1</clus>
<clus scale="  115.100">  2  5  1 -1</clus>
</clustering>
</event>
<event>
 9    1  0.1175034E-005  0.9571922E+02  0.7546771E-02  0.1291457E+00
         -2   -1    0    0    0  501 -0.00000000000E+00  0.00000000000E+00  0.15905171345E+03  0.15905171345E+03  0.00000000000E+00 0.  1.
          2   -1    0    0  502    0  0.00000000000E+00 -0.00000000000E+00 -0.17299840099E+03  0.17299840099E+03  0.00000000000E+00 0. -1.
         23    2    1    2    0    0 -0.12051350408E+02 -0.61525773749E+01  0.44212247460E+02  0.10213414508E+03  0.91069048044E+02 0.  0.
         23    2    1    2    0    0  0.33137269630E+02 -0.18252477174E+01 -0.12682214419E+03  0.15764634934E+03  0.87562006799E+02 0.  0.
        -13    1    4    4    0    0  0.26061457852E+02  0.40576871295E+02 -0.84665549807E+02  0.97436837970E+02  0.00000000000E+00 0. -1.
         13    1    4    4    0    0  0.70758117784E+01 -0.42402119013E+02 -0.42156594382E+02  0.60209511366E+02  0.00000000000E+00 0.  1.
        -13    1    3    3    0    0 -0.47886216804E+02  0.68421049802E+01  0.41815040571E+02  0.63940611338E+02  0.00000000000E+00 0.  1.
         13    1    3    3    0    0  0.35834866396E+02 -0.12994682355E+02  0.23972068890E+01  0.38193533746E+02  0.00000000000E+00 0. -1.
         21    1    1    2  502  501 -0.21085919223E+02  0.79778250923E+01  0.68663209186E+02  0.72269620024E+02  0.00000000000E+00 0.  1.
<scales pt_clust_5="13000.00000" pt_clust_6="13000.00000" pt_clust_7="13000.00000" pt_clust_8="13000.00000" pt_clust_9="22.54466"></scales>
<clustering>
<clus scale="   22.545">  1  9  2 -1</clus>
<clus scale="   87.562">  5  6 -1 -1</clus>
<clus scale="   91.069">  7  8 -1 -1</clus>
<clus scale="   92.389">  2  5  1 -1</clus>
<clus scale="   92.389">  2  5  1 -1</clus>
</clustering>
</event>
<event>
 9    1  0.1175034E-005  0.9829807E+02  0.7546771E-02  0.1284146E+00
         -1   -1    0    0    0  501 -0.00000000000E+00  0.00000000000E+00  0.44990601824E+02  0.44990601824E+02  0.00000000000E+00 0.  1.
          1   -1    0    0  502    0  0.00000000000E+00 -0.00000000000E+00 -0.38768713804E+03  0.38768713804E+03  0.00000000000E+00 0. -1.
         23    2    1    2    0    0  0.77542154135E+01 -0.34778734735E+02 -0.72587749607E+02  0.12205914346E+03  0.91431749750E+02 0.  0.
         23    2    1    2    0    0  0.20148132359E+02  0.31706962684E+02 -0.26378216823E+03  0.28184355697E+03  0.91888408439E+02 0.  0.
        -13    1    3    3    0    0 -0.26450062174E+02 -0.50720909883E+02 -0.28133166270E+02  0.63747090387E+02  0.00000000000E+00 0.  1.
         13    1    3    3    0    0  0.34204277587E+02  0.15942175149E+02 -0.44454583337E+02  0.58312053071E+02  0.00000000000E+00 0. -1.
        -13    1    4    4    0    0 -0.71088827874E+01  0.56137630968E+02 -0.20438661935E+03  0.21207512819E+03  0.00000000000E+00 0.  1.
         13    1    4    4    0    0  0.27257015146E+02 -0.24430668284E+02 -0.59395548880E+02  0.69768428779E+02  0.00000000000E+00 0. -1.
         21    1    1    2  502  501 -0.27902347773E+02  0.30717720507E+01 -0.63266183779E+01  0.28775039441E+02  0.00000000000E+00 0. -1.
<scales pt_clust_5="13000.00000" pt_clust_6="13000.00000" pt_clust_7="13000.00000" pt_clust_8="13000.00000" pt_clust_9="28.07092"></scales>
<clustering>
<clus scale="   28.071">  1  9  2 -1</clus>
<clus scale="   91.432">  5  6 -1 -1</clus>
<clus scale="   91.888">  7  8 -1 -1</clus>
<clus scale="   97.871">  1  5  2 -1</clus>
<clus scale="   98.298">  2  5  1 -1</clus>
</clustering>
</event>
<event>
 9    1  0.1175034E-005  0.9992973E+02  0.7546771E-02  0.1285948E+00
         -3   -1    0    0    0  501 -0.00000000000E+00  0.00000000000E+00  0.19471780167E+02  0.19471780167E+02  0.00000000000E+00 0.  1.
          3   -1    0    0  502    0  0.00000000000E+00 -0.00000000000E+00 -0.69675528750E+03  0.69675528750E+03  0.00000000000E+00 0. -1.
         23    2    1    2    0    0  0.23448789583E+02  0.12883362297E+01 -0.18874669550E+03  0.21012075960E+03  0.89296769307E+02 0.  0.
         23    2    1    2    0    0  0.77956334668E+00 -0.12562456285E+02 -0.43386691194E+03  0.44525471135E+03  0.99261461191E+02 0.  0.
        -11    1    3    3    0    0  0.51682098919E+02  0.10240583578E+02 -0.69284831742E+02  0.87041925589E+02  0.00000000000E+00 0.  1.
         11    1    3    3    0    0 -0.28233309335E+02 -0.89522473487E+01 -0.11946186376E+03  0.12307883401E+03  0.00000000000E+00 0. -1.
        -11    1    4    4    0    0 -0.37867496070E+02 -0.33626383130E+02 -0.30251225938E+03  0.30672193918E+03  0.00000000000E+00 0. -1.
         11    1    4    4    0    0  0.38647059416E+02  0.21063926844E+02 -0.13135465256E+03  0.13853277217E+03  0.00000000000E+00 0.  1.
         21    1    1    2  502  501 -0.24228352930E+02  0.11274120056E+02 -0.54669899899E+02  0.60851596722E+02  0.00000000000E+00 0.  1.
<scales pt_clust_5="13000.00000" pt_clust_6="13000.00000" pt_clust_7="13000.00000" pt_clust_8="13000.00000" pt_clust_9="26.72300"></scales>
<clustering>
<clus scale="   26.723">  1  9  2 -1</clus>
<clus scale="   89.297">  5  6 -1 -1</clus>
<clus scale="   90.039">  1  5  2 -1</clus>
<clus scale="   99.261">  7  8 -1 -1</clus>
<clus scale="   99.930">  2  5  1 -1</clus>
</clustering>
</event>
<event>
 9    1  0.1175034E-005  0.1318898E+03  0.7546771E-02  0.1234171E+00
         -2   -1    0    0    0  501 -0.00000000000E+00  0.00000000000E+00  0.12932269931E+03  0.12932269931E+03  0.00000000000E+00 0.  1.
          2   -1    0    0  502    0  0.00000000000E+00 -0.00000000000E+00 -0.14108467592E+03  0.14108467592E+03  0.00000000000E+00 0. -1.
         23    2    1    2    0    0  0.48849521849E+02  0.38870636396E+01 -0.15853750433E+01  0.12723187371E+03  0.11740549913E+03 0.  0.
         23    2    1    2    0    0 -0.65126075956E+02 -0.24345612332E+02 -0.19234111840E+02  0.11550752507E+03  0.90210435546E+02 0.  0.
        -11    1    3    3    0    0  0.74463786440E+02 -0.20356296904E+01  0.34899577623E+02  0.82261654479E+02  0.00000000000E+00 0. -1.
         11    1    3    3    0    0 -0.25614264591E+02  0.59226933300E+01 -0.36484952667E+02  0.44970219233E+02  0.00000000000E+00 0.  1.
        -11    1    4    4    0    0 -0.20418922584E+02  0.49005280715E+00 -0.51250302525E+02  0.55170336778E+02  0.00000000000E+00 0. -1.
         11    1    4    4    0    0 -0.44707153372E+02 -0.24835665139E+02  0.32016190686E+02  0.60337188297E+02  0.00000000000E+00 0.  1.
         21    1    1    2  502  501  0.16276554106E+02  0.20458548692E+02  0.90575102731E+01  0.27667976444E+02  0.00000000000E+00 0. -1.
<scales pt_clust_5="13000.00000" pt_clust_6="13000.00000" pt_clust_7="13000.00000" pt_clust_8="13000.00000" pt_clust_9="26.14342"></scales>
<clustering>
<clus scale="   26.143">  1  9  2 -1</clus>
<clus scale="   90.210">  7  8 -1 -1</clus>
<clus scale="  108.392">  2  7  1 -1</clus>
<clus scale="  117.405">  5  6 -1 -1</clus>
<clus scale="  108.392">  2  5  1 -1</clus>
</clustering>
</event>
<event>
 9    1  0.1175034E-005  0.1051183E+03  0.7546771E-02  0.1276178E+00
         -2   -1    0    0    0  501 -0.00000000000E+00  0.00000000000E+00  0.86106408980E+02  0.86106408980E+02  0.00000000000E+00 0.  1.
          2   -1    0    0  502    0  0.00000000000E+00 -0.00000000000E+00 -0.17621656586E+03  0.17621656586E+03  0.00000000000E+00 0. -1.
         23    2    1    2    0    0 -0.10039529735E+01  0.72456844966E+01 -0.79451416089E+01  0.91909144119E+02  0.91272436321E+02 0.  0.
         23    2    1    2    0    0  0.20268011662E+02 -0.15945980477E+02 -0.97345489582E+02  0.14438988198E+03  0.10347573187E+03 0.  0.
        -13    1    3    3    0    0  0.26212899562E+02 -0.27261525767E+02  0.16900019086E+02  0.41423634989E+02  0.00000000000E+00 0. -1.
         13    1    3    3    0    0 -0.27216852536E+02  0.34507210264E+02 -0.24845160695E+02  0.50485509130E+02  0.00000000000E+00 0.  1.
        -13    1    4    4    0    0 -0.78708429196E+01  0.36290066769E+02 -0.69608015837E+02  0.78893567438E+02  0.00000000000E+00 0. -1.
         13    1    4    4    0    0  0.28138854581E+02 -0.52236047246E+02 -0.27737473745E+02  0.65496314543E+02  0.00000000000E+00 0.  1.
         21    1    1    2  502  501 -0.19264058688E+02  0.87002959808E+01  0.15180474315E+02  0.26023948735E+02  0.00000000000E+00 0.  1.
<scales pt_clust_5="13000.00000" pt_clust_6="13000.00000" pt_clust_7="13000.00000" pt_clust_8="13000.00000" pt_clust_9="21.13762"></scales>
<clustering>
<clus scale="   21.138">  1  9  2 -1</clus>
<clus scale="   91.272">  5  6 -1 -1</clus>
<clus scale="   93.130">  1  5  2 -1</clus>
<clus scale="  103.476">  7  8 -1 -1</clus>
<clus scale="  105.118">  2  5  1 -1</clus>
</clustering>
</event>
<event>
 9    1  0.1175034E-005  0.1263957E+03  0.7546771E-02  0.1238008E+00
         -2   -1    0    0    0  501 -0.00000000000E+00  0.00000000000E+00  0.34697891458E+03  0.34697891458E+03  0.00000000000E+00 0.  1.
          2   -1    0    0  502    0  0.00000000000E+00 -0.00000000000E+00 -0.19176664157E+03  0.19176664157E+03  0.00000000000E+00 0. -1.
         23    2    1    2    0    0  0.48914539865E+01 -0.52367281963E+02  0.29224859277E+03  0.31030935757E+03  0.90091058799E+02 0.  0.
         23    2    1    2    0    0 -0.18517002816E+02  0.68505045134E+02 -0.15516668899E+03  0.20060109001E+03  0.10549064101E+03 0.  0.
        -11    1    3    3    0    0  0.27764282287E+02 -0.64731836814E+02  0.25719562361E+03  0.26666581121E+03  0.00000000000E+00 0.  1.
         11    1    3    3    0    0 -0.22872828300E+02  0.12364554851E+02  0.35052969165E+02  0.43643546354E+02  0.00000000000E+00 0. -1.
        -11    1    4    4    0    0 -0.30959716908E+02  0.87686926494E+02 -0.15103448252E+03  0.17736661484E+03  0.00000000000E+00 0. -1.
         11    1    4    4    0    0  0.12442714093E+02 -0.19181881359E+02 -0.41322064700E+01  0.23234475178E+02  0.00000000000E+00 0.  1.
         21    1    1    2  502  501  0.13625548829E+02 -0.16137763172E+02  0.18130369227E+02  0.27835108575E+02  0.00000000000E+00 0. -1.
<scales pt_clust_5="13000.00000" pt_clust_6="13000.00000" pt_clust_7="13000.00000" pt_clust_8="13000.00000" pt_clust_9="21.12068"></scales>
<clustering>
<clus scale="   21.121">  1  9  2 -1</clus>
<clus scale="   90.091">  5  6 -1 -1</clus>
<clus scale="  105.491">  7  8 -1 -1</clus>
<clus scale="  113.860">  1  5  2 -1</clus>
<clus scale="  126.396">  2  5  1 -1</clus>
</clustering>
</event>
<event>
 9    1  0.1175034E-005  0.1491883E+03  0.7546771E-02  0.1201688E+00
          1   -1    0    0  502    0  0.00000000000E+00  0.00000000000E+00  0.31510979699E+03  0.31510979699E+03  0.00000000000E+00 0. -1.
         -1   -1    0    0    0  501 -0.00000000000E+00 -0.00000000000E+00 -0.47921142402E+03  0.47921142402E+03  0.00000000000E+00 0.  1.
         23    2    1    2    0    0  0.53453761787E+02  0.92603558297E+02 -0.49140633470E+02  0.14994892807E+03  0.92936298144E+02 0.  0.
         23    2    1    2    0    0 -0.22727975140E+01 -0.12134816072E+03  0.24022023645E+03  0.28437305764E+03  0.91824464013E+02 0.  0.
        -11    1    3    3    0    0  0.58574970829E+02  0.53053704096E+02  0.88982601570E+01  0.79529250969E+02  0.00000000000E+00 0. -1.
         11    1    3    3    0    0 -0.51212090415E+01  0.39549854200E+02 -0.58038893628E+02  0.70419677100E+02  0.00000000000E+00 0.  1.
        -13    1    4    4    0    0 -0.42472881291E+02 -0.82812282848E+02  0.11982563378E+03  0.15172344034E+03  0.00000000000E+00 0. -1.
         13    1    4    4    0    0  0.40200083777E+02 -0.38535877870E+02  0.12039460267E+03  0.13264961730E+03  0.00000000000E+00 0.  1.
         21    1    1    2  502  501 -0.51180964273E+02  0.28744602421E+02 -0.35518123001E+03  0.35999923531E+03  0.00000000000E+00 0.  1.
<scales pt_clust_5="13000.00000" pt_clust_6="13000.00000" pt_clust_7="13000.00000" pt_clust_8="13000.00000" pt_clust_9="58.70045"></scales>
<clustering>
<clus scale="   58.700">  2  9  1 -1</clus>
<clus scale="   91.824">  7  8 -1 -1</clus>
<clus scale="   92.936">  5  6 -1 -1</clus>
<clus scale="  148.498">  1  7  2 -1</clus>
<clus scale="  148.498">  1  5  2 -1</clus>
</clustering>
</event>
<event>
 9    1  0.1175034E-005  0.1011070E+03  0.7546771E-02  0.1278436E+00
          2   -1    0    0  502    0  0.00000000000E+00  0.00000000000E+00  0.50842562741E+03  0.50842562741E+03  0.00000000000E+00 0. -1.
         -2   -1    0    0    0  501 -0.00000000000E+00 -0.00000000000E+00 -0.27535463865E+02  0.27535463865E+02  0.00000000000E+00 0.  1.
         23    2    1    2    0    0 -0.43613913019E+02  0.36526497831E+02  0.21475843381E+03  0.24027251874E+03  0.91505955634E+02 0.  0.
         23    2    1    2    0    0  0.33351132929E+02 -0.64857635372E+01  0.21006242892E+03  0.23125615161E+03  0.90547338001E+02 0.  0.
        -11    1    4    4    0    0  0.61562785410E+02 -0.13753575155E+02  0.10754656222E+03  0.12468119515E+03  0.00000000000E+00 0.  1.
         11    1    4    4    0    0 -0.28211652482E+02  0.72678116177E+01  0.10251586670E+03  0.10657495647E+03  0.00000000000E+00 0. -1.
        -13    1    3    3    0    0  0.90929822190E+01  0.50095837560E+02  0.78713494350E+02  0.93744810306E+02  0.00000000000E+00 0.  1.
         13    1    3    3    0    0 -0.52706895238E+02 -0.13569339729E+02  0.13604493946E+03  0.14652770843E+03  0.00000000000E+00 0. -1.
         21    1    1    2  502  501  0.10262780090E+02 -0.30040734293E+02  0.56069300822E+02  0.64432420929E+02  0.00000000000E+00 0.  1.
<scales pt_clust_5="13000.00000" pt_clust_6="13000.00000" pt_clust_7="13000.00000" pt_clust_8="13000.00000" pt_clust_9="31.74540"></scales>
<clustering>
<clus scale="   31.745">  2  9  1 -1</clus>
<clus scale="   90.547">  5  6 -1 -1</clus>
<clus scale="   91.506">  7  8 -1 -1</clus>
<clus scale="  100.240">  1  5  2 -1</clus>
<clus scale="  100.240">  1  5  2 -1</clus>
</clustering>
</event>
<event>
 9    1  0.1175034E-005  0.3182911E+03  0.7546771E-02  0.1076453E+00
          2   -1    0    0  502    0  0.00000000000E+00  0.00000000000E+00  0.18611119238E+04  0.18611119238E+04  0.00000000000E+00 0. -1.
         -2   -1    0    0    0  501 -0.00000000000E+00 -0.00000000000E+00 -0.66106438209E+02  0.66106438209E+02  0.00000000000E+00 0.  1.
         23    2    1    2    0    0 -0.19285399082E+03  0.24225865046E+03  0.80145623910E+03  0.86387626617E+03  0.89823073677E+02 0.  0.
         23    2    1    2    0    0  0.22153690556E+03 -0.20682373467E+03  0.94605310299E+03  0.99750725321E+03  0.90275072934E+02 0.  0.
        -13    1    3    3    0    0 -0.16311315575E+03  0.22346786662E+03  0.61836151166E+03  0.67743246755E+03  0.00000000000E+00 0.  1.
         13    1    3    3    0    0 -0.29740835068E+02  0.18790783843E+02  0.18309472743E+03  0.18644379862E+03  0.00000000000E+00 0. -1.
        -13    1    4    4    0    0  0.14737688538E+03 -0.80434604347E+02  0.55776395209E+03  0.58248630728E+03  0.00000000000E+00 0.  1.
         13    1    4    4    0    0  0.74160020186E+02 -0.12638913032E+03  0.38828915090E+03  0.41502094594E+03  0.00000000000E+00 0. -1.
         21    1    1    2  502  501 -0.28682914748E+02 -0.35434915791E+02  0.47496143506E+02  0.65834842625E+02  0.00000000000E+00 0. -1.
<scales pt_clust_5="13000.00000" pt_clust_6="13000.00000" pt_clust_7="13000.00000" pt_clust_8="13000.00000" pt_clust_9="45.58885"></scales>
<clustering>
<clus scale="   45.589">  2  9  1 -1</clus>
<clus scale="   89.823">  5  6 -1 -1</clus>
<clus scale="   90.275">  7  8 -1 -1</clus>
<clus scale="  318.163">  2  5  1 -1</clus>
<clus scale="  318.291">  1  5  2 -1</clus>
</clustering>
</event>
<event>
 9    1  0.1175034E-005  0.1198363E+03  0.7546771E-02  0.1243718E+00
         -1   -1    0    0    0  501 -0.00000000000E+00  0.00000000000E+00  0.32675479389E+03  0.32675479389E+03  0.00000000000E+00 0.  1.
          1   -1    0    0  502    0  0.00000000000E+00 -0.00000000000E+00 -0.86604466361E+02  0.86604466361E+02  0.00000000000E+00 0. -1.
         23    2    1    2    0    0  0.10797332135E+03  0.14852426947E+02  0.55716873379E+02  0.15326068949E+03  0.92226006384E+02 0.  0.
         23    2    1    2    0    0 -0.46226274546E+02  0.21794353674E+02  0.72698242568E+02  0.12728124574E+03  0.91124194012E+02 0.  0.
        -11    1    4    4    0    0  0.21914995892E+02  0.20116372335E+02  0.44476387811E+02  0.53507798998E+02  0.00000000000E+00 0.  1.
         11    1    4    4    0    0 -0.68141270439E+02  0.16779813388E+01  0.28221854757E+02  0.73773446743E+02  0.00000000000E+00 0. -1.
        -13    1    3    3    0    0  0.94024026560E+02 -0.20102570182E+02  0.62967937748E+02  0.11493298953E+03  0.00000000000E+00 0.  1.
         13    1    3    3    0    0  0.13949294790E+02  0.34954997129E+02 -0.72510643688E+01  0.38327699956E+02  0.00000000000E+00 0. -1.
         21    1    1    2  502  501 -0.61747046804E+02 -0.36646780621E+02  0.11173521158E+03  0.13281732502E+03  0.00000000000E+00 0. -1.
<scales pt_clust_5="13000.00000" pt_clust_6="13000.00000" pt_clust_7="13000.00000" pt_clust_8="13000.00000" pt_clust_9="71.80309"></scales>
<clustering>
<clus scale="   71.803">  1  9  2 -1</clus>
<clus scale="   91.124">  5  6 -1 -1</clus>
<clus scale="   92.226">  7  8 -1 -1</clus>
<clus scale="  118.990">  2  5  1 -1</clus>
<clus scale="  118.990">  2  5  1 -1</clus>
</clustering>
</event>
<event>
 9    1  0.1175034E-005  0.9359404E+02  0.7546771E-02  0.1296587E+00
          1   -1    0    0  502    0  0.00000000000E+00  0.00000000000E+00  0.94832426785E+03  0.94832426785E+03  0.00000000000E+00 0. -1.
         -1   -1    0    0    0  501 -0.00000000000E+00 -0.00000000000E+00 -0.14620606305E+02  0.14620606305E+02  0.00000000000E+00 0.  1.
         23    2    1    2    0    0 -0.33648204573E+02  0.13929796976E+02  0.37333281937E+03  0.38622506465E+03  0.92011768957E+02 0.  0.
         23    2    1    2    0    0  0.60415336608E+01  0.13234953954E+02  0.46964989902E+03  0.47807731614E+03  0.88177255682E+02 0.  0.
        -11    1    3    3    0    0 -0.40769162293E+02  0.48630159940E+02  0.23233445351E+03  0.24084500272E+03  0.00000000000E+00 0. -1.
         11    1    3    3    0    0  0.71209577202E+01 -0.34700362964E+02  0.14099836586E+03  0.14538006192E+03  0.00000000000E+00 0.  1.
        -13    1    4    4    0    0  0.44467998211E+02  0.21689361697E+02  0.28754755424E+03  0.29177290352E+03  0.00000000000E+00 0.  1.
         13    1    4    4    0    0 -0.38426464550E+02 -0.84544077429E+01  0.18210234477E+03  0.18630441262E+03  0.00000000000E+00 0. -1.
         21    1    1    2  502  501  0.27606670912E+02 -0.27164750930E+02  0.90720943160E+02  0.98642493378E+02  0.00000000000E+00 0. -1.
<scales pt_clust_5="13000.00000" pt_clust_6="13000.00000" pt_clust_7="13000.00000" pt_clust_8="13000.00000" pt_clust_9="38.73050"></scales>
<clustering>
<clus scale="   38.731">  2  9  1 -1</clus>
<clus scale="   88.177">  7  8 -1 -1</clus>
<clus scale="   89.827">  1  7  2 -1</clus>
<clus scale="   92.012">  5  6 -1 -1</clus>
<clus scale="   89.827">  1  5  2 -1</clus>
</clustering>
</event>
<event>
 9    1  0.1175034E-005  0.1441946E+03  0.7546771E-02  0.1212067E+00
         -1   -1    0    0    0  501 -0.00000000000E+00  0.00000000000E+00  0.77258013326E+03  0.77258013326E+03  0.00000000000E+00 0.  1.
          1   -1    0    0  502    0  0.00000000000E+00 -0.00000000000E+00 -0.15932053611E+03  0.15932053611E+03  0.00000000000E+00 0. -1.
         23    2    1    2    0    0  0.57362431565E+02 -0.11747633217E+03  0.46012470538E+03  0.48687359473E+03  0.90774531468E+02 0.  0.
         23    2    1    2    0    0  0.47394992419E+02  0.84245871064E+02 -0.95146557718E+02  0.17350900971E+03  0.10820747159E+03 0.  0.
        -11    1    4    4    0    0  0.28338133088E+02  0.64073367765E+02  0.43692622476E+01  0.70196415124E+02  0.00000000000E+00 0.  1.
         11    1    4    4    0    0  0.19056859331E+02  0.20172503299E+02 -0.99515819966E+02  0.10331259459E+03  0.00000000000E+00 0. -1.
        -13    1    3    3    0    0 -0.11558103906E+02 -0.79706927123E+02  0.23727235863E+03  0.25056926421E+03  0.00000000000E+00 0. -1.
         13    1    3    3    0    0  0.68920535471E+02 -0.37769405046E+02  0.22285234676E+03  0.23630433052E+03  0.00000000000E+00 0.  1.
         21    1    1    2  502  501 -0.10475742398E+03  0.33230461104E+02  0.24828144948E+03  0.27151806493E+03  0.00000000000E+00 0.  1.
<scales pt_clust_5="13000.00000" pt_clust_6="13000.00000" pt_clust_7="13000.00000" pt_clust_8="13000.00000" pt_clust_9="109.90169"></scales>
<clustering>
<clus scale="   90.775">  7  8 -1 -1</clus>
<clus scale="  108.207">  5  6 -1 -1</clus>
<clus scale="  109.902">  1  9  2 -1</clus>
<clus scale="  131.618">  1  7  2 -1</clus>
<clus scale="  144.195">  2  5  1 -1</clus>
</clustering>
</event>
<event>
 9    1  0.1175034E-005  0.9397811E+02  0.7546771E-02  0.1293940E+00
          2   -1    0    0  502    0  0.00000000000E+00  0.00000000000E+00  0.74715883663E+02  0.74715883663E+02  0.00000000000E+00 0. -1.
         -2   -1    0    0    0  501 -0.00000000000E+00 -0.00000000000E+00 -0.26642216229E+03  0.26642216229E+03  0.00000000000E+00 0.  1.
         23    2    1    2    0    0 -0.26039433823E+02  0.13291919481E+02 -0.19545677128E+03  0.21742205168E+03  0.90632620396E+02 0.  0.
         23    2    1    2    0    0  0.78139054855E+01  0.92817864594E+01  0.16316206626E+02  0.92098922134E+02  0.89826411376E+02 0.  0.
        -11    1    4    4    0    0 -0.45173056765E+00  0.49463070468E+02  0.11591207012E+02  0.50805073375E+02  0.00000000000E+00 0. -1.
         11    1    4    4    0    0  0.82656360532E+01 -0.40181284009E+02  0.47249996146E+01  0.41293848759E+02  0.00000000000E+00 0.  1.
        -11    1    3    3    0    0 -0.36871781789E+02 -0.28394537316E+02 -0.13785261989E+03  0.14549612659E+03  0.00000000000E+00 0.  1.
         11    1    3    3    0    0  0.10832347966E+02  0.41686456797E+02 -0.57604151388E+02  0.71925925089E+02  0.00000000000E+00 0. -1.
         21    1    1    2  502  501  0.18225528337E+02 -0.22573705941E+02 -0.12565713975E+02  0.31617072141E+02  0.00000000000E+00 0. -1.
<scales pt_clust_5="13000.00000" pt_clust_6="13000.00000" pt_clust_7="13000.00000" pt_clust_8="13000.00000" pt_clust_9="29.01279"></scales>
<clustering>
<clus scale="   29.013">  1  9  2 -1</clus>
<clus scale="   89.826">  5  6 -1 -1</clus>
<clus scale="   90.633">  7  8 -1 -1</clus>
<clus scale="   93.201">  1  5  2 -1</clus>
<clus scale="   29.013">  1  5  2 -1</clus>
</clustering>
</event>
<event>
 9    1  0.1175034E-005  0.1335780E+03  0.7546771E-02  0.1222647E+00
          2   -1    0    0  502    0  0.00000000000E+00  0.00000000000E+00  0.41047046208E+03  0.41047046208E+03  0.00000000000E+00 0. -1.
         -2   -1    0    0    0  501 -0.00000000000E+00 -0.00000000000E+00 -0.98525004716E+02  0.98525004716E+02  0.00000000000E+00 0.  1.
         23    2    1    2    0    0  0.90597285094E+02 -0.32230871416E+02 -0.25496071323E+02  0.13330251302E+03  0.88728874591E+02 0.  0.
         23    2    1    2    0    0 -0.10046547341E+03  0.49719069312E+02  0.30863061798E+03  0.34057477071E+03  0.90404750341E+02 0.  0.
        -13    1    3    3    0    0  0.16014978449E+02 -0.22131011612E+02  0.29410298034E+02  0.40140090185E+02  0.00000000000E+00 0. -1.
         13    1    3    3    0    0  0.74582306646E+02 -0.10099859805E+02 -0.54906369357E+02  0.93162422836E+02  0.00000000000E+00 0.  1.
        -13    1    4    4    0    0 -0.52395174625E+02 -0.22667923405E+02  0.12550109647E+03  0.13787535780E+03  0.00000000000E+00 0.  1.
         13    1    4    4    0    0 -0.48070298789E+02  0.72386992716E+02  0.18312952152E+03  0.20269941290E+03  0.00000000000E+00 0. -1.
         21    1    1    2  502  501  0.98681883199E+01 -0.17488197896E+02  0.28810910704E+02  0.35118183067E+02  0.00000000000E+00 0. -1.
<scales pt_clust_5="13000.00000" pt_clust_6="13000.00000" pt_clust_7="13000.00000" pt_clust_8="13000.00000" pt_clust_9="20.08029"></scales>
<clustering>
<clus scale="   20.080">  1  9  2 -1</clus>
<clus scale="   88.729">  5  6 -1 -1</clus>
<clus scale="   90.405">  7  8 -1 -1</clus>
<clus scale="  132.449">  2  5  1 -1</clus>
<clus scale="   20.080">  1  5  2 -1</clus>
</clustering>
</event>
<event>
 9    1  0.1175034E-005  0.1134141E+03  0.7546771E-02  0.1254590E+00
          2   -1    0    0  502    0  0.00000000000E+00  0.00000000000E+00  0.50666512073E+03  0.50666512073E+03  0.00000000000E+00 0. -1.
         -2   -1    0    0    0  501 -0.00000000000E+00 -0.00000000000E+00 -0.32325962985E+02  0.32325962985E+02  0.00000000000E+00 0.  1.
         23    2    1    2    0    0  0.66200802035E+02 -0.77233709072E+01  0.21636405329E+03  0.24428642583E+03  0.91761961847E+02 0.  0.
         23    2    1    2    0    0 -0.61561549298E+02  0.30031172189E+02  0.23989707762E+03  0.26561899615E+03  0.91165495734E+02 0.  0.
        -11    1    4    4    0    0 -0.48366993075E+02 -0.21150849061E+01  0.40218439298E+02  0.62939355437E+02  0.00000000000E+00 0.  1.
         11    1    4    4    0    0 -0.13194556223E+02  0.32146257096E+02  0.19967863832E+03  0.20267964072E+03  0.00000000000E+00 0. -1.
        -13    1    3    3    0    0  0.33503371566E+02  0.33099375731E+02  0.16258059380E+03  0.16926456824E+03  0.00000000000E+00 0.  1.
         13    1    3    3    0    0  0.32697430469E+02 -0.40822746638E+02  0.53783459487E+02  0.75021857593E+02  0.00000000000E+00 0. -1.
         21    1    1    2  502  501 -0.46392527366E+01 -0.22307801282E+02  0.18078026843E+02  0.29085661735E+02  0.00000000000E+00 0.  1.
<scales pt_clust_5="13000.00000" pt_clust_6="13000.00000" pt_clust_7="13000.00000" pt_clust_8="13000.00000" pt_clust_9="22.78510"></scales>
<clustering>
<clus scale="   22.785">  2  9  1 -1</clus>
<clus scale="   91.165">  5  6 -1 -1</clus>
<clus scale="   91.762">  7  8 -1 -1</clus>
<clus scale="  112.932">  1  5  2 -1</clus>
<clus scale="  112.932">  1  5  2 -1</clus>
</clustering>
</event>
<event>
 9    1  0.1175034E-005  0.1694344E+03  0.7546771E-02  0.1183106E+00
         -2   -1    0    0    0  501 -0.00000000000E+00  0.00000000000E+00  0.15818149955E+03  0.15818149955E+03  0.00000000000E+00 0.  1.
          2   -1    0    0  502    0  0.00000000000E+00 -0.00000000000E+00 -0.43036452331E+03  0.43036452331E+03  0.00000000000E+00 0. -1.
         23    2    1    2    0    0 -0.11726791589E+03 -0.53213857716E+01 -0.41528748857E+02  0.17051333557E+03  0.11649068367E+03 0.  0.
         23    2    1    2    0    0  0.12403347860E+03 -0.15851650093E+02 -0.30428083200E+03  0.34112403890E+03  0.90239717251E+02 0.  0.
        -13    1    3    3    0    0 -0.68443903047E+02 -0.56491832576E+02 -0.49913003247E+00  0.88747643027E+02  0.00000000000E+00 0.  1.
         13    1    3    3    0    0 -0.48824012843E+02  0.51170446804E+02 -0.41029618825E+02  0.81765692544E+02  0.00000000000E+00 0. -1.
        -13    1    4    4    0    0  0.61342704932E+02 -0.32814536433E+02 -0.72759371290E+02  0.10066601890E+03  0.00000000000E+00 0.  1.
         13    1    4    4    0    0  0.62690773667E+02  0.16962886339E+02 -0.23152146071E+03  0.24045802001E+03  0.00000000000E+00 0. -1.
         21    1    1    2  502  501 -0.67655627088E+01  0.21173035865E+02  0.73626557103E+02  0.76908648391E+02  0.00000000000E+00 0.  1.
<scales pt_clust_5="13000.00000" pt_clust_6="13000.00000" pt_clust_7="13000.00000" pt_clust_8="13000.00000" pt_clust_9="22.22769"></scales>
<clustering>
<clus scale="   22.228">  1  9  2 -1</clus>
<clus scale="   90.240">  7  8 -1 -1</clus>
<clus scale="  116.491">  5  6 -1 -1</clus>
<clus scale="  152.582">  2  7  1 -1</clus>
<clus scale="  152.582">  2  5  1 -1</clus>
</clustering>
</event>
<event>
 9    1  0.1175034E-005  0.9606191E+02  0.7546771E-02  0.1289181E+00
          2   -1    0    0  502    0  0.00000000000E+00  0.00000000000E+00  0.45846148739E+03  0.45846148739E+03  0.00000000000E+00 0. -1.
         -2   -1    0    0    0  501 -0.00000000000E+00 -0.00000000000E+00 -0.32645000429E+02  0.32645000429E+02  0.00000000000E+00 0.  1.
         23    2    1    2    0    0  0.12728304576E+02 -0.16950954140E+01  0.10706168508E+03  0.14140427700E+03  0.91477221509E+02 0.  0.
         23    2    1    2    0    0 -0.31677642942E+02  0.10158415446E+02  0.31326136741E+03  0.32823402429E+03  0.92185811937E+02 0.  0.
        -11    1    3    3    0    0  0.50797451715E+02 -0.90411504218E+01  0.46285624952E+02  0.69314374980E+02  0.00000000000E+00 0.  1.
         11    1    3    3    0    0 -0.38069147139E+02  0.73460550078E+01  0.60776060132E+02  0.72089902020E+02  0.00000000000E+00 0. -1.
        -11    1    4    4    0    0 -0.45813472937E+02 -0.27245689923E+02  0.22671776356E+03  0.23289943374E+03  0.00000000000E+00 0.  1.
         11    1    4    4    0    0  0.14135829995E+02  0.37404105369E+02  0.86543603850E+02  0.95334590551E+02  0.00000000000E+00 0. -1.
         21    1    1    2  502  501  0.18949338367E+02 -0.84633200316E+01  0.54934344616E+01  0.21468186525E+02  0.00000000000E+00 0.  1.
<scales pt_clust_5="13000.00000" pt_clust_6="13000.00000" pt_clust_7="13000.00000" pt_clust_8="13000.00000" pt_clust_9="20.75344"></scales>
<clustering>
<clus scale="   20.753">  2  9  1 -1</clus>
<clus scale="   91.477">  5  6 -1 -1</clus>
<clus scale="   92.186">  7  8 -1 -1</clus>
<clus scale="   95.382">  2  5  1 -1</clus>
<clus scale="   96.062">  1  5  2 -1</clus>
</clustering>
</event>
<event>
 9    1  0.1175034E-005  0.1052877E+03  0.7546771E-02  0.1269706E+00
          1   -1    0    0  502    0  0.00000000000E+00  0.00000000000E+00  0.39239001028E+03  0.39239001028E+03  0.00000000000E+00 0. -1.
         -1   -1    0    0    0  501 -0.00000000000E+00 -0.00000000000E+00 -0.64503902419E+02  0.64503902419E+02  0.00000000000E+00 0.  1.
         23    2    1    2    0    0  0.57394809911E+02  0.26342927999E+02  0.16569740958E+03  0.19906783400E+03  0.90466883070E+02 0.  0.
         23    2    1    2    0    0 -0.47023808012E+02 -0.37209495541E+01  0.19285742743E+03  0.21833073041E+03  0.90825307811E+02 0.  0.
        -11    1    3    3    0    0  0.77539016019E+02  0.10622461251E+02  0.14969197094E+03  0.16891661212E+03  0.00000000000E+00 0. -1.
         11    1    3    3    0    0 -0.20144206109E+02  0.15720466749E+02  0.16005438640E+02  0.30151221876E+02  0.00000000000E+00 0.  1.
        -13    1    4    4    0    0 -0.12077841342E+02  0.33283142309E+02  0.14212002221E+03  0.14646413393E+03  0.00000000000E+00 0. -1.
         13    1    4    4    0    0 -0.34945966670E+02 -0.37004091863E+02  0.50737405217E+02  0.71866596477E+02  0.00000000000E+00 0.  1.
         21    1    1    2  502  501 -0.10371001899E+02 -0.22621978445E+02 -0.30668729148E+02  0.39495348292E+02  0.00000000000E+00 0.  1.
<scales pt_clust_5="13000.00000" pt_clust_6="13000.00000" pt_clust_7="13000.00000" pt_clust_8="13000.00000" pt_clust_9="24.88597"></scales>
<clustering>
<clus scale="   24.886">  2  9  1 -1</clus>
<clus scale="   90.467">  5  6 -1 -1</clus>
<clus scale="   90.825">  7  8 -1 -1</clus>
<clus scale="  104.979">  2  5  1 -1</clus>
<clus scale="  105.288">  1  5  2 -1</clus>
</clustering>
</event>
<event>
 9    1  0.1175034E-005  0.1166756E+03  0.7546771E-02  0.1251707E+00
         -3   -1    0    0    0  501 -0.00000000000E+00  0.00000000000E+00  0.81770298306E+02  0.81770298306E+02  0.00000000000E+00 0.  1.
          3   -1    0    0  502    0  0.00000000000E+00 -0.00000000000E+00 -0.57466882891E+03  0.57466882891E+03  0.00000000000E+00 0. -1.
         23    2    1    2    0    0 -0.46257713790E+02 -0.35992065403E+02 -0.76648704340E+02  0.12891600920E+03  0.85493325431E+02 0.  0.
         23    2    1    2    0    0  0.63288017128E+02 -0.65358597787E+02 -0.40321261121E+03  0.42392795820E+03  0.94113678566E+02 0.  0.
        -13    1    4    4    0    0  0.15294044962E+02  0.23409450742E+02 -0.60157063637E+02  0.66338393867E+02  0.00000000000E+00 0.  1.
         13    1    4    4    0    0  0.47993972166E+02 -0.88768048529E+02 -0.34305554757E+03  0.35758956434E+03  0.00000000000E+00 0. -1.
        -13    1    3    3    0    0 -0.23694204331E+02  0.21681787807E+02 -0.54279177319E+02  0.63069361276E+02  0.00000000000E+00 0.  1.
         13    1    3    3    0    0 -0.22563509460E+02 -0.57673853210E+02 -0.22369527022E+02  0.65846647921E+02  0.00000000000E+00 0. -1.
         21    1    1    2  502  501 -0.17030303338E+02  0.10135066319E+03 -0.13037215057E+02  0.10359515982E+03  0.00000000000E+00 0.  1.
<scales pt_clust_5="13000.00000" pt_clust_6="13000.00000" pt_clust_7="13000.00000" pt_clust_8="13000.00000" pt_clust_9="102.77153"></scales>
<clustering>
<clus scale="   85.493">  7  8 -1 -1</clus>
<clus scale="   94.114">  5  6 -1 -1</clus>
<clus scale="  102.772">  1  9  2 -1</clus>
<clus scale="  109.840">  1  7  2 -1</clus>
<clus scale="  116.676">  2  5  1 -1</clus>
</clustering>
</event>
<event>
 9    1  0.1175034E-005  0.4032200E+03  0.7546771E-02  0.1042710E+00
         -2   -1    0    0    0  501 -0.00000000000E+00  0.00000000000E+00  0.11453682125E+03  0.11453682125E+03  0.00000000000E+00 0.  1.
          2   -1    0    0  502    0  0.00000000000E+00 -0.00000000000E+00 -0.19432856363E+04  0.19432856363E+04  0.00000000000E+00 0. -1.
         23    2    1    2    0    0 -0.35501551445E+03 -0.20182681442E+02 -0.48381066322E+03  0.60748318658E+03  0.92302264310E+02 0.  0.
         23    2    1    2    0    0  0.41087392589E+03  0.32150723192E+02 -0.13238358185E+04  0.13894401361E+04  0.90286020206E+02 0.  0.
        -11    1    3    3    0    0 -0.22873905773E+02  0.12464599280E+02 -0.77019547569E+02  0.81305550292E+02  0.00000000000E+00 0.  1.
         11    1    3    3    0    0 -0.33214160868E+03 -0.32647280722E+02 -0.40679111565E+03  0.52617763629E+03  0.00000000000E+00 0. -1.
        -13    1    4    4    0    0  0.14752109862E+03 -0.30900623596E+02 -0.44524866411E+03  0.47006775679E+03  0.00000000000E+00 0.  1.
         13    1    4    4    0    0  0.26335282727E+03  0.63051346788E+02 -0.87858715442E+03  0.91937237933E+03  0.00000000000E+00 0. -1.
         21    1    1    2  502  501 -0.55858411444E+02 -0.11968041750E+02 -0.21102333242E+02  0.60899134810E+02  0.00000000000E+00 0.  1.
<scales pt_clust_5="13000.00000" pt_clust_6="13000.00000" pt_clust_7="13000.00000" pt_clust_8="13000.00000" pt_clust_9="57.12614"></scales>
<clustering>
<clus scale="   57.126">  1  9  2 -1</clus>
<clus scale="   90.286">  7  8 -1 -1</clus>
<clus scale="   92.302">  5  6 -1 -1</clus>
<clus scale="  402.763">  2  7  1 -1</clus>
<clus scale="  402.763">  2  5  1 -1</clus>
</clustering>
</event>
<event>
 9    1  0.1175034E-005  0.1681444E+03  0.7546771E-02  0.1180063E+00
         -1   -1    0    0    0  501 -0.00000000000E+00  0.00000000000E+00  0.21669503046E+03  0.21669503046E+03  0.00000000000E+00 0.  1.
          1   -1    0    0  502    0  0.00000000000E+00 -0.00000000000E+00 -0.51862086207E+03  0.51862086207E+03  0.00000000000E+00 0. -1.
         23    2    1    2    0    0 -0.54664616005E+02 -0.99832505741E+02  0.30018361277E+02  0.14806299204E+03  0.89815355886E+02 0.  0.
         23    2    1    2    0    0 -0.15992618109E+02  0.14891354047E+03 -0.42540637367E+03  0.46022309321E+03  0.91671731746E+02 0.  0.
        -11    1    3    3    0    0 -0.19482437918E+02 -0.59376144629E+02 -0.28512552024E+02  0.68688118049E+02  0.00000000000E+00 0.  1.
         11    1    3    3    0    0 -0.35182178087E+02 -0.40456361112E+02  0.58530913301E+02  0.79374873992E+02  0.00000000000E+00 0. -1.
        -11    1    4    4    0    0 -0.51750911298E+02  0.67249894635E+02 -0.23845578241E+03  0.25310445534E+03  0.00000000000E+00 0.  1.
         11    1    4    4    0    0  0.35758293189E+02  0.81663645835E+02 -0.18695059125E+03  0.20711863787E+03  0.00000000000E+00 0. -1.
         21    1    1    2  502  501  0.70657234114E+02 -0.49081034728E+02  0.93462180774E+02  0.12702980728E+03  0.00000000000E+00 0.  1.
<scales pt_clust_5="13000.00000" pt_clust_6="13000.00000" pt_clust_7="13000.00000" pt_clust_8="13000.00000" pt_clust_9="86.03135"></scales>
<clustering>
<clus scale="   86.031">  1  9  2 -1</clus>
<clus scale="   89.815">  5  6 -1 -1</clus>
<clus scale="   91.672">  7  8 -1 -1</clus>
<clus scale="  167.140">  1  5  2 -1</clus>
<clus scale="  168.144">  2  5  1 -1</clus>
</clustering>
</event>
<event>
 9    1  0.1175034E-005  0.2837848E+03  0.7546771E-02  0.1123663E+00
         -1   -1    0    0    0  501 -0.00000000000E+00  0.00000000000E+00  0.27869921077E+03  0.27869921077E+03  0.00000000000E+00 0.  1.
          1   -1    0    0  502    0  0.00000000000E+00 -0.00000000000E+00 -0.68270548019E+03  0.68270548019E+03  0.00000000000E+00 0. -1.
         23    2    1    2    0    0  0.44220430172E+01  0.96022460046E+02 -0.28250231354E+02  0.13481057378E+03  0.90199489656E+02 0.  0.
         23    2    1    2    0    0 -0.68834723372E+02 -0.27728106499E+03 -0.51023715776E+03  0.59188398360E+03  0.91442248125E+02 0.  0.
        -11    1    4    4    0    0 -0.90888439084E+02 -0.21744188268E+03 -0.41543793252E+03  0.47762993675E+03  0.00000000000E+00 0. -1.
         11    1    4    4    0    0  0.22053715712E+02 -0.59839182303E+02 -0.94799225232E+02  0.11425404684E+03  0.00000000000E+00 0.  1.
        -13    1    3    3    0    0 -0.34523928814E+02  0.75556829231E+02 -0.35288639415E+02  0.90255327687E+02  0.00000000000E+00 0. -1.
         13    1    3    3    0    0  0.38945971831E+02  0.20465630815E+02  0.70384080607E+01  0.44555246095E+02  0.00000000000E+00 0.  1.
         21    1    1    2  502  501  0.64412680355E+02  0.18125860494E+03  0.13448111969E+03  0.23471013359E+03  0.00000000000E+00 0.  1.
<scales pt_clust_5="13000.00000" pt_clust_6="13000.00000" pt_clust_7="13000.00000" pt_clust_8="13000.00000" pt_clust_9="268.64874"></scales>
<clustering>
<clus scale="   90.199">  7  8 -1 -1</clus>
<clus scale="   91.442">  5  6 -1 -1</clus>
<clus scale="  131.817">  1  7  2 -1</clus>
<clus scale="  268.649">  1  9  2 -1</clus>
<clus scale="  283.785">  2  5  1 -1</clus>
</clustering>
</event>
<event>
 9    1  0.1175034E-005  0.2205084E+03  0.7546771E-02  0.1133762E+00
          1   -1    0    0  502    0  0.00000000000E+00  0.00000000000E+00  0.43264431623E+03  0.43264431623E+03  0.00000000000E+00 0. -1.
         -1   -1    0    0    0  501 -0.00000000000E+00 -0.00000000000E+00 -0.16486204498E+03  0.16486204498E+03  0.00000000000E+00 0.  1.
         23    2    1    2    0    0  0.94195731557E+02 -0.18695711671E+03  0.45323657928E+01  0.22750970203E+03  0.88962479987E+02 0.  0.
         23    2    1    2    0    0 -0.72745149469E+02  0.18566406230E+03  0.27100341622E+03  0.34715116967E+03  0.85487321854E+02 0.  0.
        -13    1    4    4    0    0 -0.33229221705E+01  0.11120191010E+03  0.17404127794E+03  0.20656057961E+03  0.00000000000E+00 0. -1.
         13    1    4    4    0    0 -0.69422227298E+02  0.74462152206E+02  0.96962138288E+02  0.14059059007E+03  0.00000000000E+00 0.  1.
        -13    1    3    3    0    0  0.80134190025E+02 -0.16262924165E+03  0.36510655161E+02  0.18493995401E+03  0.00000000000E+00 0.  1.
         13    1    3    3    0    0  0.14061541533E+02 -0.24327875066E+02 -0.31978289369E+02  0.42569748019E+02  0.00000000000E+00 0. -1.
         21    1    1    2  502  501 -0.21450582089E+02  0.12930544078E+01 -0.77535107695E+01  0.22845489509E+02  0.00000000000E+00 0.  1.
<scales pt_clust_5="13000.00000" pt_clust_6="13000.00000" pt_clust_7="13000.00000" pt_clust_8="13000.00000" pt_clust_9="21.48952"></scales>
<clustering>
<clus scale="   21.490">  2  9  1 -1</clus>
<clus scale="   85.487">  5  6 -1 -1</clus>
<clus scale="   88.962">  7  8 -1 -1</clus>
<clus scale="  219.129">  1  5  2 -1</clus>
<clus scale="  219.129">  1  5  2 -1</clus>
</clustering>
</event>
<event>
 9    1  0.2102374E-005  0.1513914E+03  0.7546771E-02  0.1198778E+00
         -1   -1    0    0    0  501 -0.00000000000E+00  0.00000000000E+00  0.40367258996E+03  0.40367258996E+03  0.00000000000E+00 0.  1.
          1   -1    0    0  502    0  0.00000000000E+00 -0.00000000000E+00 -0.17734564695E+03  0.17734564695E+03  0.00000000000E+00 0. -1.
         23    2    1    2    0    0  0.39424056352E+02  0.95535179274E+02  0.32268792653E+03  0.35093169355E+03  0.91347298331E+02 0.  0.
         23    2    1    2    0    0 -0.35272118524E+02 -0.11747287701E+03 -0.12232149750E+03  0.19584549408E+03  0.91372367947E+02 0.  0.
        -11    1    3    3    0    0  0.31065449073E+02  0.34635985884E+02  0.39148620723E+02  0.60805658855E+02  0.00000000000E+00 0. -1.
         11    1    3    3    0    0  0.83586072790E+01  0.60899193389E+02  0.28353930581E+03  0.29012603470E+03  0.00000000000E+00 0.  1.
        -11    1    4    4    0    0  0.29443679574E+02 -0.52543706997E+02 -0.59848476351E+02  0.84909431356E+02  0.00000000000E+00 0.  1.
         11    1    4    4    0    0 -0.64715798098E+02 -0.64929170016E+02 -0.62473021148E+02  0.11093606273E+03  0.00000000000E+00 0. -1.
         21    1    1    2  502  501 -0.41519378280E+01  0.21937697739E+02  0.25960513972E+02  0.34241049275E+02  0.00000000000E+00 0. -1.
<scales pt_clust_5="13000.00000" pt_clust_6="13000.00000" pt_clust_7="13000.00000" pt_clust_8="13000.00000" pt_clust_9="22.32714"></scales>
<clustering>
<clus scale="   22.327">  1  9  2 -1</clus>
<clus scale="   91.347">  5  6 -1 -1</clus>
<clus scale="   91.372">  7  8 -1 -1</clus>
<clus scale="  151.376">  1  5  2 -1</clus>
<clus scale="  151.391">  2  5  1 -1</clus>
</clustering>
</event>
<event>
 9    1  0.1175034E-005  0.1005589E+03  0.7546771E-02  0.1283719E+00
         -2   -1    0    0    0  501 -0.00000000000E+00  0.00000000000E+00  0.38364610796E+02  0.38364610796E+02  0.00000000000E+00 0.  1.
          2   -1    0    0  502    0  0.00000000000E+00 -0.00000000000E+00 -0.34360321285E+03  0.34360321285E+03  0.00000000000E+00 0. -1.
         23    2    1    2    0    0 -0.58052936114E+02  0.14933584148E+02 -0.14015503444E+03  0.17611262679E+03  0.88199026691E+02 0.  0.
         23    2    1    2    0    0  0.40341739847E+02  0.13686905553E+02 -0.12143645339E+03  0.15073814428E+03  0.78488142881E+02 0.  0.
        -11    1    4    4    0    0  0.28845784999E+02 -0.27876978944E+02 -0.86096023360E+02  0.94982790576E+02  0.00000000000E+00 0.  1.
         11    1    4    4    0    0  0.11495954848E+02  0.41563884497E+02 -0.35340430026E+02  0.55755353705E+02  0.00000000000E+00 0. -1.
        -11    1    3    3    0    0  0.19650921925E+02 -0.71553073629E+01 -0.10626724947E+02  0.23458142276E+02  0.00000000000E+00 0.  1.
         11    1    3    3    0    0 -0.77703858038E+02  0.22088891511E+02 -0.12952830949E+03  0.15265448452E+03  0.00000000000E+00 0. -1.
         21    1    1    2  502  501  0.17711196267E+02 -0.28620489701E+02 -0.43647114225E+02  0.55117052571E+02  0.00000000000E+00 0. -1.
<scales pt_clust_5="13000.00000" pt_clust_6="13000.00000" pt_clust_7="13000.00000" pt_clust_8="13000.00000" pt_clust_9="33.65738"></scales>
<clustering>
<clus scale="   33.657">  1  9  2 -1</clus>
<clus scale="   78.488">  5  6 -1 -1</clus>
<clus scale="   88.199">  7  8 -1 -1</clus>
<clus scale="   92.160">  2  5  1 -1</clus>
<clus scale="   92.160">  2  5  1 -1</clus>
</clustering>
</event>
<event>
 9    1  0.1175034E-005  0.1009899E+03  0.7546771E-02  0.1281262E+00
          1   -1    0    0  502    0  0.00000000000E+00  0.00000000000E+00  0.12415346212E+03  0.12415346212E+03  0.00000000000E+00 0. -1.
         -1   -1    0    0    0  501 -0.00000000000E+00 -0.00000000000E+00 -0.16133644643E+03  0.16133644643E+03  0.00000000000E+00 0.  1.
         23    2    1    2    0    0  0.33510832021E+02  0.21817077218E+02  0.17654750665E+01  0.94530637357E+02  0.85638564770E+02 0.  0.
         23    2    1    2    0    0 -0.22062158945E+02 -0.39703243514E+02  0.39366186565E+02  0.10981636744E+03  0.91906754435E+02 0.  0.
        -11    1    3    3    0    0 -0.56371538536E+01  0.47231600975E+02  0.44829211807E+01  0.47777591155E+02  0.00000000000E+00 0.  1.
         11    1    3    3    0    0  0.39147985875E+02 -0.25414523757E+02 -0.27174461142E+01  0.46753046203E+02  0.00000000000E+00 0. -1.
        -13    1    4    4    0    0 -0.21125732191E+02 -0.26620418962E+01 -0.26650551005E+02  0.34112093113E+02  0.00000000000E+00 0.  1.
         13    1    4    4    0    0 -0.93642675390E+00 -0.37041201618E+02  0.66016737570E+02  0.75704274330E+02  0.00000000000E+00 0. -1.
         21    1    1    2  502  501 -0.11448673077E+02  0.17886166297E+02 -0.78314645938E+02  0.81142903746E+02  0.00000000000E+00 0.  1.
<scales pt_clust_5="13000.00000" pt_clust_6="13000.00000" pt_clust_7="13000.00000" pt_clust_8="13000.00000" pt_clust_9="21.23646"></scales>
<clustering>
<clus scale="   21.236">  2  9  1 -1</clus>
<clus scale="   85.639">  5  6 -1 -1</clus>
<clus scale="   91.907">  7  8 -1 -1</clus>
<clus scale="   95.321">  2  5  1 -1</clus>
<clus scale="  100.990">  1  5  2 -1</clus>
</clustering>
</event>
<event>
 9    1  0.1175034E-005  0.9576067E+02  0.7546771E-02  0.1289487E+00
         -1   -1    0    0    0  501 -0.00000000000E+00  0.00000000000E+00  0.10390118335E+03  0.10390118335E+03  0.00000000000E+00 0.  1.
          1   -1    0    0  502    0  0.00000000000E+00 -0.00000000000E+00 -0.15201518627E+03  0.15201518627E+03  0.00000000000E+00 0. -1.
         23    2    1    2    0    0 -0.39623165413E+02  0.78515421708E+00  0.20632623469E+02  0.10129332061E+03  0.90906655117E+02 0.  0.
         23    2    1    2    0    0  0.15623575728E+02 -0.27710327040E+02 -0.69163729485E+02  0.11855201892E+03  0.90879048031E+02 0.  0.
        -11    1    4    4    0    0 -0.20668333729E+02 -0.46742218907E+01 -0.72407166639E+02  0.75444192288E+02  0.00000000000E+00 0. -1.
         11    1    4    4    0    0  0.36291909457E+02 -0.23036105149E+02  0.32434371534E+01  0.43107826634E+02  0.00000000000E+00 0.  1.
        -13    1    3    3    0    0 -0.57044351557E+02  0.14018525534E+02 -0.13946648702E+02  0.60374548550E+02  0.00000000000E+00 0. -1.
         13    1    3    3    0    0  0.17421186143E+02 -0.13233371317E+02  0.34579272171E+02  0.40918772060E+02  0.00000000000E+00 0.  1.
         21    1    1    2  502  501  0.23999589686E+02  0.26925172823E+02  0.41710310163E+00  0.36071030088E+02  0.00000000000E+00 0.  1.
<scales pt_clust_5="13000.00000" pt_clust_6="13000.00000" pt_clust_7="13000.00000" pt_clust_8="13000.00000" pt_clust_9="36.06862"></scales>
<clustering>
<clus scale="   36.069">  1  9  2 -1</clus>
<clus scale="   90.879">  5  6 -1 -1</clus>
<clus scale="   90.907">  7  8 -1 -1</clus>
<clus scale="   95.734">  2  5  1 -1</clus>
<clus scale="   95.734">  2  5  1 -1</clus>
</clustering>
</event>
<event>
 9    1  0.1175034E-005  0.1222006E+03  0.7546771E-02  0.1240101E+00
          2   -1    0    0  502    0  0.00000000000E+00  0.00000000000E+00  0.34856427072E+03  0.34856427072E+03  0.00000000000E+00 0.  1.
         -2   -1    0    0    0  501 -0.00000000000E+00 -0.00000000000E+00 -0.11272698952E+03  0.11272698952E+03  0.00000000000E+00 0. -1.
         23    2    1    2    0    0  0.81695869128E+01  0.98745487512E+02 -0.59279755496E+01  0.13596388316E+03  0.92917292124E+02 0.  0.
         23    2    1    2    0    0 -0.84157658286E+01 -0.75409660281E+02  0.26629993704E+03  0.29146630837E+03  0.90991815375E+02 0.  0.
        -11    1    3    3    0    0  0.40011294335E+02  0.43188236584E+02  0.26060003639E+02  0.64383625583E+02  0.00000000000E+00 0.  1.
         11    1    3    3    0    0 -0.31841707422E+02  0.55557250928E+02 -0.31987979189E+02  0.71580257578E+02  0.00000000000E+00 0. -1.
        -13    1    4    4    0    0 -0.23525470857E+02 -0.60656342882E+02  0.26194595900E+03  0.26990428886E+03  0.00000000000E+00 0.  1.
         13    1    4    4    0    0  0.15109705028E+02 -0.14753317399E+02  0.43539780463E+01  0.21562019505E+02  0.00000000000E+00 0. -1.
         21    1    1    2  502  501  0.24617891585E+00 -0.23335827231E+02 -0.24534680295E+02  0.33861068704E+02  0.00000000000E+00 0.  1.
<scales pt_clust_5="13000.00000" pt_clust_6="13000.00000" pt_clust_7="13000.00000" pt_clust_8="13000.00000" pt_clust_9="23.33713"></scales>
<clustering>
<clus scale="   23.337">  2  9  1 -1</clus>
<clus scale="   90.992">  7  8 -1 -1</clus>
<clus scale="   92.917">  5  6 -1 -1</clus>
<clus scale="  120.743">  1  7  2 -1</clus>
<clus scale="  120.743">  1  5  2 -1</clus>
</clustering>
</event>
<event>
 9    1  0.1175034E-005  0.1171182E+03  0.7546771E-02  0.1257644E+00
         -1   -1    0    0    0  501 -0.00000000000E+00  0.00000000000E+00  0.27396652268E+03  0.27396652268E+03  0.00000000000E+00 0.  1.
          1   -1    0    0  502    0  0.00000000000E+00 -0.00000000000E+00 -0.26795189408E+03  0.26795189408E+03  0.00000000000E+00 0. -1.
         23    2    1    2    0    0  0.14416925431E+02  0.14143495937E+02  0.12665017330E+03  0.15941221058E+03  0.94678932551E+02 0.  0.
         23    2    1    2    0    0 -0.17588786722E+02  0.95805085365E+01 -0.23660603689E+03  0.26409149362E+03  0.11558870510E+03 0.  0.
        -11    1    4    4    0    0  0.41763194673E+02  0.25694247659E+02 -0.62479277301E+02  0.79423037490E+02  0.00000000000E+00 0.  1.
         11    1    4    4    0    0 -0.59351981395E+02 -0.16113739123E+02 -0.17412675959E+03  0.18466845613E+03  0.00000000000E+00 0. -1.
        -13    1    3    3    0    0  0.54084413455E+02  0.25905197869E+01  0.84734257264E+02  0.10055709287E+03  0.00000000000E+00 0.  1.
         13    1    3    3    0    0 -0.39667488024E+02  0.11552976150E+02  0.41915916035E+02  0.58855117714E+02  0.00000000000E+00 0. -1.
         21    1    1    2  502  501  0.31718612912E+01 -0.23724004474E+02  0.11597049219E+03  0.11841471256E+03  0.00000000000E+00 0. -1.
<scales pt_clust_5="13000.00000" pt_clust_6="13000.00000" pt_clust_7="13000.00000" pt_clust_8="13000.00000" pt_clust_9="23.93510"></scales>
<clustering>
<clus scale="   23.935">  1  9  2 -1</clus>
<clus scale="   94.679">  7  8 -1 -1</clus>
<clus scale="   96.540">  1  7  2 -1</clus>
<clus scale="  115.589">  5  6 -1 -1</clus>
<clus scale="  117.118">  2  5  1 -1</clus>
</clustering>
</event>
<event>
 9    1  0.1175034E-005  0.1565217E+03  0.7546771E-02  0.1195283E+00
          1   -1    0    0  502    0  0.00000000000E+00  0.00000000000E+00  0.80912083232E+03  0.80912083232E+03  0.00000000000E+00 0. -1.
         -1   -1    0    0    0  501 -0.00000000000E+00 -0.00000000000E+00 -0.53592470907E+02  0.53592470907E+02  0.00000000000E+00 0.  1.
         23    2    1    2    0    0  0.13044588536E+03  0.36840500423E-01  0.12509039208E+03  0.20266517954E+03  0.91702990374E+02 0.  0.
         23    2    1    2    0    0 -0.12428090535E+03  0.23277603586E+02  0.61246025454E+03  0.62996875350E+03  0.75930736414E+02 0.  0.
        -11    1    4    4    0    0 -0.10443020012E+03  0.48678920624E+02  0.48398162402E+03  0.49750730286E+03  0.00000000000E+00 0. -1.
         11    1    4    4    0    0 -0.19850705228E+02 -0.25401317038E+02  0.12847863052E+03  0.13246145064E+03  0.00000000000E+00 0.  1.
        -13    1    3    3    0    0  0.92272676433E+02  0.27109977789E+02  0.37247695760E+02  0.10313383805E+03  0.00000000000E+00 0.  1.
         13    1    3    3    0    0  0.38173208931E+02 -0.27073137289E+02  0.87842696318E+02  0.99531341492E+02  0.00000000000E+00 0. -1.
         21    1    1    2  502  501 -0.61649800138E+01 -0.23314444087E+02  0.17977714804E+02  0.30079370193E+02  0.00000000000E+00 0.  1.
<scales pt_clust_5="13000.00000" pt_clust_6="13000.00000" pt_clust_7="13000.00000" pt_clust_8="13000.00000" pt_clust_9="24.11577"></scales>
<clustering>
<clus scale="   24.116">  2  9  1 -1</clus>
<clus scale="   75.931">  5  6 -1 -1</clus>
<clus scale="   91.703">  7  8 -1 -1</clus>
<clus scale="  147.835">  1  5  2 -1</clus>
<clus scale="  147.835">  1  5  2 -1</clus>
</clustering>
</event>
<event>
 9    1  0.1175034E-005  0.2104879E+03  0.7546771E-02  0.1141284E+00
          1   -1    0    0  502    0  0.00000000000E+00  0.00000000000E+00  0.71192107409E+03  0.71192107409E+03  0.00000000000E+00 0. -1.
         -1   -1    0    0    0  501 -0.00000000000E+00 -0.00000000000E+00 -0.26855293988E+03  0.26855293988E+03  0.00000000000E+00 0.  1.
         23    2    1    2    0    0 -0.10305876669E+03 -0.20930110206E+03 -0.50066784140E+02  0.25566507798E+03  0.91814424302E+02 0.  0.
         23    2    1    2    0    0  0.89664019136E+02  0.16037059812E+03  0.58496710786E+03  0.62015830200E+03  0.93013102300E+02 0.  0.
        -11    1    4    4    0    0  0.53930529872E+02  0.14666719286E+02  0.16314079185E+03  0.17244863778E+03  0.00000000000E+00 0.  1.
         11    1    4    4    0    0  0.35733489264E+02  0.14570387883E+03  0.42182631601E+03  0.44770966422E+03  0.00000000000E+00 0. -1.
        -13    1    3    3    0    0 -0.74010986164E+02 -0.20200531143E+03 -0.24952410932E+02  0.21657884183E+03  0.00000000000E+00 0.  1.
         13    1    3    3    0    0 -0.29047780531E+02 -0.72957906307E+01 -0.25114373209E+02  0.39086236150E+02  0.00000000000E+00 0. -1.
         21    1    1    2  502  501  0.13394747559E+02  0.48930503945E+02 -0.91532189507E+02  0.10465063399E+03  0.00000000000E+00 0.  1.
<scales pt_clust_5="13000.00000" pt_clust_6="13000.00000" pt_clust_7="13000.00000" pt_clust_8="13000.00000" pt_clust_9="50.73079"></scales>
<clustering>
<clus scale="   50.731">  2  9  1 -1</clus>
<clus scale="   91.814">  7  8 -1 -1</clus>
<clus scale="   93.013">  5  6 -1 -1</clus>
<clus scale="  209.961">  2  7  1 -1</clus>
<clus scale="  210.488">  1  5  2 -1</clus>
</clustering>
</event>
<event>
 9    1  0.1175034E-005  0.1041541E+03  0.7546771E-02  0.1272234E+00
         -1   -1    0    0    0  501 -0.00000000000E+00  0.00000000000E+00  0.65627822822E+02  0.65627822822E+02  0.00000000000E+00 0.  1.
          1   -1    0    0  502    0  0.00000000000E+00 -0.00000000000E+00 -0.30827016352E+03  0.30827016352E+03  0.00000000000E+00 0. -1.
         23    2    1    2    0    0  0.22499670692E+02 -0.14570537724E+02 -0.81370320375E+01  0.95168857498E+02  0.90952539252E+02 0.  0.
         23    2    1    2    0    0 -0.30463560636E+02  0.47029394066E+02 -0.21388170470E+03  0.23945656924E+03  0.91947118015E+02 0.  0.
        -11    1    3    3    0    0  0.46352339444E+02  0.12187508800E+01  0.23945099198E+02  0.52186133227E+02  0.00000000000E+00 0.  1.
         11    1    3    3    0    0 -0.23852668752E+02 -0.15789288604E+02 -0.32082131235E+02  0.42982724271E+02  0.00000000000E+00 0. -1.
        -11    1    4    4    0    0 -0.63560016354E+02  0.28196087955E+02 -0.13425888739E+03  0.15119637528E+03  0.00000000000E+00 0. -1.
         11    1    4    4    0    0  0.33096455719E+02  0.18833306111E+02 -0.79622817319E+02  0.88260193961E+02  0.00000000000E+00 0.  1.
         21    1    1    2  502  501  0.79638899438E+01 -0.32458856342E+02 -0.20623603960E+02  0.39272559610E+02  0.00000000000E+00 0.  1.
<scales pt_clust_5="13000.00000" pt_clust_6="13000.00000" pt_clust_7="13000.00000" pt_clust_8="13000.00000" pt_clust_9="33.42156"></scales>
<clustering>
<clus scale="   33.422">  1  9  2 -1</clus>
<clus scale="   90.953">  5  6 -1 -1</clus>
<clus scale="   91.947">  7  8 -1 -1</clus>
<clus scale="  103.277">  1  5  2 -1</clus>
<clus scale="  104.154">  2  5  1 -1</clus>
</clustering>
</event>
<event>
 9    1  0.1175034E-005  0.1944580E+03  0.7546771E-02  0.1154792E+00
         -1   -1    0    0    0  501 -0.00000000000E+00  0.00000000000E+00  0.40818578999E+03  0.40818578999E+03  0.00000000000E+00 0.  1.
          1   -1    0    0  502    0  0.00000000000E+00 -0.00000000000E+00 -0.90260897517E+03  0.90260897517E+03  0.00000000000E+00 0. -1.
         23    2    1    2    0    0  0.15367694274E+02  0.11682193044E+03  0.34272673627E+01  0.14646106187E+03  0.86922764698E+02 0.  0.
         23    2    1    2    0    0 -0.43921267486E+02 -0.17623140297E+03 -0.81530631268E+03  0.84010690751E+03  0.89825650118E+02 0.  0.
        -11    1    3    3    0    0 -0.32676274780E+02  0.49002242348E+02  0.19031107739E+02  0.61896217577E+02  0.00000000000E+00 0. -1.
         11    1    3    3    0    0  0.48043969054E+02  0.67819688092E+02 -0.15603840377E+02  0.84564844290E+02  0.00000000000E+00 0.  1.
        -11    1    4    4    0    0  0.23371497279E+02 -0.88095956164E+02 -0.33618159047E+03  0.34831765121E+03  0.00000000000E+00 0. -1.
         11    1    4    4    0    0 -0.67292764765E+02 -0.88135446809E+02 -0.47912472221E+03  0.49178925630E+03  0.00000000000E+00 0.  1.
         21    1    1    2  502  501  0.28553573213E+02  0.59409472532E+02  0.31745586014E+03  0.32422679579E+03  0.00000000000E+00 0.  1.
<scales pt_clust_5="13000.00000" pt_clust_6="13000.00000" pt_clust_7="13000.00000" pt_clust_8="13000.00000" pt_clust_9="65.91504"></scales>
<clustering>
<clus scale="   65.915">  1  9  2 -1</clus>
<clus scale="   86.923">  5  6 -1 -1</clus>
<clus scale="   89.826">  7  8 -1 -1</clus>
<clus scale="  193.134">  1  5  2 -1</clus>
<clus scale="  194.458">  2  5  1 -1</clus>
</clustering>
</event>
<event>
 9    1  0.1175034E-005  0.1014313E+03  0.7546771E-02  0.1277399E+00
         -1   -1    0    0    0  501 -0.00000000000E+00  0.00000000000E+00  0.18049182351E+03  0.18049182351E+03  0.00000000000E+00 0.  1.
          1   -1    0    0  502    0  0.00000000000E+00 -0.00000000000E+00 -0.16805187635E+03  0.16805187635E+03  0.00000000000E+00 0. -1.
         23    2    1    2    0    0 -0.44996835425E+02 -0.10094927662E+02  0.90287427095E+02  0.13680894805E+03  0.91859926047E+02 0.  0.
         23    2    1    2    0    0  0.10593014456E+02  0.59046353114E+02  0.44877476486E+01  0.10995580187E+03  0.92040505832E+02 0.  0.
        -13    1    4    4    0    0 -0.34654599754E+02  0.49143902821E+02  0.16004309960E+02  0.62227023116E+02  0.00000000000E+00 0.  1.
         13    1    4    4    0    0  0.45247614210E+02  0.99024502938E+01 -0.11516562311E+02  0.47728778751E+02  0.00000000000E+00 0. -1.
        -13    1    3    3    0    0 -0.70576067293E+01  0.20454914306E+02 -0.11106075012E+02  0.24321970195E+02  0.00000000000E+00 0. -1.
         13    1    3    3    0    0 -0.37939228696E+02 -0.30549841968E+02  0.10139350211E+03  0.11248697786E+03  0.00000000000E+00 0.  1.
         21    1    1    2  502  501  0.34403820969E+02 -0.48951425452E+02 -0.82335227580E+02  0.10177894994E+03  0.00000000000E+00 0. -1.
<scales pt_clust_5="13000.00000" pt_clust_6="13000.00000" pt_clust_7="13000.00000" pt_clust_8="13000.00000" pt_clust_9="59.83197"></scales>
<clustering>
<clus scale="   59.832">  2  9  1 -1</clus>
<clus scale="   91.860">  7  8 -1 -1</clus>
<clus scale="   92.041">  5  6 -1 -1</clus>
<clus scale="  101.267">  1  7  2 -1</clus>
<clus scale="   59.832">  2  5  1 -1</clus>
</clustering>
</event>
<event>
 9    1  0.3806097E-005  0.1571989E+03  0.7546771E-02  0.1192385E+00
         -1   -1    0    0    0  501 -0.00000000000E+00  0.00000000000E+00  0.36989987885E+03  0.36989987885E+03  0.00000000000E+00 0.  1.
          1   -1    0    0  502    0  0.00000000000E+00 -0.00000000000E+00 -0.34406259949E+03  0.34406259949E+03  0.00000000000E+00 0. -1.
         23    2    1    2    0    0 -0.13965253795E+03 -0.35277584586E+02  0.26858317919E+03  0.31815607856E+03  0.91318272250E+02 0.  0.
         23    2    1    2    0    0  0.12495980142E+03 -0.22390455780E+01 -0.29253535121E+03  0.33175670412E+03  0.94157388055E+02 0.  0.
        -13    1    3    3    0    0 -0.39417053026E+02 -0.44680574442E+02  0.51071275170E+02  0.78475046666E+02  0.00000000000E+00 0. -1.
         13    1    3    3    0    0 -0.10023548492E+03  0.94029898563E+01  0.21751190402E+03  0.23968103189E+03  0.00000000000E+00 0.  1.
        -13    1    4    4    0    0 -0.12139974870E+01  0.23867082490E+02 -0.77229074730E+02  0.80842076917E+02  0.00000000000E+00 0.  1.
         13    1    4    4    0    0  0.12617379891E+03 -0.26106128068E+02 -0.21530627648E+03  0.25091462720E+03  0.00000000000E+00 0. -1.
         21    1    1    2  502  501  0.14692736529E+02  0.37516630164E+02  0.49789451376E+02  0.64049695658E+02  0.00000000000E+00 0. -1.
<scales pt_clust_5="13000.00000" pt_clust_6="13000.00000" pt_clust_7="13000.00000" pt_clust_8="13000.00000" pt_clust_9="40.29112"></scales>
<clustering>
<clus scale="   40.291">  1  9  2 -1</clus>
<clus scale="   91.318">  5  6 -1 -1</clus>
<clus scale="   94.157">  7  8 -1 -1</clus>
<clus scale="  155.515">  1  5  2 -1</clus>
<clus scale="  157.199">  2  5  1 -1</clus>
</clustering>
</event>
<event>
 9    1  0.1175034E-005  0.3820047E+03  0.7546771E-02  0.1050239E+00
         -1   -1    0    0    0  501 -0.00000000000E+00  0.00000000000E+00  0.32821693902E+03  0.32821693902E+03  0.00000000000E+00 0.  1.
          1   -1    0    0  502    0  0.00000000000E+00 -0.00000000000E+00 -0.89526423169E+03  0.89526423169E+03  0.00000000000E+00 0. -1.
         23    2    1    2    0    0  0.32730933454E+03 -0.17348213301E+03 -0.14701736097E+03  0.40782973956E+03  0.86507462658E+02 0.  0.
         23    2    1    2    0    0 -0.23424110352E+03  0.30414327148E+03 -0.49986732571E+03  0.63646427142E+03  0.88585559330E+02 0.  0.
        -11    1    4    4    0    0 -0.19916856337E+02  0.45168391787E+02 -0.26939310790E+02  0.56236920691E+02  0.00000000000E+00 0.  1.
         11    1    4    4    0    0 -0.21432424718E+03  0.25897487969E+03 -0.47292801491E+03  0.58022735073E+03  0.00000000000E+00 0. -1.
        -13    1    3    3    0    0  0.12061931964E+03 -0.10629870901E+03 -0.84784931651E+02  0.18176061301E+03  0.00000000000E+00 0. -1.
         13    1    3    3    0    0  0.20669001490E+03 -0.67183423997E+02 -0.62232429317E+02  0.22606912655E+03  0.00000000000E+00 0.  1.
         21    1    1    2  502  501 -0.93068231022E+02 -0.13066113847E+03  0.79837393995E+02  0.17918715973E+03  0.00000000000E+00 0. -1.
<scales pt_clust_5="13000.00000" pt_clust_6="13000.00000" pt_clust_7="13000.00000" pt_clust_8="13000.00000" pt_clust_9="160.41829"></scales>
<clustering>
<clus scale="   86.507">  7  8 -1 -1</clus>
<clus scale="   88.586">  5  6 -1 -1</clus>
<clus scale="  160.418">  1  9  2 -1</clus>
<clus scale="  381.528">  1  7  2 -1</clus>
<clus scale="  382.005">  2  5  1 -1</clus>
</clustering>
</event>
<event>
 9    1  0.1175034E-005  0.1994453E+03  0.7546771E-02  0.1150281E+00
         -2   -1    0    0    0  501 -0.00000000000E+00  0.00000000000E+00  0.34102382004E+03  0.34102382004E+03  0.00000000000E+00 0.  1.
          2   -1    0    0  502    0  0.00000000000E+00 -0.00000000000E+00 -0.16512384674E+04  0.16512384674E+04  0.00000000000E+00 0. -1.
         23    2    1    2    0    0  0.13145954908E+03  0.35522807847E+02 -0.44289709138E+03  0.47200424334E+03  0.89926020983E+02 0.  0.
         23    2    1    2    0    0 -0.21054152342E+03 -0.10370730513E+02 -0.11772506471E+04  0.11994074454E+04  0.90685439474E+02 0.  0.
        -13    1    4    4    0    0 -0.20013531688E+02  0.15578066593E+01 -0.28248764226E+02  0.34654882664E+02  0.00000000000E+00 0.  1.
         13    1    4    4    0    0 -0.19052799173E+03 -0.11928537173E+02 -0.11490018829E+04  0.11647525628E+04  0.00000000000E+00 0. -1.
        -13    1    3    3    0    0  0.51640430304E+02 -0.26089843400E+02 -0.11165102268E+03  0.12575120212E+03  0.00000000000E+00 0. -1.
         13    1    3    3    0    0  0.79819118775E+02  0.61612651247E+02 -0.33124606871E+03  0.34625304121E+03  0.00000000000E+00 0.  1.
         21    1    1    2  502  501  0.79081974344E+02 -0.25152077334E+02  0.30993309115E+03  0.32085059864E+03  0.00000000000E+00 0.  1.
<scales pt_clust_5="13000.00000" pt_clust_6="13000.00000" pt_clust_7="13000.00000" pt_clust_8="13000.00000" pt_clust_9="82.98545"></scales>
<clustering>
<clus scale="   82.985">  1  9  2 -1</clus>
<clus scale="   89.926">  7  8 -1 -1</clus>
<clus scale="   90.685">  5  6 -1 -1</clus>
<clus scale="  199.101">  1  7  2 -1</clus>
<clus scale="  199.445">  2  5  1 -1</clus>
</clustering>
</event>
<event>
 9    1  0.1175034E-005  0.3970337E+03  0.7546771E-02  0.1044954E+00
         -1   -1    0    0    0  501 -0.00000000000E+00  0.00000000000E+00  0.11653438195E+03  0.11653438195E+03  0.00000000000E+00 0.  1.
          1   -1    0    0  502    0  0.00000000000E+00 -0.00000000000E+00 -0.24578642581E+04  0.24578642581E+04  0.00000000000E+00 0. -1.
         23    2    1    2    0    0 -0.40368065308E+03  0.15309302916E+01 -0.58527768010E+03  0.71739541022E+03  0.95633667509E+02 0.  0.
         23    2    1    2    0    0  0.37936387311E+03  0.11695195803E+02 -0.17789084428E+04  0.18211055389E+04  0.88636391573E+02 0.  0.
        -11    1    3    3    0    0 -0.95964133188E+02 -0.38692814127E+02 -0.12496461860E+03  0.16224180912E+03  0.00000000000E+00 0.  1.
         11    1    3    3    0    0 -0.30771651989E+03  0.40223744419E+02 -0.46031306149E+03  0.55515360110E+03  0.00000000000E+00 0. -1.
        -13    1    4    4    0    0  0.13522817806E+03  0.37579279892E+02 -0.77561423428E+03  0.78821082385E+03  0.00000000000E+00 0.  1.
         13    1    4    4    0    0  0.24413569505E+03 -0.25884084088E+02 -0.10032942086E+04  0.10328947150E+04  0.00000000000E+00 0. -1.
         21    1    1    2  502  501  0.24316779976E+02 -0.13226126095E+02  0.22856246776E+02  0.35897690964E+02  0.00000000000E+00 0. -1.
<scales pt_clust_5="13000.00000" pt_clust_6="13000.00000" pt_clust_7="13000.00000" pt_clust_8="13000.00000" pt_clust_9="27.68097"></scales>
<clustering>
<clus scale="   27.681">  1  9  2 -1</clus>
<clus scale="   88.636">  7  8 -1 -1</clus>
<clus scale="   95.634">  5  6 -1 -1</clus>
<clus scale="  395.407">  2  7  1 -1</clus>
<clus scale="  395.407">  2  5  1 -1</clus>
</clustering>
</event>
<event>
 9    1  0.1175034E-005  0.1376561E+03  0.7546771E-02  0.1216545E+00
          2   -1    0    0  502    0  0.00000000000E+00  0.00000000000E+00  0.34067338973E+03  0.34067338973E+03  0.00000000000E+00 0. -1.
         -2   -1    0    0    0  501 -0.00000000000E+00 -0.00000000000E+00 -0.76669429431E+02  0.76669429431E+02  0.00000000000E+00 0.  1.
         23    2    1    2    0    0 -0.70052501711E+02  0.68907095987E+02  0.46785695444E+02  0.14250246136E+03  0.91991898139E+02 0.  0.
         23    2    1    2    0    0  0.66169003085E+02 -0.90606305651E+02  0.17552771390E+03  0.22768063663E+03  0.91873033891E+02 0.  0.
        -11    1    3    3    0    0  0.12555123444E+02  0.25528139842E+02 -0.13424981612E+02  0.31457068836E+02  0.00000000000E+00 0.  1.
         11    1    3    3    0    0 -0.82607625155E+02  0.43378956145E+02  0.60210677056E+02  0.11104539253E+03  0.00000000000E+00 0. -1.
        -13    1    4    4    0    0  0.29880361813E+02  0.14855652516E+02  0.44261017755E+02  0.55430714649E+02  0.00000000000E+00 0. -1.
         13    1    4    4    0    0  0.36288641271E+02 -0.10546195817E+03  0.13126669615E+03  0.17224992198E+03  0.00000000000E+00 0.  1.
         21    1    1    2  502  501  0.38834986263E+01  0.21699209664E+02  0.41690550950E+02  0.47159721162E+02  0.00000000000E+00 0. -1.
<scales pt_clust_5="13000.00000" pt_clust_6="13000.00000" pt_clust_7="13000.00000" pt_clust_8="13000.00000" pt_clust_9="22.04398"></scales>
<clustering>
<clus scale="   22.044">  1  9  2 -1</clus>
<clus scale="   91.873">  7  8 -1 -1</clus>
<clus scale="   91.992">  5  6 -1 -1</clus>
<clus scale="  137.577">  1  7  2 -1</clus>
<clus scale="   22.044">  1  5  2 -1</clus>
</clustering>
</event>
<event>
 9    1  0.1175034E-005  0.1005516E+03  0.7546771E-02  0.1281504E+00
          2   -1    0    0  502    0  0.00000000000E+00  0.00000000000E+00  0.20914714613E+03  0.20914714613E+03  0.00000000000E+00 0. -1.
         -2   -1    0    0    0  501 -0.00000000000E+00 -0.00000000000E+00 -0.82820867252E+02  0.82820867252E+02  0.00000000000E+00 0.  1.
         23    2    1    2    0    0 -0.32318896155E+02  0.19405781592E+02 -0.10014777598E+02  0.98922287025E+02  0.90907797752E+02 0.  0.
         23    2    1    2    0    0  0.46171379061E+02  0.80783375928E+01  0.12797712423E+03  0.16115178567E+03  0.85992429412E+02 0.  0.
        -13    1    3    3    0    0 -0.26314762655E+02 -0.31959898183E+02  0.11412638519E+02  0.42943569291E+02  0.00000000000E+00 0. -1.
         13    1    3    3    0    0 -0.60041334992E+01  0.51365679774E+02 -0.21427416116E+02  0.55978717734E+02  0.00000000000E+00 0.  1.
        -13    1    4    4    0    0 -0.44446797461E+01  0.38569184669E+02  0.52445688079E+02  0.65252489471E+02  0.00000000000E+00 0. -1.
         13    1    4    4    0    0  0.50616058807E+02 -0.30490847077E+02  0.75531436154E+02  0.95899296202E+02  0.00000000000E+00 0.  1.
         21    1    1    2  502  501 -0.13852482906E+02 -0.27484119184E+02  0.83639322465E+01  0.31893940688E+02  0.00000000000E+00 0. -1.
<scales pt_clust_5="13000.00000" pt_clust_6="13000.00000" pt_clust_7="13000.00000" pt_clust_8="13000.00000" pt_clust_9="30.77772"></scales>
<clustering>
<clus scale="   30.778">  2  9  1 -1</clus>
<clus scale="   85.992">  7  8 -1 -1</clus>
<clus scale="   90.908">  5  6 -1 -1</clus>
<clus scale="   96.131">  1  7  2 -1</clus>
<clus scale="   96.131">  1  5  2 -1</clus>
</clustering>
</event>
<event>
 9    1  0.1175034E-005  0.1093130E+03  0.7546771E-02  0.1262398E+00
          1   -1    0    0  502    0  0.00000000000E+00  0.00000000000E+00  0.84192341066E+02  0.84192341066E+02  0.00000000000E+00 0. -1.
         -1   -1    0    0    0  501 -0.00000000000E+00 -0.00000000000E+00 -0.33953571637E+03  0.33953571637E+03  0.00000000000E+00 0.  1.
         23    2    1    2    0    0 -0.17885861177E+01 -0.68262298135E+02 -0.11070468908E+03  0.15995443011E+03  0.93096461493E+02 0.  0.
         23    2    1    2    0    0 -0.36290599123E+02  0.44633815179E+02  0.41878117964E+01  0.10834629359E+03  0.91718027268E+02 0.  0.
        -11    1    3    3    0    0 -0.26817383855E+02 -0.82431342297E+02 -0.82203570299E+02  0.11946348915E+03  0.00000000000E+00 0. -1.
         11    1    3    3    0    0  0.25028797737E+02  0.14169044162E+02 -0.28501118777E+02  0.40490940964E+02  0.00000000000E+00 0.  1.
        -11    1    4    4    0    0 -0.66526676798E+02  0.40016059419E+02  0.16067458064E+01  0.77650919951E+02  0.00000000000E+00 0. -1.
         11    1    4    4    0    0  0.30236077675E+02  0.46177557600E+01  0.25810659900E+01  0.30695373643E+02  0.00000000000E+00 0.  1.
         21    1    1    2  502  501  0.38079185240E+02  0.23628482956E+02 -0.14882649803E+03  0.15542733373E+03  0.00000000000E+00 0.  1.
<scales pt_clust_5="13000.00000" pt_clust_6="13000.00000" pt_clust_7="13000.00000" pt_clust_8="13000.00000" pt_clust_9="44.81439"></scales>
<clustering>
<clus scale="   44.814">  2  9  1 -1</clus>
<clus scale="   91.718">  7  8 -1 -1</clus>
<clus scale="   93.096">  5  6 -1 -1</clus>
<clus scale="  108.141">  1  7  2 -1</clus>
<clus scale="  108.141">  1  5  2 -1</clus>
</clustering>
</event>
<event>
 9    1  0.1175034E-005  0.1514676E+03  0.7546771E-02  0.1199066E+00
         -1   -1    0    0    0  501 -0.00000000000E+00  0.00000000000E+00  0.39361682817E+02  0.39361682817E+02  0.00000000000E+00 0.  1.
          1   -1    0    0  502    0  0.00000000000E+00 -0.00000000000E+00 -0.70154383149E+03  0.70154383149E+03  0.00000000000E+00 0. -1.
         23    2    1    2    0    0 -0.65509470752E+02  0.10157810002E+03 -0.31002810763E+03  0.34476754888E+03  0.90208835915E+02 0.  0.
         23    2    1    2    0    0  0.42837867138E+02 -0.11279910906E+03 -0.32649515618E+03  0.36010615966E+03  0.92296464465E+02 0.  0.
        -11    1    3    3    0    0  0.19958387646E+02  0.10871246379E+02 -0.25599768033E+02  0.34232577446E+02  0.00000000000E+00 0.  1.
         11    1    3    3    0    0 -0.85467858398E+02  0.90706853643E+02 -0.28442833960E+03  0.31053497144E+03  0.00000000000E+00 0. -1.
        -13    1    4    4    0    0  0.11701974566E+02 -0.61677298609E+02 -0.27202473792E+03  0.27917464679E+03  0.00000000000E+00 0. -1.
         13    1    4    4    0    0  0.31135892572E+02 -0.51121810449E+02 -0.54470418262E+02  0.80931512870E+02  0.00000000000E+00 0.  1.
         21    1    1    2  502  501  0.22671603614E+02  0.11221009036E+02 -0.25658884856E+02  0.36031805759E+02  0.00000000000E+00 0. -1.
<scales pt_clust_5="13000.00000" pt_clust_6="13000.00000" pt_clust_7="13000.00000" pt_clust_8="13000.00000" pt_clust_9="25.29649"></scales>
<clustering>
<clus scale="   25.296">  1  9  2 -1</clus>
<clus scale="   90.209">  5  6 -1 -1</clus>
<clus scale="   92.296">  7  8 -1 -1</clus>
<clus scale="  150.205">  1  5  2 -1</clus>
<clus scale="  151.468">  2  5  1 -1</clus>
</clustering>
</event>
<event>
 9    1  0.1175034E-005  0.2170085E+03  0.7546771E-02  0.1136552E+00
         -2   -1    0    0    0  501 -0.00000000000E+00  0.00000000000E+00  0.23376952585E+03  0.23376952585E+03  0.00000000000E+00 0.  1.
          2   -1    0    0  502    0  0.00000000000E+00 -0.00000000000E+00 -0.12869557110E+04  0.12869557110E+04  0.00000000000E+00 0. -1.
         23    2    1    2    0    0 -0.18648803585E+03 -0.26298441617E+02 -0.35465787965E+03  0.41153533130E+03  0.90053993574E+02 0.  0.
         23    2    1    2    0    0  0.19845042154E+03 -0.64275559744E+02 -0.87875474288E+03  0.90712972367E+03  0.84619856017E+02 0.  0.
        -11    1    4    4    0    0  0.14655883473E+03 -0.71377607684E+02 -0.76081527233E+03  0.77808362888E+03  0.00000000000E+00 0.  1.
         11    1    4    4    0    0  0.51891586806E+02  0.71020479402E+01 -0.11793947056E+03  0.12904609479E+03  0.00000000000E+00 0. -1.
        -11    1    3    3    0    0 -0.13781383267E+03 -0.29822298642E+02 -0.32539643184E+03  0.35463341611E+03  0.00000000000E+00 0.  1.
         11    1    3    3    0    0 -0.48674203175E+02  0.35238570252E+01 -0.29261447816E+02  0.56901915181E+02  0.00000000000E+00 0. -1.
         21    1    1    2  502  501 -0.11962385689E+02  0.90574001360E+02  0.18022643736E+03  0.20206018192E+03  0.00000000000E+00 0.  1.
<scales pt_clust_5="13000.00000" pt_clust_6="13000.00000" pt_clust_7="13000.00000" pt_clust_8="13000.00000" pt_clust_9="91.36054"></scales>
<clustering>
<clus scale="   84.620">  5  6 -1 -1</clus>
<clus scale="   90.054">  7  8 -1 -1</clus>
<clus scale="   91.361">  1  9  2 -1</clus>
<clus scale="  214.810">  2  5  1 -1</clus>
<clus scale="  214.810">  2  5  1 -1</clus>
</clustering>
</event>
<event>
 9    1  0.1175034E-005  0.1120180E+03  0.7546771E-02  0.1257287E+00
         -2   -1    0    0    0  501 -0.00000000000E+00  0.00000000000E+00  0.57651486224E+03  0.57651486224E+03  0.00000000000E+00 0.  1.
          2   -1    0    0  502    0  0.00000000000E+00 -0.00000000000E+00 -0.30846109095E+02  0.30846109095E+02  0.00000000000E+00 0. -1.
         23    2    1    2    0    0 -0.38573675424E+02  0.29993902362E+02  0.21554083371E+03  0.23937518823E+03  0.91951438982E+02 0.  0.
         23    2    1    2    0    0  0.59435872620E+02 -0.49782446034E+02  0.18620111618E+03  0.22121472864E+03  0.90852548741E+02 0.  0.
        -11    1    3    3    0    0 -0.52652398608E+02 -0.78463272257E+01  0.17175735986E+03  0.17981777053E+03  0.00000000000E+00 0.  1.
         11    1    3    3    0    0  0.14078723184E+02  0.37840229587E+02  0.43783473843E+02  0.59557417703E+02  0.00000000000E+00 0. -1.
        -11    1    4    4    0    0 -0.13347103993E+02  0.15655919962E+02  0.22517831283E+02  0.30500913765E+02  0.00000000000E+00 0. -1.
         11    1    4    4    0    0  0.72782976612E+02 -0.65438365996E+02  0.16368328489E+03  0.19071381487E+03  0.00000000000E+00 0.  1.
         21    1    1    2  502  501 -0.20862197196E+02  0.19788543672E+02  0.14392680326E+03  0.14677105446E+03  0.00000000000E+00 0. -1.
<scales pt_clust_5="13000.00000" pt_clust_6="13000.00000" pt_clust_7="13000.00000" pt_clust_8="13000.00000" pt_clust_9="28.75444"></scales>
<clustering>
<clus scale="   28.754">  1  9  2 -1</clus>
<clus scale="   90.853">  7  8 -1 -1</clus>
<clus scale="   91.951">  5  6 -1 -1</clus>
<clus scale="  111.118">  2  7  1 -1</clus>
<clus scale="  111.118">  2  5  1 -1</clus>
</clustering>
</event>
<event>
 9    1  0.1175034E-005  0.1471868E+03  0.7546771E-02  0.1205855E+00
         -1   -1    0    0    0  501 -0.00000000000E+00  0.00000000000E+00  0.21088903103E+03  0.21088903103E+03  0.00000000000E+00 0.  1.
          1   -1    0    0  502    0  0.00000000000E+00 -0.00000000000E+00 -0.22723784982E+03  0.22723784982E+03  0.00000000000E+00 0. -1.
         23    2    1    2    0    0  0.36849528060E+02 -0.60896325097E+02  0.84599008572E+02  0.14242354462E+03  0.89784317573E+02 0.  0.
         23    2    1    2    0    0 -0.98816472254E+02  0.85091581199E+02 -0.14911273608E+03  0.21357434608E+03  0.79838091557E+02 0.  0.
        -13    1    3    3    0    0  0.28475406845E+02  0.58984359197E+01  0.66705200952E+02  0.72768291002E+02  0.00000000000E+00 0.  1.
         13    1    3    3    0    0  0.83741212147E+01 -0.66794761017E+02  0.17893807620E+02  0.69655253618E+02  0.00000000000E+00 0. -1.
        -13    1    4    4    0    0  0.46133643778E+00  0.40770521756E+02 -0.62248331346E+02  0.74413056857E+02  0.00000000000E+00 0.  1.
         13    1    4    4    0    0 -0.99277808692E+02  0.44321059443E+02 -0.86864404732E+02  0.13916128922E+03  0.00000000000E+00 0. -1.
         21    1    1    2  502  501  0.61966944194E+02 -0.24195256102E+02  0.48164908715E+02  0.82128990144E+02  0.00000000000E+00 0.  1.
<scales pt_clust_5="13000.00000" pt_clust_6="13000.00000" pt_clust_7="13000.00000" pt_clust_8="13000.00000" pt_clust_9="66.52302"></scales>
<clustering>
<clus scale="   66.523">  1  9  2 -1</clus>
<clus scale="   79.838">  7  8 -1 -1</clus>
<clus scale="   89.784">  5  6 -1 -1</clus>
<clus scale="  141.340">  2  7  1 -1</clus>
<clus scale="  141.340">  2  5  1 -1</clus>
</clustering>
</event>
<event>
 9    1  0.1175034E-005  0.1047403E+03  0.7546771E-02  0.1270901E+00
          2   -1    0    0  502    0  0.00000000000E+00  0.00000000000E+00  0.63858840343E+03  0.63858840343E+03  0.00000000000E+00 0. -1.
         -2   -1    0    0    0  501 -0.00000000000E+00 -0.00000000000E+00 -0.79046364477E+02  0.79046364477E+02  0.00000000000E+00 0.  1.
         23    2    1    2    0    0  0.42298981307E+02 -0.66296609631E+02  0.89300113090E+00  0.12034049153E+03  0.91085631049E+02 0.  0.
         23    2    1    2    0    0 -0.24838731296E+02  0.41493068545E+02  0.55737451456E+03  0.56693475743E+03  0.91706228743E+02 0.  0.
        -11    1    4    4    0    0  0.12706562268E+02  0.59902430419E+02  0.36109785735E+03  0.36625321906E+03  0.00000000000E+00 0. -1.
         11    1    4    4    0    0 -0.37545293564E+02 -0.18409361874E+02  0.19627665722E+03  0.20068153837E+03  0.00000000000E+00 0.  1.
        -13    1    3    3    0    0 -0.18973791191E+02 -0.52464451394E+02 -0.97352838675E+01  0.56633021854E+02  0.00000000000E+00 0.  1.
         13    1    3    3    0    0  0.61272772498E+02 -0.13832158237E+02  0.10628284998E+02  0.63707469681E+02  0.00000000000E+00 0. -1.
         21    1    1    2  502  501 -0.17460250011E+02  0.24803541086E+02  0.12745232589E+01  0.30359518942E+02  0.00000000000E+00 0. -1.
<scales pt_clust_5="13000.00000" pt_clust_6="13000.00000" pt_clust_7="13000.00000" pt_clust_8="13000.00000" pt_clust_9="30.33275"></scales>
<clustering>
<clus scale="   30.333">  2  9  1 -1</clus>
<clus scale="   91.086">  7  8 -1 -1</clus>
<clus scale="   91.706">  5  6 -1 -1</clus>
<clus scale="  104.197">  2  7  1 -1</clus>
<clus scale="  104.740">  1  5  2 -1</clus>
</clustering>
</event>
<event>
 9    1  0.1175034E-005  0.1850346E+03  0.7546771E-02  0.1164003E+00
          2   -1    0    0  502    0  0.00000000000E+00  0.00000000000E+00  0.70467399017E+03  0.70467399017E+03  0.00000000000E+00 0. -1.
         -2   -1    0    0    0  501 -0.00000000000E+00 -0.00000000000E+00 -0.13290463435E+03  0.13290463435E+03  0.00000000000E+00 0.  1.
         23    2    1    2    0    0 -0.35125043438E+02  0.18044937862E+03  0.12509699618E+03  0.23808181677E+03  0.85076119476E+02 0.  0.
         23    2    1    2    0    0  0.23499961989E+02 -0.15117378798E+03  0.50351736693E+03  0.53450790423E+03  0.93611957012E+02 0.  0.
        -13    1    4    4    0    0  0.14610528329E+02 -0.90091235243E+02  0.14956006761E+03  0.17520876699E+03  0.00000000000E+00 0.  1.
         13    1    4    4    0    0  0.88894336604E+01 -0.61082552741E+02  0.35395729933E+03  0.35929913725E+03  0.00000000000E+00 0. -1.
        -13    1    3    3    0    0 -0.34286348330E+02  0.60751854589E+02  0.88951645149E+02  0.11304307450E+03  0.00000000000E+00 0.  1.
         13    1    3    3    0    0 -0.83869510745E+00  0.11969752403E+03  0.36145351029E+02  0.12503874227E+03  0.00000000000E+00 0. -1.
         21    1    1    2  502  501  0.11625081448E+02 -0.29275590632E+02 -0.56845007294E+02  0.64988903513E+02  0.00000000000E+00 0.  1.
<scales pt_clust_5="13000.00000" pt_clust_6="13000.00000" pt_clust_7="13000.00000" pt_clust_8="13000.00000" pt_clust_9="31.49925"></scales>
<clustering>
<clus scale="   31.499">  2  9  1 -1</clus>
<clus scale="   85.076">  7  8 -1 -1</clus>
<clus scale="   93.612">  5  6 -1 -1</clus>
<clus scale="  180.866">  2  7  1 -1</clus>
<clus scale="  185.035">  1  5  2 -1</clus>
</clustering>
</event>
<event>
 9    1  0.1175034E-005  0.1052885E+03  0.7546771E-02  0.1271456E+00
          1   -1    0    0  502    0  0.00000000000E+00  0.00000000000E+00  0.57363638701E+02  0.57363638701E+02  0.00000000000E+00 0. -1.
         -1   -1    0    0    0  501 -0.00000000000E+00 -0.00000000000E+00 -0.27029932938E+03  0.27029932938E+03  0.00000000000E+00 0.  1.
         23    2    1    2    0    0 -0.26468101142E+02 -0.65933902408E+01 -0.90164866438E+02  0.13341531300E+03  0.94477031235E+02 0.  0.
         23    2    1    2    0    0  0.62727861808E+02  0.15420247639E+02 -0.76369831740E+02  0.13470157410E+03  0.90219699513E+02 0.  0.
        -11    1    3    3    0    0  0.41545460160E+01  0.21259118910E+02 -0.89428206850E+02  0.92014208521E+02  0.00000000000E+00 0. -1.
         11    1    3    3    0    0 -0.30622647158E+02 -0.27852509150E+02 -0.73665958748E+00  0.41401104481E+02  0.00000000000E+00 0.  1.
        -13    1    4    4    0    0  0.79682442639E+02 -0.94421646241E+01 -0.48965930335E+02  0.94000576973E+02  0.00000000000E+00 0.  1.
         13    1    4    4    0    0 -0.16954580831E+02  0.24862412263E+02 -0.27403901405E+02  0.40700997124E+02  0.00000000000E+00 0. -1.
         21    1    1    2  502  501 -0.36259760666E+02 -0.88268573982E+01 -0.46400992506E+02  0.59546080985E+02  0.00000000000E+00 0. -1.
<scales pt_clust_5="13000.00000" pt_clust_6="13000.00000" pt_clust_7="13000.00000" pt_clust_8="13000.00000" pt_clust_9="37.31868"></scales>
<clustering>
<clus scale="   37.319">  2  9  1 -1</clus>
<clus scale="   90.220">  7  8 -1 -1</clus>
<clus scale="   94.477">  5  6 -1 -1</clus>
<clus scale="  101.486">  1  7  2 -1</clus>
<clus scale="  101.486">  1  5  2 -1</clus>
</clustering>
</event>
<event>
 9    1  0.1175034E-005  0.1000536E+03  0.7546771E-02  0.1280667E+00
         -1   -1    0    0    0  501 -0.00000000000E+00  0.00000000000E+00  0.11705112781E+03  0.11705112781E+03  0.00000000000E+00 0.  1.
          1   -1    0    0  502    0  0.00000000000E+00 -0.00000000000E+00 -0.16468013296E+03  0.16468013296E+03  0.00000000000E+00 0. -1.
         23    2    1    2    0    0  0.67328151486E+01  0.86186996713E+01 -0.44805444551E+01  0.91655854453E+02  0.90890635343E+02 0.  0.
         23    2    1    2    0    0 -0.70260966338E+02  0.11051438063E+02 -0.42014334527E+02  0.12356205011E+03  0.91889271670E+02 0.  0.
        -11    1    4    4    0    0 -0.49149723275E+02 -0.28372389437E+02 -0.52848677534E+02  0.77547859400E+02  0.00000000000E+00 0. -1.
         11    1    4    4    0    0 -0.21111243063E+02  0.39423827501E+02  0.10834343007E+02  0.46014190712E+02  0.00000000000E+00 0.  1.
        -13    1    3    3    0    0  0.24284588315E+02 -0.25015678355E+02  0.25587994665E+02  0.43246628356E+02  0.00000000000E+00 0.  1.
         13    1    3    3    0    0 -0.17551773166E+02  0.33634378027E+02 -0.30068539120E+02  0.48409226097E+02  0.00000000000E+00 0. -1.
         21    1    1    2  502  501  0.63528151190E+02 -0.19670137735E+02 -0.11341261699E+01  0.66513356210E+02  0.00000000000E+00 0.  1.
<scales pt_clust_5="13000.00000" pt_clust_6="13000.00000" pt_clust_7="13000.00000" pt_clust_8="13000.00000" pt_clust_9="66.50369"></scales>
<clustering>
<clus scale="   66.504">  1  9  2 -1</clus>
<clus scale="   90.891">  7  8 -1 -1</clus>
<clus scale="   91.889">  5  6 -1 -1</clus>
<clus scale="   99.137">  1  7  2 -1</clus>
<clus scale="  100.054">  2  5  1 -1</clus>
</clustering>
</event>
<event>
 9    1  0.1175034E-005  0.9552896E+02  0.7546771E-02  0.1291110E+00
         -1   -1    0    0    0  501 -0.00000000000E+00  0.00000000000E+00  0.57453006634E+02  0.57453006634E+02  0.00000000000E+00 0.  1.
          1   -1    0    0  502    0  0.00000000000E+00 -0.00000000000E+00 -0.38924679245E+03  0.38924679245E+03  0.00000000000E+00 0. -1.
         23    2    1    2    0    0  0.34735329702E+01 -0.21793685974E+02 -0.76826400189E+02  0.11999010457E+03  0.89489101290E+02 0.  0.
         23    2    1    2    0    0 -0.36704289990E+02 -0.18469343870E+02 -0.25549902404E+03  0.27450167383E+03  0.91559249017E+02 0.  0.
        -11    1    4    4    0    0 -0.17813449610E+02  0.27121887167E+02 -0.18859328966E+03  0.19136442892E+03  0.00000000000E+00 0. -1.
         11    1    4    4    0    0 -0.18890840380E+02 -0.45591231036E+02 -0.66905734379E+02  0.83137244905E+02  0.00000000000E+00 0.  1.
        -11    1    3    3    0    0  0.15084369918E+02 -0.46411923924E+02 -0.78812837149E+02  0.92698803648E+02  0.00000000000E+00 0.  1.
         11    1    3    3    0    0 -0.11610836948E+02  0.24618237949E+02  0.19864369606E+01  0.27291300925E+02  0.00000000000E+00 0. -1.
         21    1    1    2  502  501  0.33230757019E+02  0.40263029844E+02  0.53163841652E+00  0.52208020684E+02  0.00000000000E+00 0.  1.
<scales pt_clust_5="13000.00000" pt_clust_6="13000.00000" pt_clust_7="13000.00000" pt_clust_8="13000.00000" pt_clust_9="52.20531"></scales>
<clustering>
<clus scale="   52.205">  1  9  2 -1</clus>
<clus scale="   89.489">  7  8 -1 -1</clus>
<clus scale="   91.559">  5  6 -1 -1</clus>
<clus scale="   93.547">  1  7  2 -1</clus>
<clus scale="   95.529">  2  5  1 -1</clus>
</clustering>
</event>
<event>
 9    1  0.1175034E-005  0.1654316E+03  0.7546771E-02  0.1182774E+00
         -2   -1    0    0    0  501 -0.00000000000E+00  0.00000000000E+00  0.16571308281E+03  0.16571308281E+03  0.00000000000E+00 0.  1.
          2   -1    0    0  502    0  0.00000000000E+00 -0.00000000000E+00 -0.34483547602E+03  0.34483547602E+03  0.00000000000E+00 0. -1.
         23    2    1    2    0    0  0.25998214367E+02  0.95314623135E+02  0.77851410654E+02  0.15443264990E+03  0.89598084135E+02 0.  0.
         23    2    1    2    0    0 -0.36207017221E+02 -0.14344987061E+03 -0.25316656699E+03  0.30676292769E+03  0.90118642298E+02 0.  0.
        -11    1    3    3    0    0  0.49240551830E+02  0.80613012732E+02  0.83822107882E+02  0.12629028282E+03  0.00000000000E+00 0.  1.
         11    1    3    3    0    0 -0.23242337462E+02  0.14701610404E+02 -0.59706972288E+01  0.28142367075E+02  0.00000000000E+00 0. -1.
        -13    1    4    4    0    0  0.70372212848E+01 -0.55893878571E+02 -0.31509968017E+02  0.64548634607E+02  0.00000000000E+00 0.  1.
         13    1    4    4    0    0 -0.43244238506E+02 -0.87555992036E+02 -0.22165659897E+03  0.24221429308E+03  0.00000000000E+00 0. -1.
         21    1    1    2  502  501  0.10208802854E+02  0.48135247472E+02 -0.38072368781E+01  0.49352981243E+02  0.00000000000E+00 0.  1.
<scales pt_clust_5="13000.00000" pt_clust_6="13000.00000" pt_clust_7="13000.00000" pt_clust_8="13000.00000" pt_clust_9="49.20591"></scales>
<clustering>
<clus scale="   49.206">  1  9  2 -1</clus>
<clus scale="   89.598">  5  6 -1 -1</clus>
<clus scale="   90.119">  7  8 -1 -1</clus>
<clus scale="  165.149">  1  5  2 -1</clus>
<clus scale="  165.432">  2  5  1 -1</clus>
</clustering>
</event>
<event>
 9    1  0.1569828E-005  0.1055303E+03  0.7546771E-02  0.1270738E+00
          4   -1    0    0  502    0  0.00000000000E+00  0.00000000000E+00  0.15514439880E+03  0.15514439880E+03  0.00000000000E+00 0. -1.
         -4   -1    0    0    0  501 -0.00000000000E+00 -0.00000000000E+00 -0.22829048308E+03  0.22829048308E+03  0.00000000000E+00 0.  1.
         23    2    1    2    0    0 -0.25670404762E+02 -0.28358793800E+02 -0.15254127766E+03  0.18239650377E+03  0.92392923610E+02 0.  0.
         23    2    1    2    0    0  0.44428484992E+01  0.53198913887E+02  0.11367935922E+03  0.15367758484E+03  0.88566020734E+02 0.  0.
        -11    1    4    4    0    0  0.27291932172E+02 -0.15044513764E+02  0.39665146171E+02  0.50443144003E+02  0.00000000000E+00 0.  1.
         11    1    4    4    0    0 -0.22849083673E+02  0.68243427651E+02  0.74014213048E+02  0.10323444084E+03  0.00000000000E+00 0. -1.
        -11    1    3    3    0    0  0.13667209521E+02 -0.47745145352E+02 -0.11265460817E+03  0.12311560527E+03  0.00000000000E+00 0.  1.
         11    1    3    3    0    0 -0.39337614282E+02  0.19386351552E+02 -0.39886669491E+02  0.59280898501E+02  0.00000000000E+00 0. -1.
         21    1    1    2  502  501  0.21227556262E+02 -0.24840120087E+02 -0.34284165840E+02  0.47360793260E+02  0.00000000000E+00 0. -1.
<scales pt_clust_5="13000.00000" pt_clust_6="13000.00000" pt_clust_7="13000.00000" pt_clust_8="13000.00000" pt_clust_9="32.67477"></scales>
<clustering>
<clus scale="   32.675">  2  9  1 -1</clus>
<clus scale="   88.566">  5  6 -1 -1</clus>
<clus scale="   92.393">  7  8 -1 -1</clus>
<clus scale="  102.197">  1  5  2 -1</clus>
<clus scale="  102.197">  1  5  2 -1</clus>
</clustering>
</event>
<event>
 9    1  0.1175034E-005  0.1088779E+03  0.7546771E-02  0.1263736E+00
         -2   -1    0    0    0  501 -0.00000000000E+00  0.00000000000E+00  0.23131057973E+03  0.23131057973E+03  0.00000000000E+00 0.  1.
          2   -1    0    0  502    0  0.00000000000E+00 -0.00000000000E+00 -0.14663736460E+03  0.14663736460E+03  0.00000000000E+00 0. -1.
         23    2    1    2    0    0 -0.49870093296E+01 -0.26639494520E+02  0.81841233127E+02  0.12827971496E+03  0.94990341096E+02 0.  0.
         23    2    1    2    0    0 -0.63668758577E+02  0.19886702931E+02 -0.81954950123E+02  0.14036114578E+03  0.92387475471E+02 0.  0.
        -11    1    4    4    0    0 -0.79339095006E+02 -0.30405097801E+01 -0.79699926256E+02  0.11249895529E+03  0.00000000000E+00 0.  1.
         11    1    4    4    0    0  0.15670336429E+02  0.22927212711E+02 -0.22550238671E+01  0.27862190494E+02  0.00000000000E+00 0. -1.
        -11    1    3    3    0    0 -0.93267499220E+01 -0.47897511536E+02  0.92139413985E+02  0.10426327966E+03  0.00000000000E+00 0.  1.
         11    1    3    3    0    0  0.43397405924E+01  0.21258017017E+02 -0.10298180858E+02  0.24016435307E+02  0.00000000000E+00 0. -1.
         21    1    1    2  502  501  0.68655767907E+02  0.67527915891E+01  0.84786932125E+02  0.10930708358E+03  0.00000000000E+00 0. -1.
<scales pt_clust_5="13000.00000" pt_clust_6="13000.00000" pt_clust_7="13000.00000" pt_clust_8="13000.00000" pt_clust_9="68.98706"></scales>
<clustering>
<clus scale="   68.987">  1  9  2 -1</clus>
<clus scale="   92.387">  5  6 -1 -1</clus>
<clus scale="   94.990">  7  8 -1 -1</clus>
<clus scale="  106.615">  2  5  1 -1</clus>
<clus scale="  106.615">  2  5  1 -1</clus>
</clustering>
</event>
<event>
 9    1  0.1175034E-005  0.1513163E+03  0.7546771E-02  0.1211948E+00
          2   -1    0    0  502    0  0.00000000000E+00  0.00000000000E+00  0.37116222940E+03  0.37116222940E+03  0.00000000000E+00 0. -1.
         -2   -1    0    0    0  501 -0.00000000000E+00 -0.00000000000E+00 -0.17167887344E+03  0.17167887344E+03  0.00000000000E+00 0.  1.
         23    2    1    2    0    0 -0.32718147903E+02 -0.67489658769E+02 -0.80923746077E+02  0.13995205261E+03  0.86096417514E+02 0.  0.
         23    2    1    2    0    0  0.96013592000E+02 -0.60976906210E+02  0.99931465676E+02  0.17249498155E+03  0.82652452400E+02 0.  0.
        -11    1    4    4    0    0  0.11901330731E+02 -0.45709553845E+02  0.64526570038E+02  0.79966763263E+02  0.00000000000E+00 0.  1.
         11    1    4    4    0    0  0.84112261269E+02 -0.15267352365E+02  0.35404895638E+02  0.92528218286E+02  0.00000000000E+00 0. -1.
        -13    1    3    3    0    0  0.23524889717E+02 -0.30817601546E+02 -0.56463406358E+02  0.68492782530E+02  0.00000000000E+00 0.  1.
         13    1    3    3    0    0 -0.56243037620E+02 -0.36672057223E+02 -0.24460339719E+02  0.71459270084E+02  0.00000000000E+00 0. -1.
         21    1    1    2  502  501 -0.63295444097E+02  0.12846656498E+03  0.18047563636E+03  0.23039406867E+03  0.00000000000E+00 0. -1.
<scales pt_clust_5="13000.00000" pt_clust_6="13000.00000" pt_clust_7="13000.00000" pt_clust_8="13000.00000" pt_clust_9="126.74859"></scales>
<clustering>
<clus scale="   82.652">  5  6 -1 -1</clus>
<clus scale="   86.096">  7  8 -1 -1</clus>
<clus scale="  114.184">  2  7  1 -1</clus>
<clus scale="  126.749">  1  9  2 -1</clus>
<clus scale="  126.749">  1  5  2 -1</clus>
</clustering>
</event>
<event>
 9    1  0.1175034E-005  0.1361106E+03  0.7546771E-02  0.1218938E+00
          1   -1    0    0  502    0  0.00000000000E+00  0.00000000000E+00  0.24423989566E+03  0.24423989566E+03  0.00000000000E+00 0. -1.
         -1   -1    0    0    0  501 -0.00000000000E+00 -0.00000000000E+00 -0.15397810078E+03  0.15397810078E+03  0.00000000000E+00 0.  1.
         23    2    1    2    0    0  0.89383328131E+02 -0.10087764152E+02 -0.51898619652E+02  0.14056833965E+03  0.94735679958E+02 0.  0.
         23    2    1    2    0    0 -0.99068812162E+02 -0.16223035572E+02  0.16976330411E+03  0.21830519980E+03  0.93593613098E+02 0.  0.
        -11    1    4    4    0    0 -0.27337996907E+02 -0.19370698302E+02 -0.51414796172E+00  0.33509019319E+02  0.00000000000E+00 0.  1.
         11    1    4    4    0    0 -0.71730815255E+02  0.31476627301E+01  0.17027745207E+03  0.18479618048E+03  0.00000000000E+00 0. -1.
        -13    1    3    3    0    0  0.61198525116E+02 -0.34428224682E+02  0.73357623596E+01  0.70600110061E+02  0.00000000000E+00 0.  1.
         13    1    3    3    0    0  0.28184803015E+02  0.24340460530E+02 -0.59234382011E+02  0.69968229591E+02  0.00000000000E+00 0. -1.
         21    1    1    2  502  501  0.96854840305E+01  0.26310799725E+02 -0.27602889575E+02  0.39344456991E+02  0.00000000000E+00 0. -1.
<scales pt_clust_5="13000.00000" pt_clust_6="13000.00000" pt_clust_7="13000.00000" pt_clust_8="13000.00000" pt_clust_9="28.03688"></scales>
<clustering>
<clus scale="   28.037">  2  9  1 -1</clus>
<clus scale="   93.594">  5  6 -1 -1</clus>
<clus scale="   94.736">  7  8 -1 -1</clus>
<clus scale="  135.318">  1  5  2 -1</clus>
<clus scale="  135.318">  1  5  2 -1</clus>
</clustering>
</event>
<event>
 9    1  0.1175034E-005  0.1311193E+03  0.7546771E-02  0.1226209E+00
          1   -1    0    0  502    0  0.00000000000E+00  0.00000000000E+00  0.36374365465E+03  0.36374365465E+03  0.00000000000E+00 0. -1.
         -1   -1    0    0    0  501 -0.00000000000E+00 -0.00000000000E+00 -0.80291057781E+02  0.80291057781E+02  0.00000000000E+00 0.  1.
         23    2    1    2    0    0  0.77878723987E+02  0.45872875170E+02  0.66325178480E+02  0.14302586545E+03  0.88814146177E+02 0.  0.
         23    2    1    2    0    0 -0.96977891607E+02 -0.19010790797E+02  0.22956195506E+03  0.26578147860E+03  0.90415604473E+02 0.  0.
        -11    1    4    4    0    0 -0.69571796655E+02  0.72069124929E+01  0.60381403975E+02  0.92401777166E+02  0.00000000000E+00 0. -1.
         11    1    4    4    0    0 -0.27406094952E+02 -0.26217703290E+02  0.16918055108E+03  0.17337970144E+03  0.00000000000E+00 0.  1.
        -11    1    3    3    0    0  0.70088306516E+01  0.43089023822E+02  0.56535856758E+02  0.71428921176E+02  0.00000000000E+00 0. -1.
         11    1    3    3    0    0  0.70869893335E+02  0.27838513488E+01  0.97893217228E+01  0.71596944275E+02  0.00000000000E+00 0.  1.
         21    1    1    2  502  501  0.19099167620E+02 -0.26862084373E+02 -0.12434536667E+02  0.35227368377E+02  0.00000000000E+00 0.  1.
<scales pt_clust_5="13000.00000" pt_clust_6="13000.00000" pt_clust_7="13000.00000" pt_clust_8="13000.00000" pt_clust_9="32.95982"></scales>
<clustering>
<clus scale="   32.960">  2  9  1 -1</clus>
<clus scale="   88.814">  7  8 -1 -1</clus>
<clus scale="   90.416">  5  6 -1 -1</clus>
<clus scale="  130.020">  2  7  1 -1</clus>
<clus scale="  131.119">  1  5  2 -1</clus>
</clustering>
</event>
<event>
 9    1  0.1175034E-005  0.5880987E+03  0.7546771E-02  0.9930590E-01
          1   -1    0    0  502    0  0.00000000000E+00  0.00000000000E+00  0.40799105955E+03  0.40799105955E+03  0.00000000000E+00 0. -1.
         -1   -1    0    0    0  501 -0.00000000000E+00 -0.00000000000E+00 -0.98917300515E+03  0.98917300515E+03  0.00000000000E+00 0.  1.
         23    2    1    2    0    0 -0.50350063490E+03  0.31341386878E+03 -0.35982535478E+03  0.69932496075E+03  0.88543618027E+02 0.  0.
         23    2    1    2    0    0  0.47850102298E+03 -0.31532904575E+03 -0.11877067756E+03  0.59223362067E+03  0.90766466955E+02 0.  0.
        -11    1    4    4    0    0  0.13041737421E+02 -0.28643772033E+02 -0.18323722412E+02  0.36418558377E+02  0.00000000000E+00 0.  1.
         11    1    4    4    0    0  0.46545928556E+03 -0.28668527372E+03 -0.10044695515E+03  0.55581506230E+03  0.00000000000E+00 0. -1.
        -13    1    3    3    0    0 -0.48767034122E+02  0.11316302138E+02 -0.53710439251E+02  0.73424066870E+02  0.00000000000E+00 0. -1.
         13    1    3    3    0    0 -0.45473360078E+03  0.30209756664E+03 -0.30611491553E+03  0.62590089388E+03  0.00000000000E+00 0.  1.
         21    1    1    2  502  501  0.24999611924E+02  0.19151769667E+01 -0.10258591326E+03  0.10560548327E+03  0.00000000000E+00 0.  1.
<scales pt_clust_5="13000.00000" pt_clust_6="13000.00000" pt_clust_7="13000.00000" pt_clust_8="13000.00000" pt_clust_9="25.07286"></scales>
<clustering>
<clus scale="   25.073">  2  9  1 -1</clus>
<clus scale="   88.544">  7  8 -1 -1</clus>
<clus scale="   90.766">  5  6 -1 -1</clus>
<clus scale="  587.760">  2  7  1 -1</clus>
<clus scale="  588.099">  1  5  2 -1</clus>
</clustering>
</event>
<event>
 9    1  0.1175034E-005  0.1304623E+03  0.7546771E-02  0.1226816E+00
         -2   -1    0    0    0  501 -0.00000000000E+00  0.00000000000E+00  0.69571729287E+02  0.69571729287E+02  0.00000000000E+00 0.  1.
          2   -1    0    0  502    0  0.00000000000E+00 -0.00000000000E+00 -0.62200938163E+03  0.62200938163E+03  0.00000000000E+00 0. -1.
         23    2    1    2    0    0 -0.35965223269E+02 -0.27567652034E+00 -0.47681235647E+02  0.10893858444E+03  0.91107308518E+02 0.  0.
         23    2    1    2    0    0  0.89153322221E+02  0.79684920281E+02 -0.44543902061E+03  0.47015539235E+03  0.91280723549E+02 0.  0.
        -11    1    3    3    0    0 -0.20991517493E+02 -0.18182485111E+02  0.22014094177E+02  0.35438212622E+02  0.00000000000E+00 0.  1.
         11    1    3    3    0    0 -0.14973705777E+02  0.17906808590E+02 -0.69695329824E+02  0.73500371821E+02  0.00000000000E+00 0. -1.
        -11    1    4    4    0    0  0.82262221646E+02  0.42260491080E+02 -0.40156862879E+03  0.41208055747E+03  0.00000000000E+00 0. -1.
         11    1    4    4    0    0  0.68911005742E+01  0.37424429200E+02 -0.43870391824E+02  0.58074834885E+02  0.00000000000E+00 0.  1.
         21    1    1    2  502  501 -0.53188098951E+02 -0.79409243760E+02 -0.59317396084E+02  0.11248713412E+03  0.00000000000E+00 0.  1.
<scales pt_clust_5="13000.00000" pt_clust_6="13000.00000" pt_clust_7="13000.00000" pt_clust_8="13000.00000" pt_clust_9="95.57616"></scales>
<clustering>
<clus scale="   91.107">  5  6 -1 -1</clus>
<clus scale="   91.281">  7  8 -1 -1</clus>
<clus scale="   95.576">  1  9  2 -1</clus>
<clus scale="  130.341">  1  5  2 -1</clus>
<clus scale="  130.462">  2  5  1 -1</clus>
</clustering>
</event>
<event>
 9    1  0.1175034E-005  0.9487063E+02  0.7546771E-02  0.1293734E+00
          1   -1    0    0  502    0  0.00000000000E+00  0.00000000000E+00  0.90763455741E+02  0.90763455741E+02  0.00000000000E+00 0. -1.
         -1   -1    0    0    0  501 -0.00000000000E+00 -0.00000000000E+00 -0.30940406493E+03  0.30940406493E+03  0.00000000000E+00 0.  1.
         23    2    1    2    0    0  0.40520735389E+02 -0.23259983485E+02 -0.75299659986E+02  0.12920703030E+03  0.94029043686E+02 0.  0.
         23    2    1    2    0    0  0.16509316129E+02 -0.27130579955E+02  0.13674378881E+02  0.96474247610E+02  0.90064787383E+02 0.  0.
        -11    1    3    3    0    0  0.24926646364E+01 -0.40142133406E+02  0.32166338659E+01  0.40347874601E+02  0.00000000000E+00 0. -1.
         11    1    3    3    0    0  0.38028070753E+02  0.16882149921E+02 -0.78516293852E+02  0.88859155699E+02  0.00000000000E+00 0.  1.
        -13    1    4    4    0    0  0.31956006907E+02  0.10336882767E+02 -0.23889753182E+02  0.41215989978E+02  0.00000000000E+00 0.  1.
         13    1    4    4    0    0 -0.15446690778E+02 -0.37467462722E+02  0.37564132063E+02  0.55258257631E+02  0.00000000000E+00 0. -1.
         21    1    1    2  502  501 -0.57030051518E+02  0.50390563440E+02 -0.15701532808E+03  0.17448624276E+03  0.00000000000E+00 0.  1.
<scales pt_clust_5="13000.00000" pt_clust_6="13000.00000" pt_clust_7="13000.00000" pt_clust_8="13000.00000" pt_clust_9="76.10280"></scales>
<clustering>
<clus scale="   76.103">  2  9  1 -1</clus>
<clus scale="   90.065">  7  8 -1 -1</clus>
<clus scale="   90.943">  1  7  2 -1</clus>
<clus scale="   94.029">  5  6 -1 -1</clus>
<clus scale="   90.943">  1  5  2 -1</clus>
</clustering>
</event>
<event>
 9    1  0.1175034E-005  0.1030319E+03  0.7546771E-02  0.1275474E+00
          2   -1    0    0  502    0  0.00000000000E+00  0.00000000000E+00  0.23578716075E+03  0.23578716075E+03  0.00000000000E+00 0. -1.
         -2   -1    0    0    0  501 -0.00000000000E+00 -0.00000000000E+00 -0.98540521853E+02  0.98540521853E+02  0.00000000000E+00 0.  1.
         23    2    1    2    0    0  0.58083228589E+02 -0.43172054143E+01  0.69989832081E+02  0.12910026685E+03  0.91520503714E+02 0.  0.
         23    2    1    2    0    0 -0.34416299131E+02 -0.32345779074E+02  0.10672191932E+03  0.14639041136E+03  0.88373374979E+02 0.  0.
        -11    1    4    4    0    0 -0.28312825425E+02 -0.10046016668E+02  0.11721284400E+03  0.12100160880E+03  0.00000000000E+00 0. -1.
         11    1    4    4    0    0 -0.61034737054E+01 -0.22299762406E+02 -0.10490924680E+02  0.25388802557E+02  0.00000000000E+00 0.  1.
        -11    1    3    3    0    0 -0.23618085008E+01 -0.38103395607E+02  0.33688569684E+02  0.50915288701E+02  0.00000000000E+00 0.  1.
         11    1    3    3    0    0  0.60445037090E+02  0.33786190192E+02  0.36301262397E+02  0.78184978148E+02  0.00000000000E+00 0. -1.
         21    1    1    2  502  501 -0.23666929458E+02  0.36662984489E+02 -0.39465112500E+02  0.58837004396E+02  0.00000000000E+00 0.  1.
<scales pt_clust_5="13000.00000" pt_clust_6="13000.00000" pt_clust_7="13000.00000" pt_clust_8="13000.00000" pt_clust_9="43.63826"></scales>
<clustering>
<clus scale="   43.638">  2  9  1 -1</clus>
<clus scale="   88.373">  5  6 -1 -1</clus>
<clus scale="   91.521">  7  8 -1 -1</clus>
<clus scale="  100.247">  1  5  2 -1</clus>
<clus scale="  100.247">  1  5  2 -1</clus>
</clustering>
</event>
<event>
 9    1  0.1175034E-005  0.1233251E+03  0.7546771E-02  0.1238883E+00
          1   -1    0    0  502    0  0.00000000000E+00  0.00000000000E+00  0.49563960828E+03  0.49563960828E+03  0.00000000000E+00 0. -1.
         -1   -1    0    0    0  501 -0.00000000000E+00 -0.00000000000E+00 -0.95331277010E+02  0.95331277010E+02  0.00000000000E+00 0.  1.
         23    2    1    2    0    0 -0.72081235688E+02  0.29439871048E+01 -0.15109341664E+02  0.11474356817E+03  0.87939880784E+02 0.  0.
         23    2    1    2    0    0  0.67896337404E+02 -0.51854298232E+02  0.40765792954E+03  0.42652877060E+03  0.91885927942E+02 0.  0.
        -11    1    4    4    0    0  0.56497123632E+02  0.13985377907E+02  0.17198081698E+03  0.18156243329E+03  0.00000000000E+00 0.  1.
         11    1    4    4    0    0  0.11399213772E+02 -0.65839676139E+02  0.23567711256E+03  0.24496633731E+03  0.00000000000E+00 0. -1.
        -13    1    3    3    0    0 -0.14390397135E+02  0.19953631120E+02 -0.42145460772E+02  0.48800315453E+02  0.00000000000E+00 0.  1.
         13    1    3    3    0    0 -0.57690838553E+02 -0.17009644015E+02  0.27036119108E+02  0.65943252717E+02  0.00000000000E+00 0. -1.
         21    1    1    2  502  501  0.41848982841E+01  0.48910311127E+02  0.77597433866E+01  0.49698546514E+02  0.00000000000E+00 0.  1.
<scales pt_clust_5="13000.00000" pt_clust_6="13000.00000" pt_clust_7="13000.00000" pt_clust_8="13000.00000" pt_clust_9="49.08902"></scales>
<clustering>
<clus scale="   49.089">  2  9  1 -1</clus>
<clus scale="   87.940">  7  8 -1 -1</clus>
<clus scale="   91.886">  5  6 -1 -1</clus>
<clus scale="  120.414">  2  7  1 -1</clus>
<clus scale="  123.325">  1  5  2 -1</clus>
</clustering>
</event>
<event>
 9    1  0.1175034E-005  0.1181201E+03  0.7546771E-02  0.1247785E+00
         -2   -1    0    0    0  501 -0.00000000000E+00  0.00000000000E+00  0.23971495009E+03  0.23971495009E+03  0.00000000000E+00 0.  1.
          2   -1    0    0  502    0  0.00000000000E+00 -0.00000000000E+00 -0.12739124113E+03  0.12739124113E+03  0.00000000000E+00 0. -1.
         23    2    1    2    0    0 -0.32286317623E+02 -0.65641097968E+01  0.67119895438E+02  0.11926129565E+03  0.92912229733E+02 0.  0.
         23    2    1    2    0    0  0.82123699001E+02 -0.18308403968E+02 -0.49592225537E+02  0.13789629145E+03  0.97347310027E+02 0.  0.
        -13    1    4    4    0    0  0.81498341164E+02  0.24794747736E+02 -0.37857778119E+02  0.93220011220E+02  0.00000000000E+00 0. -1.
         13    1    4    4    0    0  0.62535783623E+00 -0.43103151704E+02 -0.11734447418E+02  0.44676280233E+02  0.00000000000E+00 0.  1.
        -13    1    3    3    0    0 -0.26150383142E+02  0.37240011404E+02  0.58638761373E+02  0.74223751745E+02  0.00000000000E+00 0.  1.
         13    1    3    3    0    0 -0.61359344814E+01 -0.43804121201E+02  0.84811340650E+01  0.45037543907E+02  0.00000000000E+00 0. -1.
         21    1    1    2  502  501 -0.49837381377E+02  0.24872513765E+02  0.94796039067E+02  0.10994860411E+03  0.00000000000E+00 0.  1.
<scales pt_clust_5="13000.00000" pt_clust_6="13000.00000" pt_clust_7="13000.00000" pt_clust_8="13000.00000" pt_clust_9="55.69925"></scales>
<clustering>
<clus scale="   55.699">  1  9  2 -1</clus>
<clus scale="   92.912">  7  8 -1 -1</clus>
<clus scale="   97.347">  5  6 -1 -1</clus>
<clus scale="  114.493">  1  7  2 -1</clus>
<clus scale="  118.120">  2  5  1 -1</clus>
</clustering>
</event>
<event>
 9    1  0.1175034E-005  0.9956724E+02  0.7546771E-02  0.1283563E+00
          1   -1    0    0  502    0  0.00000000000E+00  0.00000000000E+00  0.37080699359E+03  0.37080699359E+03  0.00000000000E+00 0. -1.
         -1   -1    0    0    0  501 -0.00000000000E+00 -0.00000000000E+00 -0.42977911136E+02  0.42977911136E+02  0.00000000000E+00 0.  1.
         23    2    1    2    0    0 -0.26924130779E+02 -0.30209819087E+01  0.96062120135E+02  0.13784069989E+03  0.95068882765E+02 0.  0.
         23    2    1    2    0    0  0.15133603754E+02  0.32249766125E+02  0.22290992870E+03  0.24320607113E+03  0.90505708902E+02 0.  0.
        -11    1    4    4    0    0  0.83619327597E+01  0.60054991747E+02  0.19075756522E+03  0.20016236570E+03  0.00000000000E+00 0.  1.
         11    1    4    4    0    0  0.67716709945E+01 -0.27805225622E+02  0.32152363478E+02  0.43043705430E+02  0.00000000000E+00 0. -1.
        -11    1    3    3    0    0 -0.15949536118E+02  0.45928839006E+02  0.44693682976E+02  0.66040678773E+02  0.00000000000E+00 0.  1.
         11    1    3    3    0    0 -0.10974594661E+02 -0.48949820915E+02  0.51368437159E+02  0.71800021112E+02  0.00000000000E+00 0. -1.
         21    1    1    2  502  501  0.11790527025E+02 -0.29228784217E+02  0.88570336197E+01  0.32738133710E+02  0.00000000000E+00 0.  1.
<scales pt_clust_5="13000.00000" pt_clust_6="13000.00000" pt_clust_7="13000.00000" pt_clust_8="13000.00000" pt_clust_9="31.51727"></scales>
<clustering>
<clus scale="   31.517">  2  9  1 -1</clus>
<clus scale="   90.506">  5  6 -1 -1</clus>
<clus scale="   95.069">  7  8 -1 -1</clus>
<clus scale="   95.220">  1  5  2 -1</clus>
<clus scale="   95.220">  1  5  2 -1</clus>
</clustering>
</event>
<event>
 9    1  0.1175034E-005  0.1564393E+03  0.7546771E-02  0.1193252E+00
         -3   -1    0    0    0  501 -0.00000000000E+00  0.00000000000E+00  0.15770801532E+03  0.15770801532E+03  0.00000000000E+00 0.  1.
          3   -1    0    0  502    0  0.00000000000E+00 -0.00000000000E+00 -0.19990042810E+03  0.19990042810E+03  0.00000000000E+00 0. -1.
         23    2    1    2    0    0  0.81336686670E+02  0.10102194245E+03  0.18446641205E+02  0.16084143733E+03  0.93319879638E+02 0.  0.
         23    2    1    2    0    0 -0.62231086689E+02 -0.10710247111E+03 -0.76258386867E+02  0.17135125627E+03  0.90566351300E+02 0.  0.
        -11    1    4    4    0    0 -0.23325337751E+02 -0.75284460642E+02  0.14237593638E+01  0.78827967664E+02  0.00000000000E+00 0.  1.
         11    1    4    4    0    0 -0.38905748938E+02 -0.31818010469E+02 -0.77682146231E+02  0.92523288602E+02  0.00000000000E+00 0. -1.
        -13    1    3    3    0    0  0.67201544781E+02  0.23784784717E+02  0.36771349629E+02  0.80211568732E+02  0.00000000000E+00 0.  1.
         13    1    3    3    0    0  0.14135141889E+02  0.77237157737E+02 -0.18324708424E+02  0.80629868599E+02  0.00000000000E+00 0. -1.
         21    1    1    2  502  501 -0.19105599981E+02  0.60805286575E+01  0.15619332882E+02  0.25415749823E+02  0.00000000000E+00 0. -1.
<scales pt_clust_5="13000.00000" pt_clust_6="13000.00000" pt_clust_7="13000.00000" pt_clust_8="13000.00000" pt_clust_9="20.04986"></scales>
<clustering>
<clus scale="   20.050">  1  9  2 -1</clus>
<clus scale="   90.566">  5  6 -1 -1</clus>
<clus scale="   93.320">  7  8 -1 -1</clus>
<clus scale="  154.813">  2  5  1 -1</clus>
<clus scale="  154.813">  2  5  1 -1</clus>
</clustering>
</event>
<event>
 9    1  0.1175034E-005  0.9182033E+02  0.7546771E-02  0.1299846E+00
          1   -1    0    0  502    0  0.00000000000E+00  0.00000000000E+00  0.46168306860E+03  0.46168306860E+03  0.00000000000E+00 0. -1.
         -1   -1    0    0    0  501 -0.00000000000E+00 -0.00000000000E+00 -0.25460281001E+02  0.25460281001E+02  0.00000000000E+00 0.  1.
         23    2    1    2    0    0  0.50790543773E+01 -0.17061089555E+02  0.13975823175E+03  0.16803124702E+03  0.91571060184E+02 0.  0.
         23    2    1    2    0    0  0.84409246447E+01 -0.34427810565E+00  0.27084641423E+03  0.28531822982E+03  0.89315980818E+02 0.  0.
        -11    1    4    4    0    0 -0.31619880828E+02 -0.20470556505E+02  0.18134914365E+03  0.18521979498E+03  0.00000000000E+00 0. -1.
         11    1    4    4    0    0  0.40060805473E+02  0.20126278399E+02  0.89497270581E+02  0.10009843485E+03  0.00000000000E+00 0.  1.
        -13    1    3    3    0    0 -0.27261794246E+02  0.22285486827E+02  0.27225817450E+02  0.44509476345E+02  0.00000000000E+00 0.  1.
         13    1    3    3    0    0  0.32340848624E+02 -0.39346576382E+02  0.11253241430E+03  0.12352177068E+03  0.00000000000E+00 0. -1.
         21    1    1    2  502  501 -0.13519979022E+02  0.17405367661E+02  0.25618141614E+02  0.33793872757E+02  0.00000000000E+00 0.  1.
<scales pt_clust_5="13000.00000" pt_clust_6="13000.00000" pt_clust_7="13000.00000" pt_clust_8="13000.00000" pt_clust_9="22.03943"></scales>
<clustering>
<clus scale="   22.039">  2  9  1 -1</clus>
<clus scale="   89.316">  5  6 -1 -1</clus>
<clus scale="   89.572">  1  5  2 -1</clus>
<clus scale="   91.571">  7  8 -1 -1</clus>
<clus scale="   89.572">  1  5  2 -1</clus>
</clustering>
</event>
<event>
 9    1  0.1175034E-005  0.2240806E+03  0.7546771E-02  0.1130944E+00
         -1   -1    0    0    0  501 -0.00000000000E+00  0.00000000000E+00  0.10514082723E+03  0.10514082723E+03  0.00000000000E+00 0.  1.
          1   -1    0    0  502    0  0.00000000000E+00 -0.00000000000E+00 -0.65368580137E+03  0.65368580137E+03  0.00000000000E+00 0. -1.
         23    2    1    2    0    0  0.18538669295E+03  0.16823849619E+02 -0.18712023684E+03  0.27885909185E+03  0.89984122120E+02 0.  0.
         23    2    1    2    0    0 -0.23085080747E+03  0.24787528207E+02 -0.24990496405E+03  0.35255029969E+03  0.89065739168E+02 0.  0.
        -13    1    3    3    0    0  0.21751286177E+02  0.28846789141E+02 -0.64850601269E+02  0.74235141133E+02  0.00000000000E+00 0.  1.
         13    1    3    3    0    0  0.16363540677E+03 -0.12022939522E+02 -0.12226963557E+03  0.20462395072E+03  0.00000000000E+00 0. -1.
        -13    1    4    4    0    0 -0.18926077942E+03 -0.12227510506E+02 -0.16709880942E+03  0.25276702069E+03  0.00000000000E+00 0.  1.
         13    1    4    4    0    0 -0.41590028054E+02  0.37015038713E+02 -0.82806154627E+02  0.99783279003E+02  0.00000000000E+00 0. -1.
         21    1    1    2  502  501  0.45464114524E+02 -0.41611377827E+02 -0.11151977325E+03  0.12741723706E+03  0.00000000000E+00 0. -1.
<scales pt_clust_5="13000.00000" pt_clust_6="13000.00000" pt_clust_7="13000.00000" pt_clust_8="13000.00000" pt_clust_9="61.63191"></scales>
<clustering>
<clus scale="   61.632">  2  9  1 -1</clus>
<clus scale="   89.066">  7  8 -1 -1</clus>
<clus scale="   89.984">  5  6 -1 -1</clus>
<clus scale="  223.713">  2  7  1 -1</clus>
<clus scale="   61.632">  2  5  1 -1</clus>
</clustering>
</event>
<event>
 9    1  0.1175034E-005  0.1316818E+03  0.7546771E-02  0.1225708E+00
         -2   -1    0    0    0  501 -0.00000000000E+00  0.00000000000E+00  0.57731126748E+02  0.57731126748E+02  0.00000000000E+00 0.  1.
          2   -1    0    0  502    0  0.00000000000E+00 -0.00000000000E+00 -0.46896876181E+03  0.46896876181E+03  0.00000000000E+00 0. -1.
         23    2    1    2    0    0 -0.62124564797E+02  0.45986909693E+02 -0.12351266955E+03  0.17275876833E+03  0.92822169131E+02 0.  0.
         23    2    1    2    0    0  0.75804985746E+02 -0.70534617762E+02 -0.29462849971E+03  0.32500320957E+03  0.89997806750E+02 0.  0.
        -11    1    3    3    0    0 -0.66353175864E+02 -0.33535389029E+01 -0.46113527312E+02  0.80873033649E+02  0.00000000000E+00 0.  1.
         11    1    3    3    0    0  0.42286110675E+01  0.49340448596E+02 -0.77399142234E+02  0.91885734681E+02  0.00000000000E+00 0. -1.
        -13    1    4    4    0    0  0.75235121600E+02 -0.21243693585E+02 -0.11740275611E+03  0.14104972591E+03  0.00000000000E+00 0. -1.
         13    1    4    4    0    0  0.56986414659E+00 -0.49290924177E+02 -0.17722574361E+03  0.18395348365E+03  0.00000000000E+00 0.  1.
         21    1    1    2  502  501 -0.13680420949E+02  0.24547708069E+02  0.69035341988E+01  0.28937910657E+02  0.00000000000E+00 0.  1.
<scales pt_clust_5="13000.00000" pt_clust_6="13000.00000" pt_clust_7="13000.00000" pt_clust_8="13000.00000" pt_clust_9="28.10238"></scales>
<clustering>
<clus scale="   28.102">  1  9  2 -1</clus>
<clus scale="   89.998">  7  8 -1 -1</clus>
<clus scale="   92.822">  5  6 -1 -1</clus>
<clus scale="  129.706">  2  7  1 -1</clus>
<clus scale="  129.706">  2  5  1 -1</clus>
</clustering>
</event>
<event>
 9    1  0.1175034E-005  0.1170023E+03  0.7546771E-02  0.1248966E+00
         -1   -1    0    0    0  501 -0.00000000000E+00  0.00000000000E+00  0.27644865364E+03  0.27644865364E+03  0.00000000000E+00 0.  1.
          1   -1    0    0  502    0  0.00000000000E+00 -0.00000000000E+00 -0.22825541902E+03  0.22825541902E+03  0.00000000000E+00 0. -1.
         23    2    1    2    0    0 -0.92400956809E+02 -0.28491175620E+02  0.60469899150E+02  0.14561803426E+03  0.90544570746E+02 0.  0.
         23    2    1    2    0    0  0.65868131909E+02  0.10366003685E+02 -0.16622970348E+03  0.20181540905E+03  0.93011183086E+02 0.  0.
        -13    1    4    4    0    0 -0.16011933514E+02  0.25269049503E+02 -0.31405428693E+02  0.43372892790E+02  0.00000000000E+00 0.  1.
         13    1    4    4    0    0  0.81880065423E+02 -0.14903045817E+02 -0.13482427478E+03  0.15844251626E+03  0.00000000000E+00 0. -1.
        -13    1    3    3    0    0  0.10555693478E+02 -0.25182040909E+02  0.25057953912E+01  0.27419643683E+02  0.00000000000E+00 0. -1.
         13    1    3    3    0    0 -0.10295665029E+03 -0.33091347106E+01  0.57964103759E+02  0.11819839058E+03  0.00000000000E+00 0.  1.
         21    1    1    2  502  501  0.26532824899E+02  0.18125171934E+02  0.15395303895E+03  0.15727062935E+03  0.00000000000E+00 0.  1.
<scales pt_clust_5="13000.00000" pt_clust_6="13000.00000" pt_clust_7="13000.00000" pt_clust_8="13000.00000" pt_clust_9="32.13273"></scales>
<clustering>
<clus scale="   32.133">  1  9  2 -1</clus>
<clus scale="   90.545">  7  8 -1 -1</clus>
<clus scale="   93.011">  5  6 -1 -1</clus>
<clus scale="  115.051">  1  7  2 -1</clus>
<clus scale="  117.002">  2  5  1 -1</clus>
</clustering>
</event>
<event>
 9    1  0.1175034E-005  0.2013282E+03  0.7546771E-02  0.1148999E+00
          1   -1    0    0  502    0  0.00000000000E+00  0.00000000000E+00  0.15830396779E+04  0.15830396779E+04  0.00000000000E+00 0. -1.
         -1   -1    0    0    0  501 -0.00000000000E+00 -0.00000000000E+00 -0.30037681248E+02  0.30037681248E+02  0.00000000000E+00 0.  1.
         23    2    1    2    0    0 -0.61777970595E+02 -0.16356414383E+03  0.58425663027E+03  0.61702880045E+03  0.93802898494E+02 0.  0.
         23    2    1    2    0    0  0.38261886922E+02  0.17713372332E+03  0.89174123531E+03  0.91439823181E+03  0.89896427438E+02 0.  0.
        -11    1    4    4    0    0  0.54340101618E+02  0.49749291178E+02  0.30476976485E+03  0.31354815927E+03  0.00000000000E+00 0.  1.
         11    1    4    4    0    0 -0.16078214696E+02  0.12738443215E+03  0.58697147046E+03  0.60085007254E+03  0.00000000000E+00 0. -1.
        -11    1    3    3    0    0 -0.83731343034E+02 -0.10911303056E+03  0.36518085001E+03  0.39022255760E+03  0.00000000000E+00 0. -1.
         11    1    3    3    0    0  0.21953372438E+02 -0.54451113276E+02  0.21907578026E+03  0.22680624285E+03  0.00000000000E+00 0.  1.
         21    1    1    2  502  501  0.23516083673E+02 -0.13569579494E+02  0.77004131110E+02  0.81650326925E+02  0.00000000000E+00 0.  1.
<scales pt_clust_5="13000.00000" pt_clust_6="13000.00000" pt_clust_7="13000.00000" pt_clust_8="13000.00000" pt_clust_9="27.15032"></scales>
<clustering>
<clus scale="   27.150">  2  9  1 -1</clus>
<clus scale="   89.896">  5  6 -1 -1</clus>
<clus scale="   93.803">  7  8 -1 -1</clus>
<clus scale="  199.538">  1  5  2 -1</clus>
<clus scale="  199.538">  1  5  2 -1</clus>
</clustering>
</event>
<event>
 9    1  0.1175034E-005  0.9900663E+02  0.7546771E-02  0.1282792E+00
          2   -1    0    0  502    0  0.00000000000E+00  0.00000000000E+00  0.40196411156E+03  0.40196411156E+03  0.00000000000E+00 0. -1.
         -2   -1    0    0    0  501 -0.00000000000E+00 -0.00000000000E+00 -0.13398368626E+03  0.13398368626E+03  0.00000000000E+00 0.  1.
         23    2    1    2    0    0  0.22825023098E+01 -0.44114105639E+02 -0.97204641462E+02  0.14021882923E+03  0.90891768684E+02 0.  0.
         23    2    1    2    0    0 -0.24062673027E+02  0.31194024190E+02  0.35511471100E+03  0.36847614477E+03  0.90089577188E+02 0.  0.
        -11    1    4    4    0    0  0.10084229684E+02 -0.25015473008E+02  0.55227445710E+02  0.61461665595E+02  0.00000000000E+00 0.  1.
         11    1    4    4    0    0 -0.34146902711E+02  0.56209497198E+02  0.29988726529E+03  0.30701447917E+03  0.00000000000E+00 0. -1.
        -13    1    3    3    0    0  0.32078666400E+02 -0.30324989007E+02 -0.97886311536E+02  0.10737958736E+03  0.00000000000E+00 0.  1.
         13    1    3    3    0    0 -0.29796164090E+02 -0.13789116633E+02  0.68167007385E+00  0.32839241862E+02  0.00000000000E+00 0. -1.
         21    1    1    2  502  501  0.21780170717E+02  0.12920081449E+02  0.10070355760E+02  0.27252823822E+02  0.00000000000E+00 0. -1.
<scales pt_clust_5="13000.00000" pt_clust_6="13000.00000" pt_clust_7="13000.00000" pt_clust_8="13000.00000" pt_clust_9="25.32399"></scales>
<clustering>
<clus scale="   25.324">  2  9  1 -1</clus>
<clus scale="   90.090">  5  6 -1 -1</clus>
<clus scale="   90.892">  7  8 -1 -1</clus>
<clus scale="   98.271">  1  5  2 -1</clus>
<clus scale="   98.271">  1  5  2 -1</clus>
</clustering>
</event>
<event>
 9    1  0.1175034E-005  0.1345415E+03  0.7546771E-02  0.1221402E+00
         -2   -1    0    0    0  501 -0.00000000000E+00  0.00000000000E+00  0.39581121432E+02  0.39581121432E+02  0.00000000000E+00 0.  1.
          2   -1    0    0  502    0  0.00000000000E+00 -0.00000000000E+00 -0.70063274845E+03  0.70063274845E+03  0.00000000000E+00 0. -1.
         23    2    1    2    0    0 -0.74317161169E+02 -0.23540679499E+02 -0.18578790850E+03  0.22107671681E+03  0.90997602914E+02 0.  0.
         23    2    1    2    0    0  0.97857288259E+02  0.48813157837E+02 -0.45900790114E+03  0.48096533960E+03  0.93169905783E+02 0.  0.
        -11    1    4    4    0    0  0.44684794932E+02 -0.20673618352E+02 -0.10019777629E+03  0.11164104875E+03  0.00000000000E+00 0. -1.
         11    1    4    4    0    0  0.53172493326E+02  0.69486776189E+02 -0.35881012486E+03  0.36932429085E+03  0.00000000000E+00 0.  1.
        -13    1    3    3    0    0 -0.64749386236E+02 -0.56218975719E+02 -0.13097987511E+03  0.15655281515E+03  0.00000000000E+00 0. -1.
         13    1    3    3    0    0 -0.95677749326E+01  0.32678296220E+02 -0.54808033393E+02  0.64523901660E+02  0.00000000000E+00 0.  1.
         21    1    1    2  502  501 -0.23540127090E+02 -0.25272478338E+02 -0.16255817373E+02  0.38171813465E+02  0.00000000000E+00 0. -1.
<scales pt_clust_5="13000.00000" pt_clust_6="13000.00000" pt_clust_7="13000.00000" pt_clust_8="13000.00000" pt_clust_9="34.53745"></scales>
<clustering>
<clus scale="   34.537">  1  9  2 -1</clus>
<clus scale="   90.998">  7  8 -1 -1</clus>
<clus scale="   93.170">  5  6 -1 -1</clus>
<clus scale="  133.046">  1  7  2 -1</clus>
<clus scale="  134.542">  2  5  1 -1</clus>
</clustering>
</event>
<event>
 9    1  0.1175034E-005  0.1057302E+03  0.7546771E-02  0.1271579E+00
         -2   -1    0    0    0  501 -0.00000000000E+00  0.00000000000E+00  0.14314872934E+03  0.14314872934E+03  0.00000000000E+00 0.  1.
          2   -1    0    0  502    0  0.00000000000E+00 -0.00000000000E+00 -0.33871585183E+03  0.33871585183E+03  0.00000000000E+00 0. -1.
         23    2    1    2    0    0 -0.49832587084E+02 -0.56602976170E+01 -0.11717771871E+03  0.15022522076E+03  0.79508952244E+02 0.  0.
         23    2    1    2    0    0  0.64086447209E+02  0.34212846635E+02 -0.18695456608E+03  0.21848099771E+03  0.86627622566E+02 0.  0.
        -11    1    4    4    0    0 -0.20799889145E+02  0.14034525709E+02 -0.52643486262E+02  0.58317578363E+02  0.00000000000E+00 0.  1.
         11    1    4    4    0    0  0.84886336354E+02  0.20178320926E+02 -0.13431107982E+03  0.16016341935E+03  0.00000000000E+00 0. -1.
        -13    1    3    3    0    0 -0.58519286695E+02 -0.26452159834E+02 -0.10849461743E+03  0.12607658659E+03  0.00000000000E+00 0. -1.
         13    1    3    3    0    0  0.86866996106E+01  0.20791862217E+02 -0.86831012780E+01  0.24148634172E+02  0.00000000000E+00 0.  1.
         21    1    1    2  502  501 -0.14253860125E+02 -0.28552549018E+02  0.10856516230E+03  0.11315836270E+03  0.00000000000E+00 0.  1.
<scales pt_clust_5="13000.00000" pt_clust_6="13000.00000" pt_clust_7="13000.00000" pt_clust_8="13000.00000" pt_clust_9="31.91270"></scales>
<clustering>
<clus scale="   31.913">  1  9  2 -1</clus>
<clus scale="   79.509">  7  8 -1 -1</clus>
<clus scale="   86.628">  5  6 -1 -1</clus>
<clus scale="   99.981">  1  7  2 -1</clus>
<clus scale="  105.730">  2  5  1 -1</clus>
</clustering>
</event>
<event>
 9    1  0.1175034E-005  0.1028249E+03  0.7546771E-02  0.1275504E+00
         -2   -1    0    0    0  501 -0.00000000000E+00  0.00000000000E+00  0.22891443106E+02  0.22891443106E+02  0.00000000000E+00 0.  1.
          2   -1    0    0  502    0  0.00000000000E+00 -0.00000000000E+00 -0.67856208074E+03  0.67856208074E+03  0.00000000000E+00 0. -1.
         23    2    1    2    0    0 -0.52294510036E+02  0.27386117333E+02 -0.20009556592E+03  0.22720909401E+03  0.90005675926E+02 0.  0.
         23    2    1    2    0    0  0.25655803384E+02 -0.31184329552E+02 -0.40016789720E+03  0.41264895845E+03  0.92272066723E+02 0.  0.
        -11    1    3    3    0    0 -0.69311989358E+02  0.39054596563E+02 -0.11628368725E+03  0.14089467450E+03  0.00000000000E+00 0.  1.
         11    1    3    3    0    0  0.17017479323E+02 -0.11668479231E+02 -0.83811878665E+02  0.86314419510E+02  0.00000000000E+00 0. -1.
        -13    1    4    4    0    0  0.45748431239E+02  0.13582550218E+02 -0.25458009297E+03  0.25901434008E+03  0.00000000000E+00 0. -1.
         13    1    4    4    0    0 -0.20092627855E+02 -0.44766879770E+02 -0.14558780424E+03  0.15363461837E+03  0.00000000000E+00 0.  1.
         21    1    1    2  502  501  0.26638706651E+02  0.37982122191E+01 -0.55407174513E+02  0.61595471389E+02  0.00000000000E+00 0. -1.
<scales pt_clust_5="13000.00000" pt_clust_6="13000.00000" pt_clust_7="13000.00000" pt_clust_8="13000.00000" pt_clust_9="26.90812"></scales>
<clustering>
<clus scale="   26.908">  1  9  2 -1</clus>
<clus scale="   90.006">  5  6 -1 -1</clus>
<clus scale="   92.272">  7  8 -1 -1</clus>
<clus scale="  100.796">  1  5  2 -1</clus>
<clus scale="  102.825">  2  5  1 -1</clus>
</clustering>
</event>
<event>
 9    1  0.1175034E-005  0.9762158E+02  0.7546771E-02  0.1285581E+00
         -1   -1    0    0    0  501 -0.00000000000E+00  0.00000000000E+00  0.11041663335E+03  0.11041663335E+03  0.00000000000E+00 0.  1.
          1   -1    0    0  502    0  0.00000000000E+00 -0.00000000000E+00 -0.30641805628E+03  0.30641805628E+03  0.00000000000E+00 0. -1.
         23    2    1    2    0    0 -0.19746030627E+02 -0.12294988199E+02  0.64167289126E+02  0.11359039520E+03  0.90797931849E+02 0.  0.
         23    2    1    2    0    0  0.44282624887E+01  0.36595529095E+02 -0.25596233246E+03  0.27421251980E+03  0.91197303238E+02 0.  0.
        -11    1    3    3    0    0 -0.46271491391E+02  0.16308211021E+02  0.54640773137E+02  0.73434479308E+02  0.00000000000E+00 0. -1.
         11    1    3    3    0    0  0.26525460764E+02 -0.28603199220E+02  0.95265159896E+01  0.40155915894E+02  0.00000000000E+00 0.  1.
        -13    1    4    4    0    0 -0.35450768203E+02 -0.72383744374E+01 -0.66596048355E+02  0.75790399703E+02  0.00000000000E+00 0.  1.
         13    1    4    4    0    0  0.39879030691E+02  0.43833903533E+02 -0.18936628411E+03  0.19842212010E+03  0.00000000000E+00 0. -1.
         21    1    1    2  502  501  0.15317768138E+02 -0.24300540897E+02 -0.42063795997E+01  0.29031774626E+02  0.00000000000E+00 0.  1.
<scales pt_clust_5="13000.00000" pt_clust_6="13000.00000" pt_clust_7="13000.00000" pt_clust_8="13000.00000" pt_clust_9="28.72543"></scales>
<clustering>
<clus scale="   28.725">  1  9  2 -1</clus>
<clus scale="   90.798">  5  6 -1 -1</clus>
<clus scale="   91.197">  7  8 -1 -1</clus>
<clus scale="   97.249">  1  5  2 -1</clus>
<clus scale="   97.622">  2  5  1 -1</clus>
</clustering>
</event>
<event>
 9    1  0.1175034E-005  0.1064394E+03  0.7546771E-02  0.1268914E+00
          3   -1    0    0  502    0  0.00000000000E+00  0.00000000000E+00  0.12114067094E+03  0.12114067094E+03  0.00000000000E+00 0. -1.
         -3   -1    0    0    0  501 -0.00000000000E+00 -0.00000000000E+00 -0.13912329782E+03  0.13912329782E+03  0.00000000000E+00 0.  1.
         23    2    1    2    0    0 -0.22252005151E+02  0.48992097149E+02 -0.38593742448E+02  0.11158691853E+03  0.89815288865E+02 0.  0.
         23    2    1    2    0    0  0.41051522021E+02 -0.30999155542E+02  0.42270319094E+02  0.11482016202E+03  0.93545254422E+02 0.  0.
        -11    1    3    3    0    0  0.34125060341E+02  0.21292971517E+02 -0.55281422453E+01  0.40601363721E+02  0.00000000000E+00 0.  1.
         11    1    3    3    0    0 -0.56377065492E+02  0.27699125631E+02 -0.33065600203E+02  0.70985554805E+02  0.00000000000E+00 0. -1.
        -13    1    4    4    0    0  0.63771818303E+02  0.19918082959E+01  0.12760823533E+02  0.65066510028E+02  0.00000000000E+00 0.  1.
         13    1    4    4    0    0 -0.22720296282E+02 -0.32990963838E+02  0.29509495561E+02  0.49753651990E+02  0.00000000000E+00 0. -1.
         21    1    1    2  502  501 -0.18799516871E+02 -0.17992941607E+02 -0.21659203531E+02  0.33856888218E+02  0.00000000000E+00 0.  1.
<scales pt_clust_5="13000.00000" pt_clust_6="13000.00000" pt_clust_7="13000.00000" pt_clust_8="13000.00000" pt_clust_9="26.02245"></scales>
<clustering>
<clus scale="   26.022">  2  9  1 -1</clus>
<clus scale="   89.815">  5  6 -1 -1</clus>
<clus scale="   93.545">  7  8 -1 -1</clus>
<clus scale="  103.177">  2  5  1 -1</clus>
<clus scale="  106.439">  1  5  2 -1</clus>
</clustering>
</event>
<event>
 9    1  0.1175034E-005  0.1212875E+03  0.7546771E-02  0.1241856E+00
         -2   -1    0    0    0  501 -0.00000000000E+00  0.00000000000E+00  0.14621301291E+03  0.14621301291E+03  0.00000000000E+00 0.  1.
          2   -1    0    0  502    0  0.00000000000E+00 -0.00000000000E+00 -0.15742930497E+03  0.15742930497E+03  0.00000000000E+00 0. -1.
         23    2    1    2    0    0  0.36766099208E+02  0.60131700993E+02  0.19097787264E+02  0.11674010653E+03  0.91082157848E+02 0.  0.
         23    2    1    2    0    0 -0.27147356772E+02 -0.81444339616E+02 -0.69419765399E+02  0.14133903045E+03  0.88246576508E+02 0.  0.
        -11    1    4    4    0    0 -0.44340698527E+02 -0.92207557712E+02 -0.52915090492E+02  0.11518827218E+03  0.00000000000E+00 0. -1.
         11    1    4    4    0    0  0.17193341755E+02  0.10763218097E+02 -0.16504674907E+02  0.26150758274E+02  0.00000000000E+00 0.  1.
        -11    1    3    3    0    0 -0.11741269577E+02  0.65090262155E+02  0.70636297281E+01  0.66516873826E+02  0.00000000000E+00 0. -1.
         11    1    3    3    0    0  0.48507368785E+02 -0.49585611619E+01  0.12034157536E+02  0.50223232700E+02  0.00000000000E+00 0.  1.
         21    1    1    2  502  501 -0.96187424359E+01  0.21312638623E+02  0.39105686070E+02  0.45563180905E+02  0.00000000000E+00 0.  1.
<scales pt_clust_5="13000.00000" pt_clust_6="13000.00000" pt_clust_7="13000.00000" pt_clust_8="13000.00000" pt_clust_9="23.38266"></scales>
<clustering>
<clus scale="   23.383">  1  9  2 -1</clus>
<clus scale="   88.247">  5  6 -1 -1</clus>
<clus scale="   91.082">  7  8 -1 -1</clus>
<clus scale="  119.173">  2  5  1 -1</clus>
<clus scale="  119.173">  2  5  1 -1</clus>
</clustering>
</event>
<event>
 9    1  0.1175034E-005  0.1268420E+03  0.7546771E-02  0.1234529E+00
         -1   -1    0    0    0  501 -0.00000000000E+00  0.00000000000E+00  0.45272746031E+03  0.45272746031E+03  0.00000000000E+00 0.  1.
          1   -1    0    0  502    0  0.00000000000E+00 -0.00000000000E+00 -0.46667097133E+03  0.46667097133E+03  0.00000000000E+00 0. -1.
         23    2    1    2    0    0  0.32085205066E+02 -0.57701911167E+00  0.18825101735E+03  0.21348957129E+03  0.95444005476E+02 0.  0.
         23    2    1    2    0    0  0.19602326476E+02  0.85171135305E+02 -0.43533992519E+03  0.45256217798E+03  0.87483146828E+02 0.  0.
        -11    1    4    4    0    0  0.45359951947E+02  0.31298159991E+02 -0.29408482146E+03  0.29920391420E+03  0.00000000000E+00 0. -1.
         11    1    4    4    0    0 -0.25757625471E+02  0.53872975314E+02 -0.14125510373E+03  0.15335826378E+03  0.00000000000E+00 0.  1.
        -11    1    3    3    0    0 -0.20524127244E+02 -0.24429510060E+02  0.11953467345E+03  0.12371975961E+03  0.00000000000E+00 0.  1.
         11    1    3    3    0    0  0.52609332309E+02  0.23852490948E+02  0.68716343903E+02  0.89769811684E+02  0.00000000000E+00 0. -1.
         21    1    1    2  502  501 -0.51687531542E+02 -0.84594116194E+02  0.23314539681E+03  0.25334668237E+03  0.00000000000E+00 0.  1.
<scales pt_clust_5="13000.00000" pt_clust_6="13000.00000" pt_clust_7="13000.00000" pt_clust_8="13000.00000" pt_clust_9="99.13509"></scales>
<clustering>
<clus scale="   87.483">  5  6 -1 -1</clus>
<clus scale="   95.444">  7  8 -1 -1</clus>
<clus scale="   99.135">  1  9  2 -1</clus>
<clus scale="  120.965">  2  5  1 -1</clus>
<clus scale="  120.965">  2  5  1 -1</clus>
</clustering>
</event>
<event>
 9    1  0.1175034E-005  0.2747004E+03  0.7546771E-02  0.1098971E+00
          2   -1    0    0  502    0  0.00000000000E+00  0.00000000000E+00  0.79871336419E+03  0.79871336419E+03  0.00000000000E+00 0. -1.
         -2   -1    0    0    0  501 -0.00000000000E+00 -0.00000000000E+00 -0.10602506997E+03  0.10602506997E+03  0.00000000000E+00 0.  1.
         23    2    1    2    0    0  0.24901288751E+03 -0.10599437306E+03  0.30902127371E+03  0.42059244799E+03  0.90341764598E+02 0.  0.
         23    2    1    2    0    0 -0.23206943467E+03  0.81966504019E+02  0.35686090884E+03  0.44435922068E+03  0.97625193763E+02 0.  0.
        -11    1    3    3    0    0  0.21331768780E+03 -0.93784173512E+02  0.30323067285E+03  0.38242482671E+03  0.00000000000E+00 0. -1.
         11    1    3    3    0    0  0.35695199712E+02 -0.12210199549E+02  0.57906008631E+01  0.38167621276E+02  0.00000000000E+00 0.  1.
        -11    1    4    4    0    0 -0.17524949456E+03  0.99311294810E+02  0.30491903255E+03  0.36544593995E+03  0.00000000000E+00 0.  1.
         11    1    4    4    0    0 -0.56819940116E+02 -0.17344790792E+02  0.51941876287E+02  0.78913280724E+02  0.00000000000E+00 0. -1.
         21    1    1    2  502  501 -0.16943452840E+02  0.24027869043E+02  0.26806111672E+02  0.39786765486E+02  0.00000000000E+00 0. -1.
<scales pt_clust_5="13000.00000" pt_clust_6="13000.00000" pt_clust_7="13000.00000" pt_clust_8="13000.00000" pt_clust_9="29.40100"></scales>
<clustering>
<clus scale="   29.401">  2  9  1 -1</clus>
<clus scale="   90.342">  5  6 -1 -1</clus>
<clus scale="   97.625">  7  8 -1 -1</clus>
<clus scale="  272.197">  2  5  1 -1</clus>
<clus scale="  274.700">  1  5  2 -1</clus>
</clustering>
</event>
<event>
 9    1  0.1175034E-005  0.9294422E+02  0.7546771E-02  0.1296127E+00
         -1   -1    0    0    0  501 -0.00000000000E+00  0.00000000000E+00  0.52590778322E+02  0.52590778322E+02  0.00000000000E+00 0.  1.
          1   -1    0    0  502    0  0.00000000000E+00 -0.00000000000E+00 -0.27726351918E+03  0.27726351918E+03  0.00000000000E+00 0. -1.
         23    2    1    2    0    0 -0.25698601685E+02 -0.20346883362E+02 -0.62017802947E+02  0.11507928637E+03  0.91228397328E+02 0.  0.
         23    2    1    2    0    0  0.49423543999E+01  0.10831569339E+02 -0.16799308783E+03  0.19132594192E+03  0.90786500819E+02 0.  0.
        -11    1    4    4    0    0 -0.41825284881E+02  0.15212172310E+02 -0.77599103672E+02  0.89456053638E+02  0.00000000000E+00 0.  1.
         11    1    4    4    0    0  0.46767639281E+02 -0.43806029713E+01 -0.90393984157E+02  0.10186988828E+03  0.00000000000E+00 0. -1.
        -11    1    3    3    0    0 -0.46332272285E+02 -0.10799846524E+01  0.64669851326E+00  0.46349369369E+02  0.00000000000E+00 0.  1.
         11    1    3    3    0    0  0.20633670600E+02 -0.19266898710E+02 -0.62664501460E+02  0.68729917005E+02  0.00000000000E+00 0. -1.
         21    1    1    2  502  501  0.20756247285E+02  0.95153140236E+01  0.53381499167E+01  0.23449069211E+02  0.00000000000E+00 0.  1.
<scales pt_clust_5="13000.00000" pt_clust_6="13000.00000" pt_clust_7="13000.00000" pt_clust_8="13000.00000" pt_clust_9="22.83337"></scales>
<clustering>
<clus scale="   22.833">  1  9  2 -1</clus>
<clus scale="   90.787">  5  6 -1 -1</clus>
<clus scale="   91.228">  7  8 -1 -1</clus>
<clus scale="   92.511">  2  5  1 -1</clus>
<clus scale="   92.511">  2  5  1 -1</clus>
</clustering>
</event>
<event>
 9    1  0.1175034E-005  0.1699607E+03  0.7546771E-02  0.1178025E+00
         -1   -1    0    0    0  501 -0.00000000000E+00  0.00000000000E+00  0.30919734946E+03  0.30919734946E+03  0.00000000000E+00 0.  1.
          1   -1    0    0  502    0  0.00000000000E+00 -0.00000000000E+00 -0.12197657906E+03  0.12197657906E+03  0.00000000000E+00 0. -1.
         23    2    1    2    0    0 -0.13237929723E+03 -0.83802400823E+01  0.91125689191E+02  0.18456737195E+03  0.90369888785E+02 0.  0.
         23    2    1    2    0    0  0.14974798908E+03  0.26707201077E+02  0.35480265976E+02  0.18094298385E+03  0.91344289959E+02 0.  0.
        -11    1    3    3    0    0 -0.24493935599E+02  0.68848079823E+01  0.68786148038E+02  0.73340900076E+02  0.00000000000E+00 0.  1.
         11    1    3    3    0    0 -0.10788536163E+03 -0.15265048065E+02  0.22339541153E+02  0.11122647187E+03  0.00000000000E+00 0. -1.
        -13    1    4    4    0    0  0.60215357489E+02  0.39621598277E+02  0.52139822278E+02  0.88962471833E+02  0.00000000000E+00 0. -1.
         13    1    4    4    0    0  0.89532631595E+02 -0.12914397200E+02 -0.16659556302E+02  0.91980512020E+02  0.00000000000E+00 0.  1.
         21    1    1    2  502  501 -0.17368691854E+02 -0.18326960995E+02  0.60614815237E+02  0.65663572719E+02  0.00000000000E+00 0.  1.
<scales pt_clust_5="13000.00000" pt_clust_6="13000.00000" pt_clust_7="13000.00000" pt_clust_8="13000.00000" pt_clust_9="25.24973"></scales>
<clustering>
<clus scale="   25.250">  1  9  2 -1</clus>
<clus scale="   90.370">  5  6 -1 -1</clus>
<clus scale="   91.344">  7  8 -1 -1</clus>
<clus scale="  169.439">  1  5  2 -1</clus>
<clus scale="  169.961">  2  5  1 -1</clus>
</clustering>
</event>
<event>
 9    1  0.1175034E-005  0.1097436E+03  0.7546771E-02  0.1261758E+00
         -2   -1    0    0    0  501 -0.00000000000E+00  0.00000000000E+00  0.14148720909E+03  0.14148720909E+03  0.00000000000E+00 0.  1.
          2   -1    0    0  502    0  0.00000000000E+00 -0.00000000000E+00 -0.13459209701E+03  0.13459209701E+03  0.00000000000E+00 0. -1.
         23    2    1    2    0    0  0.43360041945E+01  0.65186764637E+02  0.27375863190E+02  0.11686929891E+03  0.92956333439E+02 0.  0.
         23    2    1    2    0    0 -0.32228083895E+02 -0.47888302735E+02 -0.46342849416E+02  0.11742420790E+03  0.91152871475E+02 0.  0.
        -11    1    3    3    0    0 -0.37350921783E+01  0.43741066634E+02 -0.31274874132E+02  0.53901294751E+02  0.00000000000E+00 0. -1.
         11    1    3    3    0    0  0.80710963727E+01  0.21445698003E+02  0.58650737322E+02  0.62968004160E+02  0.00000000000E+00 0.  1.
        -13    1    4    4    0    0  0.17080435215E+02 -0.33854341648E+02  0.11985357562E+02  0.39768159518E+02  0.00000000000E+00 0.  1.
         13    1    4    4    0    0 -0.49308519110E+02 -0.14033961087E+02 -0.58328206979E+02  0.77656048380E+02  0.00000000000E+00 0. -1.
         21    1    1    2  502  501  0.27892079700E+02 -0.17298461902E+02  0.25862098302E+02  0.41785799295E+02  0.00000000000E+00 0.  1.
<scales pt_clust_5="13000.00000" pt_clust_6="13000.00000" pt_clust_7="13000.00000" pt_clust_8="13000.00000" pt_clust_9="32.82080"></scales>
<clustering>
<clus scale="   32.821">  1  9  2 -1</clus>
<clus scale="   91.153">  7  8 -1 -1</clus>
<clus scale="   92.956">  5  6 -1 -1</clus>
<clus scale="  108.220">  2  7  1 -1</clus>
<clus scale="  108.220">  2  5  1 -1</clus>
</clustering>
</event>
<event>
 9    1  0.1175034E-005  0.9711896E+02  0.7546771E-02  0.1289144E+00
         -1   -1    0    0    0  501 -0.00000000000E+00  0.00000000000E+00  0.16393340432E+03  0.16393340432E+03  0.00000000000E+00 0.  1.
          1   -1    0    0  502    0  0.00000000000E+00 -0.00000000000E+00 -0.16618136835E+03  0.16618136835E+03  0.00000000000E+00 0. -1.
         23    2    1    2    0    0 -0.10161991407E+01  0.32681907406E+02  0.11923672069E+03  0.15027413998E+03  0.85415349060E+02 0.  0.
         23    2    1    2    0    0  0.10953999966E+02 -0.55233809053E+02 -0.10794661406E+03  0.15172253335E+03  0.90534478847E+02 0.  0.
        -13    1    4    4    0    0  0.47316571361E+02 -0.38475295452E+02 -0.40244711291E+02  0.73067387201E+02  0.00000000000E+00 0.  1.
         13    1    4    4    0    0 -0.36362571395E+02 -0.16758513601E+02 -0.67701902769E+02  0.78655146145E+02  0.00000000000E+00 0. -1.
        -13    1    3    3    0    0 -0.21348662852E+02  0.34948133816E+02  0.12285263835E+03  0.12949868035E+03  0.00000000000E+00 0.  1.
         13    1    3    3    0    0  0.20332463711E+02 -0.22662264099E+01 -0.36159176565E+01  0.20775459639E+02  0.00000000000E+00 0. -1.
         21    1    1    2  502  501 -0.99378008249E+01  0.22551901647E+02 -0.13538070655E+02  0.28118099335E+02  0.00000000000E+00 0.  1.
<scales pt_clust_5="13000.00000" pt_clust_6="13000.00000" pt_clust_7="13000.00000" pt_clust_8="13000.00000" pt_clust_9="24.64443"></scales>
<clustering>
<clus scale="   24.644">  2  9  1 -1</clus>
<clus scale="   85.415">  7  8 -1 -1</clus>
<clus scale="   90.534">  5  6 -1 -1</clus>
<clus scale="   92.365">  1  7  2 -1</clus>
<clus scale="   24.644">  2  5  1 -1</clus>
</clustering>
</event>
<event>
 9    1  0.1175034E-005  0.2175805E+03  0.7546771E-02  0.1135779E+00
          1   -1    0    0  502    0  0.00000000000E+00  0.00000000000E+00  0.57977690596E+03  0.57977690596E+03  0.00000000000E+00 0. -1.
         -1   -1    0    0    0  501 -0.00000000000E+00 -0.00000000000E+00 -0.11848700088E+03  0.11848700088E+03  0.00000000000E+00 0.  1.
         23    2    1    2    0    0  0.15433838563E+03 -0.75468803890E+02  0.13934195048E+03  0.23890480458E+03  0.90241059669E+02 0.  0.
         23    2    1    2    0    0 -0.20354108471E+03  0.10988934973E+03  0.18532000832E+03  0.31011810494E+03  0.91241937631E+02 0.  0.
        -13    1    3    3    0    0  0.11002337130E+03 -0.17807450841E+02  0.45993233513E+02  0.12057207416E+03  0.00000000000E+00 0.  1.
         13    1    3    3    0    0  0.44315014328E+02 -0.57661353049E+02  0.93348716967E+02  0.11833273042E+03  0.00000000000E+00 0. -1.
        -13    1    4    4    0    0 -0.17787968858E+03  0.54658860791E+02  0.12351057995E+03  0.22334645292E+03  0.00000000000E+00 0.  1.
         13    1    4    4    0    0 -0.25661396129E+02  0.55230488938E+02  0.61809428373E+02  0.86771652026E+02  0.00000000000E+00 0. -1.
         21    1    1    2  502  501  0.49202699079E+02 -0.34420545839E+02  0.13662794628E+03  0.14924099731E+03  0.00000000000E+00 0.  1.
<scales pt_clust_5="13000.00000" pt_clust_6="13000.00000" pt_clust_7="13000.00000" pt_clust_8="13000.00000" pt_clust_9="60.04731"></scales>
<clustering>
<clus scale="   60.047">  1  9  2 -1</clus>
<clus scale="   90.241">  5  6 -1 -1</clus>
<clus scale="   91.242">  7  8 -1 -1</clus>
<clus scale="  217.163">  2  5  1 -1</clus>
<clus scale="   60.047">  1  5  2 -1</clus>
</clustering>
</event>
<event>
 9    1  0.1175034E-005  0.9254966E+02  0.7546771E-02  0.1297051E+00
          1   -1    0    0  502    0  0.00000000000E+00  0.00000000000E+00  0.15222051555E+03  0.15222051555E+03  0.00000000000E+00 0. -1.
         -1   -1    0    0    0  501 -0.00000000000E+00 -0.00000000000E+00 -0.21666800251E+03  0.21666800251E+03  0.00000000000E+00 0.  1.
         23    2    1    2    0    0  0.26225377870E+02  0.22477492627E+02 -0.14097525413E+03  0.17120390872E+03  0.90795087768E+02 0.  0.
         23    2    1    2    0    0 -0.12763316957E+02  0.95997015751E+01  0.11377774289E+03  0.14671663741E+03  0.91243303236E+02 0.  0.
        -11    1    3    3    0    0  0.20833630783E+02 -0.31553781119E+02 -0.85942695604E+02  0.93892641896E+02  0.00000000000E+00 0.  1.
         11    1    3    3    0    0  0.53917470868E+01  0.54031273746E+02 -0.55032558529E+02  0.77311266821E+02  0.00000000000E+00 0. -1.
        -13    1    4    4    0    0 -0.47538420774E+02 -0.12984721155E+02  0.46917762305E+02  0.68042492994E+02  0.00000000000E+00 0.  1.
         13    1    4    4    0    0  0.34775103817E+02  0.22584422730E+02  0.66859980585E+02  0.78674144415E+02  0.00000000000E+00 0. -1.
         21    1    1    2  502  501 -0.13462060913E+02 -0.32077194202E+02 -0.37249975722E+02  0.50967971935E+02  0.00000000000E+00 0. -1.
<scales pt_clust_5="13000.00000" pt_clust_6="13000.00000" pt_clust_7="13000.00000" pt_clust_8="13000.00000" pt_clust_9="34.78755"></scales>
<clustering>
<clus scale="   34.788">  2  9  1 -1</clus>
<clus scale="   90.795">  5  6 -1 -1</clus>
<clus scale="   91.243">  7  8 -1 -1</clus>
<clus scale="   92.108">  2  5  1 -1</clus>
<clus scale="   92.550">  1  5  2 -1</clus>
</clustering>
</event>
<event>
 9    1  0.1175034E-005  0.1029715E+03  0.7546771E-02  0.1274855E+00
          1   -1    0    0  502    0  0.00000000000E+00  0.00000000000E+00  0.81778681145E+03  0.81778681145E+03  0.00000000000E+00 0. -1.
         -1   -1    0    0    0  501 -0.00000000000E+00 -0.00000000000E+00 -0.44632598158E+02  0.44632598158E+02  0.00000000000E+00 0.  1.
         23    2    1    2    0    0 -0.79679132391E+01  0.27523938916E+02  0.65233243534E+02  0.11594153534E+03  0.91465888184E+02 0.  0.
         23    2    1    2    0    0  0.66697241778E+02 -0.70863425729E+02  0.26119191408E+03  0.29382536478E+03  0.92962260326E+02 0.  0.
        -11    1    3    3    0    0 -0.25108076053E+02  0.71126751805E+01 -0.15889136219E+02  0.30552745885E+02  0.00000000000E+00 0.  1.
         11    1    3    3    0    0  0.17140162814E+02  0.20411263735E+02  0.81122379753E+02  0.85388789459E+02  0.00000000000E+00 0. -1.
        -13    1    4    4    0    0 -0.22260250982E+02 -0.55634318933E+01  0.61984546095E+02  0.66095041438E+02  0.00000000000E+00 0.  1.
         13    1    4    4    0    0  0.88957492760E+02 -0.65299993836E+02  0.19920736798E+03  0.22773032335E+03  0.00000000000E+00 0. -1.
         21    1    1    2  502  501 -0.58729328539E+02  0.43339486813E+02  0.44672905568E+03  0.45265250948E+03  0.00000000000E+00 0. -1.
<scales pt_clust_5="13000.00000" pt_clust_6="13000.00000" pt_clust_7="13000.00000" pt_clust_8="13000.00000" pt_clust_9="72.98935"></scales>
<clustering>
<clus scale="   72.989">  1  9  2 -1</clus>
<clus scale="   91.466">  5  6 -1 -1</clus>
<clus scale="   92.962">  7  8 -1 -1</clus>
<clus scale="  101.623">  2  5  1 -1</clus>
<clus scale="   72.989">  1  5  2 -1</clus>
</clustering>
</event>
<event>
 9    1  0.1175034E-005  0.9411998E+02  0.7546771E-02  0.1302961E+00
         -1   -1    0    0    0  501 -0.00000000000E+00  0.00000000000E+00  0.29359778929E+02  0.29359778929E+02  0.00000000000E+00 0.  1.
          1   -1    0    0  502    0  0.00000000000E+00 -0.00000000000E+00 -0.50070325177E+03  0.50070325177E+03  0.00000000000E+00 0. -1.
         23    2    1    2    0    0 -0.18229482787E+02  0.37082892642E+02 -0.13394196123E+03  0.15568815114E+03  0.67756154384E+02 0.  0.
         23    2    1    2    0    0 -0.23263181091E+02 -0.40649452207E+02 -0.30899084065E+03  0.32396131266E+03  0.85334863567E+02 0.  0.
        -11    1    4    4    0    0  0.24890143681E+02  0.92938056153E+01 -0.11209360447E+03  0.11519926319E+03  0.00000000000E+00 0.  1.
         11    1    4    4    0    0 -0.48153324772E+02 -0.49943257822E+02 -0.19689723617E+03  0.20876204948E+03  0.00000000000E+00 0. -1.
        -13    1    3    3    0    0  0.18130736104E+02 -0.88893517763E+01 -0.42826656878E+02  0.47348354839E+02  0.00000000000E+00 0.  1.
         13    1    3    3    0    0 -0.36360218891E+02  0.45972244418E+02 -0.91115304350E+02  0.10833979630E+03  0.00000000000E+00 0. -1.
         21    1    1    2  502  501  0.41492663877E+02  0.35665595650E+01 -0.28410670964E+02  0.50413566898E+02  0.00000000000E+00 0.  1.
<scales pt_clust_5="13000.00000" pt_clust_6="13000.00000" pt_clust_7="13000.00000" pt_clust_8="13000.00000" pt_clust_9="41.64567"></scales>
<clustering>
<clus scale="   41.646">  1  9  2 -1</clus>
<clus scale="   67.756">  7  8 -1 -1</clus>
<clus scale="   78.533">  1  7  2 -1</clus>
<clus scale="   85.335">  5  6 -1 -1</clus>
<clus scale="   94.120">  2  5  1 -1</clus>
</clustering>
</event>
<event>
 9    1  0.1175034E-005  0.9295580E+02  0.7546771E-02  0.1296773E+00
          3   -1    0    0  502    0  0.00000000000E+00  0.00000000000E+00  0.40372611169E+03  0.40372611169E+03  0.00000000000E+00 0. -1.
         -3   -1    0    0    0  501 -0.00000000000E+00 -0.00000000000E+00 -0.51379303939E+02  0.51379303939E+02  0.00000000000E+00 0.  1.
         23    2    1    2    0    0  0.97575398101E+01 -0.30350791200E+02  0.16826021460E+03  0.19376305324E+03  0.90643482254E+02 0.  0.
         23    2    1    2    0    0  0.10752574940E+02 -0.39289734569E+01  0.19825214848E+03  0.21895804890E+03  0.92236967095E+02 0.  0.
        -11    1    3    3    0    0  0.41427572363E+02  0.24135965860E+01  0.39955417228E+02  0.57606462886E+02  0.00000000000E+00 0.  1.
         11    1    3    3    0    0 -0.31670032553E+02 -0.32764387786E+02  0.12830479737E+03  0.13615659036E+03  0.00000000000E+00 0. -1.
        -11    1    4    4    0    0  0.20262733544E+02  0.41675187996E+02  0.96627194452E+02  0.10716442681E+03  0.00000000000E+00 0.  1.
         11    1    4    4    0    0 -0.95101586039E+01 -0.45604161453E+02  0.10162495403E+03  0.11179362209E+03  0.00000000000E+00 0. -1.
         21    1    1    2  502  501 -0.20510114750E+02  0.34279764657E+02 -0.14165555333E+02  0.42384313488E+02  0.00000000000E+00 0.  1.
<scales pt_clust_5="13000.00000" pt_clust_6="13000.00000" pt_clust_7="13000.00000" pt_clust_8="13000.00000" pt_clust_9="39.94705"></scales>
<clustering>
<clus scale="   39.947">  2  9  1 -1</clus>
<clus scale="   90.643">  5  6 -1 -1</clus>
<clus scale="   91.375">  2  5  1 -1</clus>
<clus scale="   92.237">  7  8 -1 -1</clus>
<clus scale="   92.956">  1  5  2 -1</clus>
</clustering>
</event>
<event>
 9    1  0.1175034E-005  0.1020002E+03  0.7546771E-02  0.1276987E+00
         -3   -1    0    0    0  501 -0.00000000000E+00  0.00000000000E+00  0.98673273950E+02  0.98673273950E+02  0.00000000000E+00 0.  1.
          3   -1    0    0  502    0  0.00000000000E+00 -0.00000000000E+00 -0.18291327774E+03  0.18291327774E+03  0.00000000000E+00 0. -1.
         23    2    1    2    0    0 -0.17450526378E+02 -0.32101224298E+02 -0.13217502723E+01  0.95099522913E+02  0.87790448012E+02 0.  0.
         23    2    1    2    0    0  0.56557576200E+02  0.17294701890E+02 -0.94543935977E+02  0.14308482902E+03  0.89648459698E+02 0.  0.
        -13    1    4    4    0    0  0.64295723543E+02 -0.21488738730E+02 -0.57384378804E+02  0.88818201338E+02  0.00000000000E+00 0. -1.
         13    1    4    4    0    0 -0.77381473429E+01  0.38783440620E+02 -0.37159557172E+02  0.54266627681E+02  0.00000000000E+00 0.  1.
        -13    1    3    3    0    0  0.88752741137E+01 -0.29719426127E+02  0.37166527984E+02  0.48408321416E+02  0.00000000000E+00 0.  1.
         13    1    3    3    0    0 -0.26325800492E+02 -0.23817981715E+01 -0.38488278257E+02  0.46691201497E+02  0.00000000000E+00 0. -1.
         21    1    1    2  502  501 -0.39107049822E+02  0.14806522408E+02  0.11625682456E+02  0.43402199762E+02  0.00000000000E+00 0.  1.
<scales pt_clust_5="13000.00000" pt_clust_6="13000.00000" pt_clust_7="13000.00000" pt_clust_8="13000.00000" pt_clust_9="41.81620"></scales>
<clustering>
<clus scale="   41.816">  1  9  2 -1</clus>
<clus scale="   87.790">  7  8 -1 -1</clus>
<clus scale="   89.648">  5  6 -1 -1</clus>
<clus scale="  100.371">  1  7  2 -1</clus>
<clus scale="  102.000">  2  5  1 -1</clus>
</clustering>
</event>
<event>
 9    1  0.1175034E-005  0.2020237E+03  0.7546771E-02  0.1148810E+00
         -2   -1    0    0    0  501 -0.00000000000E+00  0.00000000000E+00  0.55373797426E+03  0.55373797426E+03  0.00000000000E+00 0.  1.
          2   -1    0    0  502    0  0.00000000000E+00 -0.00000000000E+00 -0.10613685686E+03  0.10613685686E+03  0.00000000000E+00 0. -1.
         23    2    1    2    0    0 -0.17046294131E+03  0.16370602247E+02  0.29019455494E+03  0.34890720327E+03  0.90541403783E+02 0.  0.
         23    2    1    2    0    0  0.17891613376E+03 -0.66033828413E+02  0.14541036989E+03  0.25918151840E+03  0.98282421588E+02 0.  0.
        -11    1    4    4    0    0  0.12677703485E+03 -0.73641166169E+02  0.14540575812E+03  0.20649036882E+03  0.00000000000E+00 0.  1.
         11    1    4    4    0    0  0.52139098909E+02  0.76073377560E+01  0.46117685077E-02  0.52691149579E+02  0.00000000000E+00 0. -1.
        -11    1    3    3    0    0 -0.35146057564E+02 -0.22749876889E+02  0.12493132073E+03  0.13175977065E+03  0.00000000000E+00 0.  1.
         11    1    3    3    0    0 -0.13531688375E+03  0.39120479136E+02  0.16526323421E+03  0.21714743262E+03  0.00000000000E+00 0. -1.
         21    1    1    2  502  501 -0.84531924546E+01  0.49663226165E+02  0.11996192565E+02  0.51786109449E+02  0.00000000000E+00 0. -1.
<scales pt_clust_5="13000.00000" pt_clust_6="13000.00000" pt_clust_7="13000.00000" pt_clust_8="13000.00000" pt_clust_9="50.37750"></scales>
<clustering>
<clus scale="   50.377">  2  9  1 -1</clus>
<clus scale="   90.541">  7  8 -1 -1</clus>
<clus scale="   98.282">  5  6 -1 -1</clus>
<clus scale="  198.373">  1  7  2 -1</clus>
<clus scale="   50.377">  2  5  1 -1</clus>
</clustering>
</event>
<event>
 9    1  0.1175034E-005  0.1988557E+03  0.7546771E-02  0.1176533E+00
         -2   -1    0    0    0  501 -0.00000000000E+00  0.00000000000E+00  0.90900485588E+03  0.90900485588E+03  0.00000000000E+00 0.  1.
          2   -1    0    0  502    0  0.00000000000E+00 -0.00000000000E+00 -0.10795253231E+03  0.10795253231E+03  0.00000000000E+00 0. -1.
         23    2    1    2    0    0 -0.42368751358E+02  0.52404148014E+02  0.34667574046E+03  0.36353260378E+03  0.86200807219E+02 0.  0.
         23    2    1    2    0    0  0.14315843751E+03 -0.12692323653E+03  0.34200219226E+02  0.21495034712E+03  0.91815851186E+02 0.  0.
        -11    1    4    4    0    0  0.53844157883E+02 -0.95054162189E+02 -0.11191225691E+02  0.10981680482E+03  0.00000000000E+00 0. -1.
         11    1    4    4    0    0  0.89314279631E+02 -0.31869074338E+02  0.45391444917E+02  0.10513354230E+03  0.00000000000E+00 0.  1.
        -11    1    3    3    0    0 -0.21247161746E+02  0.66307001746E+02  0.31694396235E+03  0.32450198094E+03  0.00000000000E+00 0.  1.
         11    1    3    3    0    0 -0.21121589612E+02 -0.13902853732E+02  0.29731778110E+02  0.39030622839E+02  0.00000000000E+00 0. -1.
         21    1    1    2  502  501 -0.10078968616E+03  0.74519088514E+02  0.42017636389E+03  0.43847443729E+03  0.00000000000E+00 0.  1.
<scales pt_clust_5="13000.00000" pt_clust_6="13000.00000" pt_clust_7="13000.00000" pt_clust_8="13000.00000" pt_clust_9="176.38998"></scales>
<clustering>
<clus scale="   86.201">  7  8 -1 -1</clus>
<clus scale="   91.816">  5  6 -1 -1</clus>
<clus scale="  109.416">  1  7  2 -1</clus>
<clus scale="  176.390">  1  9  2 -1</clus>
<clus scale="  198.856">  2  5  1 -1</clus>
</clustering>
</event>
<event>
 9    1  0.1175034E-005  0.1051292E+03  0.7546771E-02  0.1271503E+00
         -3   -1    0    0    0  501 -0.00000000000E+00  0.00000000000E+00  0.51923024119E+02  0.51923024119E+02  0.00000000000E+00 0.  1.
          3   -1    0    0  502    0  0.00000000000E+00 -0.00000000000E+00 -0.38792294353E+03  0.38792294353E+03  0.00000000000E+00 0. -1.
         23    2    1    2    0    0  0.49171089830E+02  0.15354192796E+01 -0.76617226640E+02  0.12514233191E+03  0.85850161499E+02 0.  0.
         23    2    1    2    0    0 -0.50222207513E+02  0.33549803118E+02 -0.25780246211E+03  0.27956711901E+03  0.89709559938E+02 0.  0.
        -11    1    3    3    0    0  0.18250958980E+02  0.37018579733E+02 -0.81679413008E+01  0.42073602344E+02  0.00000000000E+00 0.  1.
         11    1    3    3    0    0  0.30920130849E+02 -0.35483160453E+02 -0.68449285340E+02  0.83068729562E+02  0.00000000000E+00 0. -1.
        -11    1    4    4    0    0 -0.33467574235E+02  0.60820470256E+02 -0.21623436567E+03  0.22710462131E+03  0.00000000000E+00 0.  1.
         11    1    4    4    0    0 -0.16754633278E+02 -0.27270667137E+02 -0.41568096444E+02  0.52462497695E+02  0.00000000000E+00 0. -1.
         21    1    1    2  502  501  0.10511176835E+01 -0.35085222398E+02 -0.15802306575E+01  0.35136516732E+02  0.00000000000E+00 0. -1.
<scales pt_clust_5="13000.00000" pt_clust_6="13000.00000" pt_clust_7="13000.00000" pt_clust_8="13000.00000" pt_clust_9="35.10096"></scales>
<clustering>
<clus scale="   35.101">  1  9  2 -1</clus>
<clus scale="   85.850">  5  6 -1 -1</clus>
<clus scale="   89.710">  7  8 -1 -1</clus>
<clus scale="  101.856">  1  5  2 -1</clus>
<clus scale="  105.129">  2  5  1 -1</clus>
</clustering>
</event>
<event>
 9    1  0.1175034E-005  0.1574593E+03  0.7546771E-02  0.1193635E+00
         -1   -1    0    0    0  501 -0.00000000000E+00  0.00000000000E+00  0.18280995471E+03  0.18280995471E+03  0.00000000000E+00 0.  1.
          1   -1    0    0  502    0  0.00000000000E+00 -0.00000000000E+00 -0.36120510299E+03  0.36120510299E+03  0.00000000000E+00 0. -1.
         23    2    1    2    0    0 -0.70359031433E+02 -0.11419268837E+03  0.89963152443E+02  0.18654395415E+03  0.93353707214E+02 0.  0.
         23    2    1    2    0    0 -0.11568703139E+02  0.10852867277E+03 -0.22913317401E+03  0.26646096493E+03  0.81161115664E+02 0.  0.
        -11    1    4    4    0    0 -0.43065956812E+02  0.88078251883E+02 -0.17468351427E+03  0.20031671236E+03  0.00000000000E+00 0.  1.
         11    1    4    4    0    0  0.31497253673E+02  0.20450420889E+02 -0.54449659740E+02  0.66144252580E+02  0.00000000000E+00 0. -1.
        -11    1    3    3    0    0 -0.88449384905E+02 -0.10522042008E+03  0.93225205774E+02  0.16608904083E+03  0.00000000000E+00 0.  1.
         11    1    3    3    0    0  0.18090353472E+02 -0.89722682901E+01 -0.32620533302E+01  0.20454913320E+02  0.00000000000E+00 0. -1.
         21    1    1    2  502  501  0.81927734572E+02  0.56640155987E+01 -0.39225126715E+02  0.91010138615E+02  0.00000000000E+00 0. -1.
<scales pt_clust_5="13000.00000" pt_clust_6="13000.00000" pt_clust_7="13000.00000" pt_clust_8="13000.00000" pt_clust_9="82.12329"></scales>
<clustering>
<clus scale="   81.161">  5  6 -1 -1</clus>
<clus scale="   82.123">  2  9  1 -1</clus>
<clus scale="   93.354">  7  8 -1 -1</clus>
<clus scale="  150.551">  2  5  1 -1</clus>
<clus scale="   82.123">  2  5  1 -1</clus>
</clustering>
</event>
<event>
 9    1  0.1175034E-005  0.1377950E+03  0.7546771E-02  0.1216583E+00
         -3   -1    0    0    0  501 -0.00000000000E+00  0.00000000000E+00  0.36812415571E+03  0.36812415571E+03  0.00000000000E+00 0.  1.
          3   -1    0    0  502    0  0.00000000000E+00 -0.00000000000E+00 -0.21932592043E+03  0.21932592043E+03  0.00000000000E+00 0. -1.
         23    2    1    2    0    0  0.71072180881E+02  0.70883807948E+02  0.29206939760E+03  0.32226272493E+03  0.92048692239E+02 0.  0.
         23    2    1    2    0    0 -0.59142458379E+02 -0.12067484361E+03 -0.13926255635E+03  0.21383041951E+03  0.90934814251E+02 0.  0.
        -11    1    3    3    0    0  0.53377284431E+02  0.64511274226E+01  0.20820141711E+03  0.21503158286E+03  0.00000000000E+00 0.  1.
         11    1    3    3    0    0  0.17694896450E+02  0.64432680525E+02  0.83867980486E+02  0.10723114208E+03  0.00000000000E+00 0. -1.
        -13    1    4    4    0    0 -0.12476578304E+02 -0.38428707292E+02 -0.10624669580E+03  0.11366965698E+03  0.00000000000E+00 0.  1.
         13    1    4    4    0    0 -0.46665880075E+02 -0.82246136315E+02 -0.33015860555E+02  0.10016076253E+03  0.00000000000E+00 0. -1.
         21    1    1    2  502  501 -0.11929722502E+02  0.49791035660E+02 -0.40086059621E+01  0.51356931692E+02  0.00000000000E+00 0.  1.
<scales pt_clust_5="13000.00000" pt_clust_6="13000.00000" pt_clust_7="13000.00000" pt_clust_8="13000.00000" pt_clust_9="51.20025"></scales>
<clustering>
<clus scale="   51.200">  2  9  1 -1</clus>
<clus scale="   90.935">  7  8 -1 -1</clus>
<clus scale="   92.049">  5  6 -1 -1</clus>
<clus scale="  137.053">  2  7  1 -1</clus>
<clus scale="   51.200">  2  5  1 -1</clus>
</clustering>
</event>
<event>
 9    1  0.1175034E-005  0.1210283E+03  0.7546771E-02  0.1243567E+00
         -1   -1    0    0    0  501 -0.00000000000E+00  0.00000000000E+00  0.18673233114E+03  0.18673233114E+03  0.00000000000E+00 0.  1.
          1   -1    0    0  502    0  0.00000000000E+00 -0.00000000000E+00 -0.38373022978E+03  0.38373022978E+03  0.00000000000E+00 0. -1.
         23    2    1    2    0    0  0.74301293489E+02  0.24418225127E+02 -0.11241902279E+03  0.16432049847E+03  0.90808907056E+02 0.  0.
         23    2    1    2    0    0 -0.69185125449E+02 -0.43070196402E+01 -0.23003535637E+03  0.25921274785E+03  0.97313161834E+02 0.  0.
        -13    1    3    3    0    0  0.30031847555E+02  0.30659095769E+02  0.45009893511E+00  0.42919629658E+02  0.00000000000E+00 0.  1.
         13    1    3    3    0    0  0.44269445933E+02 -0.62408706420E+01 -0.11286912173E+03  0.12140086882E+03  0.00000000000E+00 0. -1.
        -13    1    4    4    0    0 -0.20146406286E+02 -0.46182461382E+02 -0.13736282357E+03  0.14631214142E+03  0.00000000000E+00 0.  1.
         13    1    4    4    0    0 -0.49038719163E+02  0.41875441742E+02 -0.92672532793E+02  0.11290060643E+03  0.00000000000E+00 0. -1.
         21    1    1    2  502  501 -0.51161680395E+01 -0.20111205487E+02  0.14545648052E+03  0.14692931460E+03  0.00000000000E+00 0.  1.
<scales pt_clust_5="13000.00000" pt_clust_6="13000.00000" pt_clust_7="13000.00000" pt_clust_8="13000.00000" pt_clust_9="20.75177"></scales>
<clustering>
<clus scale="   20.752">  1  9  2 -1</clus>
<clus scale="   90.809">  5  6 -1 -1</clus>
<clus scale="   97.313">  7  8 -1 -1</clus>
<clus scale="  115.863">  1  5  2 -1</clus>
<clus scale="  121.028">  2  5  1 -1</clus>
</clustering>
</event>
<event>
 9    1  0.1175034E-005  0.9821003E+02  0.7546771E-02  0.1285482E+00
         -1   -1    0    0    0  501 -0.00000000000E+00  0.00000000000E+00  0.28234022396E+03  0.28234022396E+03  0.00000000000E+00 0.  1.
          1   -1    0    0  502    0  0.00000000000E+00 -0.00000000000E+00 -0.18240062241E+03  0.18240062241E+03  0.00000000000E+00 0. -1.
         23    2    1    2    0    0  0.21251015474E+02  0.40979856139E+02 -0.29722456091E+02  0.10406585922E+03  0.88404323373E+02 0.  0.
         23    2    1    2    0    0 -0.32279193116E+02 -0.13278196155E+02 -0.93727696328E+02  0.13530421522E+03  0.91126795153E+02 0.  0.
        -13    1    4    4    0    0  0.12964366864E+02 -0.26103118943E+02 -0.81730753845E+02  0.86771906460E+02  0.00000000000E+00 0. -1.
         13    1    4    4    0    0 -0.45243559980E+02  0.12824922788E+02 -0.11996942483E+02  0.48532308756E+02  0.00000000000E+00 0.  1.
        -13    1    3    3    0    0  0.48321016920E+02  0.90440181180E+00 -0.27605994052E+02  0.55658148787E+02  0.00000000000E+00 0. -1.
         13    1    3    3    0    0 -0.27070001445E+02  0.40075454327E+02 -0.21164620391E+01  0.48407710432E+02  0.00000000000E+00 0.  1.
         21    1    1    2  502  501  0.11028177642E+02 -0.27701659984E+02  0.22338975397E+03  0.22537077194E+03  0.00000000000E+00 0.  1.
<scales pt_clust_5="13000.00000" pt_clust_6="13000.00000" pt_clust_7="13000.00000" pt_clust_8="13000.00000" pt_clust_9="29.81615"></scales>
<clustering>
<clus scale="   29.816">  1  9  2 -1</clus>
<clus scale="   88.404">  7  8 -1 -1</clus>
<clus scale="   91.127">  5  6 -1 -1</clus>
<clus scale="   95.689">  1  7  2 -1</clus>
<clus scale="   98.210">  2  5  1 -1</clus>
</clustering>
</event>
<event>
 9    1  0.1175034E-005  0.9513067E+02  0.7546771E-02  0.1291109E+00
          1   -1    0    0  502    0  0.00000000000E+00  0.00000000000E+00  0.34930896473E+03  0.34930896473E+03  0.00000000000E+00 0. -1.
         -1   -1    0    0    0  501 -0.00000000000E+00 -0.00000000000E+00 -0.16741436517E+03  0.16741436517E+03  0.00000000000E+00 0.  1.
         23    2    1    2    0    0  0.28390892180E+02 -0.72094587018E+01 -0.12972775456E+03  0.16146772482E+03  0.91567007171E+02 0.  0.
         23    2    1    2    0    0 -0.12702081078E+02  0.20843611474E+02  0.31923652986E+03  0.33311955783E+03  0.91983035442E+02 0.  0.
        -13    1    4    4    0    0 -0.16635264404E+02 -0.31784349406E+02  0.73598530894E+02  0.81876251982E+02  0.00000000000E+00 0.  1.
         13    1    4    4    0    0  0.39331833266E+01  0.52627960880E+02  0.24563799896E+03  0.25124330585E+03  0.00000000000E+00 0. -1.
        -13    1    3    3    0    0  0.42452350826E+00 -0.44406704346E+02 -0.37339616356E+02  0.58020535681E+02  0.00000000000E+00 0. -1.
         13    1    3    3    0    0  0.27966368671E+02  0.37197245644E+02 -0.92388138204E+02  0.10344718914E+03  0.00000000000E+00 0.  1.
         21    1    1    2  502  501 -0.15688811102E+02 -0.13634152773E+02 -0.76141757398E+01  0.22136047249E+02  0.00000000000E+00 0. -1.
<scales pt_clust_5="13000.00000" pt_clust_6="13000.00000" pt_clust_7="13000.00000" pt_clust_8="13000.00000" pt_clust_9="20.78531"></scales>
<clustering>
<clus scale="   20.785">  2  9  1 -1</clus>
<clus scale="   91.567">  7  8 -1 -1</clus>
<clus scale="   91.983">  5  6 -1 -1</clus>
<clus scale="   94.728">  2  7  1 -1</clus>
<clus scale="   95.131">  1  5  2 -1</clus>
</clustering>
</event>
<event>
 9    1  0.1175034E-005  0.1301215E+03  0.7546771E-02  0.1227920E+00
          2   -1    0    0  502    0  0.00000000000E+00  0.00000000000E+00  0.14809217728E+03  0.14809217728E+03  0.00000000000E+00 0. -1.
         -2   -1    0    0    0  501 -0.00000000000E+00 -0.00000000000E+00 -0.22417012298E+03  0.22417012298E+03  0.00000000000E+00 0.  1.
         23    2    1    2    0    0  0.14558554179E+02 -0.73966009776E+02 -0.12854934411E+03  0.17578099466E+03  0.93226080641E+02 0.  0.
         23    2    1    2    0    0 -0.26616128844E+02  0.90577111831E+02  0.86336870882E+02  0.15688100202E+03  0.90801773215E+02 0.  0.
        -11    1    4    4    0    0  0.13098937011E+02  0.82956812637E+02  0.33677054052E+02  0.90485130731E+02  0.00000000000E+00 0.  1.
         11    1    4    4    0    0 -0.39715065855E+02  0.76202991935E+01  0.52659816830E+02  0.66395871289E+02  0.00000000000E+00 0. -1.
        -13    1    3    3    0    0  0.27093244816E+02 -0.93124972633E+02 -0.10490814730E+03  0.14287065413E+03  0.00000000000E+00 0.  1.
         13    1    3    3    0    0 -0.12534690638E+02  0.19158962857E+02 -0.23641196815E+02  0.32910340533E+02  0.00000000000E+00 0. -1.
         21    1    1    2  502  501  0.12057574665E+02 -0.16611102055E+02 -0.33865472468E+02  0.39600303582E+02  0.00000000000E+00 0. -1.
<scales pt_clust_5="13000.00000" pt_clust_6="13000.00000" pt_clust_7="13000.00000" pt_clust_8="13000.00000" pt_clust_9="20.52593"></scales>
<clustering>
<clus scale="   20.526">  2  9  1 -1</clus>
<clus scale="   90.802">  5  6 -1 -1</clus>
<clus scale="   93.226">  7  8 -1 -1</clus>
<clus scale="  128.396">  1  5  2 -1</clus>
<clus scale="  128.396">  1  5  2 -1</clus>
</clustering>
</event>
<event>
 9    1  0.1175034E-005  0.1115873E+03  0.7546771E-02  0.1264972E+00
         -2   -1    0    0    0  501 -0.00000000000E+00  0.00000000000E+00  0.51241433561E+02  0.51241433561E+02  0.00000000000E+00 0.  1.
          2   -1    0    0  502    0  0.00000000000E+00 -0.00000000000E+00 -0.37836099385E+03  0.37836099385E+03  0.00000000000E+00 0. -1.
         23    2    1    2    0    0  0.38103507564E+02  0.60062832915E+02 -0.66561289586E+02  0.13415743824E+03  0.92240944149E+02 0.  0.
         23    2    1    2    0    0 -0.45174949348E+02 -0.41245301171E+02 -0.25803494877E+03  0.27518488198E+03  0.73503289490E+02 0.  0.
        -11    1    3    3    0    0  0.34473916125E+02 -0.37981732079E+00 -0.65010078318E+02  0.73586041047E+02  0.00000000000E+00 0. -1.
         11    1    3    3    0    0  0.36295914391E+01  0.60442650235E+02 -0.15512112684E+01  0.60571397193E+02  0.00000000000E+00 0.  1.
        -13    1    4    4    0    0  0.11756707216E+02 -0.28195583715E+02 -0.14235287012E+03  0.14559378674E+03  0.00000000000E+00 0.  1.
         13    1    4    4    0    0 -0.56931656564E+02 -0.13049717456E+02 -0.11568207865E+03  0.12959109524E+03  0.00000000000E+00 0. -1.
         21    1    1    2  502  501  0.70714417841E+01 -0.18817531744E+02 -0.25233219329E+01  0.20260107192E+02  0.00000000000E+00 0.  1.
<scales pt_clust_5="13000.00000" pt_clust_6="13000.00000" pt_clust_7="13000.00000" pt_clust_8="13000.00000" pt_clust_9="20.10236"></scales>
<clustering>
<clus scale="   20.102">  1  9  2 -1</clus>
<clus scale="   73.503">  7  8 -1 -1</clus>
<clus scale="   92.241">  5  6 -1 -1</clus>
<clus scale="   96.675">  2  7  1 -1</clus>
<clus scale="   96.675">  2  5  1 -1</clus>
</clustering>
</event>
<event>
 9    1  0.1175034E-005  0.1006823E+03  0.7546771E-02  0.1280563E+00
         -1   -1    0    0    0  501 -0.00000000000E+00  0.00000000000E+00  0.18279878585E+03  0.18279878585E+03  0.00000000000E+00 0.  1.
          1   -1    0    0  502    0  0.00000000000E+00 -0.00000000000E+00 -0.19875908149E+03  0.19875908149E+03  0.00000000000E+00 0. -1.
         23    2    1    2    0    0 -0.54951093094E+01 -0.45001500548E+02  0.13741236996E+03  0.16859514373E+03  0.86526480308E+02 0.  0.
         23    2    1    2    0    0  0.35600630991E+02  0.35362660144E+02 -0.14875675341E+03  0.18101657635E+03  0.90113853363E+02 0.  0.
        -11    1    4    4    0    0 -0.22039092691E+02  0.13735395583E+02 -0.76619295727E+01  0.27075595344E+02  0.00000000000E+00 0.  1.
         11    1    4    4    0    0  0.57639723682E+02  0.21627264560E+02 -0.14109482384E+03  0.15394098100E+03  0.00000000000E+00 0. -1.
        -11    1    3    3    0    0  0.32583475281E+02  0.64300506683E+01  0.55070835578E+02  0.64310382865E+02  0.00000000000E+00 0. -1.
         11    1    3    3    0    0 -0.38078584590E+02 -0.51431551216E+02  0.82341534377E+02  0.10428476086E+03  0.00000000000E+00 0.  1.
         21    1    1    2  502  501 -0.30105521681E+02  0.96388404037E+01 -0.46159121881E+01  0.31946147269E+02  0.00000000000E+00 0.  1.
<scales pt_clust_5="13000.00000" pt_clust_6="13000.00000" pt_clust_7="13000.00000" pt_clust_8="13000.00000" pt_clust_9="31.61091"></scales>
<clustering>
<clus scale="   31.611">  2  9  1 -1</clus>
<clus scale="   86.526">  7  8 -1 -1</clus>
<clus scale="   90.114">  5  6 -1 -1</clus>
<clus scale="   97.485">  1  7  2 -1</clus>
<clus scale="   31.611">  2  5  1 -1</clus>
</clustering>
</event>
<event>
 9    1  0.1175034E-005  0.1009049E+03  0.7546771E-02  0.1278507E+00
          1   -1    0    0  502    0  0.00000000000E+00  0.00000000000E+00  0.32796174562E+03  0.32796174562E+03  0.00000000000E+00 0. -1.
         -1   -1    0    0    0  501 -0.00000000000E+00 -0.00000000000E+00 -0.20076422042E+03  0.20076422042E+03  0.00000000000E+00 0.  1.
         23    2    1    2    0    0 -0.18473573685E+02 -0.57752662394E+02 -0.18997588923E+02  0.11100969065E+03  0.91025271736E+02 0.  0.
         23    2    1    2    0    0  0.14164626085E+02  0.38151524772E+02  0.27228677784E+03  0.29003746242E+03  0.91243984726E+02 0.  0.
        -13    1    3    3    0    0  0.14308077796E+01 -0.76339971700E+02 -0.29454182160E+02  0.81837566782E+02  0.00000000000E+00 0.  1.
         13    1    3    3    0    0 -0.19904381465E+02  0.18587309307E+02  0.10456593236E+02  0.29172123866E+02  0.00000000000E+00 0. -1.
        -13    1    4    4    0    0 -0.27754167508E+02  0.37344735000E+02  0.74348942540E+02  0.87707971719E+02  0.00000000000E+00 0.  1.
         13    1    4    4    0    0  0.41918793593E+02  0.80678977241E+00  0.19793783530E+03  0.20232949070E+03  0.00000000000E+00 0. -1.
         21    1    1    2  502  501  0.43089476001E+01  0.19601137621E+02 -0.12609166371E+03  0.12767881298E+03  0.00000000000E+00 0.  1.
<scales pt_clust_5="13000.00000" pt_clust_6="13000.00000" pt_clust_7="13000.00000" pt_clust_8="13000.00000" pt_clust_9="20.06917"></scales>
<clustering>
<clus scale="   20.069">  2  9  1 -1</clus>
<clus scale="   91.025">  5  6 -1 -1</clus>
<clus scale="   91.244">  7  8 -1 -1</clus>
<clus scale="  100.707">  2  5  1 -1</clus>
<clus scale="  100.905">  1  5  2 -1</clus>
</clustering>
</event>
<event>
 9    1  0.1175034E-005  0.9200418E+02  0.7546771E-02  0.1298770E+00
         -3   -1    0    0    0  501 -0.00000000000E+00  0.00000000000E+00  0.35846350669E+03  0.35846350669E+03  0.00000000000E+00 0.  1.
          3   -1    0    0  502    0  0.00000000000E+00 -0.00000000000E+00 -0.17295580566E+03  0.17295580566E+03  0.00000000000E+00 0. -1.
         23    2    1    2    0    0  0.10802418835E+02 -0.12400596247E+02  0.30424222171E+03  0.31760111079E+03  0.89647471054E+02 0.  0.
         23    2    1    2    0    0  0.31867398699E+02 -0.93823435845E+01 -0.13242608805E+03  0.16399181484E+03  0.90846502786E+02 0.  0.
        -11    1    4    4    0    0  0.47188304834E+02  0.18612684030E+02 -0.35413725256E+02  0.61865176444E+02  0.00000000000E+00 0.  1.
         11    1    4    4    0    0 -0.15320906135E+02 -0.27995027614E+02 -0.97012362794E+02  0.10212663840E+03  0.00000000000E+00 0. -1.
        -13    1    3    3    0    0  0.38131373515E+02 -0.32880171856E+02  0.11862096995E+03  0.12886443209E+03  0.00000000000E+00 0.  1.
         13    1    3    3    0    0 -0.27328954680E+02  0.20479575609E+02  0.18562125176E+03  0.18873667870E+03  0.00000000000E+00 0. -1.
         21    1    1    2  502  501 -0.42669817534E+02  0.21782939831E+02  0.13691567377E+02  0.49826386717E+02  0.00000000000E+00 0. -1.
<scales pt_clust_5="13000.00000" pt_clust_6="13000.00000" pt_clust_7="13000.00000" pt_clust_8="13000.00000" pt_clust_9="47.90835"></scales>
<clustering>
<clus scale="   47.908">  2  9  1 -1</clus>
<clus scale="   89.647">  7  8 -1 -1</clus>
<clus scale="   90.820">  1  7  2 -1</clus>
<clus scale="   90.847">  5  6 -1 -1</clus>
<clus scale="   47.908">  2  5  1 -1</clus>
</clustering>
</event>
<event>
 9    1  0.1175034E-005  0.9835601E+02  0.7546771E-02  0.1284437E+00
          3   -1    0    0  502    0  0.00000000000E+00  0.00000000000E+00  0.84714875042E+02  0.84714875042E+02  0.00000000000E+00 0. -1.
         -3   -1    0    0    0  501 -0.00000000000E+00 -0.00000000000E+00 -0.25614584904E+03  0.25614584904E+03  0.00000000000E+00 0.  1.
         23    2    1    2    0    0 -0.28739483025E+01  0.47393041639E+02 -0.15833075327E+02  0.10290434493E+03  0.89912501670E+02 0.  0.
         23    2    1    2    0    0  0.68643602602E+01 -0.26206260200E+02 -0.15722843202E+02  0.96429582263E+02  0.91200707352E+02 0.  0.
        -11    1    4    4    0    0  0.33609306825E+02 -0.48968918454E+02 -0.15192247407E+02  0.61305341212E+02  0.00000000000E+00 0.  1.
         11    1    4    4    0    0 -0.26744946564E+02  0.22762658254E+02 -0.53059579494E+00  0.35124241051E+02  0.00000000000E+00 0. -1.
        -13    1    3    3    0    0 -0.13725374180E+02 -0.24831695399E+02 -0.78216400703E+01  0.29430885922E+02  0.00000000000E+00 0.  1.
         13    1    3    3    0    0  0.10851425877E+02  0.72224737038E+02 -0.80114352568E+01  0.73473459008E+02  0.00000000000E+00 0. -1.
         21    1    1    2  502  501 -0.39904119577E+01 -0.21186781438E+02 -0.13987505547E+03  0.14152679689E+03  0.00000000000E+00 0.  1.
<scales pt_clust_5="13000.00000" pt_clust_6="13000.00000" pt_clust_7="13000.00000" pt_clust_8="13000.00000" pt_clust_9="21.55929"></scales>
<clustering>
<clus scale="   21.559">  2  9  1 -1</clus>
<clus scale="   89.913">  7  8 -1 -1</clus>
<clus scale="   91.201">  5  6 -1 -1</clus>
<clus scale="   97.163">  2  7  1 -1</clus>
<clus scale="   98.356">  1  5  2 -1</clus>
</clustering>
</event>
<event>
 9    1  0.1175034E-005  0.1240940E+03  0.7546771E-02  0.1239533E+00
          1   -1    0    0  502    0  0.00000000000E+00  0.00000000000E+00  0.16667085817E+03  0.16667085817E+03  0.00000000000E+00 0. -1.
         -1   -1    0    0    0  501 -0.00000000000E+00 -0.00000000000E+00 -0.12213271925E+03  0.12213271925E+03  0.00000000000E+00 0.  1.
         23    2    1    2    0    0  0.14663844054E+02  0.76038060853E+02  0.23438481580E+00  0.11187021808E+03  0.80734600609E+02 0.  0.
         23    2    1    2    0    0 -0.34564590532E+02 -0.82560071991E+02  0.68469870552E+02  0.14495559326E+03  0.91176337056E+02 0.  0.
        -13    1    3    3    0    0  0.14666641077E+02  0.15319395532E+02 -0.35546840789E+02  0.41392899512E+02  0.00000000000E+00 0.  1.
         13    1    3    3    0    0 -0.27970227646E-02  0.60718665321E+02  0.35781225605E+02  0.70477318564E+02  0.00000000000E+00 0. -1.
        -13    1    4    4    0    0  0.29902895535E+02 -0.28014286896E+02  0.98080846488E+01  0.42132908233E+02  0.00000000000E+00 0.  1.
         13    1    4    4    0    0 -0.64467486067E+02 -0.54545785095E+02  0.58661785903E+02  0.10282268503E+03  0.00000000000E+00 0. -1.
         21    1    1    2  502  501  0.19900746478E+02  0.65220111381E+01 -0.24166116442E+02  0.31977766082E+02  0.00000000000E+00 0. -1.
<scales pt_clust_5="13000.00000" pt_clust_6="13000.00000" pt_clust_7="13000.00000" pt_clust_8="13000.00000" pt_clust_9="20.94221"></scales>
<clustering>
<clus scale="   20.942">  2  9  1 -1</clus>
<clus scale="   80.735">  5  6 -1 -1</clus>
<clus scale="   91.176">  7  8 -1 -1</clus>
<clus scale="  116.637">  2  5  1 -1</clus>
<clus scale="  124.094">  1  5  2 -1</clus>
</clustering>
</event>
<event>
 9    1  0.1175034E-005  0.1096947E+03  0.7546771E-02  0.1265133E+00
          1   -1    0    0  502    0  0.00000000000E+00  0.00000000000E+00  0.20801725701E+03  0.20801725701E+03  0.00000000000E+00 0. -1.
         -1   -1    0    0    0  501 -0.00000000000E+00 -0.00000000000E+00 -0.98777405099E+02  0.98777405099E+02  0.00000000000E+00 0.  1.
         23    2    1    2    0    0  0.39541489431E+01 -0.57677984364E+02  0.44422417056E+02  0.12318824470E+03  0.99295555390E+02 0.  0.
         23    2    1    2    0    0  0.11691157794E+02  0.40217091063E+02  0.10023245372E+03  0.14113428561E+03  0.90101299719E+02 0.  0.
        -11    1    4    4    0    0 -0.21549087463E+02  0.37059765657E+02  0.98816000427E+02  0.10771439709E+03  0.00000000000E+00 0.  1.
         11    1    4    4    0    0  0.33240245257E+02  0.31573254058E+01  0.14164532976E+01  0.33419888516E+02  0.00000000000E+00 0. -1.
        -11    1    3    3    0    0 -0.16053607596E+02 -0.71107707419E+02  0.60068189609E+02  0.94457460130E+02  0.00000000000E+00 0. -1.
         11    1    3    3    0    0  0.20007756540E+02  0.13429723055E+02 -0.15645772552E+02  0.28730784567E+02  0.00000000000E+00 0.  1.
         21    1    1    2  502  501 -0.15645306737E+02  0.17460893301E+02 -0.35415018873E+02  0.42472131799E+02  0.00000000000E+00 0.  1.
<scales pt_clust_5="13000.00000" pt_clust_6="13000.00000" pt_clust_7="13000.00000" pt_clust_8="13000.00000" pt_clust_9="23.44480"></scales>
<clustering>
<clus scale="   23.445">  2  9  1 -1</clus>
<clus scale="   90.101">  5  6 -1 -1</clus>
<clus scale="   99.296">  7  8 -1 -1</clus>
<clus scale="  101.447">  1  5  2 -1</clus>
<clus scale="  101.447">  1  5  2 -1</clus>
</clustering>
</event>
<event>
 9    1  0.1175034E-005  0.1017236E+03  0.7546771E-02  0.1277305E+00
          4   -1    0    0  502    0  0.00000000000E+00  0.00000000000E+00  0.81343826943E+02  0.81343826943E+02  0.00000000000E+00 0. -1.
         -4   -1    0    0    0  501 -0.00000000000E+00 -0.00000000000E+00 -0.26224623532E+03  0.26224623532E+03  0.00000000000E+00 0.  1.
         23    2    1    2    0    0 -0.64001986290E+02 -0.20017933205E+02 -0.14061582983E+03  0.18045551043E+03  0.91073639143E+02 0.  0.
         23    2    1    2    0    0  0.34256048494E+02  0.11617515528E+02  0.14505665286E+02  0.10022526940E+03  0.92337677980E+02 0.  0.
        -11    1    4    4    0    0 -0.29747696318E+02 -0.33272359127E+01  0.17054076073E+02  0.34450507192E+02  0.00000000000E+00 0. -1.
         11    1    4    4    0    0  0.64003744812E+02  0.14944751441E+02 -0.25484107871E+01  0.65774762205E+02  0.00000000000E+00 0.  1.
        -13    1    3    3    0    0 -0.24523797920E+02  0.36490291717E+02 -0.49571223203E+02  0.66259068994E+02  0.00000000000E+00 0.  1.
         13    1    3    3    0    0 -0.39478188369E+02 -0.56508224922E+02 -0.91044606631E+02  0.11419644144E+03  0.00000000000E+00 0. -1.
         21    1    1    2  502  501  0.29745937796E+02  0.84004176766E+01 -0.54792243826E+02  0.62909282431E+02  0.00000000000E+00 0.  1.
<scales pt_clust_5="13000.00000" pt_clust_6="13000.00000" pt_clust_7="13000.00000" pt_clust_8="13000.00000" pt_clust_9="30.90935"></scales>
<clustering>
<clus scale="   30.909">  2  9  1 -1</clus>
<clus scale="   91.074">  7  8 -1 -1</clus>
<clus scale="   92.338">  5  6 -1 -1</clus>
<clus scale="  100.578">  2  7  1 -1</clus>
<clus scale="  101.724">  1  5  2 -1</clus>
</clustering>
</event>
<event>
 9    1  0.1175034E-005  0.2430121E+03  0.7546771E-02  0.1117923E+00
          1   -1    0    0  502    0  0.00000000000E+00  0.00000000000E+00  0.11801408534E+04  0.11801408534E+04  0.00000000000E+00 0. -1.
         -1   -1    0    0    0  501 -0.00000000000E+00 -0.00000000000E+00 -0.68698594496E+02  0.68698594496E+02  0.00000000000E+00 0.  1.
         23    2    1    2    0    0  0.20697831871E+03  0.11064065972E+01  0.33336343439E+03  0.40304656518E+03  0.92054906236E+02 0.  0.
         23    2    1    2    0    0 -0.23388088762E+03  0.29150801500E+01  0.77880513214E+03  0.81858170686E+03  0.93967067006E+02 0.  0.
        -11    1    4    4    0    0 -0.14894110841E+03  0.44314739237E+02  0.53482728420E+03  0.55694476729E+03  0.00000000000E+00 0. -1.
         11    1    4    4    0    0 -0.84939779204E+02 -0.41399659088E+02  0.24397784794E+03  0.26163693957E+03  0.00000000000E+00 0.  1.
        -11    1    3    3    0    0  0.18315819411E+03  0.20916682766E+02  0.22789617315E+03  0.29312300733E+03  0.00000000000E+00 0.  1.
         11    1    3    3    0    0  0.23820124604E+02 -0.19810276169E+02  0.10546726124E+03  0.10992355785E+03  0.00000000000E+00 0. -1.
         21    1    1    2  502  501  0.26902568909E+02 -0.40214867471E+01 -0.72630760754E+00  0.27211175871E+02  0.00000000000E+00 0. -1.
<scales pt_clust_5="13000.00000" pt_clust_6="13000.00000" pt_clust_7="13000.00000" pt_clust_8="13000.00000" pt_clust_9="27.20148"></scales>
<clustering>
<clus scale="   27.201">  2  9  1 -1</clus>
<clus scale="   92.055">  7  8 -1 -1</clus>
<clus scale="   93.967">  5  6 -1 -1</clus>
<clus scale="  242.279">  2  7  1 -1</clus>
<clus scale="  243.012">  1  5  2 -1</clus>
</clustering>
</event>
<event>
 9    1  0.1175034E-005  0.1009467E+03  0.7546771E-02  0.1288159E+00
          1   -1    0    0  502    0  0.00000000000E+00  0.00000000000E+00  0.31676096953E+03  0.31676096953E+03  0.00000000000E+00 0. -1.
         -1   -1    0    0    0  501 -0.00000000000E+00 -0.00000000000E+00 -0.48759193254E+02  0.48759193254E+02  0.00000000000E+00 0.  1.
         23    2    1    2    0    0 -0.36172049138E+02  0.69792991521E+01  0.47039069807E+02  0.10114801974E+03  0.81615685090E+02 0.  0.
         23    2    1    2    0    0  0.87938557001E+01  0.14576402375E+02  0.19954375930E+03  0.22347000322E+03  0.99153048666E+02 0.  0.
        -13    1    4    4    0    0  0.53960150704E+02  0.12414664747E+02  0.11181874742E+03  0.12477681691E+03  0.00000000000E+00 0.  1.
         13    1    4    4    0    0 -0.45166295004E+02  0.21617376282E+01  0.87725011888E+02  0.98693186313E+02  0.00000000000E+00 0. -1.
        -13    1    3    3    0    0 -0.33977857672E+02 -0.29542333234E+02  0.46257325084E+02  0.64552183455E+02  0.00000000000E+00 0.  1.
         13    1    3    3    0    0 -0.21941914662E+01  0.36521632386E+02  0.78174472280E+00  0.36595836281E+02  0.00000000000E+00 0. -1.
         21    1    1    2  502  501  0.27378193438E+02 -0.21555701527E+02  0.21418947162E+02  0.40902139819E+02  0.00000000000E+00 0. -1.
<scales pt_clust_5="13000.00000" pt_clust_6="13000.00000" pt_clust_7="13000.00000" pt_clust_8="13000.00000" pt_clust_9="34.84557"></scales>
<clustering>
<clus scale="   34.846">  2  9  1 -1</clus>
<clus scale="   81.616">  7  8 -1 -1</clus>
<clus scale="   83.786">  2  7  1 -1</clus>
<clus scale="   99.153">  5  6 -1 -1</clus>
<clus scale="  100.947">  1  5  2 -1</clus>
</clustering>
</event>
<event>
 9    1  0.1175034E-005  0.9963759E+02  0.7546771E-02  0.1281745E+00
          2   -1    0    0  502    0  0.00000000000E+00  0.00000000000E+00  0.32526760262E+03  0.32526760262E+03  0.00000000000E+00 0. -1.
         -2   -1    0    0    0  501 -0.00000000000E+00 -0.00000000000E+00 -0.41640409654E+02  0.41640409654E+02  0.00000000000E+00 0.  1.
         23    2    1    2    0    0  0.67965816394E+01  0.31570339466E+02  0.11524399041E+03  0.14966074209E+03  0.89857000522E+02 0.  0.
         23    2    1    2    0    0  0.15486691695E+02 -0.47094246241E+02  0.15597329273E+03  0.18738857272E+03  0.91263922188E+02 0.  0.
        -11    1    3    3    0    0  0.40747709452E+02  0.40842233004E+02  0.53985756634E+02  0.79012187298E+02  0.00000000000E+00 0.  1.
         11    1    3    3    0    0 -0.33951127813E+02 -0.92718935374E+01  0.61258233774E+02  0.70648554795E+02  0.00000000000E+00 0. -1.
        -13    1    4    4    0    0  0.28392946411E+02 -0.15651703662E+02  0.52046037105E+01  0.32836308154E+02  0.00000000000E+00 0. -1.
         13    1    4    4    0    0 -0.12906254716E+02 -0.31442542579E+02  0.15076868901E+03  0.15455226456E+03  0.00000000000E+00 0.  1.
         21    1    1    2  502  501 -0.22283273334E+02  0.15523906775E+02  0.12409909830E+02  0.29858697460E+02  0.00000000000E+00 0.  1.
<scales pt_clust_5="13000.00000" pt_clust_6="13000.00000" pt_clust_7="13000.00000" pt_clust_8="13000.00000" pt_clust_9="27.15761"></scales>
<clustering>
<clus scale="   27.158">  2  9  1 -1</clus>
<clus scale="   89.857">  5  6 -1 -1</clus>
<clus scale="   91.264">  7  8 -1 -1</clus>
<clus scale="   98.351">  2  5  1 -1</clus>
<clus scale="   99.638">  1  5  2 -1</clus>
</clustering>
</event>
<event>
 9    1  0.1175034E-005  0.1690039E+03  0.7546771E-02  0.1180053E+00
          1   -1    0    0  502    0  0.00000000000E+00  0.00000000000E+00  0.89900587625E+02  0.89900587625E+02  0.00000000000E+00 0. -1.
         -1   -1    0    0    0  501 -0.00000000000E+00 -0.00000000000E+00 -0.41740409217E+03  0.41740409217E+03  0.00000000000E+00 0.  1.
         23    2    1    2    0    0  0.11852728698E+03  0.74788630287E+02 -0.25683034059E+03  0.30636127377E+03  0.90847945698E+02 0.  0.
         23    2    1    2    0    0 -0.99334941345E+02 -0.86273168858E+02 -0.53902539662E+02  0.17298818118E+03  0.98533937355E+02 0.  0.
        -13    1    4    4    0    0 -0.81114936074E+02 -0.18880237416E+02 -0.60391504150E+02  0.10287482682E+03  0.00000000000E+00 0.  1.
         13    1    4    4    0    0 -0.18220005271E+02 -0.67392931442E+02  0.64889644887E+01  0.70113354367E+02  0.00000000000E+00 0. -1.
        -13    1    3    3    0    0  0.99156299805E+01  0.26631453591E+02 -0.63298841681E+01  0.29113939477E+02  0.00000000000E+00 0.  1.
         13    1    3    3    0    0  0.10861165700E+03  0.48157176696E+02 -0.25050045642E+03  0.27724733429E+03  0.00000000000E+00 0. -1.
         21    1    1    2  502  501 -0.19192345631E+02  0.11484538571E+02 -0.16770624295E+02  0.27955224847E+02  0.00000000000E+00 0.  1.
<scales pt_clust_5="13000.00000" pt_clust_6="13000.00000" pt_clust_7="13000.00000" pt_clust_8="13000.00000" pt_clust_9="22.36606"></scales>
<clustering>
<clus scale="   22.366">  1  9  2 -1</clus>
<clus scale="   90.848">  7  8 -1 -1</clus>
<clus scale="   98.534">  5  6 -1 -1</clus>
<clus scale="  164.641">  2  7  1 -1</clus>
<clus scale="   22.366">  1  5  2 -1</clus>
</clustering>
</event>
<event>
 9    1  0.1175034E-005  0.1408296E+03  0.7546771E-02  0.1213023E+00
         -1   -1    0    0    0  501 -0.00000000000E+00  0.00000000000E+00  0.83680014735E+02  0.83680014735E+02  0.00000000000E+00 0.  1.
          1   -1    0    0  502    0  0.00000000000E+00 -0.00000000000E+00 -0.29179855730E+03  0.29179855730E+03  0.00000000000E+00 0. -1.
         23    2    1    2    0    0 -0.10922625028E+03 -0.31689546188E+02 -0.71507372266E+02  0.16215082992E+03  0.90801906739E+02 0.  0.
         23    2    1    2    0    0  0.90119083778E+02  0.41213782124E+02 -0.13446524111E+03  0.19187081098E+03  0.94411238419E+02 0.  0.
        -11    1    3    3    0    0 -0.46200520374E+02  0.28982266424E+02 -0.10615223199E+02  0.55562062718E+02  0.00000000000E+00 0. -1.
         11    1    3    3    0    0 -0.63025729908E+02 -0.60671812611E+02 -0.60892149067E+02  0.10658876720E+03  0.00000000000E+00 0.  1.
        -13    1    4    4    0    0 -0.14960408205E+02  0.14658954560E+02 -0.50811478851E+02  0.54959122495E+02  0.00000000000E+00 0.  1.
         13    1    4    4    0    0  0.10507949198E+03  0.26554827564E+02 -0.83653762259E+02  0.13691168848E+03  0.00000000000E+00 0. -1.
         21    1    1    2  502  501  0.19107166504E+02 -0.95242359366E+01 -0.21459291939E+01  0.21456931143E+02  0.00000000000E+00 0. -1.
<scales pt_clust_5="13000.00000" pt_clust_6="13000.00000" pt_clust_7="13000.00000" pt_clust_8="13000.00000" pt_clust_9="21.34935"></scales>
<clustering>
<clus scale="   21.349">  1  9  2 -1</clus>
<clus scale="   90.802">  5  6 -1 -1</clus>
<clus scale="   94.411">  7  8 -1 -1</clus>
<clus scale="  138.436">  1  5  2 -1</clus>
<clus scale="  140.830">  2  5  1 -1</clus>
</clustering>
</event>
<event>
 9    1  0.1175034E-005  0.1568886E+03  0.7546771E-02  0.1193303E+00
          1   -1    0    0  502    0  0.00000000000E+00  0.00000000000E+00  0.81799133395E+02  0.81799133395E+02  0.00000000000E+00 0. -1.
         -1   -1    0    0    0  501 -0.00000000000E+00 -0.00000000000E+00 -0.71372879156E+03  0.71372879156E+03  0.00000000000E+00 0.  1.
         23    2    1    2    0    0  0.51976508977E+01  0.15332367669E+03 -0.11074438039E+03  0.20932516929E+03  0.89540735423E+02 0.  0.
         23    2    1    2    0    0 -0.25913282122E+02 -0.94413972015E+02 -0.12555895112E+03  0.18567849794E+03  0.95529880612E+02 0.  0.
        -11    1    4    4    0    0 -0.30647264077E+02 -0.27622445199E+02  0.23266291622E+01  0.41323933470E+02  0.00000000000E+00 0. -1.
         11    1    4    4    0    0  0.47339819546E+01 -0.66791526816E+02 -0.12788558029E+03  0.14435456447E+03  0.00000000000E+00 0.  1.
        -13    1    3    3    0    0  0.23843198199E+02  0.20134582023E+02 -0.56027338783E+02  0.64132380157E+02  0.00000000000E+00 0.  1.
         13    1    3    3    0    0 -0.18645547301E+02  0.13318909467E+03 -0.54717041605E+02  0.14519278913E+03  0.00000000000E+00 0. -1.
         21    1    1    2  502  501  0.20715631225E+02 -0.58909704678E+02 -0.39562632666E+03  0.40052425772E+03  0.00000000000E+00 0.  1.
<scales pt_clust_5="13000.00000" pt_clust_6="13000.00000" pt_clust_7="13000.00000" pt_clust_8="13000.00000" pt_clust_9="62.44590"></scales>
<clustering>
<clus scale="   62.446">  2  9  1 -1</clus>
<clus scale="   89.541">  7  8 -1 -1</clus>
<clus scale="   95.530">  5  6 -1 -1</clus>
<clus scale="  153.315">  2  7  1 -1</clus>
<clus scale="  156.889">  1  5  2 -1</clus>
</clustering>
</event>
<event>
 9    1  0.1175034E-005  0.1482759E+03  0.7546771E-02  0.1204639E+00
         -2   -1    0    0    0  501 -0.00000000000E+00  0.00000000000E+00  0.16827063745E+03  0.16827063745E+03  0.00000000000E+00 0.  1.
          2   -1    0    0  502    0  0.00000000000E+00 -0.00000000000E+00 -0.58436339290E+03  0.58436339290E+03  0.00000000000E+00 0. -1.
         23    2    1    2    0    0 -0.72711379726E+02 -0.95122284954E+02 -0.24269597684E+03  0.28736979704E+03  0.96668863862E+02 0.  0.
         23    2    1    2    0    0  0.52169588721E+02  0.94593814986E+02 -0.30347941818E+03  0.33356860857E+03  0.86594477549E+02 0.  0.
        -11    1    4    4    0    0 -0.29756393547E+00  0.63922633517E+02 -0.82399467655E+02  0.10428741003E+03  0.00000000000E+00 0.  1.
         11    1    4    4    0    0  0.52467152656E+02  0.30671181469E+02 -0.22107995052E+03  0.22928119854E+03  0.00000000000E+00 0. -1.
        -11    1    3    3    0    0 -0.27158765676E+02 -0.54048085028E+02 -0.20860197067E+03  0.21719478865E+03  0.00000000000E+00 0.  1.
         11    1    3    3    0    0 -0.45552614050E+02 -0.41074199926E+02 -0.34094006170E+02  0.70175008393E+02  0.00000000000E+00 0. -1.
         21    1    1    2  502  501  0.20541791005E+02  0.52846996801E+00  0.13008263957E+03  0.13169562474E+03  0.00000000000E+00 0.  1.
<scales pt_clust_5="13000.00000" pt_clust_6="13000.00000" pt_clust_7="13000.00000" pt_clust_8="13000.00000" pt_clust_9="20.54859"></scales>
<clustering>
<clus scale="   20.549">  1  9  2 -1</clus>
<clus scale="   86.594">  5  6 -1 -1</clus>
<clus scale="   96.669">  7  8 -1 -1</clus>
<clus scale="  141.914">  2  5  1 -1</clus>
<clus scale="  141.914">  2  5  1 -1</clus>
</clustering>
</event>
<event>
 9    1  0.1175034E-005  0.1317361E+03  0.7546771E-02  0.1224955E+00
         -1   -1    0    0    0  501 -0.00000000000E+00  0.00000000000E+00  0.34315704894E+03  0.34315704894E+03  0.00000000000E+00 0.  1.
          1   -1    0    0  502    0  0.00000000000E+00 -0.00000000000E+00 -0.15331425566E+03  0.15331425566E+03  0.00000000000E+00 0. -1.
         23    2    1    2    0    0  0.30231164894E+01  0.77554983457E+02  0.27784365763E+03  0.30283771016E+03  0.92139383080E+02 0.  0.
         23    2    1    2    0    0 -0.22116501082E+02 -0.93399186904E+02 -0.99532899232E+02  0.16627333227E+03  0.92344329868E+02 0.  0.
        -13    1    4    4    0    0  0.22911987591E+02  0.54871191695E+01 -0.10475105814E+02  0.25783628409E+02  0.00000000000E+00 0.  1.
         13    1    4    4    0    0 -0.45028488672E+02 -0.98886306074E+02 -0.89057793418E+02  0.14048970386E+03  0.00000000000E+00 0. -1.
        -13    1    3    3    0    0  0.22096653139E+02  0.31825395448E+02  0.23239484306E+03  0.23560237892E+03  0.00000000000E+00 0.  1.
         13    1    3    3    0    0 -0.19073536649E+02  0.45729588009E+02  0.45448814579E+02  0.67235331237E+02  0.00000000000E+00 0. -1.
         21    1    1    2  502  501  0.19093384592E+02  0.15844203447E+02  0.11532034877E+02  0.27360262178E+02  0.00000000000E+00 0. -1.
<scales pt_clust_5="13000.00000" pt_clust_6="13000.00000" pt_clust_7="13000.00000" pt_clust_8="13000.00000" pt_clust_9="24.81121"></scales>
<clustering>
<clus scale="   24.811">  1  9  2 -1</clus>
<clus scale="   92.139">  7  8 -1 -1</clus>
<clus scale="   92.344">  5  6 -1 -1</clus>
<clus scale="  131.593">  1  7  2 -1</clus>
<clus scale="  131.736">  2  5  1 -1</clus>
</clustering>
</event>
<event>
 9    1  0.1175034E-005  0.1035739E+03  0.7546771E-02  0.1274055E+00
          3   -1    0    0  502    0  0.00000000000E+00  0.00000000000E+00  0.49144512832E+02  0.49144512832E+02  0.00000000000E+00 0. -1.
         -3   -1    0    0    0  501 -0.00000000000E+00 -0.00000000000E+00 -0.48064097067E+03  0.48064097067E+03  0.00000000000E+00 0.  1.
         23    2    1    2    0    0  0.62620194265E+02 -0.39344413515E+02 -0.15104334685E+03  0.19152195704E+03  0.91636760072E+02 0.  0.
         23    2    1    2    0    0 -0.38730187155E+02 -0.39852818873E+01 -0.64569181064E+02  0.11678200095E+03  0.89179295431E+02 0.  0.
        -13    1    3    3    0    0  0.15194801067E+02 -0.51595487225E+02 -0.12492386834E+03  0.13601084207E+03  0.00000000000E+00 0.  1.
         13    1    3    3    0    0  0.47425393198E+02  0.12251073710E+02 -0.26119478513E+02  0.55511114967E+02  0.00000000000E+00 0. -1.
        -13    1    4    4    0    0 -0.61557823736E+02 -0.15531690876E+02 -0.22138519895E+02  0.67236248763E+02  0.00000000000E+00 0.  1.
         13    1    4    4    0    0  0.22827636581E+02  0.11546408989E+02 -0.42430661169E+02  0.49545752186E+02  0.00000000000E+00 0. -1.
         21    1    1    2  502  501 -0.23890007110E+02  0.43329695402E+02 -0.21588392992E+03  0.22148152551E+03  0.00000000000E+00 0.  1.
<scales pt_clust_5="13000.00000" pt_clust_6="13000.00000" pt_clust_7="13000.00000" pt_clust_8="13000.00000" pt_clust_9="49.47924"></scales>
<clustering>
<clus scale="   49.479">  2  9  1 -1</clus>
<clus scale="   89.179">  7  8 -1 -1</clus>
<clus scale="   91.637">  5  6 -1 -1</clus>
<clus scale="  101.406">  1  7  2 -1</clus>
<clus scale="  101.406">  1  5  2 -1</clus>
</clustering>
</event>
<event>
 9    1  0.1175034E-005  0.1262164E+03  0.7546771E-02  0.1235196E+00
         -1   -1    0    0    0  501 -0.00000000000E+00  0.00000000000E+00  0.53247247905E+02  0.53247247905E+02  0.00000000000E+00 0.  1.
          1   -1    0    0  502    0  0.00000000000E+00 -0.00000000000E+00 -0.46744823517E+03  0.46744823517E+03  0.00000000000E+00 0. -1.
         23    2    1    2    0    0 -0.98030278708E+01 -0.65129005704E+02 -0.86291218266E+02  0.14640178897E+03  0.98231475221E+02 0.  0.
         23    2    1    2    0    0 -0.90908502367E+01  0.84604352430E+02 -0.32348940567E+03  0.34680174306E+03  0.91572448912E+02 0.  0.
        -11    1    3    3    0    0  0.37528457513E+02 -0.25816261112E+01 -0.41761659047E+02  0.56205747776E+02  0.00000000000E+00 0. -1.
         11    1    3    3    0    0 -0.47331485384E+02 -0.62547379593E+02 -0.44529559219E+02  0.90196041193E+02  0.00000000000E+00 0.  1.
        -11    1    4    4    0    0  0.35659264373E+02  0.11563357270E+02 -0.12782076165E+03  0.13320450997E+03  0.00000000000E+00 0.  1.
         11    1    4    4    0    0 -0.44750114610E+02  0.73040995160E+02 -0.19566864403E+03  0.21359723310E+03  0.00000000000E+00 0. -1.
         21    1    1    2  502  501  0.18893878108E+02 -0.19475346726E+02 -0.44203633212E+01  0.27491951039E+02  0.00000000000E+00 0. -1.
<scales pt_clust_5="13000.00000" pt_clust_6="13000.00000" pt_clust_7="13000.00000" pt_clust_8="13000.00000" pt_clust_9="27.13425"></scales>
<clustering>
<clus scale="   27.134">  1  9  2 -1</clus>
<clus scale="   91.572">  7  8 -1 -1</clus>
<clus scale="   98.231">  5  6 -1 -1</clus>
<clus scale="  121.106">  2  7  1 -1</clus>
<clus scale="  121.106">  2  5  1 -1</clus>
</clustering>
</event>
<event>
 9    1  0.1175034E-005  0.2266068E+03  0.7546771E-02  0.1138600E+00
         -1   -1    0    0    0  501 -0.00000000000E+00  0.00000000000E+00  0.39012722320E+02  0.39012722320E+02  0.00000000000E+00 0.  1.
          1   -1    0    0  502    0  0.00000000000E+00 -0.00000000000E+00 -0.27462579527E+04  0.27462579527E+04  0.00000000000E+00 0. -1.
         23    2    1    2    0    0  0.63055198844E+02 -0.14048638004E+03 -0.53065859475E+03  0.56020375212E+03  0.92289320257E+02 0.  0.
         23    2    1    2    0    0  0.16880951310E+03  0.42047473460E+02 -0.69416160957E+03  0.72139294864E+03  0.91009913748E+02 0.  0.
        -11    1    3    3    0    0  0.82675650122E+02 -0.13627826441E+03 -0.46646578063E+03  0.49294761687E+03  0.00000000000E+00 0.  1.
         11    1    3    3    0    0 -0.19620451279E+02 -0.42081156361E+01 -0.64192814114E+02  0.67256135255E+02  0.00000000000E+00 0. -1.
        -13    1    4    4    0    0  0.21895078368E+02  0.41982377013E+02 -0.21796839678E+03  0.22305186938E+03  0.00000000000E+00 0. -1.
         13    1    4    4    0    0  0.14691443474E+03  0.65096447169E-01 -0.47619321279E+03  0.49834107926E+03  0.00000000000E+00 0.  1.
         21    1    1    2  502  501 -0.23186471195E+03  0.98438906583E+02 -0.14824250260E+04  0.15036739742E+04  0.00000000000E+00 0. -1.
<scales pt_clust_5="13000.00000" pt_clust_6="13000.00000" pt_clust_7="13000.00000" pt_clust_8="13000.00000" pt_clust_9="207.52789"></scales>
<clustering>
<clus scale="   91.010">  7  8 -1 -1</clus>
<clus scale="   92.289">  5  6 -1 -1</clus>
<clus scale="  179.526">  1  5  2 -1</clus>
<clus scale="  207.528">  2  9  1 -1</clus>
<clus scale="  207.528">  2  5  1 -1</clus>
</clustering>
</event>
<event>
 9    1  0.1175034E-005  0.2150325E+03  0.7546771E-02  0.1139290E+00
          1   -1    0    0  502    0  0.00000000000E+00  0.00000000000E+00  0.73372926146E+03  0.73372926146E+03  0.00000000000E+00 0. -1.
         -1   -1    0    0    0  501 -0.00000000000E+00 -0.00000000000E+00 -0.96559972637E+02  0.96559972637E+02  0.00000000000E+00 0.  1.
         23    2    1    2    0    0  0.11433825466E+03  0.15060055677E+03  0.16242054475E+03  0.26360892472E+03  0.85764023105E+02 0.  0.
         23    2    1    2    0    0 -0.12878957170E+03 -0.13672514858E+03  0.49411141508E+03  0.53881849779E+03  0.10439714087E+03 0.  0.
        -11    1    3    3    0    0  0.50737585578E+02  0.79319667052E+01  0.37243738440E+02  0.63437486860E+02  0.00000000000E+00 0. -1.
         11    1    3    3    0    0  0.63600669080E+02  0.14266859006E+03  0.12517680631E+03  0.20017143786E+03  0.00000000000E+00 0.  1.
        -13    1    4    4    0    0  0.17904974354E+02 -0.15234746459E+02  0.71542753505E+02  0.75306382103E+02  0.00000000000E+00 0.  1.
         13    1    4    4    0    0 -0.14669454606E+03 -0.12149040212E+03  0.42256866157E+03  0.46351211569E+03  0.00000000000E+00 0. -1.
         21    1    1    2  502  501  0.14451317045E+02 -0.13875408185E+02 -0.19362670998E+02  0.27861811585E+02  0.00000000000E+00 0.  1.
<scales pt_clust_5="13000.00000" pt_clust_6="13000.00000" pt_clust_7="13000.00000" pt_clust_8="13000.00000" pt_clust_9="20.03416"></scales>
<clustering>
<clus scale="   20.034">  2  9  1 -1</clus>
<clus scale="   85.764">  5  6 -1 -1</clus>
<clus scale="  104.397">  7  8 -1 -1</clus>
<clus scale="  206.629">  2  5  1 -1</clus>
<clus scale="  215.033">  1  5  2 -1</clus>
</clustering>
</event>
<event>
 9    1  0.1175034E-005  0.1343061E+03  0.7546771E-02  0.1236234E+00
         -2   -1    0    0    0  501 -0.00000000000E+00  0.00000000000E+00  0.10529211324E+03  0.10529211324E+03  0.00000000000E+00 0.  1.
          2   -1    0    0  502    0  0.00000000000E+00 -0.00000000000E+00 -0.28075035076E+03  0.28075035076E+03  0.00000000000E+00 0. -1.
         23    2    1    2    0    0 -0.82142803629E+02 -0.38871337878E+02 -0.37981601570E+02  0.13424698200E+03  0.91220770781E+02 0.  0.
         23    2    1    2    0    0  0.48911315820E+01 -0.37917637214E+02 -0.88582521368E+02  0.13240116903E+03  0.90672686561E+02 0.  0.
        -11    1    4    4    0    0 -0.24409345312E+02  0.60328919480E+01  0.43389013955E+01  0.25515446090E+02  0.00000000000E+00 0. -1.
         11    1    4    4    0    0  0.29300476894E+02 -0.43950529162E+02 -0.92921422764E+02  0.10688572294E+03  0.00000000000E+00 0.  1.
        -13    1    3    3    0    0 -0.29675870725E+02 -0.23719490858E+00  0.28510233662E+02  0.41152727592E+02  0.00000000000E+00 0.  1.
         13    1    3    3    0    0 -0.52466932904E+02 -0.38634142970E+02 -0.66491835233E+02  0.93094254409E+02  0.00000000000E+00 0. -1.
         21    1    1    2  502  501  0.77251672047E+02  0.76788975092E+02 -0.48894114574E+02  0.11939431297E+03  0.00000000000E+00 0. -1.
<scales pt_clust_5="13000.00000" pt_clust_6="13000.00000" pt_clust_7="13000.00000" pt_clust_8="13000.00000" pt_clust_9="98.57428"></scales>
<clustering>
<clus scale="   90.673">  5  6 -1 -1</clus>
<clus scale="   91.221">  7  8 -1 -1</clus>
<clus scale="   98.403">  2  5  1 -1</clus>
<clus scale="   98.574">  2  9  1 -1</clus>
<clus scale="   98.403">  2  5  1 -1</clus>
</clustering>
</event>
<event>
 9    1  0.1175034E-005  0.9889034E+02  0.7546771E-02  0.1283731E+00
          1   -1    0    0  502    0  0.00000000000E+00  0.00000000000E+00  0.47645113392E+03  0.47645113392E+03  0.00000000000E+00 0. -1.
         -1   -1    0    0    0  501 -0.00000000000E+00 -0.00000000000E+00 -0.47653064828E+02  0.47653064828E+02  0.00000000000E+00 0.  1.
         23    2    1    2    0    0  0.33805962718E+02 -0.21627868437E+02  0.91170487999E+02  0.13614043395E+03  0.92798448619E+02 0.  0.
         23    2    1    2    0    0 -0.33923408450E+02 -0.73034305662E+00  0.34949443369E+03  0.36265120654E+03  0.90654329089E+02 0.  0.
        -11    1    3    3    0    0 -0.27383457248E+02  0.12440300224E+01  0.55044396860E+02  0.61492169967E+02  0.00000000000E+00 0. -1.
         11    1    3    3    0    0  0.61189419966E+02 -0.22871898459E+02  0.36126091138E+02  0.74648263984E+02  0.00000000000E+00 0.  1.
        -13    1    4    4    0    0 -0.49549796216E+02 -0.31425393382E+02  0.26476128143E+03  0.27118494390E+03  0.00000000000E+00 0. -1.
         13    1    4    4    0    0  0.15626387767E+02  0.30695050325E+02  0.84733152259E+02  0.91466262637E+02  0.00000000000E+00 0.  1.
         21    1    1    2  502  501  0.11744573143E+00  0.22358211494E+02 -0.11866852600E+02  0.25312558253E+02  0.00000000000E+00 0.  1.
<scales pt_clust_5="13000.00000" pt_clust_6="13000.00000" pt_clust_7="13000.00000" pt_clust_8="13000.00000" pt_clust_9="22.35852"></scales>
<clustering>
<clus scale="   22.359">  2  9  1 -1</clus>
<clus scale="   90.654">  7  8 -1 -1</clus>
<clus scale="   92.798">  5  6 -1 -1</clus>
<clus scale="   96.881">  1  7  2 -1</clus>
<clus scale="   96.881">  1  5  2 -1</clus>
</clustering>
</event>
<event>
 9    1  0.1175034E-005  0.3226040E+03  0.7546771E-02  0.1074464E+00
          2   -1    0    0  502    0  0.00000000000E+00  0.00000000000E+00  0.14678238030E+04  0.14678238030E+04  0.00000000000E+00 0. -1.
         -2   -1    0    0    0  501 -0.00000000000E+00 -0.00000000000E+00 -0.88090101062E+02  0.88090101062E+02  0.00000000000E+00 0.  1.
         23    2    1    2    0    0  0.26720731144E+03  0.11664738527E+03  0.54328636562E+03  0.62529300638E+03  0.10404282281E+03 0.  0.
         23    2    1    2    0    0 -0.29127760759E+03 -0.12236320635E+03  0.84193477711E+03  0.90527998662E+03  0.10422229282E+03 0.  0.
        -11    1    3    3    0    0 -0.19486410324E-01  0.20142250849E+02  0.74080120527E+02  0.76769622288E+02  0.00000000000E+00 0.  1.
         11    1    3    3    0    0  0.26722679785E+03  0.96505134421E+02  0.46920624510E+03  0.54852338409E+03  0.00000000000E+00 0. -1.
        -13    1    4    4    0    0 -0.18472577727E+03 -0.79222239641E+02  0.38745121361E+03  0.43648392750E+03  0.00000000000E+00 0.  1.
         13    1    4    4    0    0 -0.10655183032E+03 -0.43140966707E+02  0.45448356350E+03  0.46879605912E+03  0.00000000000E+00 0. -1.
         21    1    1    2  502  501  0.24070296157E+02  0.57158210783E+01 -0.54874407799E+01  0.25340911073E+02  0.00000000000E+00 0.  1.
<scales pt_clust_5="13000.00000" pt_clust_6="13000.00000" pt_clust_7="13000.00000" pt_clust_8="13000.00000" pt_clust_9="24.73964"></scales>
<clustering>
<clus scale="   24.740">  2  9  1 -1</clus>
<clus scale="  104.043">  5  6 -1 -1</clus>
<clus scale="  104.222">  7  8 -1 -1</clus>
<clus scale="  322.546">  2  5  1 -1</clus>
<clus scale="  322.604">  1  5  2 -1</clus>
</clustering>
</event>
<event>
 9    1  0.1175034E-005  0.1098237E+03  0.7546771E-02  0.1262126E+00
          1   -1    0    0  502    0  0.00000000000E+00  0.00000000000E+00  0.41225641437E+03  0.41225641437E+03  0.00000000000E+00 0. -1.
         -1   -1    0    0    0  501 -0.00000000000E+00 -0.00000000000E+00 -0.11243346231E+03  0.11243346231E+03  0.00000000000E+00 0.  1.
         23    2    1    2    0    0 -0.39138462280E+02 -0.74675316551E+02  0.69769781000E+02  0.14304616947E+03  0.92120367611E+02 0.  0.
         23    2    1    2    0    0 -0.42349696458E+01  0.49312140822E+02  0.28659260871E+03  0.30600474047E+03  0.95152275968E+02 0.  0.
        -11    1    3    3    0    0 -0.68591762419E+02 -0.62403069905E+02  0.47979979221E+02  0.10440810031E+03  0.00000000000E+00 0. -1.
         11    1    3    3    0    0  0.29453300139E+02 -0.12272246646E+02  0.21789801779E+02  0.38638069160E+02  0.00000000000E+00 0.  1.
        -13    1    4    4    0    0 -0.24679687131E+02 -0.20825323552E+02  0.63239295493E+02  0.71006968337E+02  0.00000000000E+00 0. -1.
         13    1    4    4    0    0  0.20444717485E+02  0.70137464375E+02  0.22335331322E+03  0.23499777213E+03  0.00000000000E+00 0.  1.
         21    1    1    2  502  501  0.43373431926E+02  0.25363175729E+02 -0.56539437650E+02  0.75638966742E+02  0.00000000000E+00 0.  1.
<scales pt_clust_5="13000.00000" pt_clust_6="13000.00000" pt_clust_7="13000.00000" pt_clust_8="13000.00000" pt_clust_9="50.24485"></scales>
<clustering>
<clus scale="   50.245">  2  9  1 -1</clus>
<clus scale="   92.120">  5  6 -1 -1</clus>
<clus scale="   95.152">  7  8 -1 -1</clus>
<clus scale="  107.208">  2  5  1 -1</clus>
<clus scale="  109.824">  1  5  2 -1</clus>
</clustering>
</event>
<event>
 9    1  0.1175034E-005  0.1376547E+03  0.7546771E-02  0.1233927E+00
         -3   -1    0    0    0  501 -0.00000000000E+00  0.00000000000E+00  0.56216235925E+02  0.56216235925E+02  0.00000000000E+00 0.  1.
          3   -1    0    0  502    0  0.00000000000E+00 -0.00000000000E+00 -0.54654552761E+03  0.54654552761E+03  0.00000000000E+00 0. -1.
         23    2    1    2    0    0  0.85670921978E+02  0.17539416902E+02 -0.13518488542E+03  0.18526763662E+03  0.91662456404E+02 0.  0.
         23    2    1    2    0    0  0.35079996023E+02 -0.11524661319E+02 -0.19036932558E+03  0.21312243441E+03  0.88415315348E+02 0.  0.
        -11    1    3    3    0    0  0.79676665637E+02 -0.19174124306E+02 -0.11948986961E+03  0.14489253614E+03  0.00000000000E+00 0. -1.
         11    1    3    3    0    0  0.59942563409E+01  0.36713541208E+02 -0.15695015806E+02  0.40375100473E+02  0.00000000000E+00 0.  1.
        -13    1    4    4    0    0  0.21824275340E+02  0.38382238755E+02 -0.85300024693E+02  0.96049932112E+02  0.00000000000E+00 0.  1.
         13    1    4    4    0    0  0.13255720683E+02 -0.49906900075E+02 -0.10506930089E+03  0.11707250230E+03  0.00000000000E+00 0. -1.
         21    1    1    2  502  501 -0.12075091800E+03 -0.60147555825E+01 -0.16477508068E+03  0.20437169250E+03  0.00000000000E+00 0.  1.
<scales pt_clust_5="13000.00000" pt_clust_6="13000.00000" pt_clust_7="13000.00000" pt_clust_8="13000.00000" pt_clust_9="102.69769"></scales>
<clustering>
<clus scale="   88.415">  7  8 -1 -1</clus>
<clus scale="   91.662">  5  6 -1 -1</clus>
<clus scale="   95.816">  2  7  1 -1</clus>
<clus scale="  102.698">  2  9  1 -1</clus>
<clus scale="   95.816">  2  5  1 -1</clus>
</clustering>
</event>
<event>
 9    1  0.1175034E-005  0.1913087E+03  0.7546771E-02  0.1157398E+00
          1   -1    0    0  502    0  0.00000000000E+00  0.00000000000E+00  0.67379511449E+03  0.67379511449E+03  0.00000000000E+00 0. -1.
         -1   -1    0    0    0  501 -0.00000000000E+00 -0.00000000000E+00 -0.12762486205E+03  0.12762486205E+03  0.00000000000E+00 0.  1.
         23    2    1    2    0    0 -0.26190289687E+02  0.14480963686E+03  0.15189450794E+03  0.23014618761E+03  0.90772043756E+02 0.  0.
         23    2    1    2    0    0  0.12927985206E+01 -0.18085157799E+03  0.45419966458E+03  0.49704587782E+03  0.89712344544E+02 0.  0.
        -11    1    4    4    0    0  0.32871637636E+02 -0.26199044863E+02  0.69497235902E+02  0.81220688932E+02  0.00000000000E+00 0. -1.
         11    1    4    4    0    0 -0.31578839116E+02 -0.15465253313E+03  0.38470242868E+03  0.41582518889E+03  0.00000000000E+00 0.  1.
        -13    1    3    3    0    0 -0.51022783933E+02  0.13194840567E+03  0.14210146682E+03  0.20051566800E+03  0.00000000000E+00 0.  1.
         13    1    3    3    0    0  0.24832494246E+02  0.12861231184E+02  0.97930411221E+01  0.29630519612E+02  0.00000000000E+00 0. -1.
         21    1    1    2  502  501  0.24897491166E+02  0.36041941134E+02 -0.59923920092E+02  0.74227911100E+02  0.00000000000E+00 0.  1.
<scales pt_clust_5="13000.00000" pt_clust_6="13000.00000" pt_clust_7="13000.00000" pt_clust_8="13000.00000" pt_clust_9="43.80533"></scales>
<clustering>
<clus scale="   43.805">  2  9  1 -1</clus>
<clus scale="   89.712">  5  6 -1 -1</clus>
<clus scale="   90.772">  7  8 -1 -1</clus>
<clus scale="  190.808">  1  5  2 -1</clus>
<clus scale="  190.808">  1  5  2 -1</clus>
</clustering>
</event>
<event>
 9    1  0.1175034E-005  0.1131133E+03  0.7546771E-02  0.1257653E+00
          3   -1    0    0  502    0  0.00000000000E+00  0.00000000000E+00  0.26555467517E+03  0.26555467517E+03  0.00000000000E+00 0. -1.
         -3   -1    0    0    0  501 -0.00000000000E+00 -0.00000000000E+00 -0.88729330227E+02  0.88729330227E+02  0.00000000000E+00 0.  1.
         23    2    1    2    0    0 -0.33022008176E+02  0.59844924739E+02 -0.20437291029E+02  0.11524709278E+03  0.90511554454E+02 0.  0.
         23    2    1    2    0    0  0.92751063963E+01 -0.68977451394E+02  0.17161180543E+03  0.20290820526E+03  0.82928955141E+02 0.  0.
        -11    1    3    3    0    0 -0.10976085656E+01  0.61391430042E+02  0.19195961586E+02  0.64331931172E+02  0.00000000000E+00 0. -1.
         11    1    3    3    0    0 -0.31924399610E+02 -0.15465053032E+01 -0.39633252615E+02  0.50915161612E+02  0.00000000000E+00 0.  1.
        -13    1    4    4    0    0 -0.19037285945E+02 -0.11961075706E+02  0.30035008444E+01  0.22682738052E+02  0.00000000000E+00 0.  1.
         13    1    4    4    0    0  0.28312392341E+02 -0.57016375688E+02  0.16860830458E+03  0.18022546721E+03  0.00000000000E+00 0. -1.
         21    1    1    2  502  501  0.23746901780E+02  0.91325266554E+01  0.25650830549E+02  0.36128707354E+02  0.00000000000E+00 0. -1.
<scales pt_clust_5="13000.00000" pt_clust_6="13000.00000" pt_clust_7="13000.00000" pt_clust_8="13000.00000" pt_clust_9="25.44245"></scales>
<clustering>
<clus scale="   25.442">  1  9  2 -1</clus>
<clus scale="   82.929">  7  8 -1 -1</clus>
<clus scale="   90.512">  5  6 -1 -1</clus>
<clus scale="  107.142">  1  7  2 -1</clus>
<clus scale="   25.442">  1  5  2 -1</clus>
</clustering>
</event>
<event>
 9    1  0.1175034E-005  0.9082609E+02  0.7546771E-02  0.1301120E+00
          1   -1    0    0  502    0  0.00000000000E+00  0.00000000000E+00  0.23487468608E+03  0.23487468608E+03  0.00000000000E+00 0. -1.
         -1   -1    0    0    0  501 -0.00000000000E+00 -0.00000000000E+00 -0.15115968970E+03  0.15115968970E+03  0.00000000000E+00 0.  1.
         23    2    1    2    0    0 -0.26547094792E+02 -0.33649881097E+02  0.20080521218E+02  0.10200979724E+03  0.90364310773E+02 0.  0.
         23    2    1    2    0    0  0.35700114780E+01 -0.67467958153E+01  0.15622603293E+03  0.18042421930E+03  0.89933649489E+02 0.  0.
        -11    1    4    4    0    0  0.35401506771E+02 -0.31816522526E+02  0.64623363063E+02  0.80260431353E+02  0.00000000000E+00 0.  1.
         11    1    4    4    0    0 -0.31831495293E+02  0.25069726711E+02  0.91602669866E+02  0.10016378795E+03  0.00000000000E+00 0. -1.
        -11    1    3    3    0    0 -0.32941284859E+00 -0.60898878798E+02  0.20304526000E+02  0.64195449432E+02  0.00000000000E+00 0.  1.
         11    1    3    3    0    0 -0.26217681943E+02  0.27248997701E+02 -0.22400478185E+00  0.37814347811E+02  0.00000000000E+00 0. -1.
         21    1    1    2  502  501  0.22977083314E+02  0.40396676912E+02 -0.92591557767E+02  0.10360035923E+03  0.00000000000E+00 0.  1.
<scales pt_clust_5="13000.00000" pt_clust_6="13000.00000" pt_clust_7="13000.00000" pt_clust_8="13000.00000" pt_clust_9="46.47406"></scales>
<clustering>
<clus scale="   46.474">  2  9  1 -1</clus>
<clus scale="   89.934">  5  6 -1 -1</clus>
<clus scale="   90.364">  7  8 -1 -1</clus>
<clus scale="   90.398">  1  5  2 -1</clus>
<clus scale="   90.398">  1  5  2 -1</clus>
</clustering>
</event>
<event>
 9    1  0.1175034E-005  0.1274123E+03  0.7546771E-02  0.1233334E+00
          1   -1    0    0  502    0  0.00000000000E+00  0.00000000000E+00  0.64297063120E+03  0.64297063120E+03  0.00000000000E+00 0. -1.
         -1   -1    0    0    0  501 -0.00000000000E+00 -0.00000000000E+00 -0.32608700394E+02  0.32608700394E+02  0.00000000000E+00 0.  1.
         23    2    1    2    0    0 -0.79959996681E+02  0.30811488837E+00  0.24303267130E+03  0.27332650899E+03  0.96170708607E+02 0.  0.
         23    2    1    2    0    0  0.84627602032E+02 -0.20031170678E+02  0.35954839352E+03  0.38054274787E+03  0.89300934199E+02 0.  0.
        -13    1    4    4    0    0  0.22978400270E+01  0.23641108464E+02  0.31127967999E+02  0.39155235537E+02  0.00000000000E+00 0.  1.
         13    1    4    4    0    0  0.82329762005E+02 -0.43672279142E+02  0.32842042552E+03  0.34138751234E+03  0.00000000000E+00 0. -1.
        -13    1    3    3    0    0 -0.37717486023E+02 -0.16392837568E+02  0.20029392786E+02  0.45743966278E+02  0.00000000000E+00 0.  1.
         13    1    3    3    0    0 -0.42242510658E+02  0.16700952457E+02  0.22300327852E+03  0.22758254272E+03  0.00000000000E+00 0. -1.
         21    1    1    2  502  501 -0.46676053505E+01  0.19723055789E+02  0.77808659829E+01  0.21710074731E+02  0.00000000000E+00 0.  1.
<scales pt_clust_5="13000.00000" pt_clust_6="13000.00000" pt_clust_7="13000.00000" pt_clust_8="13000.00000" pt_clust_9="20.26784"></scales>
<clustering>
<clus scale="   20.268">  2  9  1 -1</clus>
<clus scale="   89.301">  5  6 -1 -1</clus>
<clus scale="   96.171">  7  8 -1 -1</clus>
<clus scale="  122.310">  1  5  2 -1</clus>
<clus scale="  122.310">  1  5  2 -1</clus>
</clustering>
</event>
<event>
 9    1  0.1175034E-005  0.9450791E+02  0.7546771E-02  0.1295394E+00
          1   -1    0    0  502    0  0.00000000000E+00  0.00000000000E+00  0.39056575171E+03  0.39056575171E+03  0.00000000000E+00 0. -1.
         -1   -1    0    0    0  501 -0.00000000000E+00 -0.00000000000E+00 -0.48398822730E+02  0.48398822730E+02  0.00000000000E+00 0.  1.
         23    2    1    2    0    0  0.46228654427E+02 -0.27765210498E+01  0.18506403359E+03  0.21121914662E+03  0.90664402128E+02 0.  0.
         23    2    1    2    0    0 -0.44471196950E+01  0.20253935379E+02  0.15994658609E+03  0.18236654249E+03  0.85115490049E+02 0.  0.
        -13    1    4    4    0    0 -0.30550610056E+02 -0.21045898712E+02  0.86891081734E+02  0.94479255460E+02  0.00000000000E+00 0.  1.
         13    1    4    4    0    0  0.26103490361E+02  0.41299834091E+02  0.73055504357E+02  0.87887287032E+02  0.00000000000E+00 0. -1.
        -13    1    3    3    0    0  0.22688374904E+02 -0.29763419677E+02  0.20235512964E+02  0.42545264032E+02  0.00000000000E+00 0. -1.
         13    1    3    3    0    0  0.23540279523E+02  0.26986898627E+02  0.16482852062E+03  0.16867388259E+03  0.00000000000E+00 0.  1.
         21    1    1    2  502  501 -0.41781534732E+02 -0.17477414329E+02 -0.28436907021E+01  0.45378885321E+02  0.00000000000E+00 0.  1.
<scales pt_clust_5="13000.00000" pt_clust_6="13000.00000" pt_clust_7="13000.00000" pt_clust_8="13000.00000" pt_clust_9="45.28970"></scales>
<clustering>
<clus scale="   45.290">  2  9  1 -1</clus>
<clus scale="   85.115">  5  6 -1 -1</clus>
<clus scale="   89.198">  1  5  2 -1</clus>
<clus scale="   90.664">  7  8 -1 -1</clus>
<clus scale="   89.198">  1  5  2 -1</clus>
</clustering>
</event>
<event>
 9    1  0.1175034E-005  0.1153688E+03  0.7546771E-02  0.1251641E+00
         -1   -1    0    0    0  501 -0.00000000000E+00  0.00000000000E+00  0.36330400700E+02  0.36330400700E+02  0.00000000000E+00 0.  1.
          1   -1    0    0  502    0  0.00000000000E+00 -0.00000000000E+00 -0.67332902499E+03  0.67332902499E+03  0.00000000000E+00 0. -1.
         23    2    1    2    0    0  0.34998558307E+02  0.18902667511E+02 -0.11868516577E+03  0.15488792572E+03  0.91224399342E+02 0.  0.
         23    2    1    2    0    0 -0.90902410319E+02  0.16432121979E+02 -0.38697526497E+03  0.40772215757E+03  0.89186541800E+02 0.  0.
        -11    1    3    3    0    0  0.69792634405E+01 -0.35047060497E+02 -0.26610257195E+02  0.44554599714E+02  0.00000000000E+00 0.  1.
         11    1    3    3    0    0  0.28019294866E+02  0.53949728008E+02 -0.92074908579E+02  0.11033332600E+03  0.00000000000E+00 0. -1.
        -11    1    4    4    0    0 -0.93266742839E+02 -0.13998411549E+02 -0.32836685461E+03  0.34164225742E+03  0.00000000000E+00 0. -1.
         11    1    4    4    0    0  0.23643325210E+01  0.30430533528E+02 -0.58608410359E+02  0.66079900150E+02  0.00000000000E+00 0.  1.
         21    1    1    2  502  501  0.55903852012E+02 -0.35334789490E+02 -0.13133819354E+03  0.14704934240E+03  0.00000000000E+00 0.  1.
<scales pt_clust_5="13000.00000" pt_clust_6="13000.00000" pt_clust_7="13000.00000" pt_clust_8="13000.00000" pt_clust_9="66.13462"></scales>
<clustering>
<clus scale="   66.135">  1  9  2 -1</clus>
<clus scale="   89.187">  7  8 -1 -1</clus>
<clus scale="   91.224">  5  6 -1 -1</clus>
<clus scale="  113.764">  2  7  1 -1</clus>
<clus scale="  113.764">  2  5  1 -1</clus>
</clustering>
</event>
<event>
 9    1  0.1175034E-005  0.1201420E+03  0.7546771E-02  0.1243754E+00
          1   -1    0    0  502    0  0.00000000000E+00  0.00000000000E+00  0.63350007140E+02  0.63350007140E+02  0.00000000000E+00 0. -1.
         -1   -1    0    0    0  501 -0.00000000000E+00 -0.00000000000E+00 -0.27898241270E+03  0.27898241270E+03  0.00000000000E+00 0.  1.
         23    2    1    2    0    0 -0.34581279646E+02 -0.59910025849E+02 -0.11970216359E+03  0.16650455964E+03  0.92790540012E+02 0.  0.
         23    2    1    2    0    0  0.22588345180E+02  0.79272801085E+02 -0.67722094202E+02  0.13957255517E+03  0.89998921014E+02 0.  0.
        -11    1    3    3    0    0  0.11535154349E+02 -0.25193111502E+02 -0.10263713635E+03  0.10631149708E+03  0.00000000000E+00 0.  1.
         11    1    3    3    0    0 -0.46116433995E+02 -0.34716914347E+02 -0.17065027234E+02  0.60193062563E+02  0.00000000000E+00 0. -1.
        -13    1    4    4    0    0 -0.15787168434E+02  0.62911976417E+02 -0.60884612336E+01  0.65147684718E+02  0.00000000000E+00 0. -1.
         13    1    4    4    0    0  0.38375513614E+02  0.16360824668E+02 -0.61633632969E+02  0.74424870452E+02  0.00000000000E+00 0.  1.
         21    1    1    2  502  501  0.11992934466E+02 -0.19362775236E+02 -0.28208147775E+02  0.36255305030E+02  0.00000000000E+00 0. -1.
<scales pt_clust_5="13000.00000" pt_clust_6="13000.00000" pt_clust_7="13000.00000" pt_clust_8="13000.00000" pt_clust_9="22.77603"></scales>
<clustering>
<clus scale="   22.776">  2  9  1 -1</clus>
<clus scale="   89.999">  7  8 -1 -1</clus>
<clus scale="   92.791">  5  6 -1 -1</clus>
<clus scale="  117.999">  1  7  2 -1</clus>
<clus scale="  117.999">  1  5  2 -1</clus>
</clustering>
</event>
<event>
 9    1  0.1175034E-005  0.1614768E+03  0.7546771E-02  0.1191445E+00
         -1   -1    0    0    0  501 -0.00000000000E+00  0.00000000000E+00  0.38085213217E+03  0.38085213217E+03  0.00000000000E+00 0.  1.
          1   -1    0    0  502    0  0.00000000000E+00 -0.00000000000E+00 -0.12848775124E+03  0.12848775124E+03  0.00000000000E+00 0. -1.
         23    2    1    2    0    0  0.41659391467E+02 -0.11690995520E+03  0.20310946915E+03  0.25840519521E+03  0.10058004737E+03 0.  0.
         23    2    1    2    0    0 -0.51703379121E+01  0.13299559046E+03  0.10307702417E+03  0.18394947734E+03  0.74148350133E+02 0.  0.
        -11    1    4    4    0    0 -0.10010322074E+02  0.10699317196E+03  0.38471226149E+02  0.11413930364E+03  0.00000000000E+00 0. -1.
         11    1    4    4    0    0  0.48399841615E+01  0.26002418499E+02  0.64605798021E+02  0.69810173703E+02  0.00000000000E+00 0.  1.
        -11    1    3    3    0    0  0.58507425526E+02 -0.87977138245E+02  0.84883025740E+02  0.13552942025E+03  0.00000000000E+00 0. -1.
         11    1    3    3    0    0 -0.16848034059E+02 -0.28932816959E+02  0.11822644341E+03  0.12287577495E+03  0.00000000000E+00 0.  1.
         21    1    1    2  502  501 -0.36489053554E+02 -0.16085635256E+02 -0.53822112394E+02  0.66985210856E+02  0.00000000000E+00 0.  1.
<scales pt_clust_5="13000.00000" pt_clust_6="13000.00000" pt_clust_7="13000.00000" pt_clust_8="13000.00000" pt_clust_9="39.87730"></scales>
<clustering>
<clus scale="   39.877">  2  9  1 -1</clus>
<clus scale="   74.148">  5  6 -1 -1</clus>
<clus scale="  100.580">  7  8 -1 -1</clus>
<clus scale="  146.480">  2  5  1 -1</clus>
<clus scale="   39.877">  2  5  1 -1</clus>
</clustering>
</event>
<event>
 9    1  0.1175034E-005  0.3342745E+03  0.7546771E-02  0.1094893E+00
         -1   -1    0    0    0  501 -0.00000000000E+00  0.00000000000E+00  0.14551899163E+04  0.14551899163E+04  0.00000000000E+00 0.  1.
          1   -1    0    0  502    0  0.00000000000E+00 -0.00000000000E+00 -0.20365953483E+03  0.20365953483E+03  0.00000000000E+00 0. -1.
         23    2    1    2    0    0 -0.42550012859E+03 -0.41078312492E+02  0.51385433565E+03  0.67400797388E+03  0.86618031635E+02 0.  0.
         23    2    1    2    0    0  0.13881843918E+03  0.95077140606E+01 -0.24610025134E+02  0.16981807408E+03  0.94189008200E+02 0.  0.
        -13    1    3    3    0    0 -0.21627302985E+03  0.48720123786E+01  0.20421203490E+03  0.29749002529E+03  0.00000000000E+00 0. -1.
         13    1    3    3    0    0 -0.20922709873E+03 -0.45950324871E+02  0.30964230075E+03  0.37651794860E+03  0.00000000000E+00 0.  1.
        -13    1    4    4    0    0  0.17527641169E+02 -0.15021378685E+02  0.27190175696E+02  0.35667431600E+02  0.00000000000E+00 0.  1.
         13    1    4    4    0    0  0.12129079801E+03  0.24529092745E+02 -0.51800200830E+02  0.13415064249E+03  0.00000000000E+00 0. -1.
         21    1    1    2  502  501  0.28668168941E+03  0.31570598432E+02  0.76228607093E+03  0.81502340314E+03  0.00000000000E+00 0.  1.
<scales pt_clust_5="13000.00000" pt_clust_6="13000.00000" pt_clust_7="13000.00000" pt_clust_8="13000.00000" pt_clust_9="322.85719"></scales>
<clustering>
<clus scale="   86.618">  5  6 -1 -1</clus>
<clus scale="   94.189">  7  8 -1 -1</clus>
<clus scale="  168.025">  2  7  1 -1</clus>
<clus scale="  322.857">  1  9  2 -1</clus>
<clus scale="  168.025">  2  5  1 -1</clus>
</clustering>
</event>
<event>
 9    1  0.1175034E-005  0.1509805E+03  0.7546771E-02  0.1199404E+00
         -1   -1    0    0    0  501 -0.00000000000E+00  0.00000000000E+00  0.88161637502E+02  0.88161637502E+02  0.00000000000E+00 0.  1.
          1   -1    0    0  502    0  0.00000000000E+00 -0.00000000000E+00 -0.37119773438E+03  0.37119773438E+03  0.00000000000E+00 0. -1.
         23    2    1    2    0    0 -0.10737386156E+03 -0.71112147894E+02 -0.13795769887E+03  0.21031990038E+03  0.92822680922E+02 0.  0.
         23    2    1    2    0    0  0.10372793572E+03  0.41287073017E+02 -0.15926508803E+03  0.21581162113E+03  0.93515669826E+02 0.  0.
        -13    1    3    3    0    0 -0.41470166747E+02 -0.30373842292E+02 -0.12034681000E+03  0.13086519668E+03  0.00000000000E+00 0.  1.
         13    1    3    3    0    0 -0.65903694812E+02 -0.40738305602E+02 -0.17610888876E+02  0.79454703701E+02  0.00000000000E+00 0. -1.
        -13    1    4    4    0    0  0.38906103770E+02 -0.29222972825E+02 -0.41016320331E+02  0.63639654185E+02  0.00000000000E+00 0.  1.
         13    1    4    4    0    0  0.64821831947E+02  0.70510045842E+02 -0.11824876770E+03  0.15217196694E+03  0.00000000000E+00 0. -1.
         21    1    1    2  502  501  0.36459258427E+01  0.29825074877E+02  0.14186690022E+02  0.33227850374E+02  0.00000000000E+00 0. -1.
<scales pt_clust_5="13000.00000" pt_clust_6="13000.00000" pt_clust_7="13000.00000" pt_clust_8="13000.00000" pt_clust_9="30.04709"></scales>
<clustering>
<clus scale="   30.047">  1  9  2 -1</clus>
<clus scale="   92.823">  5  6 -1 -1</clus>
<clus scale="   93.516">  7  8 -1 -1</clus>
<clus scale="  150.552">  1  5  2 -1</clus>
<clus scale="  150.980">  2  5  1 -1</clus>
</clustering>
</event>
<event>
 9    1  0.1175034E-005  0.1136062E+03  0.7546771E-02  0.1256221E+00
          2   -1    0    0  502    0  0.00000000000E+00  0.00000000000E+00  0.20491949516E+03  0.20491949516E+03  0.00000000000E+00 0. -1.
         -2   -1    0    0    0  501 -0.00000000000E+00 -0.00000000000E+00 -0.16004182935E+03  0.16004182935E+03  0.00000000000E+00 0.  1.
         23    2    1    2    0    0 -0.97621401316E+01  0.37277956433E+02 -0.37306359540E+02  0.10639230403E+03  0.91883689948E+02 0.  0.
         23    2    1    2    0    0  0.55025505148E+02 -0.37470831976E+02  0.14127650390E+03  0.18413293760E+03  0.97539831284E+02 0.  0.
        -13    1    3    3    0    0 -0.34665225887E+02 -0.12719830187E+02  0.36849179536E+01  0.37108632231E+02  0.00000000000E+00 0. -1.
         13    1    3    3    0    0  0.24903085755E+02  0.49997786620E+02 -0.40991277494E+02  0.69283671796E+02  0.00000000000E+00 0.  1.
        -13    1    4    4    0    0 -0.23990930587E+02  0.84258244327E+01  0.20377171999E+02  0.32585094851E+02  0.00000000000E+00 0.  1.
         13    1    4    4    0    0  0.79016435734E+02 -0.45896656409E+02  0.12089933190E+03  0.15154784274E+03  0.00000000000E+00 0. -1.
         21    1    1    2  502  501 -0.45263365016E+02  0.19287554310E+00 -0.59092478554E+02  0.74436082885E+02  0.00000000000E+00 0.  1.
<scales pt_clust_5="13000.00000" pt_clust_6="13000.00000" pt_clust_7="13000.00000" pt_clust_8="13000.00000" pt_clust_9="45.26378"></scales>
<clustering>
<clus scale="   45.264">  2  9  1 -1</clus>
<clus scale="   91.884">  5  6 -1 -1</clus>
<clus scale="   97.540">  7  8 -1 -1</clus>
<clus scale="  108.789">  2  5  1 -1</clus>
<clus scale="  113.606">  1  5  2 -1</clus>
</clustering>
</event>
<event>
 9    1  0.1175034E-005  0.9666138E+02  0.7546771E-02  0.1287643E+00
          1   -1    0    0  502    0  0.00000000000E+00  0.00000000000E+00  0.29968412015E+02  0.29968412015E+02  0.00000000000E+00 0. -1.
         -1   -1    0    0    0  501 -0.00000000000E+00 -0.00000000000E+00 -0.55221056034E+03  0.55221056034E+03  0.00000000000E+00 0.  1.
         23    2    1    2    0    0  0.19050536182E+02  0.41912596778E+02 -0.22893269505E+03  0.25101866260E+03  0.92090180875E+02 0.  0.
         23    2    1    2    0    0 -0.75469542336E+01 -0.17710133008E+02 -0.10595727083E+03  0.14190140794E+03  0.92403793229E+02 0.  0.
        -11    1    4    4    0    0 -0.22839091591E+02 -0.36485247959E+02 -0.10928748642E+03  0.11745872514E+03  0.00000000000E+00 0.  1.
         11    1    4    4    0    0  0.15292137358E+02  0.18775114951E+02  0.33302155901E+01  0.24442682796E+02  0.00000000000E+00 0. -1.
        -11    1    3    3    0    0  0.24634867349E+02  0.48287903240E+00 -0.76180709703E+01  0.25790402610E+02  0.00000000000E+00 0.  1.
         11    1    3    3    0    0 -0.55843311667E+01  0.41429717746E+02 -0.22131462408E+03  0.22522825999E+03  0.00000000000E+00 0. -1.
         21    1    1    2  502  501 -0.11503581949E+02 -0.24202463771E+02 -0.18735218245E+03  0.18925890182E+03  0.00000000000E+00 0.  1.
<scales pt_clust_5="13000.00000" pt_clust_6="13000.00000" pt_clust_7="13000.00000" pt_clust_8="13000.00000" pt_clust_9="26.79723"></scales>
<clustering>
<clus scale="   26.797">  2  9  1 -1</clus>
<clus scale="   92.090">  7  8 -1 -1</clus>
<clus scale="   92.404">  5  6 -1 -1</clus>
<clus scale="   96.362">  2  7  1 -1</clus>
<clus scale="   96.661">  1  5  2 -1</clus>
</clustering>
</event>
<event>
 9    1  0.1175034E-005  0.1171035E+03  0.7546771E-02  0.1249037E+00
         -2   -1    0    0    0  501 -0.00000000000E+00  0.00000000000E+00  0.14099452411E+03  0.14099452411E+03  0.00000000000E+00 0.  1.
          2   -1    0    0  502    0  0.00000000000E+00 -0.00000000000E+00 -0.51262757428E+03  0.51262757428E+03  0.00000000000E+00 0. -1.
         23    2    1    2    0    0  0.92557602164E+01  0.66806826860E+02  0.63712971570E+01  0.11252333562E+03  0.89844790720E+02 0.  0.
         23    2    1    2    0    0 -0.39248372192E+02 -0.60742008099E+02 -0.44877996733E+03  0.46399151806E+03  0.93030336392E+02 0.  0.
        -11    1    3    3    0    0 -0.24756773230E+02 -0.84426062695E+01  0.13865905241E+02  0.29604708232E+02  0.00000000000E+00 0. -1.
         11    1    3    3    0    0  0.34012533446E+02  0.75249433129E+02 -0.74946080842E+01  0.82918627389E+02  0.00000000000E+00 0.  1.
        -13    1    4    4    0    0  0.29664497981E+02 -0.73952856626E+01 -0.10787068193E+03  0.11211938597E+03  0.00000000000E+00 0. -1.
         13    1    4    4    0    0 -0.68912870173E+02 -0.53346722436E+02 -0.34090928540E+03  0.35187213209E+03  0.00000000000E+00 0.  1.
         21    1    1    2  502  501  0.29992611976E+02 -0.60648187607E+01  0.70775619998E+02  0.77107244704E+02  0.00000000000E+00 0.  1.
<scales pt_clust_5="13000.00000" pt_clust_6="13000.00000" pt_clust_7="13000.00000" pt_clust_8="13000.00000" pt_clust_9="30.59965"></scales>
<clustering>
<clus scale="   30.600">  1  9  2 -1</clus>
<clus scale="   89.845">  5  6 -1 -1</clus>
<clus scale="   93.030">  7  8 -1 -1</clus>
<clus scale="  114.589">  1  5  2 -1</clus>
<clus scale="  117.104">  2  5  1 -1</clus>
</clustering>
</event>
<event>
 9    1  0.1175034E-005  0.1033186E+03  0.7546771E-02  0.1273544E+00
          1   -1    0    0  502    0  0.00000000000E+00  0.00000000000E+00  0.10217877401E+03  0.10217877401E+03  0.00000000000E+00 0. -1.
         -1   -1    0    0    0  501 -0.00000000000E+00 -0.00000000000E+00 -0.14793631031E+03  0.14793631031E+03  0.00000000000E+00 0.  1.
         23    2    1    2    0    0  0.53567322106E+02 -0.28441426260E+02 -0.12587552160E+02  0.10950981410E+03  0.90308250948E+02 0.  0.
         23    2    1    2    0    0 -0.42329948970E+02  0.43691686499E+01 -0.24857955307E+01  0.10001867672E+03  0.90480065751E+02 0.  0.
        -11    1    3    3    0    0 -0.24135439424E+02  0.52121963274E+00 -0.11102004090E+02  0.26571518604E+02  0.00000000000E+00 0.  1.
         11    1    3    3    0    0  0.77702761530E+02 -0.28962645893E+02 -0.14855480697E+01  0.82938295495E+02  0.00000000000E+00 0. -1.
        -11    1    4    4    0    0 -0.53826987349E+01 -0.27500419879E+02  0.30270702390E+02  0.41249993483E+02  0.00000000000E+00 0.  1.
         11    1    4    4    0    0 -0.36947250235E+02  0.31869588529E+02 -0.32756497921E+02  0.58768683233E+02  0.00000000000E+00 0. -1.
         21    1    1    2  502  501 -0.11237373135E+02  0.24072257610E+02 -0.30684188615E+02  0.40586593506E+02  0.00000000000E+00 0.  1.
<scales pt_clust_5="13000.00000" pt_clust_6="13000.00000" pt_clust_7="13000.00000" pt_clust_8="13000.00000" pt_clust_9="26.56600"></scales>
<clustering>
<clus scale="   26.566">  2  9  1 -1</clus>
<clus scale="   90.308">  5  6 -1 -1</clus>
<clus scale="   90.480">  7  8 -1 -1</clus>
<clus scale="  103.168">  2  5  1 -1</clus>
<clus scale="  103.319">  1  5  2 -1</clus>
</clustering>
</event>
<event>
 9    1  0.1175034E-005  0.1051488E+03  0.7546771E-02  0.1276222E+00
          1   -1    0    0  502    0  0.00000000000E+00  0.00000000000E+00  0.39451661367E+02  0.39451661367E+02  0.00000000000E+00 0. -1.
         -1   -1    0    0    0  501 -0.00000000000E+00 -0.00000000000E+00 -0.32736522459E+03  0.32736522459E+03  0.00000000000E+00 0.  1.
         23    2    1    2    0    0 -0.25031170500E+02  0.17125347154E+02 -0.15269323604E+03  0.17785135526E+03  0.86000251300E+02 0.  0.
         23    2    1    2    0    0  0.24218627812E+02 -0.39674591561E+02 -0.11054960631E+03  0.15553241661E+03  0.99037881712E+02 0.  0.
        -11    1    3    3    0    0  0.28740683593E+02  0.22631346960E+02 -0.52177169446E+02  0.63723322026E+02  0.00000000000E+00 0. -1.
         11    1    3    3    0    0 -0.53771854092E+02 -0.55059998055E+01 -0.10051606659E+03  0.11412803323E+03  0.00000000000E+00 0.  1.
        -13    1    4    4    0    0 -0.26546775576E+02 -0.49438486458E+02 -0.70685051979E+02  0.90251159605E+02  0.00000000000E+00 0.  1.
         13    1    4    4    0    0  0.50765403388E+02  0.97638948966E+01 -0.39864554327E+02  0.65281257007E+02  0.00000000000E+00 0. -1.
         21    1    1    2  502  501  0.81254268759E+00  0.22549244407E+02 -0.24670720879E+02  0.33433114088E+02  0.00000000000E+00 0. -1.
<scales pt_clust_5="13000.00000" pt_clust_6="13000.00000" pt_clust_7="13000.00000" pt_clust_8="13000.00000" pt_clust_9="22.56388"></scales>
<clustering>
<clus scale="   22.564">  1  9  2 -1</clus>
<clus scale="   86.000">  5  6 -1 -1</clus>
<clus scale="   92.972">  2  5  1 -1</clus>
<clus scale="   99.038">  7  8 -1 -1</clus>
<clus scale="   22.564">  1  5  2 -1</clus>
</clustering>
</event>
<event>
 9    1  0.1175034E-005  0.1563427E+03  0.7546771E-02  0.1193355E+00
         -1   -1    0    0    0  501 -0.00000000000E+00  0.00000000000E+00  0.15826652583E+03  0.15826652583E+03  0.00000000000E+00 0.  1.
          1   -1    0    0  502    0  0.00000000000E+00 -0.00000000000E+00 -0.33940892987E+03  0.33940892987E+03  0.00000000000E+00 0. -1.
         23    2    1    2    0    0  0.10704338648E+03 -0.61419922170E+02  0.71147979659E+02  0.17061328057E+03  0.93894425120E+02 0.  0.
         23    2    1    2    0    0 -0.11806078347E+03  0.42764545433E+02 -0.26104261119E+03  0.30369536953E+03  0.91216652401E+02 0.  0.
        -11    1    4    4    0    0 -0.40423681848E+02  0.61596607991E+02 -0.10337336719E+03  0.12694199153E+03  0.00000000000E+00 0.  1.
         11    1    4    4    0    0 -0.77637101621E+02 -0.18832062558E+02 -0.15766924401E+03  0.17675337800E+03  0.00000000000E+00 0. -1.
        -11    1    3    3    0    0  0.29234483422E+02 -0.22060410540E+02 -0.22237826026E+02  0.42846675956E+02  0.00000000000E+00 0. -1.
         11    1    3    3    0    0  0.77808903056E+02 -0.39359511630E+02  0.93385805685E+02  0.12776660461E+03  0.00000000000E+00 0.  1.
         21    1    1    2  502  501  0.11017396991E+02  0.18655376737E+02  0.87522274954E+01  0.23366805596E+02  0.00000000000E+00 0.  1.
<scales pt_clust_5="13000.00000" pt_clust_6="13000.00000" pt_clust_7="13000.00000" pt_clust_8="13000.00000" pt_clust_9="21.66578"></scales>
<clustering>
<clus scale="   21.666">  1  9  2 -1</clus>
<clus scale="   91.217">  5  6 -1 -1</clus>
<clus scale="   93.894">  7  8 -1 -1</clus>
<clus scale="  154.749">  2  5  1 -1</clus>
<clus scale="  154.749">  2  5  1 -1</clus>
</clustering>
</event>
<event>
 9    1  0.1175034E-005  0.9842211E+02  0.7546771E-02  0.1284525E+00
          3   -1    0    0  502    0  0.00000000000E+00  0.00000000000E+00  0.83109450234E+02  0.83109450234E+02  0.00000000000E+00 0. -1.
         -3   -1    0    0    0  501 -0.00000000000E+00 -0.00000000000E+00 -0.22711739036E+03  0.22711739036E+03  0.00000000000E+00 0.  1.
         23    2    1    2    0    0 -0.69346105727E+01 -0.10970592295E+02 -0.12870013246E+03  0.15762231034E+03  0.90070116589E+02 0.  0.
         23    2    1    2    0    0  0.10882652184E+02  0.40488289013E+02  0.23561531464E+02  0.10363814407E+03  0.91804060229E+02 0.  0.
        -11    1    3    3    0    0 -0.43222599014E+02 -0.18307391963E+02 -0.40610570573E+02  0.62069091409E+02  0.00000000000E+00 0.  1.
         11    1    3    3    0    0  0.36287988442E+02  0.73367996678E+01 -0.88089561889E+02  0.95553218932E+02  0.00000000000E+00 0. -1.
        -13    1    4    4    0    0 -0.26004867622E+02  0.54960896401E+02  0.92202653796E+01  0.61497695623E+02  0.00000000000E+00 0. -1.
         13    1    4    4    0    0  0.36887519806E+02 -0.14472607388E+02  0.14341266084E+02  0.42140448442E+02  0.00000000000E+00 0.  1.
         21    1    1    2  502  501 -0.39480416113E+01 -0.29517696718E+02 -0.38869339130E+02  0.48966386190E+02  0.00000000000E+00 0.  1.
<scales pt_clust_5="13000.00000" pt_clust_6="13000.00000" pt_clust_7="13000.00000" pt_clust_8="13000.00000" pt_clust_9="29.78055"></scales>
<clustering>
<clus scale="   29.781">  2  9  1 -1</clus>
<clus scale="   90.070">  5  6 -1 -1</clus>
<clus scale="   91.804">  7  8 -1 -1</clus>
<clus scale="   96.807">  2  5  1 -1</clus>
<clus scale="   98.422">  1  5  2 -1</clus>
</clustering>
</event>
<event>
 9    1  0.1175034E-005  0.9557048E+02  0.7546771E-02  0.1291219E+00
          3   -1    0    0  502    0  0.00000000000E+00  0.00000000000E+00  0.10787324710E+03  0.10787324710E+03  0.00000000000E+00 0. -1.
         -3   -1    0    0    0  501 -0.00000000000E+00 -0.00000000000E+00 -0.57437444489E+03  0.57437444489E+03  0.00000000000E+00 0.  1.
         23    2    1    2    0    0 -0.71843295851E+02  0.12406118490E+02 -0.41237962256E+02  0.12294391364E+03  0.89995918995E+02 0.  0.
         23    2    1    2    0    0 -0.94335535203E+01  0.32054619062E+02  0.23530960904E+02  0.10104739357E+03  0.92414171482E+02 0.  0.
        -11    1    4    4    0    0  0.13155735014E+02  0.45865246326E+02 -0.18662649101E+02  0.51234643121E+02  0.00000000000E+00 0.  1.
         11    1    4    4    0    0 -0.22589288534E+02 -0.13810627264E+02  0.42193610005E+02  0.49812750447E+02  0.00000000000E+00 0. -1.
        -11    1    3    3    0    0 -0.39212864380E+02  0.39254611443E+02 -0.55370886676E+02  0.78386914365E+02  0.00000000000E+00 0.  1.
         11    1    3    3    0    0 -0.32630431472E+02 -0.26848492953E+02  0.14132924420E+02  0.44556999276E+02  0.00000000000E+00 0. -1.
         21    1    1    2  502  501  0.81276849371E+02 -0.44460737552E+02 -0.44879419645E+03  0.45825638478E+03  0.00000000000E+00 0.  1.
<scales pt_clust_5="13000.00000" pt_clust_6="13000.00000" pt_clust_7="13000.00000" pt_clust_8="13000.00000" pt_clust_9="92.64277"></scales>
<clustering>
<clus scale="   89.996">  7  8 -1 -1</clus>
<clus scale="   92.414">  5  6 -1 -1</clus>
<clus scale="   92.643">  2  9  1 -1</clus>
<clus scale="   93.234">  2  7  1 -1</clus>
<clus scale="   95.570">  1  5  2 -1</clus>
</clustering>
</event>
<event>
 9    1  0.1175034E-005  0.9467650E+02  0.7546771E-02  0.1292104E+00
         -2   -1    0    0    0  501 -0.00000000000E+00  0.00000000000E+00  0.73133395848E+02  0.73133395848E+02  0.00000000000E+00 0.  1.
          2   -1    0    0  502    0  0.00000000000E+00 -0.00000000000E+00 -0.19973180287E+03  0.19973180287E+03  0.00000000000E+00 0. -1.
         23    2    1    2    0    0  0.82105282925E+01 -0.18441700903E+02 -0.59833890253E+02  0.11033690819E+03  0.90479996568E+02 0.  0.
         23    2    1    2    0    0  0.47274129719E+01  0.35813265432E+02 -0.88842139579E+02  0.13159961439E+03  0.90114340304E+02 0.  0.
        -13    1    4    4    0    0  0.37673465968E+02  0.79249891825E+01 -0.70810174354E+01  0.39143790051E+02  0.00000000000E+00 0.  1.
         13    1    4    4    0    0 -0.32946052996E+02  0.27888276249E+02 -0.81761122144E+02  0.92455824340E+02  0.00000000000E+00 0. -1.
        -13    1    3    3    0    0  0.48930607079E+02 -0.93548274812E+01 -0.41185900903E+02  0.64637415941E+02  0.00000000000E+00 0.  1.
         13    1    3    3    0    0 -0.40720078787E+02 -0.90868734220E+01 -0.18647989350E+02  0.45699492248E+02  0.00000000000E+00 0. -1.
         21    1    1    2  502  501 -0.12937941264E+02 -0.17371564529E+02  0.22077622814E+02  0.30928676135E+02  0.00000000000E+00 0.  1.
<scales pt_clust_5="13000.00000" pt_clust_6="13000.00000" pt_clust_7="13000.00000" pt_clust_8="13000.00000" pt_clust_9="21.66014"></scales>
<clustering>
<clus scale="   21.660">  1  9  2 -1</clus>
<clus scale="   90.114">  5  6 -1 -1</clus>
<clus scale="   90.480">  7  8 -1 -1</clus>
<clus scale="   94.327">  2  5  1 -1</clus>
<clus scale="   94.327">  2  5  1 -1</clus>
</clustering>
</event>
<event>
 9    1  0.1175034E-005  0.9086625E+02  0.7546771E-02  0.1304879E+00
         -1   -1    0    0    0  501 -0.00000000000E+00  0.00000000000E+00  0.16963338836E+03  0.16963338836E+03  0.00000000000E+00 0.  1.
          1   -1    0    0  502    0  0.00000000000E+00 -0.00000000000E+00 -0.80901732672E+02  0.80901732672E+02  0.00000000000E+00 0. -1.
         23    2    1    2    0    0 -0.13154088064E+02 -0.14187437892E+02  0.60366374167E+02  0.10529266408E+03  0.84072186553E+02 0.  0.
         23    2    1    2    0    0 -0.92317319524E+01 -0.15327079015E+02 -0.86900331661E+01  0.92846579324E+02  0.90690828587E+02 0.  0.
        -11    1    3    3    0    0  0.35564502466E+01 -0.26601646278E+02 -0.12430908955E+02  0.29577414027E+02  0.00000000000E+00 0.  1.
         11    1    3    3    0    0 -0.16710538310E+02  0.12414208386E+02  0.72797283121E+02  0.75715250051E+02  0.00000000000E+00 0. -1.
        -13    1    4    4    0    0 -0.46152672236E+02 -0.83859235504E+01 -0.23499241057E+02  0.52465295182E+02  0.00000000000E+00 0. -1.
         13    1    4    4    0    0  0.36920940284E+02 -0.69411554645E+01  0.14809207890E+02  0.40381284142E+02  0.00000000000E+00 0.  1.
         21    1    1    2  502  501  0.22385820016E+02  0.29514516907E+02  0.37055314691E+02  0.52395877633E+02  0.00000000000E+00 0. -1.
<scales pt_clust_5="13000.00000" pt_clust_6="13000.00000" pt_clust_7="13000.00000" pt_clust_8="13000.00000" pt_clust_9="37.04365"></scales>
<clustering>
<clus scale="   37.044">  1  9  2 -1</clus>
<clus scale="   84.072">  5  6 -1 -1</clus>
<clus scale="   84.261">  1  5  2 -1</clus>
<clus scale="   90.691">  7  8 -1 -1</clus>
<clus scale="   90.866">  2  5  1 -1</clus>
</clustering>
</event>
<event>
 9    1  0.1175034E-005  0.1099131E+03  0.7546771E-02  0.1262580E+00
         -1   -1    0    0    0  501 -0.00000000000E+00  0.00000000000E+00  0.19163986999E+03  0.19163986999E+03  0.00000000000E+00 0.  1.
          1   -1    0    0  502    0  0.00000000000E+00 -0.00000000000E+00 -0.35927493853E+03  0.35927493853E+03  0.00000000000E+00 0. -1.
         23    2    1    2    0    0  0.49941182801E+02  0.18678520522E+02  0.11091454525E+03  0.15432737040E+03  0.93122994143E+02 0.  0.
         23    2    1    2    0    0 -0.35222421213E+02 -0.10461576584E+03 -0.46841583512E+02  0.14901832985E+03  0.88471754068E+02 0.  0.
        -11    1    3    3    0    0 -0.84606452845E+01 -0.29804074462E+02  0.38544071603E+02  0.49452106415E+02  0.00000000000E+00 0.  1.
         11    1    3    3    0    0  0.58401828086E+02  0.48482594984E+02  0.72370473647E+02  0.10487526399E+03  0.00000000000E+00 0. -1.
        -11    1    4    4    0    0 -0.59493077009E+02 -0.42482147772E+02 -0.13113808852E+02  0.74270660923E+02  0.00000000000E+00 0.  1.
         11    1    4    4    0    0  0.24270655796E+02 -0.62133618064E+02 -0.33727774660E+02  0.74747668927E+02  0.00000000000E+00 0. -1.
         21    1    1    2  502  501 -0.14718761588E+02  0.85937245314E+02 -0.23170803028E+03  0.24756910827E+03  0.00000000000E+00 0. -1.
<scales pt_clust_5="13000.00000" pt_clust_6="13000.00000" pt_clust_7="13000.00000" pt_clust_8="13000.00000" pt_clust_9="87.18860"></scales>
<clustering>
<clus scale="   87.189">  2  9  1 -1</clus>
<clus scale="   88.472">  7  8 -1 -1</clus>
<clus scale="   93.123">  5  6 -1 -1</clus>
<clus scale="  106.001">  2  7  1 -1</clus>
<clus scale="   87.189">  2  5  1 -1</clus>
</clustering>
</event>
<event>
 9    1  0.1175034E-005  0.1126977E+03  0.7546771E-02  0.1255961E+00
          1   -1    0    0  502    0  0.00000000000E+00  0.00000000000E+00  0.58901893053E+03  0.58901893053E+03  0.00000000000E+00 0. -1.
         -1   -1    0    0    0  501 -0.00000000000E+00 -0.00000000000E+00 -0.41149370379E+02  0.41149370379E+02  0.00000000000E+00 0.  1.
         23    2    1    2    0    0 -0.30970956632E+02 -0.41389337847E+02  0.75655557233E+02  0.12749501421E+03  0.88650650673E+02 0.  0.
         23    2    1    2    0    0  0.45841604983E+02  0.56870914647E+02  0.46631090427E+03  0.48040981940E+03  0.89509672418E+02 0.  0.
        -11    1    4    4    0    0 -0.12007358432E+02  0.54973518992E+02  0.26699285931E+03  0.27285793257E+03  0.00000000000E+00 0.  1.
         11    1    4    4    0    0  0.57848963415E+02  0.18973956554E+01  0.19931804496E+03  0.20755188683E+03  0.00000000000E+00 0. -1.
        -13    1    3    3    0    0 -0.53037554939E+02 -0.53788176504E+02  0.45739073718E+02  0.88307491359E+02  0.00000000000E+00 0.  1.
         13    1    3    3    0    0  0.22066598307E+02  0.12398838656E+02  0.29916483516E+02  0.39187522846E+02  0.00000000000E+00 0. -1.
         21    1    1    2  502  501 -0.14870648351E+02 -0.15481576800E+02  0.59030986463E+01  0.22263467300E+02  0.00000000000E+00 0.  1.
<scales pt_clust_5="13000.00000" pt_clust_6="13000.00000" pt_clust_7="13000.00000" pt_clust_8="13000.00000" pt_clust_9="21.46661"></scales>
<clustering>
<clus scale="   21.467">  2  9  1 -1</clus>
<clus scale="   88.651">  7  8 -1 -1</clus>
<clus scale="   89.510">  5  6 -1 -1</clus>
<clus scale="  112.017">  2  7  1 -1</clus>
<clus scale="  112.698">  1  5  2 -1</clus>
</clustering>
</event>
<event>
 9    1  0.1175034E-005  0.1151219E+03  0.7546771E-02  0.1252669E+00
         -1   -1    0    0    0  501 -0.00000000000E+00  0.00000000000E+00  0.40163290643E+02  0.40163290643E+02  0.00000000000E+00 0.  1.
          1   -1    0    0  502    0  0.00000000000E+00 -0.00000000000E+00 -0.45631341949E+03  0.45631341949E+03  0.00000000000E+00 0. -1.
         23    2    1    2    0    0 -0.62904307122E+02  0.45810609996E+02 -0.13233373196E+03  0.17877671643E+03  0.91615140028E+02 0.  0.
         23    2    1    2    0    0  0.35576793204E+02 -0.57247207322E+02 -0.24498438371E+03  0.26885826950E+03  0.87888963222E+02 0.  0.
        -13    1    3    3    0    0 -0.28771271653E+02  0.23873865701E+02  0.29854451229E+01  0.37505471849E+02  0.00000000000E+00 0.  1.
         13    1    3    3    0    0 -0.34133035468E+02  0.21936744294E+02 -0.13531917708E+03  0.14127124459E+03  0.00000000000E+00 0. -1.
        -13    1    4    4    0    0  0.21101976526E+02  0.21521972322E+02 -0.55803386657E+02  0.63423234451E+02  0.00000000000E+00 0.  1.
         13    1    4    4    0    0  0.14474816678E+02 -0.78769179644E+02 -0.18918099705E+03  0.20543503505E+03  0.00000000000E+00 0. -1.
         21    1    1    2  502  501  0.27327513918E+02  0.11436597327E+02 -0.38832013185E+02  0.48841724205E+02  0.00000000000E+00 0.  1.
<scales pt_clust_5="13000.00000" pt_clust_6="13000.00000" pt_clust_7="13000.00000" pt_clust_8="13000.00000" pt_clust_9="29.62412"></scales>
<clustering>
<clus scale="   29.624">  1  9  2 -1</clus>
<clus scale="   87.889">  7  8 -1 -1</clus>
<clus scale="   91.615">  5  6 -1 -1</clus>
<clus scale="  112.179">  2  7  1 -1</clus>
<clus scale="  112.179">  2  5  1 -1</clus>
</clustering>
</event>
<event>
 9    1  0.1175034E-005  0.9626502E+02  0.7546771E-02  0.1288484E+00
          1   -1    0    0  502    0  0.00000000000E+00  0.00000000000E+00  0.10661501155E+03  0.10661501155E+03  0.00000000000E+00 0. -1.
         -1   -1    0    0    0  501 -0.00000000000E+00 -0.00000000000E+00 -0.23028795790E+03  0.23028795790E+03  0.00000000000E+00 0.  1.
         23    2    1    2    0    0 -0.87827292929E+01  0.25803016539E+02 -0.16012572977E+03  0.18613673476E+03  0.90904910203E+02 0.  0.
         23    2    1    2    0    0 -0.27435627318E+02 -0.21987483493E+02  0.53028506910E+02  0.11075270876E+03  0.90653057728E+02 0.  0.
        -11    1    4    4    0    0  0.32295214261E+02 -0.14588175541E+02  0.29575128948E+02  0.46157166097E+02  0.00000000000E+00 0.  1.
         11    1    4    4    0    0 -0.59730841579E+02 -0.73993079514E+01  0.23453377962E+02  0.64595542661E+02  0.00000000000E+00 0. -1.
        -13    1    3    3    0    0 -0.25996749935E+02 -0.16449384758E+02 -0.15426246711E+02  0.34414856584E+02  0.00000000000E+00 0. -1.
         13    1    3    3    0    0  0.17214020642E+02  0.42252401296E+02 -0.14469948306E+03  0.15172187818E+03  0.00000000000E+00 0.  1.
         21    1    1    2  502  501  0.36218356611E+02 -0.38155330458E+01 -0.16575723486E+02  0.40013525927E+02  0.00000000000E+00 0.  1.
<scales pt_clust_5="13000.00000" pt_clust_6="13000.00000" pt_clust_7="13000.00000" pt_clust_8="13000.00000" pt_clust_9="36.41878"></scales>
<clustering>
<clus scale="   36.419">  2  9  1 -1</clus>
<clus scale="   90.653">  5  6 -1 -1</clus>
<clus scale="   90.905">  7  8 -1 -1</clus>
<clus scale="   96.027">  1  5  2 -1</clus>
<clus scale="   96.027">  1  5  2 -1</clus>
</clustering>
</event>
<event>
 9    1  0.1175034E-005  0.1811104E+03  0.7546771E-02  0.1167215E+00
          1   -1    0    0  502    0  0.00000000000E+00  0.00000000000E+00  0.35815935883E+03  0.35815935883E+03  0.00000000000E+00 0. -1.
         -1   -1    0    0    0  501 -0.00000000000E+00 -0.00000000000E+00 -0.40997585298E+03  0.40997585298E+03  0.00000000000E+00 0.  1.
         23    2    1    2    0    0 -0.10008921046E+03  0.57505768318E+02 -0.20154955666E+03  0.25148508327E+03  0.96424892406E+02 0.  0.
         23    2    1    2    0    0  0.12782131419E+03 -0.92198243021E+02  0.30476281764E+03  0.35538369572E+03  0.92619608031E+02 0.  0.
        -11    1    3    3    0    0 -0.72978434168E+02 -0.14990270030E+01 -0.15580196305E+03  0.17205333657E+03  0.00000000000E+00 0.  1.
         11    1    3    3    0    0 -0.27110776287E+02  0.59004795321E+02 -0.45747593616E+02  0.79431746697E+02  0.00000000000E+00 0. -1.
        -11    1    4    4    0    0  0.59359591383E+02 -0.94043536148E+02  0.15567279822E+03  0.19131588509E+03  0.00000000000E+00 0. -1.
         11    1    4    4    0    0  0.68461722809E+02  0.18452931277E+01  0.14909001942E+03  0.16406781063E+03  0.00000000000E+00 0.  1.
         21    1    1    2  502  501 -0.27732103736E+02  0.34692474703E+02 -0.15502975513E+03  0.16126643282E+03  0.00000000000E+00 0. -1.
<scales pt_clust_5="13000.00000" pt_clust_6="13000.00000" pt_clust_7="13000.00000" pt_clust_8="13000.00000" pt_clust_9="44.41438"></scales>
<clustering>
<clus scale="   44.414">  2  9  1 -1</clus>
<clus scale="   92.620">  7  8 -1 -1</clus>
<clus scale="   96.425">  5  6 -1 -1</clus>
<clus scale="  179.113">  1  7  2 -1</clus>
<clus scale="  179.113">  1  5  2 -1</clus>
</clustering>
</event>
<event>
 9    1  0.1175034E-005  0.9682937E+02  0.7546771E-02  0.1287883E+00
         -1   -1    0    0    0  501 -0.00000000000E+00  0.00000000000E+00  0.50205490038E+03  0.50205490038E+03  0.00000000000E+00 0.  1.
          1   -1    0    0  502    0  0.00000000000E+00 -0.00000000000E+00 -0.42333633599E+02  0.42333633599E+02  0.00000000000E+00 0. -1.
         23    2    1    2    0    0  0.44630450032E+01  0.23219585693E+00  0.13036771701E+03  0.15956118602E+03  0.91891554339E+02 0.  0.
         23    2    1    2    0    0 -0.19120526971E+02  0.48585372125E+02  0.83344816530E+02  0.13359380412E+03  0.90414673150E+02 0.  0.
        -11    1    4    4    0    0 -0.23881843292E+02  0.22160050918E+02 -0.11863177708E+02  0.34671966790E+02  0.00000000000E+00 0.  1.
         11    1    4    4    0    0  0.47613163209E+01  0.26425321208E+02  0.95207994239E+02  0.98921837331E+02  0.00000000000E+00 0. -1.
        -11    1    3    3    0    0 -0.19033201604E+02  0.26691375863E+02  0.10261939136E+02  0.34351123761E+02  0.00000000000E+00 0.  1.
         11    1    3    3    0    0  0.23496246607E+02 -0.26459180006E+02  0.12010577787E+03  0.12521006226E+03  0.00000000000E+00 0. -1.
         21    1    1    2  502  501  0.14657481968E+02 -0.48817567982E+02  0.24600873324E+03  0.25123354385E+03  0.00000000000E+00 0. -1.
<scales pt_clust_5="13000.00000" pt_clust_6="13000.00000" pt_clust_7="13000.00000" pt_clust_8="13000.00000" pt_clust_9="50.97055"></scales>
<clustering>
<clus scale="   50.971">  1  9  2 -1</clus>
<clus scale="   90.415">  5  6 -1 -1</clus>
<clus scale="   91.892">  7  8 -1 -1</clus>
<clus scale="   95.429">  2  5  1 -1</clus>
<clus scale="   95.429">  2  5  1 -1</clus>
</clustering>
</event>
<event>
 9    1  0.1175034E-005  0.1119763E+03  0.7546771E-02  0.1263067E+00
         -2   -1    0    0    0  501 -0.00000000000E+00  0.00000000000E+00  0.88285344733E+02  0.88285344733E+02  0.00000000000E+00 0.  1.
          2   -1    0    0  502    0  0.00000000000E+00 -0.00000000000E+00 -0.19495079257E+03  0.19495079257E+03  0.00000000000E+00 0. -1.
         23    2    1    2    0    0  0.25783045771E+02  0.60767071806E+01 -0.32054452254E+02  0.11242519667E+03  0.10445211878E+03 0.  0.
         23    2    1    2    0    0 -0.48266233404E+02 -0.19818408749E+01 -0.95163117220E+02  0.14007575949E+03  0.90728399838E+02 0.  0.
        -11    1    4    4    0    0 -0.39702899904E+02 -0.43567975132E+02 -0.43805359211E+02  0.73439759078E+02  0.00000000000E+00 0. -1.
         11    1    4    4    0    0 -0.85633334998E+01  0.41586134257E+02 -0.51357758008E+02  0.66636000410E+02  0.00000000000E+00 0.  1.
        -13    1    3    3    0    0  0.32363130203E+02  0.49591035820E+02 -0.34164518982E+02  0.68365615536E+02  0.00000000000E+00 0.  1.
         13    1    3    3    0    0 -0.65800844325E+01 -0.43514328640E+02  0.21100667281E+01  0.44059581134E+02  0.00000000000E+00 0. -1.
         21    1    1    2  502  501  0.22483187633E+02 -0.40948663057E+01  0.20552121636E+02  0.30735181144E+02  0.00000000000E+00 0.  1.
<scales pt_clust_5="13000.00000" pt_clust_6="13000.00000" pt_clust_7="13000.00000" pt_clust_8="13000.00000" pt_clust_9="22.85304"></scales>
<clustering>
<clus scale="   22.853">  1  9  2 -1</clus>
<clus scale="   90.728">  5  6 -1 -1</clus>
<clus scale="   99.298">  2  5  1 -1</clus>
<clus scale="  104.452">  7  8 -1 -1</clus>
<clus scale="   99.298">  2  5  1 -1</clus>
</clustering>
</event>
<event>
 9    1  0.1175034E-005  0.1670134E+03  0.7546771E-02  0.1182113E+00
          2   -1    0    0  502    0  0.00000000000E+00  0.00000000000E+00  0.52065784343E+02  0.52065784343E+02  0.00000000000E+00 0. -1.
         -2   -1    0    0    0  501 -0.00000000000E+00 -0.00000000000E+00 -0.61866115634E+03  0.61866115634E+03  0.00000000000E+00 0.  1.
         23    2    1    2    0    0  0.36364058576E+02 -0.12999419063E+03 -0.30082426803E+03  0.34078671768E+03  0.86136591287E+02 0.  0.
         23    2    1    2    0    0 -0.52146276990E+02  0.14567895016E+03 -0.23795115706E+03  0.29431664169E+03  0.77845627392E+02 0.  0.
        -13    1    3    3    0    0 -0.22090617090E+02 -0.50800621636E+02 -0.65995590474E+02  0.86163312866E+02  0.00000000000E+00 0. -1.
         13    1    3    3    0    0  0.58454675666E+02 -0.79193568995E+02 -0.23482867755E+03  0.25462340481E+03  0.00000000000E+00 0.  1.
        -13    1    4    4    0    0 -0.62977502522E+02  0.82935647766E+02 -0.18135800626E+03  0.20912965818E+03  0.00000000000E+00 0.  1.
         13    1    4    4    0    0  0.10831225532E+02  0.62743302398E+02 -0.56593150793E+02  0.85186983507E+02  0.00000000000E+00 0. -1.
         21    1    1    2  502  501  0.15782218414E+02 -0.15684759533E+02 -0.27819946917E+02  0.35623581321E+02  0.00000000000E+00 0.  1.
<scales pt_clust_5="13000.00000" pt_clust_6="13000.00000" pt_clust_7="13000.00000" pt_clust_8="13000.00000" pt_clust_9="22.25062"></scales>
<clustering>
<clus scale="   22.251">  1  9  2 -1</clus>
<clus scale="   77.846">  7  8 -1 -1</clus>
<clus scale="   86.137">  5  6 -1 -1</clus>
<clus scale="  162.892">  1  7  2 -1</clus>
<clus scale="   22.251">  1  5  2 -1</clus>
</clustering>
</event>
<event>
 9    1  0.1175034E-005  0.1434516E+03  0.7546771E-02  0.1213985E+00
         -2   -1    0    0    0  501 -0.00000000000E+00  0.00000000000E+00  0.89673560565E+02  0.89673560565E+02  0.00000000000E+00 0.  1.
          2   -1    0    0  502    0  0.00000000000E+00 -0.00000000000E+00 -0.26303577393E+03  0.26303577393E+03  0.00000000000E+00 0. -1.
         23    2    1    2    0    0 -0.36182584453E+02 -0.95814284569E+02 -0.85970388405E+02  0.16192579981E+03  0.91320865180E+02 0.  0.
         23    2    1    2    0    0  0.27407934315E+02  0.73702485840E+02 -0.94429175751E+02  0.16597526119E+03  0.11156911226E+03 0.  0.
        -13    1    4    4    0    0  0.48068425445E+02  0.24504294623E+02  0.39061084092E+01  0.54095209239E+02  0.00000000000E+00 0. -1.
         13    1    4    4    0    0 -0.20660491130E+02  0.49198191217E+02 -0.98335284160E+02  0.11188005195E+03  0.00000000000E+00 0.  1.
        -13    1    3    3    0    0 -0.17275026396E+02 -0.67968658029E+02 -0.10268346584E+03  0.12434652858E+03  0.00000000000E+00 0. -1.
         13    1    3    3    0    0 -0.18907558057E+02 -0.27845626539E+02  0.16713077440E+02  0.37579271235E+02  0.00000000000E+00 0.  1.
         21    1    1    2  502  501  0.87746501381E+01  0.22111798729E+02  0.70373507853E+01  0.24808273502E+02  0.00000000000E+00 0.  1.
<scales pt_clust_5="13000.00000" pt_clust_6="13000.00000" pt_clust_7="13000.00000" pt_clust_8="13000.00000" pt_clust_9="23.78920"></scales>
<clustering>
<clus scale="   23.789">  1  9  2 -1</clus>
<clus scale="   91.321">  7  8 -1 -1</clus>
<clus scale="  111.569">  5  6 -1 -1</clus>
<clus scale="  128.336">  1  7  2 -1</clus>
<clus scale="  143.452">  2  5  1 -1</clus>
</clustering>
</event>
<event>
 9    1  0.1175034E-005  0.1245161E+03  0.7546771E-02  0.1241205E+00
         -3   -1    0    0    0  501 -0.00000000000E+00  0.00000000000E+00  0.24475178965E+03  0.24475178965E+03  0.00000000000E+00 0.  1.
          3   -1    0    0  502    0  0.00000000000E+00 -0.00000000000E+00 -0.14743959131E+03  0.14743959131E+03  0.00000000000E+00 0. -1.
         23    2    1    2    0    0 -0.71069317988E+02 -0.91137094786E+02  0.10530091711E+03  0.19187613736E+03  0.11122657479E+03 0.  0.
         23    2    1    2    0    0  0.19674169549E+02  0.37832449123E+02 -0.48221659475E+02  0.11604463158E+03  0.96553927527E+02 0.  0.
        -11    1    4    4    0    0 -0.35755702222E+02 -0.11432020263E+01 -0.61884523742E+01  0.36305290180E+02  0.00000000000E+00 0.  1.
         11    1    4    4    0    0  0.55429871771E+02  0.38975651149E+02 -0.42033207101E+02  0.79739341396E+02  0.00000000000E+00 0. -1.
        -13    1    3    3    0    0 -0.66614930744E+02 -0.11461432740E+03  0.71907279884E+02  0.15081329499E+03  0.00000000000E+00 0.  1.
         13    1    3    3    0    0 -0.44543872446E+01  0.23477232617E+02  0.33393637223E+02  0.41062842377E+02  0.00000000000E+00 0. -1.
         21    1    1    2  502  501  0.51395148439E+02  0.53304645664E+02  0.40232940711E+02  0.84270612022E+02  0.00000000000E+00 0. -1.
<scales pt_clust_5="13000.00000" pt_clust_6="13000.00000" pt_clust_7="13000.00000" pt_clust_8="13000.00000" pt_clust_9="74.04625"></scales>
<clustering>
<clus scale="   74.046">  1  9  2 -1</clus>
<clus scale="   96.554">  5  6 -1 -1</clus>
<clus scale="  111.227">  7  8 -1 -1</clus>
<clus scale="  111.605">  2  5  1 -1</clus>
<clus scale="  111.605">  2  5  1 -1</clus>
</clustering>
</event>
<event>
 9    1  0.1175034E-005  0.4238492E+03  0.7546771E-02  0.1085215E+00
          1   -1    0    0  502    0  0.00000000000E+00  0.00000000000E+00  0.11743697426E+04  0.11743697426E+04  0.00000000000E+00 0. -1.
         -1   -1    0    0    0  501 -0.00000000000E+00 -0.00000000000E+00 -0.28663783976E+03  0.28663783976E+03  0.00000000000E+00 0.  1.
         23    2    1    2    0    0  0.27504956941E+03  0.31973679333E+03  0.55070556163E+03  0.69956748668E+03  0.90742328425E+02 0.  0.
         23    2    1    2    0    0  0.33601901814E+02 -0.46228090572E+02  0.33238533840E+03  0.34901521762E+03  0.89808044101E+02 0.  0.
        -11    1    4    4    0    0  0.55617739204E+02 -0.26485563535E+02  0.29492334215E+03  0.30128822701E+03  0.00000000000E+00 0.  1.
         11    1    4    4    0    0 -0.22015837390E+02 -0.19742527038E+02  0.37461996245E+02  0.47726990608E+02  0.00000000000E+00 0. -1.
        -11    1    3    3    0    0  0.40651991789E+02  0.44955165443E+02  0.35077633481E+02  0.70028506388E+02  0.00000000000E+00 0.  1.
         11    1    3    3    0    0  0.23439757762E+03  0.27478162788E+03  0.51562792815E+03  0.62953898029E+03  0.00000000000E+00 0. -1.
         21    1    1    2  502  501 -0.30865147122E+03 -0.27350870275E+03  0.46410028434E+01  0.41242487810E+03  0.00000000000E+00 0.  1.
<scales pt_clust_5="13000.00000" pt_clust_6="13000.00000" pt_clust_7="13000.00000" pt_clust_8="13000.00000" pt_clust_9="414.02172"></scales>
<clustering>
<clus scale="   89.808">  5  6 -1 -1</clus>
<clus scale="   90.742">  7  8 -1 -1</clus>
<clus scale="  106.450">  1  5  2 -1</clus>
<clus scale="  414.022">  2  9  1 -1</clus>
<clus scale="  106.450">  1  5  2 -1</clus>
</clustering>
</event>
<event>
 9    1  0.1175034E-005  0.1183723E+03  0.7546771E-02  0.1245926E+00
          4   -1    0    0  502    0  0.00000000000E+00  0.00000000000E+00  0.58189611103E+02  0.58189611103E+02  0.00000000000E+00 0. -1.
         -4   -1    0    0    0  501 -0.00000000000E+00 -0.00000000000E+00 -0.31801986672E+03  0.31801986672E+03  0.00000000000E+00 0.  1.
         23    2    1    2    0    0  0.49237569114E+02  0.34903835090E+02 -0.11131664985E+03  0.15662519829E+03  0.92181561554E+02 0.  0.
         23    2    1    2    0    0 -0.68914585572E+02 -0.58671599088E+02 -0.13229211564E+03  0.18472415440E+03  0.91816298739E+02 0.  0.
        -11    1    3    3    0    0  0.49783678503E+02 -0.15413980386E+02 -0.27660931668E+02  0.59001123527E+02  0.00000000000E+00 0. -1.
         11    1    3    3    0    0 -0.54610938946E+00  0.50317815475E+02 -0.83655718179E+02  0.97624074765E+02  0.00000000000E+00 0.  1.
        -13    1    4    4    0    0 -0.90155036769E+02 -0.46100374488E+02 -0.88625189593E+02  0.13456448050E+03  0.00000000000E+00 0.  1.
         13    1    4    4    0    0  0.21240451197E+02 -0.12571224600E+02 -0.43666926047E+02  0.50159673896E+02  0.00000000000E+00 0. -1.
         21    1    1    2  502  501  0.19677016458E+02  0.23767763998E+02 -0.16221490132E+02  0.34860125133E+02  0.00000000000E+00 0. -1.
<scales pt_clust_5="13000.00000" pt_clust_6="13000.00000" pt_clust_7="13000.00000" pt_clust_8="13000.00000" pt_clust_9="30.85598"></scales>
<clustering>
<clus scale="   30.856">  1  9  2 -1</clus>
<clus scale="   91.816">  7  8 -1 -1</clus>
<clus scale="   92.182">  5  6 -1 -1</clus>
<clus scale="  118.088">  1  7  2 -1</clus>
<clus scale="   30.856">  1  5  2 -1</clus>
</clustering>
</event>
<event>
 9    1  0.1175034E-005  0.2490263E+03  0.7546771E-02  0.1113958E+00
          1   -1    0    0  502    0  0.00000000000E+00  0.00000000000E+00  0.67975343554E+03  0.67975343554E+03  0.00000000000E+00 0. -1.
         -1   -1    0    0    0  501 -0.00000000000E+00 -0.00000000000E+00 -0.13315700536E+03  0.13315700536E+03  0.00000000000E+00 0.  1.
         23    2    1    2    0    0  0.30740903098E+02  0.25199280440E+03  0.12086390975E+03  0.29480452787E+03  0.88635480388E+02 0.  0.
         23    2    1    2    0    0 -0.29743071457E+02 -0.22299033547E+03  0.42526259592E+03  0.48908247937E+03  0.88000318899E+02 0.  0.
        -11    1    4    4    0    0  0.23449364874E+01 -0.52961178121E+02  0.38931842015E+02  0.65772892879E+02  0.00000000000E+00 0.  1.
         11    1    4    4    0    0 -0.32088007944E+02 -0.17002915735E+03  0.38633075391E+03  0.42330958649E+03  0.00000000000E+00 0. -1.
        -11    1    3    3    0    0  0.21635343957E+02  0.23393763234E+03  0.78230240514E+02  0.24761840494E+03  0.00000000000E+00 0.  1.
         11    1    3    3    0    0  0.91055591404E+01  0.18055172056E+02  0.42633669233E+02  0.47186122933E+02  0.00000000000E+00 0. -1.
         21    1    1    2  502  501 -0.99783164070E+00 -0.29002468928E+02  0.46992451353E+00  0.29023433652E+02  0.00000000000E+00 0.  1.
<scales pt_clust_5="13000.00000" pt_clust_6="13000.00000" pt_clust_7="13000.00000" pt_clust_8="13000.00000" pt_clust_9="29.01963"></scales>
<clustering>
<clus scale="   29.020">  2  9  1 -1</clus>
<clus scale="   88.000">  5  6 -1 -1</clus>
<clus scale="   88.635">  7  8 -1 -1</clus>
<clus scale="  248.801">  1  5  2 -1</clus>
<clus scale="  248.801">  1  5  2 -1</clus>
</clustering>
</event>
<event>
 9    1  0.1175034E-005  0.1854994E+03  0.7546771E-02  0.1163089E+00
          1   -1    0    0  502    0  0.00000000000E+00  0.00000000000E+00  0.16404108711E+03  0.16404108711E+03  0.00000000000E+00 0. -1.
         -1   -1    0    0    0  501 -0.00000000000E+00 -0.00000000000E+00 -0.49260500721E+03  0.49260500721E+03  0.00000000000E+00 0.  1.
         23    2    1    2    0    0  0.83567644220E+02  0.17426812426E+03 -0.31062729434E+03  0.37771924891E+03  0.93965869922E+02 0.  0.
         23    2    1    2    0    0 -0.26924106908E+02 -0.15220469149E+03  0.52165637210E+02  0.18613884695E+03  0.89639505757E+02 0.  0.
        -11    1    3    3    0    0  0.49179282565E+02  0.14036433941E+03 -0.28853986289E+03  0.32461670026E+03  0.00000000000E+00 0.  1.
         11    1    3    3    0    0  0.34388361654E+02  0.33903784858E+02 -0.22087431454E+02  0.53102548650E+02  0.00000000000E+00 0. -1.
        -11    1    4    4    0    0  0.12953393674E+02 -0.34705638092E+02 -0.20507355901E+02  0.42341744994E+02  0.00000000000E+00 0.  1.
         11    1    4    4    0    0 -0.39877500582E+02 -0.11749905340E+03  0.72672993111E+02  0.14379710195E+03  0.00000000000E+00 0. -1.
         21    1    1    2  502  501 -0.56643537312E+02 -0.22063432772E+02 -0.70102262976E+02  0.92787998466E+02  0.00000000000E+00 0. -1.
<scales pt_clust_5="13000.00000" pt_clust_6="13000.00000" pt_clust_7="13000.00000" pt_clust_8="13000.00000" pt_clust_9="60.78886"></scales>
<clustering>
<clus scale="   60.789">  2  9  1 -1</clus>
<clus scale="   89.640">  7  8 -1 -1</clus>
<clus scale="   93.966">  5  6 -1 -1</clus>
<clus scale="  183.346">  1  7  2 -1</clus>
<clus scale="  183.346">  1  5  2 -1</clus>
</clustering>
</event>
<event>
 9    1  0.1175034E-005  0.1045492E+03  0.7546771E-02  0.1272411E+00
         -2   -1    0    0    0  501 -0.00000000000E+00  0.00000000000E+00  0.43379512934E+02  0.43379512934E+02  0.00000000000E+00 0.  1.
          2   -1    0    0  502    0  0.00000000000E+00 -0.00000000000E+00 -0.34273996510E+03  0.34273996510E+03  0.00000000000E+00 0. -1.
         23    2    1    2    0    0  0.66588434198E+01 -0.31302156000E+02 -0.95537041421E+02  0.13447684669E+03  0.89064756470E+02 0.  0.
         23    2    1    2    0    0 -0.16446520577E+01  0.64401778624E+02 -0.17148852623E+03  0.20509940532E+03  0.92234253189E+02 0.  0.
        -11    1    3    3    0    0  0.17621694256E+02 -0.50569955679E+02 -0.98495063006E+02  0.11211209552E+03  0.00000000000E+00 0. -1.
         11    1    3    3    0    0 -0.10962850836E+02  0.19267799679E+02  0.29580215849E+01  0.22364751164E+02  0.00000000000E+00 0.  1.
        -13    1    4    4    0    0 -0.35327073340E+02  0.69208677379E+02 -0.10770851351E+03  0.13281177289E+03  0.00000000000E+00 0.  1.
         13    1    4    4    0    0  0.33682421282E+02 -0.48068987549E+01 -0.63780012729E+02  0.72287632433E+02  0.00000000000E+00 0. -1.
         21    1    1    2  502  501 -0.50141913621E+01 -0.33099622625E+02 -0.32334884511E+02  0.46543226029E+02  0.00000000000E+00 0. -1.
<scales pt_clust_5="13000.00000" pt_clust_6="13000.00000" pt_clust_7="13000.00000" pt_clust_8="13000.00000" pt_clust_9="33.47726"></scales>
<clustering>
<clus scale="   33.477">  1  9  2 -1</clus>
<clus scale="   89.065">  5  6 -1 -1</clus>
<clus scale="   92.234">  7  8 -1 -1</clus>
<clus scale="  101.764">  1  5  2 -1</clus>
<clus scale="  104.549">  2  5  1 -1</clus>
</clustering>
</event>
<event>
 9    1  0.1175034E-005  0.2355086E+03  0.7546771E-02  0.1123044E+00
         -1   -1    0    0    0  501 -0.00000000000E+00  0.00000000000E+00  0.21220861888E+03  0.21220861888E+03  0.00000000000E+00 0.  1.
          1   -1    0    0  502    0  0.00000000000E+00 -0.00000000000E+00 -0.31274474073E+03  0.31274474073E+03  0.00000000000E+00 0. -1.
         23    2    1    2    0    0 -0.16258637733E+03 -0.16245320089E+03 -0.30820741172E+02  0.24936002681E+03  0.91679508689E+02 0.  0.
         23    2    1    2    0    0  0.13746302748E+03  0.15276510839E+03 -0.88173797950E+02  0.24294742935E+03  0.94950368701E+02 0.  0.
        -13    1    4    4    0    0  0.60168433422E+02  0.12996375982E+03 -0.73712897973E+02  0.16107268724E+03  0.00000000000E+00 0.  1.
         13    1    4    4    0    0  0.77294594056E+02  0.22801348568E+02 -0.14460899978E+02  0.81874742106E+02  0.00000000000E+00 0. -1.
        -13    1    3    3    0    0 -0.14411424710E+03 -0.15042055726E+03  0.37607705111E+01  0.20834923484E+03  0.00000000000E+00 0. -1.
         13    1    3    3    0    0 -0.18472130226E+02 -0.12032643631E+02 -0.34581511683E+02  0.41010791971E+02  0.00000000000E+00 0.  1.
         21    1    1    2  502  501  0.25123349847E+02  0.96880924979E+01  0.18458417274E+02  0.32645903450E+02  0.00000000000E+00 0.  1.
<scales pt_clust_5="13000.00000" pt_clust_6="13000.00000" pt_clust_7="13000.00000" pt_clust_8="13000.00000" pt_clust_9="26.92660"></scales>
<clustering>
<clus scale="   26.927">  1  9  2 -1</clus>
<clus scale="   91.680">  7  8 -1 -1</clus>
<clus scale="   94.950">  5  6 -1 -1</clus>
<clus scale="  234.209">  1  7  2 -1</clus>
<clus scale="  235.509">  2  5  1 -1</clus>
</clustering>
</event>
<event>
 9    1  0.1175034E-005  0.1015814E+03  0.7546771E-02  0.1277041E+00
         -3   -1    0    0    0  501 -0.00000000000E+00  0.00000000000E+00  0.12566190798E+03  0.12566190798E+03  0.00000000000E+00 0.  1.
          3   -1    0    0  502    0  0.00000000000E+00 -0.00000000000E+00 -0.35933991691E+03  0.35933991691E+03  0.00000000000E+00 0. -1.
         23    2    1    2    0    0 -0.19679637267E+02 -0.63661192376E+01  0.57692565858E+02  0.11024194503E+03  0.91635357210E+02 0.  0.
         23    2    1    2    0    0  0.45075174195E+02 -0.98886590374E+01 -0.31822852623E+03  0.33438042137E+03  0.91713218158E+02 0.  0.
        -13    1    4    4    0    0 -0.71737649368E+01  0.31001106601E+02 -0.61840013744E+02  0.69546522657E+02  0.00000000000E+00 0.  1.
         13    1    4    4    0    0  0.52248939132E+02 -0.40889765638E+02 -0.25638851249E+03  0.26483389872E+03  0.00000000000E+00 0. -1.
        -13    1    3    3    0    0 -0.14601845104E+02 -0.48784073110E+02  0.26990871644E+02  0.57633382877E+02  0.00000000000E+00 0. -1.
         13    1    3    3    0    0 -0.50777921625E+01  0.42417953873E+02  0.30701694213E+02  0.52608562151E+02  0.00000000000E+00 0.  1.
         21    1    1    2  502  501 -0.25395536928E+02  0.16254778275E+02  0.26857951434E+02  0.40379458489E+02  0.00000000000E+00 0.  1.
<scales pt_clust_5="13000.00000" pt_clust_6="13000.00000" pt_clust_7="13000.00000" pt_clust_8="13000.00000" pt_clust_9="30.15213"></scales>
<clustering>
<clus scale="   30.152">  1  9  2 -1</clus>
<clus scale="   91.635">  7  8 -1 -1</clus>
<clus scale="   91.713">  5  6 -1 -1</clus>
<clus scale="  101.511">  1  7  2 -1</clus>
<clus scale="  101.581">  2  5  1 -1</clus>
</clustering>
</event>
<event>
 9    1  0.1175034E-005  0.3354689E+03  0.7546771E-02  0.1068789E+00
          4   -1    0    0  502    0  0.00000000000E+00  0.00000000000E+00  0.73872874400E+03  0.73872874400E+03  0.00000000000E+00 0. -1.
         -4   -1    0    0    0  501 -0.00000000000E+00 -0.00000000000E+00 -0.28446961083E+03  0.28446961083E+03  0.00000000000E+00 0.  1.
         23    2    1    2    0    0 -0.23150832418E+03  0.26112539964E+03  0.99216644191E+02  0.37405942315E+03  0.91071022094E+02 0.  0.
         23    2    1    2    0    0  0.15446873895E+03 -0.27404687483E+03  0.43042281894E+03  0.54058361694E+03  0.89468223009E+02 0.  0.
        -11    1    3    3    0    0 -0.21453000153E+03  0.24073812984E+03  0.11597592949E+03  0.34267825279E+03  0.00000000000E+00 0.  1.
         11    1    3    3    0    0 -0.16978322651E+02  0.20387269796E+02 -0.16759285295E+02  0.31381170363E+02  0.00000000000E+00 0. -1.
        -11    1    4    4    0    0  0.10537538247E+03 -0.23843815057E+03  0.30470047448E+03  0.40099763344E+03  0.00000000000E+00 0. -1.
         11    1    4    4    0    0  0.49093356487E+02 -0.35608724261E+02  0.12572234446E+03  0.13958598350E+03  0.00000000000E+00 0.  1.
         21    1    1    2  502  501  0.77039585226E+02  0.12921475196E+02 -0.75380329959E+02  0.10855531474E+03  0.00000000000E+00 0. -1.
<scales pt_clust_5="13000.00000" pt_clust_6="13000.00000" pt_clust_7="13000.00000" pt_clust_8="13000.00000" pt_clust_9="78.11570"></scales>
<clustering>
<clus scale="   78.116">  2  9  1 -1</clus>
<clus scale="   89.468">  7  8 -1 -1</clus>
<clus scale="   91.071">  5  6 -1 -1</clus>
<clus scale="  335.037">  1  7  2 -1</clus>
<clus scale="  335.037">  1  5  2 -1</clus>
</clustering>
</event>
<event>
 9    1  0.1175034E-005  0.1037125E+03  0.7546771E-02  0.1274942E+00
         -1   -1    0    0    0  501 -0.00000000000E+00  0.00000000000E+00  0.34121898230E+02  0.34121898230E+02  0.00000000000E+00 0.  1.
          1   -1    0    0  502    0  0.00000000000E+00 -0.00000000000E+00 -0.49628869609E+03  0.49628869609E+03  0.00000000000E+00 0. -1.
         23    2    1    2    0    0 -0.12627062588E+02 -0.25987826941E+02 -0.85685806889E+02  0.12928328904E+03  0.92397518712E+02 0.  0.
         23    2    1    2    0    0  0.61790368730E+01  0.53602779485E+02 -0.33840130805E+03  0.35364862700E+03  0.87409768471E+02 0.  0.
        -11    1    4    4    0    0 -0.35781114866E+02  0.48572236006E+02 -0.20778327923E+03  0.21636414079E+03  0.00000000000E+00 0. -1.
         11    1    4    4    0    0  0.41960151739E+02  0.50305434798E+01 -0.13061802882E+03  0.13728448621E+03  0.00000000000E+00 0.  1.
        -11    1    3    3    0    0 -0.51203585833E+02 -0.27364051466E+02 -0.47895445329E+02  0.75263352291E+02  0.00000000000E+00 0. -1.
         11    1    3    3    0    0  0.38576523245E+02  0.13762245251E+01 -0.37790361560E+02  0.54019936749E+02  0.00000000000E+00 0.  1.
         21    1    1    2  502  501  0.64480257155E+01 -0.27614952544E+02 -0.38079682919E+02  0.47478678276E+02  0.00000000000E+00 0.  1.
<scales pt_clust_5="13000.00000" pt_clust_6="13000.00000" pt_clust_7="13000.00000" pt_clust_8="13000.00000" pt_clust_9="28.35776"></scales>
<clustering>
<clus scale="   28.358">  1  9  2 -1</clus>
<clus scale="   87.410">  5  6 -1 -1</clus>
<clus scale="   92.398">  7  8 -1 -1</clus>
<clus scale="   99.295">  2  5  1 -1</clus>
<clus scale="   99.295">  2  5  1 -1</clus>
</clustering>
</event>
<event>
 9    1  0.1175034E-005  0.1029659E+03  0.7546771E-02  0.1274327E+00
          1   -1    0    0  502    0  0.00000000000E+00  0.00000000000E+00  0.69063362162E+02  0.69063362162E+02  0.00000000000E+00 0. -1.
         -1   -1    0    0    0  501 -0.00000000000E+00 -0.00000000000E+00 -0.25435636630E+03  0.25435636630E+03  0.00000000000E+00 0.  1.
         23    2    1    2    0    0 -0.34132645011E+02 -0.14324447126E+02 -0.14240302665E+03  0.17289524547E+03  0.90796016799E+02 0.  0.
         23    2    1    2    0    0  0.52319153266E+02  0.19271948990E+01 -0.32030911765E+01  0.10514288000E+03  0.91124955651E+02 0.  0.
        -11    1    4    4    0    0  0.12828945678E+02 -0.19182603085E+02 -0.40667505457E+02  0.46758957521E+02  0.00000000000E+00 0.  1.
         11    1    4    4    0    0  0.39490207588E+02  0.21109797984E+02  0.37464414281E+02  0.58383922476E+02  0.00000000000E+00 0. -1.
        -13    1    3    3    0    0 -0.55365681745E+02 -0.29615763275E+02 -0.61596440592E+02  0.87957794669E+02  0.00000000000E+00 0.  1.
         13    1    3    3    0    0  0.21233036734E+02  0.15291316149E+02 -0.80806586056E+02  0.84937450800E+02  0.00000000000E+00 0. -1.
         21    1    1    2  502  501 -0.18186508254E+02  0.12397252227E+02 -0.39686886315E+02  0.45381602997E+02  0.00000000000E+00 0.  1.
<scales pt_clust_5="13000.00000" pt_clust_6="13000.00000" pt_clust_7="13000.00000" pt_clust_8="13000.00000" pt_clust_9="22.01002"></scales>
<clustering>
<clus scale="   22.010">  2  9  1 -1</clus>
<clus scale="   90.796">  7  8 -1 -1</clus>
<clus scale="   91.125">  5  6 -1 -1</clus>
<clus scale="  102.675">  2  7  1 -1</clus>
<clus scale="  102.966">  1  5  2 -1</clus>
</clustering>
</event>
<event>
 9    1  0.1175034E-005  0.1108090E+03  0.7546771E-02  0.1259565E+00
         -1   -1    0    0    0  501 -0.00000000000E+00  0.00000000000E+00  0.13351102909E+03  0.13351102909E+03  0.00000000000E+00 0.  1.
          1   -1    0    0  502    0  0.00000000000E+00 -0.00000000000E+00 -0.16932768784E+03  0.16932768784E+03  0.00000000000E+00 0. -1.
         23    2    1    2    0    0  0.70690030956E+02  0.18055176871E+02 -0.24772848591E+02  0.11696721673E+03  0.88003215133E+02 0.  0.
         23    2    1    2    0    0 -0.61988499815E+02  0.61709923707E+01 -0.64484867117E+02  0.12655396074E+03  0.89313781885E+02 0.  0.
        -11    1    4    4    0    0 -0.58356505528E+02 -0.32788471178E+02 -0.54112914667E+02  0.86074230251E+02  0.00000000000E+00 0. -1.
         11    1    4    4    0    0 -0.36319942874E+01  0.38959463548E+02 -0.10371952450E+02  0.40479730484E+02  0.00000000000E+00 0.  1.
        -11    1    3    3    0    0  0.50469004352E+02  0.53148554774E+02 -0.21252446078E+02  0.76312225358E+02  0.00000000000E+00 0.  1.
         11    1    3    3    0    0  0.20221026604E+02 -0.35093377903E+02 -0.35204025130E+01  0.40654991371E+02  0.00000000000E+00 0. -1.
         21    1    1    2  502  501 -0.87015311404E+01 -0.24226169242E+02  0.53441056953E+02  0.59317539468E+02  0.00000000000E+00 0.  1.
<scales pt_clust_5="13000.00000" pt_clust_6="13000.00000" pt_clust_7="13000.00000" pt_clust_8="13000.00000" pt_clust_9="25.74148"></scales>
<clustering>
<clus scale="   25.741">  1  9  2 -1</clus>
<clus scale="   88.003">  7  8 -1 -1</clus>
<clus scale="   89.314">  5  6 -1 -1</clus>
<clus scale="  109.755">  1  7  2 -1</clus>
<clus scale="  110.809">  2  5  1 -1</clus>
</clustering>
</event>
<event>
 9    1  0.1175034E-005  0.1159886E+03  0.7546771E-02  0.1251655E+00
         -1   -1    0    0    0  501 -0.00000000000E+00  0.00000000000E+00  0.68931513437E+02  0.68931513437E+02  0.00000000000E+00 0.  1.
          1   -1    0    0  502    0  0.00000000000E+00 -0.00000000000E+00 -0.73423986939E+03  0.73423986939E+03  0.00000000000E+00 0. -1.
         23    2    1    2    0    0  0.10854907327E+02 -0.85896429480E+02 -0.17333142863E+03  0.21226029521E+03  0.86686926117E+02 0.  0.
         23    2    1    2    0    0 -0.13253754444E+02  0.64685322087E+02 -0.53288726512E+03  0.54476651824E+03  0.91879644998E+02 0.  0.
        -11    1    3    3    0    0 -0.25345214139E+02 -0.37260102096E+02 -0.23924863553E+02  0.51020527085E+02  0.00000000000E+00 0.  1.
         11    1    3    3    0    0  0.36200121466E+02 -0.48636327383E+02 -0.14940656508E+03  0.16123976812E+03  0.00000000000E+00 0. -1.
        -11    1    4    4    0    0 -0.17484875571E+01  0.84087206907E+02 -0.47933234955E+03  0.48665513138E+03  0.00000000000E+00 0. -1.
         11    1    4    4    0    0 -0.11505266887E+02 -0.19401884820E+02 -0.53554915570E+02  0.58111386857E+02  0.00000000000E+00 0.  1.
         21    1    1    2  502  501  0.23988471170E+01  0.21211107393E+02  0.40910337801E+02  0.46144569380E+02  0.00000000000E+00 0.  1.
<scales pt_clust_5="13000.00000" pt_clust_6="13000.00000" pt_clust_7="13000.00000" pt_clust_8="13000.00000" pt_clust_9="21.34632"></scales>
<clustering>
<clus scale="   21.346">  1  9  2 -1</clus>
<clus scale="   86.687">  5  6 -1 -1</clus>
<clus scale="   91.880">  7  8 -1 -1</clus>
<clus scale="  111.920">  1  5  2 -1</clus>
<clus scale="  115.989">  2  5  1 -1</clus>
</clustering>
</event>
<event>
 9    1  0.1175034E-005  0.1100742E+03  0.7546771E-02  0.1260449E+00
         -3   -1    0    0    0  501 -0.00000000000E+00  0.00000000000E+00  0.17258168410E+03  0.17258168410E+03  0.00000000000E+00 0.  1.
          3   -1    0    0  502    0  0.00000000000E+00 -0.00000000000E+00 -0.11429861048E+03  0.11429861048E+03  0.00000000000E+00 0. -1.
         23    2    1    2    0    0  0.54833293170E+02  0.53066703915E+02  0.37202499847E+02  0.12285937047E+03  0.88812351685E+02 0.  0.
         23    2    1    2    0    0 -0.58266287270E+02 -0.18874946340E+02 -0.20738892825E+02  0.10989394820E+03  0.88855806470E+02 0.  0.
        -11    1    3    3    0    0  0.63231053736E+01  0.39316343050E+02  0.56285295208E+02  0.68947740710E+02  0.00000000000E+00 0.  1.
         11    1    3    3    0    0  0.48510187797E+02  0.13750360865E+02 -0.19082795362E+02  0.53911629755E+02  0.00000000000E+00 0. -1.
        -13    1    4    4    0    0  0.21603233280E+02 -0.15115911401E+02 -0.13465423108E+02  0.29605879233E+02  0.00000000000E+00 0.  1.
         13    1    4    4    0    0 -0.79869520550E+02 -0.37590349392E+01 -0.72734697165E+01  0.80288068966E+02  0.00000000000E+00 0. -1.
         21    1    1    2  502  501  0.34329940995E+01 -0.34191757575E+02  0.41819466599E+02  0.54126975910E+02  0.00000000000E+00 0. -1.
<scales pt_clust_5="13000.00000" pt_clust_6="13000.00000" pt_clust_7="13000.00000" pt_clust_8="13000.00000" pt_clust_9="34.36367"></scales>
<clustering>
<clus scale="   34.364">  1  9  2 -1</clus>
<clus scale="   88.812">  5  6 -1 -1</clus>
<clus scale="   88.856">  7  8 -1 -1</clus>
<clus scale="  110.039">  1  5  2 -1</clus>
<clus scale="  110.074">  2  5  1 -1</clus>
</clustering>
</event>
<event>
 9    1  0.1175034E-005  0.9870097E+02  0.7546771E-02  0.1284319E+00
         -2   -1    0    0    0  501 -0.00000000000E+00  0.00000000000E+00  0.11615290819E+03  0.11615290819E+03  0.00000000000E+00 0.  1.
          2   -1    0    0  502    0  0.00000000000E+00 -0.00000000000E+00 -0.19322614927E+03  0.19322614927E+03  0.00000000000E+00 0. -1.
         23    2    1    2    0    0 -0.16714802638E+02 -0.23722269176E+02 -0.30984008754E+02  0.10031306598E+03  0.90887687424E+02 0.  0.
         23    2    1    2    0    0  0.41470370945E+02 -0.10168890156E+02 -0.98259799799E+02  0.14210916246E+03  0.93363953457E+02 0.  0.
        -11    1    4    4    0    0  0.20704837283E+02 -0.24919937191E+02 -0.10955515484E+03  0.11424546166E+03  0.00000000000E+00 0. -1.
         11    1    4    4    0    0  0.20765533662E+02  0.14751047035E+02  0.11295355044E+02  0.27863700803E+02  0.00000000000E+00 0.  1.
        -13    1    3    3    0    0  0.29191164039E+02  0.11426018494E+02 -0.28621173931E+02  0.42448198475E+02  0.00000000000E+00 0. -1.
         13    1    3    3    0    0 -0.45905966677E+02 -0.35148287670E+02 -0.23628348231E+01  0.57864867503E+02  0.00000000000E+00 0.  1.
         21    1    1    2  502  501 -0.24755568307E+02  0.33891159332E+02  0.52170567475E+02  0.66956829030E+02  0.00000000000E+00 0.  1.
<scales pt_clust_5="13000.00000" pt_clust_6="13000.00000" pt_clust_7="13000.00000" pt_clust_8="13000.00000" pt_clust_9="41.96962"></scales>
<clustering>
<clus scale="   41.970">  1  9  2 -1</clus>
<clus scale="   90.888">  7  8 -1 -1</clus>
<clus scale="   93.364">  5  6 -1 -1</clus>
<clus scale="   96.362">  1  7  2 -1</clus>
<clus scale="   98.701">  2  5  1 -1</clus>
</clustering>
</event>
<event>
 9    1  0.1175034E-005  0.9761325E+02  0.7546771E-02  0.1285480E+00
         -2   -1    0    0    0  501 -0.00000000000E+00  0.00000000000E+00  0.54810218243E+02  0.54810218243E+02  0.00000000000E+00 0.  1.
          2   -1    0    0  502    0  0.00000000000E+00 -0.00000000000E+00 -0.33746077777E+03  0.33746077777E+03  0.00000000000E+00 0. -1.
         23    2    1    2    0    0  0.34430464100E+02 -0.26545138672E+02 -0.53333616229E+02  0.11436368332E+03  0.91348104512E+02 0.  0.
         23    2    1    2    0    0 -0.87503474047E+01  0.31752998366E+02 -0.23200598690E+03  0.25156682766E+03  0.91511033974E+02 0.  0.
        -11    1    4    4    0    0 -0.18906929119E+02 -0.25056780526E+02 -0.13578658419E+03  0.13936753806E+03  0.00000000000E+00 0. -1.
         11    1    4    4    0    0  0.10156581714E+02  0.56809778891E+02 -0.96219402709E+02  0.11219928960E+03  0.00000000000E+00 0.  1.
        -13    1    3    3    0    0  0.36867868381E+02  0.90254048020E+01 -0.66323889786E+02  0.76416987687E+02  0.00000000000E+00 0.  1.
         13    1    3    3    0    0 -0.24374042811E+01 -0.35570543474E+02  0.12990273557E+02  0.37946695636E+02  0.00000000000E+00 0. -1.
         21    1    1    2  502  501 -0.25680116696E+02 -0.52078596941E+01  0.26890435977E+01  0.26340485029E+02  0.00000000000E+00 0. -1.
<scales pt_clust_5="13000.00000" pt_clust_6="13000.00000" pt_clust_7="13000.00000" pt_clust_8="13000.00000" pt_clust_9="26.20287"></scales>
<clustering>
<clus scale="   26.203">  1  9  2 -1</clus>
<clus scale="   91.348">  7  8 -1 -1</clus>
<clus scale="   91.511">  5  6 -1 -1</clus>
<clus scale="   97.461">  1  7  2 -1</clus>
<clus scale="   97.613">  2  5  1 -1</clus>
</clustering>
</event>
<event>
 9    1  0.1175034E-005  0.1225297E+03  0.7546771E-02  0.1240635E+00
         -1   -1    0    0    0  501 -0.00000000000E+00  0.00000000000E+00  0.17407092288E+03  0.17407092288E+03  0.00000000000E+00 0.  1.
          1   -1    0    0  502    0  0.00000000000E+00 -0.00000000000E+00 -0.17746855617E+03  0.17746855617E+03  0.00000000000E+00 0. -1.
         23    2    1    2    0    0  0.15781362889E+02 -0.80203321300E+02  0.97466578013E+02  0.15664863635E+03  0.91419020335E+02 0.  0.
         23    2    1    2    0    0 -0.43585901029E+02  0.69993737586E+02 -0.11177801546E+03  0.16332441968E+03  0.85916746065E+02 0.  0.
        -11    1    3    3    0    0  0.13717618511E+02 -0.39388426231E+02  0.10686402054E+03  0.11471503853E+03  0.00000000000E+00 0.  1.
         11    1    3    3    0    0  0.20637443782E+01 -0.40814895069E+02 -0.93974425271E+01  0.41933597823E+02  0.00000000000E+00 0. -1.
        -13    1    4    4    0    0  0.23867394042E+02  0.96533421298E+01 -0.11360028586E+02  0.28140535925E+02  0.00000000000E+00 0. -1.
         13    1    4    4    0    0 -0.67453295071E+02  0.60340395456E+02 -0.10041798687E+03  0.13518388376E+03  0.00000000000E+00 0.  1.
         21    1    1    2  502  501  0.27804538140E+02  0.10209583714E+02  0.10913804152E+02  0.31566423013E+02  0.00000000000E+00 0.  1.
<scales pt_clust_5="13000.00000" pt_clust_6="13000.00000" pt_clust_7="13000.00000" pt_clust_8="13000.00000" pt_clust_9="29.61972"></scales>
<clustering>
<clus scale="   29.620">  1  9  2 -1</clus>
<clus scale="   85.917">  7  8 -1 -1</clus>
<clus scale="   91.419">  5  6 -1 -1</clus>
<clus scale="  118.481">  2  7  1 -1</clus>
<clus scale="  118.481">  2  5  1 -1</clus>
</clustering>
</event>
<event>
 9    1  0.1175034E-005  0.1100762E+03  0.7546771E-02  0.1262202E+00
         -2   -1    0    0    0  501 -0.00000000000E+00  0.00000000000E+00  0.80199537341E+02  0.80199537341E+02  0.00000000000E+00 0.  1.
          2   -1    0    0  502    0  0.00000000000E+00 -0.00000000000E+00 -0.41702511954E+03  0.41702511954E+03  0.00000000000E+00 0. -1.
         23    2    1    2    0    0  0.37054181165E+02  0.21644412700E+02  0.23055267540E+02  0.10665457784E+03  0.94879716853E+02 0.  0.
         23    2    1    2    0    0 -0.35727307330E+02 -0.45386623958E+02 -0.34761437952E+03  0.36381340732E+03  0.90487857620E+02 0.  0.
        -11    1    4    4    0    0 -0.41170440879E+02 -0.69985804564E+02 -0.28437944633E+03  0.29574429417E+03  0.00000000000E+00 0. -1.
         11    1    4    4    0    0  0.54431335490E+01  0.24599180606E+02 -0.63234933189E+02  0.68069113148E+02  0.00000000000E+00 0.  1.
        -13    1    3    3    0    0  0.44621144935E+02  0.48918070150E+02  0.36184020478E+02  0.75454009174E+02  0.00000000000E+00 0.  1.
         13    1    3    3    0    0 -0.75669637706E+01 -0.27273657450E+02 -0.13128752939E+02  0.31200568667E+02  0.00000000000E+00 0. -1.
         21    1    1    2  502  501 -0.13268738348E+01  0.23742211259E+02 -0.12266470219E+02  0.26756671715E+02  0.00000000000E+00 0.  1.
<scales pt_clust_5="13000.00000" pt_clust_6="13000.00000" pt_clust_7="13000.00000" pt_clust_8="13000.00000" pt_clust_9="23.77926"></scales>
<clustering>
<clus scale="   23.779">  1  9  2 -1</clus>
<clus scale="   90.488">  5  6 -1 -1</clus>
<clus scale="   94.880">  7  8 -1 -1</clus>
<clus scale="  106.314">  2  5  1 -1</clus>
<clus scale="  106.314">  2  5  1 -1</clus>
</clustering>
</event>
<event>
 9    1  0.1175034E-005  0.1041278E+03  0.7546771E-02  0.1272178E+00
         -1   -1    0    0    0  501 -0.00000000000E+00  0.00000000000E+00  0.77310620473E+02  0.77310620473E+02  0.00000000000E+00 0.  1.
          1   -1    0    0  502    0  0.00000000000E+00 -0.00000000000E+00 -0.26077084792E+03  0.26077084792E+03  0.00000000000E+00 0. -1.
         23    2    1    2    0    0  0.50056060892E+02 -0.31074503438E+02 -0.20493211646E+02  0.11076185203E+03  0.91525855070E+02 0.  0.
         23    2    1    2    0    0 -0.29326187618E+02  0.37503066502E+02 -0.17477330199E+03  0.20261248252E+03  0.90772273900E+02 0.  0.
        -11    1    4    4    0    0  0.38820485097E+01  0.52536928245E+02 -0.14880797506E+03  0.15785757052E+03  0.00000000000E+00 0. -1.
         11    1    4    4    0    0 -0.33208236128E+02 -0.15033861743E+02 -0.25965326928E+02  0.44754911999E+02  0.00000000000E+00 0.  1.
        -11    1    3    3    0    0 -0.11145860580E+02 -0.30362928380E+02  0.19387377702E+02  0.37709521901E+02  0.00000000000E+00 0.  1.
         11    1    3    3    0    0  0.61201921472E+02 -0.71157505819E+00 -0.39880589348E+02  0.73052330132E+02  0.00000000000E+00 0. -1.
         21    1    1    2  502  501 -0.20729873274E+02 -0.64285630641E+01  0.11806286186E+02  0.24707133839E+02  0.00000000000E+00 0.  1.
<scales pt_clust_5="13000.00000" pt_clust_6="13000.00000" pt_clust_7="13000.00000" pt_clust_8="13000.00000" pt_clust_9="21.70378"></scales>
<clustering>
<clus scale="   21.704">  1  9  2 -1</clus>
<clus scale="   90.772">  5  6 -1 -1</clus>
<clus scale="   91.526">  7  8 -1 -1</clus>
<clus scale="  103.466">  2  5  1 -1</clus>
<clus scale="  103.466">  2  5  1 -1</clus>
</clustering>
</event>
<event>
 9    1  0.1175034E-005  0.1757023E+03  0.7546771E-02  0.1172110E+00
         -2   -1    0    0    0  501 -0.00000000000E+00  0.00000000000E+00  0.23646224203E+03  0.23646224203E+03  0.00000000000E+00 0.  1.
          2   -1    0    0  502    0  0.00000000000E+00 -0.00000000000E+00 -0.35591187334E+03  0.35591187334E+03  0.00000000000E+00 0. -1.
         23    2    1    2    0    0  0.10428653331E+03 -0.59552917377E+02  0.27466494021E+02  0.15339875748E+03  0.91403170090E+02 0.  0.
         23    2    1    2    0    0 -0.45892387031E+02  0.16783625037E+03 -0.22084606641E+03  0.29544559542E+03  0.90774427453E+02 0.  0.
        -13    1    3    3    0    0  0.19852997758E+02 -0.39559047557E+02  0.46892445896E+02  0.64482255278E+02  0.00000000000E+00 0.  1.
         13    1    3    3    0    0  0.84433535556E+02 -0.19993869820E+02 -0.19425951875E+02  0.88916502198E+02  0.00000000000E+00 0. -1.
        -13    1    4    4    0    0 -0.55110190713E+01  0.63379600091E+02 -0.14998462891E+03  0.16291940937E+03  0.00000000000E+00 0.  1.
         13    1    4    4    0    0 -0.40381367960E+02  0.10445665028E+03 -0.70861437503E+02  0.13252618606E+03  0.00000000000E+00 0. -1.
         21    1    1    2  502  501 -0.58394146283E+02 -0.10828333299E+03  0.73929941090E+02  0.14352976247E+03  0.00000000000E+00 0. -1.
<scales pt_clust_5="13000.00000" pt_clust_6="13000.00000" pt_clust_7="13000.00000" pt_clust_8="13000.00000" pt_clust_9="123.02502"></scales>
<clustering>
<clus scale="   90.774">  7  8 -1 -1</clus>
<clus scale="   91.403">  5  6 -1 -1</clus>
<clus scale="  123.025">  1  9  2 -1</clus>
<clus scale="  175.376">  2  7  1 -1</clus>
<clus scale="  175.376">  2  5  1 -1</clus>
</clustering>
</event>
<event>
 9    1  0.1175034E-005  0.1085684E+03  0.7546771E-02  0.1263439E+00
         -2   -1    0    0    0  501 -0.00000000000E+00  0.00000000000E+00  0.10731629600E+03  0.10731629600E+03  0.00000000000E+00 0.  1.
          2   -1    0    0  502    0  0.00000000000E+00 -0.00000000000E+00 -0.18101900045E+03  0.18101900045E+03  0.00000000000E+00 0. -1.
         23    2    1    2    0    0 -0.13215264472E+02 -0.27813312104E+02  0.12708696346E+02  0.97730212879E+02  0.91877418343E+02 0.  0.
         23    2    1    2    0    0  0.18081047670E+01  0.74413190097E+02 -0.79409609602E+02  0.14212109650E+03  0.91388882645E+02 0.  0.
        -11    1    4    4    0    0  0.37284975156E+02  0.22292993031E+02 -0.37028485011E+01  0.43598830233E+02  0.00000000000E+00 0.  1.
         11    1    4    4    0    0 -0.35476870389E+02  0.52120197066E+02 -0.75706761101E+02  0.98522266271E+02  0.00000000000E+00 0. -1.
        -13    1    3    3    0    0  0.23590426504E+02 -0.67357331779E+01  0.40265402106E+02  0.47150619623E+02  0.00000000000E+00 0.  1.
         13    1    3    3    0    0 -0.36805690976E+02 -0.21077578927E+02 -0.27556705760E+02  0.50579593257E+02  0.00000000000E+00 0. -1.
         21    1    1    2  502  501  0.11407159705E+02 -0.46599877993E+02 -0.70017911914E+01  0.48483987061E+02  0.00000000000E+00 0.  1.
<scales pt_clust_5="13000.00000" pt_clust_6="13000.00000" pt_clust_7="13000.00000" pt_clust_8="13000.00000" pt_clust_9="47.97574"></scales>
<clustering>
<clus scale="   47.976">  1  9  2 -1</clus>
<clus scale="   91.389">  5  6 -1 -1</clus>
<clus scale="   91.877">  7  8 -1 -1</clus>
<clus scale="  108.155">  2  5  1 -1</clus>
<clus scale="  108.155">  2  5  1 -1</clus>
</clustering>
</event>
<event>
 9    1  0.1175034E-005  0.1466369E+03  0.7546771E-02  0.1204738E+00
          1   -1    0    0  502    0  0.00000000000E+00  0.00000000000E+00  0.10524668964E+04  0.10524668964E+04  0.00000000000E+00 0. -1.
         -1   -1    0    0    0  501 -0.00000000000E+00 -0.00000000000E+00 -0.51727678130E+02  0.51727678130E+02  0.00000000000E+00 0.  1.
         23    2    1    2    0    0  0.18866042981E+02 -0.95616513694E+02  0.20268571414E+03  0.24296057156E+03  0.91923312316E+02 0.  0.
         23    2    1    2    0    0 -0.64489858770E+02  0.10316580462E+03  0.80049154670E+03  0.81492559757E+03  0.92276151358E+02 0.  0.
        -11    1    3    3    0    0 -0.19442783351E+02 -0.37501964392E+02  0.18601860261E+02  0.46156780248E+02  0.00000000000E+00 0. -1.
         11    1    3    3    0    0  0.38308826332E+02 -0.58114549302E+02  0.18408385388E+03  0.19680379131E+03  0.00000000000E+00 0.  1.
        -11    1    4    4    0    0 -0.83476087511E+02  0.52550494185E+02  0.51649286303E+03  0.52582762307E+03  0.00000000000E+00 0. -1.
         11    1    4    4    0    0  0.18986228740E+02  0.50615310436E+02  0.28399868367E+03  0.28909797450E+03  0.00000000000E+00 0.  1.
         21    1    1    2  502  501  0.45623815789E+02 -0.75492909262E+01 -0.24380425556E+01  0.46308405416E+02  0.00000000000E+00 0.  1.
<scales pt_clust_5="13000.00000" pt_clust_6="13000.00000" pt_clust_7="13000.00000" pt_clust_8="13000.00000" pt_clust_9="46.24418"></scales>
<clustering>
<clus scale="   46.244">  2  9  1 -1</clus>
<clus scale="   91.923">  5  6 -1 -1</clus>
<clus scale="   92.276">  7  8 -1 -1</clus>
<clus scale="  146.415">  2  5  1 -1</clus>
<clus scale="  146.637">  1  5  2 -1</clus>
</clustering>
</event>
<event>
 9    1  0.1175034E-005  0.1028690E+03  0.7546771E-02  0.1275377E+00
          1   -1    0    0  502    0  0.00000000000E+00  0.00000000000E+00  0.11054259444E+03  0.11054259444E+03  0.00000000000E+00 0. -1.
         -1   -1    0    0    0  501 -0.00000000000E+00 -0.00000000000E+00 -0.21221901418E+03  0.21221901418E+03  0.00000000000E+00 0.  1.
         23    2    1    2    0    0 -0.47656461835E+01  0.84454795062E+02 -0.73963228207E+02  0.14516474083E+03  0.91907121925E+02 0.  0.
         23    2    1    2    0    0  0.17631830991E+02 -0.30322951454E+02  0.26509887354E+02  0.99905571704E+02  0.89710569506E+02 0.  0.
        -11    1    3    3    0    0 -0.20182149351E+02  0.15663533234E+01  0.12987371965E+02  0.24050872036E+02  0.00000000000E+00 0. -1.
         11    1    3    3    0    0  0.15416503167E+02  0.82888441738E+02 -0.86950600171E+02  0.12111386879E+03  0.00000000000E+00 0.  1.
        -13    1    4    4    0    0 -0.11033158139E+02 -0.43683507291E+02 -0.15210149060E+02  0.47553422823E+02  0.00000000000E+00 0. -1.
         13    1    4    4    0    0  0.28664989130E+02  0.13360555837E+02  0.41720036414E+02  0.52352148881E+02  0.00000000000E+00 0.  1.
         21    1    1    2  502  501 -0.12866184808E+02 -0.54131843608E+02 -0.54223078886E+02  0.77691296087E+02  0.00000000000E+00 0. -1.
<scales pt_clust_5="13000.00000" pt_clust_6="13000.00000" pt_clust_7="13000.00000" pt_clust_8="13000.00000" pt_clust_9="55.63987"></scales>
<clustering>
<clus scale="   55.640">  2  9  1 -1</clus>
<clus scale="   89.711">  7  8 -1 -1</clus>
<clus scale="   91.907">  5  6 -1 -1</clus>
<clus scale="  100.911">  1  7  2 -1</clus>
<clus scale="  100.911">  1  5  2 -1</clus>
</clustering>
</event>
<event>
 9    1  0.1175034E-005  0.1008332E+03  0.7546771E-02  0.1281594E+00
          1   -1    0    0  502    0  0.00000000000E+00  0.00000000000E+00  0.90912140158E+02  0.90912140158E+02  0.00000000000E+00 0. -1.
         -1   -1    0    0    0  501 -0.00000000000E+00 -0.00000000000E+00 -0.22829780712E+03  0.22829780712E+03  0.00000000000E+00 0.  1.
         23    2    1    2    0    0 -0.21976138509E+01 -0.14664652292E+02 -0.99570330029E+02  0.13630237364E+03  0.91892354982E+02 0.  0.
         23    2    1    2    0    0 -0.25844827052E+02  0.16101446638E+02  0.32316938505E+02  0.10736302435E+03  0.97750820013E+02 0.  0.
        -11    1    4    4    0    0 -0.62125038219E+02  0.96410559336E+00  0.26801124589E+02  0.67666462539E+02  0.00000000000E+00 0. -1.
         11    1    4    4    0    0  0.36280211166E+02  0.15137341044E+02  0.55158139159E+01  0.39696561807E+02  0.00000000000E+00 0.  1.
        -13    1    3    3    0    0 -0.38487841972E+02 -0.13868650534E+02 -0.89848790039E+02  0.98724153675E+02  0.00000000000E+00 0. -1.
         13    1    3    3    0    0  0.36290228121E+02 -0.79600175806E+00 -0.97215399895E+01  0.37578219964E+02  0.00000000000E+00 0.  1.
         21    1    1    2  502  501  0.28042440903E+02 -0.14367943460E+01 -0.70132275435E+02  0.75544549291E+02  0.00000000000E+00 0.  1.
<scales pt_clust_5="13000.00000" pt_clust_6="13000.00000" pt_clust_7="13000.00000" pt_clust_8="13000.00000" pt_clust_9="28.07922"></scales>
<clustering>
<clus scale="   28.079">  2  9  1 -1</clus>
<clus scale="   91.892">  7  8 -1 -1</clus>
<clus scale="   95.165">  2  7  1 -1</clus>
<clus scale="   97.751">  5  6 -1 -1</clus>
<clus scale="  100.833">  1  5  2 -1</clus>
</clustering>
</event>
<event>
 9    1  0.1175034E-005  0.9953426E+02  0.7546771E-02  0.1282133E+00
         -3   -1    0    0    0  501 -0.00000000000E+00  0.00000000000E+00  0.13881900396E+03  0.13881900396E+03  0.00000000000E+00 0.  1.
          3   -1    0    0  502    0  0.00000000000E+00 -0.00000000000E+00 -0.13531972782E+03  0.13531972782E+03  0.00000000000E+00 0. -1.
         23    2    1    2    0    0  0.32521341126E+02 -0.30609152636E+02 -0.16893184205E+01  0.10065662417E+03  0.90190600061E+02 0.  0.
         23    2    1    2    0    0 -0.39083356748E+02 -0.14001886992E+01 -0.48174799574E+02  0.11090967107E+03  0.91927550381E+02 0.  0.
        -13    1    4    4    0    0  0.28341330030E+02 -0.10643381244E+02 -0.60516042274E+01  0.30872875893E+02  0.00000000000E+00 0.  1.
         13    1    4    4    0    0 -0.67424686778E+02  0.92431925450E+01 -0.42123195347E+02  0.80036795174E+02  0.00000000000E+00 0. -1.
        -13    1    3    3    0    0 -0.12800340470E+02 -0.21820438181E+02 -0.35387555066E+02  0.43500106806E+02  0.00000000000E+00 0. -1.
         13    1    3    3    0    0  0.45321681596E+02 -0.87887144544E+01  0.33698236646E+02  0.57156517366E+02  0.00000000000E+00 0.  1.
         21    1    1    2  502  501  0.65620156223E+01  0.32009341335E+02  0.53363394130E+02  0.62572436542E+02  0.00000000000E+00 0.  1.
<scales pt_clust_5="13000.00000" pt_clust_6="13000.00000" pt_clust_7="13000.00000" pt_clust_8="13000.00000" pt_clust_9="32.67504"></scales>
<clustering>
<clus scale="   32.675">  1  9  2 -1</clus>
<clus scale="   90.191">  7  8 -1 -1</clus>
<clus scale="   91.928">  5  6 -1 -1</clus>
<clus scale="   97.932">  1  7  2 -1</clus>
<clus scale="   99.534">  2  5  1 -1</clus>
</clustering>
</event>
<event>
 9    1  0.1175034E-005  0.1164761E+03  0.7546771E-02  0.1251801E+00
         -2   -1    0    0    0  501 -0.00000000000E+00  0.00000000000E+00  0.42521747040E+02  0.42521747040E+02  0.00000000000E+00 0.  1.
          2   -1    0    0  502    0  0.00000000000E+00 -0.00000000000E+00 -0.85776959128E+03  0.85776959128E+03  0.00000000000E+00 0. -1.
         23    2    1    2    0    0 -0.65921079412E+02 -0.24478142320E+02 -0.29229691350E+03  0.31470155529E+03  0.93031258713E+02 0.  0.
         23    2    1    2    0    0  0.45519976751E+02  0.28293934711E+02 -0.54415003303E+03  0.55592217107E+03  0.10038718451E+03 0.  0.
        -11    1    4    4    0    0 -0.23132802729E+02  0.36564784984E+02 -0.16889423521E+03  0.17434842343E+03  0.00000000000E+00 0.  1.
         11    1    4    4    0    0  0.68652779480E+02 -0.82708502728E+01 -0.37525579782E+03  0.38157374764E+03  0.00000000000E+00 0. -1.
        -11    1    3    3    0    0  0.18793462484E+02  0.90291895160E+01 -0.96806351995E+02  0.99026210076E+02  0.00000000000E+00 0. -1.
         11    1    3    3    0    0 -0.84714541896E+02 -0.33507331836E+02 -0.19549056151E+03  0.21567534521E+03  0.00000000000E+00 0.  1.
         21    1    1    2  502  501  0.20401102661E+02 -0.38157923909E+01  0.21199102292E+02  0.29667611959E+02  0.00000000000E+00 0.  1.
<scales pt_clust_5="13000.00000" pt_clust_6="13000.00000" pt_clust_7="13000.00000" pt_clust_8="13000.00000" pt_clust_9="20.75489"></scales>
<clustering>
<clus scale="   20.755">  1  9  2 -1</clus>
<clus scale="   93.031">  7  8 -1 -1</clus>
<clus scale="  100.387">  5  6 -1 -1</clus>
<clus scale="  110.199">  1  7  2 -1</clus>
<clus scale="  116.476">  2  5  1 -1</clus>
</clustering>
</event>
<event>
 9    1  0.1175034E-005  0.1905934E+03  0.7546771E-02  0.1159134E+00
          1   -1    0    0  502    0  0.00000000000E+00  0.00000000000E+00  0.15479260102E+04  0.15479260102E+04  0.00000000000E+00 0. -1.
         -1   -1    0    0    0  501 -0.00000000000E+00 -0.00000000000E+00 -0.69975171246E+02  0.69975171246E+02  0.00000000000E+00 0.  1.
         23    2    1    2    0    0  0.85069871816E+02  0.13323243398E+03  0.48657598031E+03  0.51801496679E+03  0.81213032480E+02 0.  0.
         23    2    1    2    0    0 -0.15287146498E+03 -0.92537744169E+02  0.10002596066E+04  0.10203120193E+04  0.92652129812E+02 0.  0.
        -11    1    3    3    0    0  0.33093665458E+02  0.16265893664E+02  0.21057681326E+03  0.21378111299E+03  0.00000000000E+00 0. -1.
         11    1    3    3    0    0  0.51976206358E+02  0.11696654032E+03  0.27599916706E+03  0.30423385380E+03  0.00000000000E+00 0.  1.
        -13    1    4    4    0    0 -0.40206281951E+02 -0.75029926798E+02  0.50266805328E+03  0.50982468243E+03  0.00000000000E+00 0. -1.
         13    1    4    4    0    0 -0.11266518303E+03 -0.17507817371E+02  0.49759155334E+03  0.51048733686E+03  0.00000000000E+00 0.  1.
         21    1    1    2  502  501  0.67801593161E+02 -0.40694689814E+02 -0.88847480264E+01  0.79574195326E+02  0.00000000000E+00 0.  1.
<scales pt_clust_5="13000.00000" pt_clust_6="13000.00000" pt_clust_7="13000.00000" pt_clust_8="13000.00000" pt_clust_9="79.07663"></scales>
<clustering>
<clus scale="   79.077">  2  9  1 -1</clus>
<clus scale="   81.213">  5  6 -1 -1</clus>
<clus scale="   92.652">  7  8 -1 -1</clus>
<clus scale="  185.302">  2  5  1 -1</clus>
<clus scale="  190.593">  1  5  2 -1</clus>
</clustering>
</event>
<event>
 9    1  0.1175034E-005  0.2269700E+03  0.7546771E-02  0.1128925E+00
          2   -1    0    0  502    0  0.00000000000E+00  0.00000000000E+00  0.11003943853E+04  0.11003943853E+04  0.00000000000E+00 0. -1.
         -2   -1    0    0    0  501 -0.00000000000E+00 -0.00000000000E+00 -0.56660927735E+02  0.56660927735E+02  0.00000000000E+00 0.  1.
         23    2    1    2    0    0 -0.71007398356E+02 -0.19455140110E+03  0.34802780709E+03  0.41511993202E+03  0.91153196131E+02 0.  0.
         23    2    1    2    0    0  0.50176242191E+02  0.20126138201E+03  0.67320320630E+03  0.71054555932E+03  0.92998041579E+02 0.  0.
        -11    1    4    4    0    0  0.11582829233E+02  0.18511786493E+03  0.55047894553E+03  0.58088712787E+03  0.00000000000E+00 0.  1.
         11    1    4    4    0    0  0.38593412958E+02  0.16143517085E+02  0.12272426076E+03  0.12965843146E+03  0.00000000000E+00 0. -1.
        -11    1    3    3    0    0 -0.69286858465E+02 -0.61061478807E+02  0.12996567126E+03  0.15943728754E+03  0.00000000000E+00 0.  1.
         11    1    3    3    0    0 -0.17205398910E+01 -0.13348992229E+03  0.21806213582E+03  0.25568264449E+03  0.00000000000E+00 0. -1.
         21    1    1    2  502  501  0.20831156165E+02 -0.67099809136E+01  0.22502444153E+02  0.31389821661E+02  0.00000000000E+00 0. -1.
<scales pt_clust_5="13000.00000" pt_clust_6="13000.00000" pt_clust_7="13000.00000" pt_clust_8="13000.00000" pt_clust_9="21.88518"></scales>
<clustering>
<clus scale="   21.885">  2  9  1 -1</clus>
<clus scale="   91.153">  7  8 -1 -1</clus>
<clus scale="   92.998">  5  6 -1 -1</clus>
<clus scale="  226.220">  2  7  1 -1</clus>
<clus scale="  226.970">  1  5  2 -1</clus>
</clustering>
</event>
<event>
 9    1  0.1175034E-005  0.1323925E+03  0.7546771E-02  0.1224415E+00
         -1   -1    0    0    0  501 -0.00000000000E+00  0.00000000000E+00  0.13867946615E+03  0.13867946615E+03  0.00000000000E+00 0.  1.
          1   -1    0    0  502    0  0.00000000000E+00 -0.00000000000E+00 -0.34246231288E+03  0.34246231288E+03  0.00000000000E+00 0. -1.
         23    2    1    2    0    0  0.82481190636E+02 -0.81070085238E+02 -0.62670081124E+01  0.14687073478E+03  0.90311858664E+02 0.  0.
         23    2    1    2    0    0 -0.63198051717E+02  0.64641135310E+02 -0.24698631321E+03  0.27869157233E+03  0.92164437059E+02 0.  0.
        -11    1    4    4    0    0 -0.33461411995E+02  0.15032835434E+02 -0.15046549834E+02  0.39649097037E+02  0.00000000000E+00 0.  1.
         11    1    4    4    0    0 -0.29736639722E+02  0.49608299876E+02 -0.23193976337E+03  0.23904247529E+03  0.00000000000E+00 0. -1.
        -13    1    3    3    0    0  0.35994974224E+02 -0.92067043849E+02 -0.69413224311E+01  0.99096723910E+02  0.00000000000E+00 0.  1.
         13    1    3    3    0    0  0.46486216411E+02  0.10996958611E+02  0.67431431870E+00  0.47774010871E+02  0.00000000000E+00 0. -1.
         21    1    1    2  502  501 -0.19283138919E+02  0.16428949928E+02  0.49470474590E+02  0.55579471916E+02  0.00000000000E+00 0.  1.
<scales pt_clust_5="13000.00000" pt_clust_6="13000.00000" pt_clust_7="13000.00000" pt_clust_8="13000.00000" pt_clust_9="25.33278"></scales>
<clustering>
<clus scale="   25.333">  1  9  2 -1</clus>
<clus scale="   90.312">  7  8 -1 -1</clus>
<clus scale="   92.164">  5  6 -1 -1</clus>
<clus scale="  131.110">  1  7  2 -1</clus>
<clus scale="  132.392">  2  5  1 -1</clus>
</clustering>
</event>
<event>
 9    1  0.1175034E-005  0.1170756E+03  0.7546771E-02  0.1248084E+00
         -2   -1    0    0    0  501 -0.00000000000E+00  0.00000000000E+00  0.24274973918E+03  0.24274973918E+03  0.00000000000E+00 0.  1.
          2   -1    0    0  502    0  0.00000000000E+00 -0.00000000000E+00 -0.47848920559E+03  0.47848920559E+03  0.00000000000E+00 0. -1.
         23    2    1    2    0    0 -0.57952846196E+02 -0.22579078786E+01 -0.16729451251E+03  0.19938927633E+03  0.91678782001E+02 0.  0.
         23    2    1    2    0    0  0.82358546090E+02  0.25883779376E+02 -0.28033951795E+03  0.30724974703E+03  0.91428997463E+02 0.  0.
        -11    1    4    4    0    0  0.53275556228E+02 -0.26929641250E+02 -0.18549703862E+03  0.19486570198E+03  0.00000000000E+00 0. -1.
         11    1    4    4    0    0  0.29082989862E+02  0.52813420627E+02 -0.94842479326E+02  0.11238404505E+03  0.00000000000E+00 0.  1.
        -13    1    3    3    0    0 -0.63963453862E+01 -0.38117906583E+02 -0.31811457352E+02  0.50058534291E+02  0.00000000000E+00 0. -1.
         13    1    3    3    0    0 -0.51556500810E+02  0.35859998704E+02 -0.13548305516E+03  0.14933074204E+03  0.00000000000E+00 0.  1.
         21    1    1    2  502  501 -0.24405699894E+02 -0.23625871498E+02  0.21189456406E+03  0.21459992141E+03  0.00000000000E+00 0.  1.
<scales pt_clust_5="13000.00000" pt_clust_6="13000.00000" pt_clust_7="13000.00000" pt_clust_8="13000.00000" pt_clust_9="33.96793"></scales>
<clustering>
<clus scale="   33.968">  1  9  2 -1</clus>
<clus scale="   91.429">  5  6 -1 -1</clus>
<clus scale="   91.679">  7  8 -1 -1</clus>
<clus scale="  116.880">  2  5  1 -1</clus>
<clus scale="  116.880">  2  5  1 -1</clus>
</clustering>
</event>
<event>
 9    1  0.1175034E-005  0.9081178E+02  0.7546771E-02  0.1304759E+00
         -3   -1    0    0    0  501 -0.00000000000E+00  0.00000000000E+00  0.43420955481E+03  0.43420955481E+03  0.00000000000E+00 0.  1.
          3   -1    0    0  502    0  0.00000000000E+00 -0.00000000000E+00 -0.34158671270E+02  0.34158671270E+02  0.00000000000E+00 0. -1.
         23    2    1    2    0    0  0.18142810395E+02  0.10103954563E+02  0.25059862652E+03  0.26501626136E+03  0.83682111012E+02 0.  0.
         23    2    1    2    0    0  0.24581256847E+02 -0.11032233628E+02  0.89478182681E+02  0.12971028348E+03  0.89958124129E+02 0.  0.
        -13    1    3    3    0    0  0.35527253462E+02 -0.18875524565E+02  0.20108189718E+03  0.20506681969E+03  0.00000000000E+00 0.  1.
         13    1    3    3    0    0 -0.17384443067E+02  0.28979479128E+02  0.49516729344E+02  0.59949441667E+02  0.00000000000E+00 0. -1.
        -13    1    4    4    0    0  0.22483354366E+02 -0.48652624659E+02  0.67134188230E+02  0.85904472172E+02  0.00000000000E+00 0.  1.
         13    1    4    4    0    0  0.20979024809E+01  0.37620391031E+02  0.22343994451E+02  0.43805811305E+02  0.00000000000E+00 0. -1.
         21    1    1    2  502  501 -0.42724067242E+02  0.92827906563E+00  0.59974074332E+02  0.73641681239E+02  0.00000000000E+00 0.  1.
<scales pt_clust_5="13000.00000" pt_clust_6="13000.00000" pt_clust_7="13000.00000" pt_clust_8="13000.00000" pt_clust_9="42.73415"></scales>
<clustering>
<clus scale="   42.734">  2  9  1 -1</clus>
<clus scale="   83.682">  5  6 -1 -1</clus>
<clus scale="   84.599">  1  5  2 -1</clus>
<clus scale="   89.958">  7  8 -1 -1</clus>
<clus scale="   42.734">  2  5  1 -1</clus>
</clustering>
</event>
<event>
 9    1  0.1175034E-005  0.2819133E+03  0.7546771E-02  0.1137936E+00
         -1   -1    0    0    0  501 -0.00000000000E+00  0.00000000000E+00  0.82921732099E+02  0.82921732099E+02  0.00000000000E+00 0.  1.
          1   -1    0    0  502    0  0.00000000000E+00 -0.00000000000E+00 -0.15784106114E+04  0.15784106114E+04  0.00000000000E+00 0. -1.
         23    2    1    2    0    0 -0.26528767472E+03  0.58933716887E+02 -0.93945755605E+03  0.98221757736E+03  0.91214781223E+02 0.  0.
         23    2    1    2    0    0  0.21393805957E+01 -0.25014226855E+02 -0.28282889109E+03  0.29827736587E+03  0.91361462675E+02 0.  0.
        -13    1    4    4    0    0  0.40529135915E+02 -0.10539313941E+02 -0.21472056421E+03  0.21876610498E+03  0.00000000000E+00 0.  1.
         13    1    4    4    0    0 -0.38389755320E+02 -0.14474912914E+02 -0.68108326887E+02  0.79511260892E+02  0.00000000000E+00 0. -1.
        -13    1    3    3    0    0 -0.10017716315E+03  0.43078361055E+01 -0.21582380835E+03  0.23797885982E+03  0.00000000000E+00 0.  1.
         13    1    3    3    0    0 -0.16511051157E+03  0.54625880781E+02 -0.72363374769E+03  0.74423871754E+03  0.00000000000E+00 0. -1.
         21    1    1    2  502  501  0.26314829412E+03 -0.33919490032E+02 -0.27320243217E+03  0.38083740028E+03  0.00000000000E+00 0.  1.
<scales pt_clust_5="13000.00000" pt_clust_6="13000.00000" pt_clust_7="13000.00000" pt_clust_8="13000.00000" pt_clust_9="266.74895"></scales>
<clustering>
<clus scale="   91.215">  7  8 -1 -1</clus>
<clus scale="   91.361">  5  6 -1 -1</clus>
<clus scale="   94.748">  2  5  1 -1</clus>
<clus scale="  266.749">  1  9  2 -1</clus>
<clus scale="   94.748">  2  5  1 -1</clus>
</clustering>
</event>
<event>
 9    1  0.1175034E-005  0.9907553E+02  0.7546771E-02  0.1283054E+00
         -1   -1    0    0    0  501 -0.00000000000E+00  0.00000000000E+00  0.27373729671E+03  0.27373729671E+03  0.00000000000E+00 0.  1.
          1   -1    0    0  502    0  0.00000000000E+00 -0.00000000000E+00 -0.48829760567E+02  0.48829760567E+02  0.00000000000E+00 0. -1.
         23    2    1    2    0    0  0.73456656675E+01 -0.37082519933E+02  0.12210928932E+03  0.15670313144E+03  0.90642819779E+02 0.  0.
         23    2    1    2    0    0  0.21238268626E+02  0.33320097969E+02  0.70941143139E+02  0.12289798381E+03  0.92249529277E+02 0.  0.
        -11    1    4    4    0    0  0.33027009787E+02  0.61178579417E+02  0.55350032855E+02  0.88866349605E+02  0.00000000000E+00 0.  1.
         11    1    4    4    0    0 -0.11788741161E+02 -0.27858481449E+02  0.15591110284E+02  0.34031634205E+02  0.00000000000E+00 0. -1.
        -13    1    3    3    0    0  0.37797845561E+02  0.12077392766E+02  0.59043060989E+02  0.71138060109E+02  0.00000000000E+00 0.  1.
         13    1    3    3    0    0 -0.30452179893E+02 -0.49159912699E+02  0.63066228331E+02  0.85565071336E+02  0.00000000000E+00 0. -1.
         21    1    1    2  502  501 -0.28583934293E+02  0.37624219638E+01  0.31857103681E+02  0.42965942020E+02  0.00000000000E+00 0.  1.
<scales pt_clust_5="13000.00000" pt_clust_6="13000.00000" pt_clust_7="13000.00000" pt_clust_8="13000.00000" pt_clust_9="28.83049"></scales>
<clustering>
<clus scale="   28.830">  1  9  2 -1</clus>
<clus scale="   90.643">  7  8 -1 -1</clus>
<clus scale="   92.250">  5  6 -1 -1</clus>
<clus scale="   97.581">  1  7  2 -1</clus>
<clus scale="   99.076">  2  5  1 -1</clus>
</clustering>
</event>
<event>
 9    1  0.1175034E-005  0.1135882E+03  0.7546771E-02  0.1255925E+00
         -2   -1    0    0    0  501 -0.00000000000E+00  0.00000000000E+00  0.18711918609E+03  0.18711918609E+03  0.00000000000E+00 0.  1.
          2   -1    0    0  502    0  0.00000000000E+00 -0.00000000000E+00 -0.29066268469E+03  0.29066268469E+03  0.00000000000E+00 0. -1.
         23    2    1    2    0    0 -0.28556501373E+02 -0.35401334489E+01 -0.19936157189E+02  0.10072290529E+03  0.94443882659E+02 0.  0.
         23    2    1    2    0    0  0.74842807179E+02 -0.17188764833E+02 -0.21002180354E+03  0.24085057527E+03  0.89459165120E+02 0.  0.
        -11    1    4    4    0    0 -0.16352235922E+02  0.13956378590E+02 -0.40529403628E+02  0.45878193965E+02  0.00000000000E+00 0.  1.
         11    1    4    4    0    0  0.91195043101E+02 -0.31145143423E+02 -0.16949239991E+03  0.19497238130E+03  0.00000000000E+00 0. -1.
        -11    1    3    3    0    0  0.19797532745E+02  0.11911658349E+02 -0.39955693776E+02  0.46155036264E+02  0.00000000000E+00 0. -1.
         11    1    3    3    0    0 -0.48354034118E+02 -0.15451791798E+02  0.20019536587E+02  0.54567869030E+02  0.00000000000E+00 0.  1.
         21    1    1    2  502  501 -0.46286305806E+02  0.20728898282E+02  0.12641446212E+03  0.13620839021E+03  0.00000000000E+00 0.  1.
<scales pt_clust_5="13000.00000" pt_clust_6="13000.00000" pt_clust_7="13000.00000" pt_clust_8="13000.00000" pt_clust_9="50.71597"></scales>
<clustering>
<clus scale="   50.716">  1  9  2 -1</clus>
<clus scale="   89.459">  5  6 -1 -1</clus>
<clus scale="   94.444">  7  8 -1 -1</clus>
<clus scale="  109.479">  2  5  1 -1</clus>
<clus scale="  109.479">  2  5  1 -1</clus>
</clustering>
</event>
<event>
 9    1  0.1175034E-005  0.1215660E+03  0.7546771E-02  0.1240565E+00
         -2   -1    0    0    0  501 -0.00000000000E+00  0.00000000000E+00  0.55808542003E+02  0.55808542003E+02  0.00000000000E+00 0.  1.
          2   -1    0    0  502    0  0.00000000000E+00 -0.00000000000E+00 -0.74005061200E+03  0.74005061200E+03  0.00000000000E+00 0. -1.
         23    2    1    2    0    0  0.17775139900E+02 -0.10138395599E+03 -0.66805410552E+02  0.15250569032E+03  0.90555842269E+02 0.  0.
         23    2    1    2    0    0 -0.14977924056E+02  0.31215010349E+02 -0.22934963188E+03  0.24896400349E+03  0.90460523485E+02 0.  0.
        -11    1    4    4    0    0  0.36592065268E+02  0.25418762685E+02 -0.11743981312E+03  0.12560733435E+03  0.00000000000E+00 0.  1.
         11    1    4    4    0    0 -0.51569989323E+02  0.57962476636E+01 -0.11190981876E+03  0.12335666914E+03  0.00000000000E+00 0. -1.
        -13    1    3    3    0    0 -0.21715302143E+02 -0.28137386226E+02 -0.59062684630E+02  0.68932340498E+02  0.00000000000E+00 0. -1.
         13    1    3    3    0    0  0.39490442044E+02 -0.73246569769E+02 -0.77427259220E+01  0.83573349821E+02  0.00000000000E+00 0.  1.
         21    1    1    2  502  501 -0.27972158448E+01  0.70168945646E+02 -0.38808702757E+03  0.39438946020E+03  0.00000000000E+00 0.  1.
<scales pt_clust_5="13000.00000" pt_clust_6="13000.00000" pt_clust_7="13000.00000" pt_clust_8="13000.00000" pt_clust_9="70.22468"></scales>
<clustering>
<clus scale="   70.225">  2  9  1 -1</clus>
<clus scale="   90.461">  5  6 -1 -1</clus>
<clus scale="   90.556">  7  8 -1 -1</clus>
<clus scale="  121.495">  2  5  1 -1</clus>
<clus scale="   70.225">  2  5  1 -1</clus>
</clustering>
</event>
<event>
 9    1  0.1175034E-005  0.9562509E+02  0.7546771E-02  0.1290839E+00
         -1   -1    0    0    0  501 -0.00000000000E+00  0.00000000000E+00  0.41553878003E+02  0.41553878003E+02  0.00000000000E+00 0.  1.
          1   -1    0    0  502    0  0.00000000000E+00 -0.00000000000E+00 -0.36064818992E+03  0.36064818992E+03  0.00000000000E+00 0. -1.
         23    2    1    2    0    0 -0.30890489500E+02  0.13547564324E+02 -0.88841496391E+02  0.13064463987E+03  0.89651835474E+02 0.  0.
         23    2    1    2    0    0  0.21608039418E+02  0.29360959238E+02 -0.14059130845E+03  0.17172511303E+03  0.91622186925E+02 0.  0.
        -13    1    4    4    0    0 -0.44608313298E+01  0.27175390469E+02 -0.14283795461E+03  0.14546849192E+03  0.00000000000E+00 0. -1.
         13    1    4    4    0    0  0.26068870747E+02  0.21855687692E+01  0.22466461631E+01  0.26256621105E+02  0.00000000000E+00 0.  1.
        -13    1    3    3    0    0 -0.63294169893E+01  0.44071723527E+02 -0.78298156449E+02  0.90072080233E+02  0.00000000000E+00 0. -1.
         13    1    3    3    0    0 -0.24561072511E+02 -0.30524159204E+02 -0.10543339941E+02  0.40572559632E+02  0.00000000000E+00 0.  1.
         21    1    1    2  502  501  0.92824500824E+01 -0.42908523561E+02 -0.89661507074E+02  0.99832315031E+02  0.00000000000E+00 0. -1.
<scales pt_clust_5="13000.00000" pt_clust_6="13000.00000" pt_clust_7="13000.00000" pt_clust_8="13000.00000" pt_clust_9="43.90109"></scales>
<clustering>
<clus scale="   43.901">  2  9  1 -1</clus>
<clus scale="   89.652">  7  8 -1 -1</clus>
<clus scale="   91.622">  5  6 -1 -1</clus>
<clus scale="   93.739">  1  7  2 -1</clus>
<clus scale="   43.901">  2  5  1 -1</clus>
</clustering>
</event>
<event>
 9    1  0.1175034E-005  0.9707614E+02  0.7546771E-02  0.1287259E+00
          1   -1    0    0  502    0  0.00000000000E+00  0.00000000000E+00  0.51874346433E+02  0.51874346433E+02  0.00000000000E+00 0. -1.
         -1   -1    0    0    0  501 -0.00000000000E+00 -0.00000000000E+00 -0.43365701656E+03  0.43365701656E+03  0.00000000000E+00 0.  1.
         23    2    1    2    0    0 -0.20824754937E+02  0.47989026093E+02 -0.11345538982E+03  0.15485012755E+03  0.91486717512E+02 0.  0.
         23    2    1    2    0    0 -0.30704566445E+02 -0.19547630514E+02 -0.60110665021E+02  0.11430576819E+03  0.90153404446E+02 0.  0.
        -11    1    3    3    0    0 -0.26687245964E+02  0.74028879133E+02 -0.84199719117E+02  0.11524789257E+03  0.00000000000E+00 0. -1.
         11    1    3    3    0    0  0.58624910273E+01 -0.26039853040E+02 -0.29255670698E+02  0.39602234980E+02  0.00000000000E+00 0.  1.
        -13    1    4    4    0    0 -0.50111384229E+02 -0.34279689889E+02 -0.65542625870E+02  0.89342508215E+02  0.00000000000E+00 0.  1.
         13    1    4    4    0    0  0.19406817785E+02  0.14732059375E+02  0.54319608482E+01  0.24963259976E+02  0.00000000000E+00 0. -1.
         21    1    1    2  502  501  0.51529321382E+02 -0.28441395579E+02 -0.20821661529E+03  0.21637546725E+03  0.00000000000E+00 0.  1.
<scales pt_clust_5="13000.00000" pt_clust_6="13000.00000" pt_clust_7="13000.00000" pt_clust_8="13000.00000" pt_clust_9="58.85732"></scales>
<clustering>
<clus scale="   58.857">  2  9  1 -1</clus>
<clus scale="   90.153">  7  8 -1 -1</clus>
<clus scale="   91.487">  5  6 -1 -1</clus>
<clus scale="   95.821">  1  7  2 -1</clus>
<clus scale="   95.821">  1  5  2 -1</clus>
</clustering>
</event>
<event>
 9    1  0.1175034E-005  0.1972224E+03  0.7546771E-02  0.1152115E+00
          1   -1    0    0  502    0  0.00000000000E+00  0.00000000000E+00  0.10208913192E+04  0.10208913192E+04  0.00000000000E+00 0. -1.
         -1   -1    0    0    0  501 -0.00000000000E+00 -0.00000000000E+00 -0.10754410804E+03  0.10754410804E+03  0.00000000000E+00 0.  1.
         23    2    1    2    0    0 -0.12513534949E+03 -0.80803564540E+01  0.25194575324E+03  0.29554074468E+03  0.90241461301E+02 0.  0.
         23    2    1    2    0    0  0.22215715914E+03 -0.21238423249E+02  0.68732617095E+03  0.72827674369E+03  0.90359704164E+02 0.  0.
        -13    1    4    4    0    0  0.80084014892E+02  0.23964831720E+02  0.34335778329E+03  0.35338694082E+03  0.00000000000E+00 0. -1.
         13    1    4    4    0    0  0.14207314425E+03 -0.45203254969E+02  0.34396838767E+03  0.37488980286E+03  0.00000000000E+00 0.  1.
        -13    1    3    3    0    0 -0.28017804935E+01  0.22643398961E+02  0.15585956846E+02  0.27631423077E+02  0.00000000000E+00 0.  1.
         13    1    3    3    0    0 -0.12233356900E+03 -0.30723755415E+02  0.23635979639E+03  0.26790932160E+03  0.00000000000E+00 0. -1.
         21    1    1    2  502  501 -0.97021809650E+02  0.29318779703E+02 -0.25924713016E+02  0.10461793888E+03  0.00000000000E+00 0. -1.
<scales pt_clust_5="13000.00000" pt_clust_6="13000.00000" pt_clust_7="13000.00000" pt_clust_8="13000.00000" pt_clust_9="101.35493"></scales>
<clustering>
<clus scale="   90.241">  7  8 -1 -1</clus>
<clus scale="   90.360">  5  6 -1 -1</clus>
<clus scale="  101.355">  2  9  1 -1</clus>
<clus scale="  197.168">  2  7  1 -1</clus>
<clus scale="  197.222">  1  5  2 -1</clus>
</clustering>
</event>
<event>
 9    1  0.1175034E-005  0.9565865E+02  0.7546771E-02  0.1292357E+00
          2   -1    0    0  502    0  0.00000000000E+00  0.00000000000E+00  0.50858966114E+02  0.50858966114E+02  0.00000000000E+00 0. -1.
         -2   -1    0    0    0  501 -0.00000000000E+00 -0.00000000000E+00 -0.48217063589E+03  0.48217063589E+03  0.00000000000E+00 0.  1.
         23    2    1    2    0    0  0.24169145071E+02  0.41938849062E+01 -0.70968603039E+02  0.11569121937E+03  0.88012381964E+02 0.  0.
         23    2    1    2    0    0 -0.80711989897E+01  0.37725091214E+02 -0.67479191606E+02  0.12105204514E+03  0.92799943815E+02 0.  0.
        -11    1    4    4    0    0 -0.46074635134E+02  0.18663669170E+02 -0.11970793490E+02  0.51132225126E+02  0.00000000000E+00 0.  1.
         11    1    4    4    0    0  0.38003436144E+02  0.19061422045E+02 -0.55508398116E+02  0.69919820012E+02  0.00000000000E+00 0. -1.
        -13    1    3    3    0    0  0.24678541721E+02 -0.37869009825E+02 -0.53771585112E+02  0.70245823307E+02  0.00000000000E+00 0. -1.
         13    1    3    3    0    0 -0.50939665001E+00  0.42062894731E+02 -0.17197017926E+02  0.45445396067E+02  0.00000000000E+00 0.  1.
         21    1    1    2  502  501 -0.16097946081E+02 -0.41918976121E+02 -0.29286387513E+03  0.29628633749E+03  0.00000000000E+00 0.  1.
<scales pt_clust_5="13000.00000" pt_clust_6="13000.00000" pt_clust_7="13000.00000" pt_clust_8="13000.00000" pt_clust_9="44.90372"></scales>
<clustering>
<clus scale="   44.904">  2  9  1 -1</clus>
<clus scale="   88.012">  7  8 -1 -1</clus>
<clus scale="   91.022">  2  7  1 -1</clus>
<clus scale="   92.800">  5  6 -1 -1</clus>
<clus scale="   95.659">  1  5  2 -1</clus>
</clustering>
</event>
<event>
 9    1  0.1175034E-005  0.1010908E+03  0.7546771E-02  0.1279097E+00
          1   -1    0    0  502    0  0.00000000000E+00  0.00000000000E+00  0.46586536781E+03  0.46586536781E+03  0.00000000000E+00 0. -1.
         -1   -1    0    0    0  501 -0.00000000000E+00 -0.00000000000E+00 -0.68610350157E+02  0.68610350157E+02  0.00000000000E+00 0.  1.
         23    2    1    2    0    0  0.42495375927E+02 -0.17444014273E+02 -0.37376279383E+01  0.10140291450E+03  0.90324031118E+02 0.  0.
         23    2    1    2    0    0 -0.39623819693E+02 -0.10389644292E+02  0.39014035716E+03  0.40306063013E+03  0.92576354875E+02 0.  0.
        -11    1    4    4    0    0 -0.45686315670E+01 -0.48479523783E+02  0.21405949057E+03  0.21952813516E+03  0.00000000000E+00 0.  1.
         11    1    4    4    0    0 -0.35055188126E+02  0.38089879491E+02  0.17608086658E+03  0.18353249497E+03  0.00000000000E+00 0. -1.
        -13    1    3    3    0    0  0.63913427740E+02 -0.35061386085E+02 -0.80311007895E+01  0.73339795606E+02  0.00000000000E+00 0.  1.
         13    1    3    3    0    0 -0.21418051813E+02  0.17617371811E+02  0.42934728512E+01  0.28063118895E+02  0.00000000000E+00 0. -1.
         21    1    1    2  502  501 -0.28715562335E+01  0.27833658565E+02  0.10852288440E+02  0.30012173342E+02  0.00000000000E+00 0. -1.
<scales pt_clust_5="13000.00000" pt_clust_6="13000.00000" pt_clust_7="13000.00000" pt_clust_8="13000.00000" pt_clust_9="27.98139"></scales>
<clustering>
<clus scale="   27.981">  2  9  1 -1</clus>
<clus scale="   90.324">  7  8 -1 -1</clus>
<clus scale="   92.576">  5  6 -1 -1</clus>
<clus scale="   99.032">  2  7  1 -1</clus>
<clus scale="  101.091">  1  5  2 -1</clus>
</clustering>
</event>
<event>
 9    1  0.1175034E-005  0.4516506E+03  0.7546771E-02  0.1027539E+00
         -1   -1    0    0    0  501 -0.00000000000E+00  0.00000000000E+00  0.41065007363E+03  0.41065007363E+03  0.00000000000E+00 0.  1.
          1   -1    0    0  502    0  0.00000000000E+00 -0.00000000000E+00 -0.72232317491E+03  0.72232317491E+03  0.00000000000E+00 0. -1.
         23    2    1    2    0    0  0.43239398864E+03  0.17874006038E+03  0.79754578722E+02  0.47958524449E+03  0.68765131451E+02 0.  0.
         23    2    1    2    0    0 -0.40675480212E+03 -0.14989142284E+03 -0.41587018862E+03  0.60770378358E+03  0.91863850896E+02 0.  0.
        -11    1    4    4    0    0 -0.18355034814E+03 -0.10092444092E+03 -0.24520919331E+03  0.32249654503E+03  0.00000000000E+00 0.  1.
         11    1    4    4    0    0 -0.22320445398E+03 -0.48966981919E+02 -0.17066099531E+03  0.28520723854E+03  0.00000000000E+00 0. -1.
        -13    1    3    3    0    0  0.19240508450E+02  0.17154204314E+02 -0.87368233231E+01  0.27217567357E+02  0.00000000000E+00 0. -1.
         13    1    3    3    0    0  0.41315348019E+03  0.16158585606E+03  0.88491402045E+02  0.45236767713E+03  0.00000000000E+00 0.  1.
         21    1    1    2  502  501 -0.25639186521E+02 -0.28848637540E+02  0.24442508619E+02  0.45684220481E+02  0.00000000000E+00 0. -1.
<scales pt_clust_5="13000.00000" pt_clust_6="13000.00000" pt_clust_7="13000.00000" pt_clust_8="13000.00000" pt_clust_9="38.59549"></scales>
<clustering>
<clus scale="   38.595">  1  9  2 -1</clus>
<clus scale="   68.765">  7  8 -1 -1</clus>
<clus scale="   91.864">  5  6 -1 -1</clus>
<clus scale="  447.524">  1  7  2 -1</clus>
<clus scale="  451.651">  2  5  1 -1</clus>
</clustering>
</event>
<event>
 9    1  0.1175034E-005  0.1055205E+03  0.7546771E-02  0.1271636E+00
         -1   -1    0    0    0  501 -0.00000000000E+00  0.00000000000E+00  0.35469802528E+03  0.35469802528E+03  0.00000000000E+00 0.  1.
          1   -1    0    0  502    0  0.00000000000E+00 -0.00000000000E+00 -0.22930051870E+03  0.22930051870E+03  0.00000000000E+00 0. -1.
         23    2    1    2    0    0  0.66301263841E+02  0.29973991374E+02  0.10412677907E+03  0.15602623988E+03  0.90595273970E+02 0.  0.
         23    2    1    2    0    0  0.26681186044E+02 -0.41124376318E+02 -0.17778522392E+03  0.20798744356E+03  0.96166994449E+02 0.  0.
        -11    1    3    3    0    0 -0.12476986342E+02  0.35076545353E+02  0.34868448982E+02  0.51008312621E+02  0.00000000000E+00 0.  1.
         11    1    3    3    0    0  0.78778250183E+02 -0.51025539790E+01  0.69258330088E+02  0.10501792726E+03  0.00000000000E+00 0. -1.
        -13    1    4    4    0    0  0.90219099486E+01 -0.52306078276E+02 -0.17933824166E+03  0.18702814121E+03  0.00000000000E+00 0. -1.
         13    1    4    4    0    0  0.17659276095E+02  0.11181701958E+02  0.15530177455E+01  0.20959302350E+02  0.00000000000E+00 0.  1.
         21    1    1    2  502  501 -0.92982449885E+02  0.11150384943E+02  0.19905595142E+03  0.21998486054E+03  0.00000000000E+00 0.  1.
<scales pt_clust_5="13000.00000" pt_clust_6="13000.00000" pt_clust_7="13000.00000" pt_clust_8="13000.00000" pt_clust_9="93.64864"></scales>
<clustering>
<clus scale="   90.595">  5  6 -1 -1</clus>
<clus scale="   93.649">  1  9  2 -1</clus>
<clus scale="   96.167">  7  8 -1 -1</clus>
<clus scale="  100.469">  1  5  2 -1</clus>
<clus scale="  105.520">  2  5  1 -1</clus>
</clustering>
</event>
<event>
 9    1  0.1175034E-005  0.1400022E+03  0.7546771E-02  0.1214166E+00
         -1   -1    0    0    0  501 -0.00000000000E+00  0.00000000000E+00  0.48798970337E+03  0.48798970337E+03  0.00000000000E+00 0.  1.
          1   -1    0    0  502    0  0.00000000000E+00 -0.00000000000E+00 -0.11548609607E+03  0.11548609607E+03  0.00000000000E+00 0. -1.
         23    2    1    2    0    0  0.41779283267E+01 -0.13071737156E+03  0.21830111335E+03  0.26880827678E+03  0.86591150004E+02 0.  0.
         23    2    1    2    0    0  0.28249799907E+02  0.98704228901E+02 -0.34021871043E+02  0.14100593525E+03  0.90468834789E+02 0.  0.
        -11    1    3    3    0    0  0.42313606633E+02 -0.65713167512E+02  0.83513505841E+02  0.11438167401E+03  0.00000000000E+00 0. -1.
         11    1    3    3    0    0 -0.38135678306E+02 -0.65004204049E+02  0.13478760751E+03  0.15442660277E+03  0.00000000000E+00 0.  1.
        -13    1    4    4    0    0  0.55397686664E+02  0.55602376625E+02 -0.42670305052E+02  0.89338026099E+02  0.00000000000E+00 0. -1.
         13    1    4    4    0    0 -0.27147886757E+02  0.43101852276E+02  0.86484340090E+01  0.51667909148E+02  0.00000000000E+00 0.  1.
         21    1    1    2  502  501 -0.32427728234E+02  0.32013142660E+02  0.18822436500E+03  0.19366158742E+03  0.00000000000E+00 0.  1.
<scales pt_clust_5="13000.00000" pt_clust_6="13000.00000" pt_clust_7="13000.00000" pt_clust_8="13000.00000" pt_clust_9="45.56752"></scales>
<clustering>
<clus scale="   45.568">  1  9  2 -1</clus>
<clus scale="   86.591">  5  6 -1 -1</clus>
<clus scale="   90.469">  7  8 -1 -1</clus>
<clus scale="  137.528">  1  5  2 -1</clus>
<clus scale="  140.002">  2  5  1 -1</clus>
</clustering>
</event>
<event>
 9    1  0.1175034E-005  0.9975708E+02  0.7546771E-02  0.1282400E+00
          1   -1    0    0  502    0  0.00000000000E+00  0.00000000000E+00  0.45966870337E+03  0.45966870337E+03  0.00000000000E+00 0. -1.
         -1   -1    0    0    0  501 -0.00000000000E+00 -0.00000000000E+00 -0.44221901863E+02  0.44221901863E+02  0.00000000000E+00 0.  1.
         23    2    1    2    0    0  0.30063457389E+02  0.50391789296E+02  0.13416691076E+03  0.17290007142E+03  0.91926768989E+02 0.  0.
         23    2    1    2    0    0 -0.13850560629E+02 -0.27817742876E+02  0.28753373396E+03  0.30250270925E+03  0.88693720712E+02 0.  0.
        -11    1    4    4    0    0  0.28226064995E+02  0.14652954931E+02  0.69677858736E+02  0.76592583397E+02  0.00000000000E+00 0. -1.
         11    1    4    4    0    0 -0.42076625625E+02 -0.42470697807E+02  0.21785587522E+03  0.22591012586E+03  0.00000000000E+00 0.  1.
        -13    1    3    3    0    0  0.34196124755E+02 -0.95448289641E+01  0.94391524673E+02  0.10084760105E+03  0.00000000000E+00 0.  1.
         13    1    3    3    0    0 -0.41326673663E+01  0.59936618260E+02  0.39775386087E+02  0.72052470370E+02  0.00000000000E+00 0. -1.
         21    1    1    2  502  501 -0.16212896760E+02 -0.22574046420E+02 -0.62538432091E+01  0.28487824557E+02  0.00000000000E+00 0.  1.
<scales pt_clust_5="13000.00000" pt_clust_6="13000.00000" pt_clust_7="13000.00000" pt_clust_8="13000.00000" pt_clust_9="27.79291"></scales>
<clustering>
<clus scale="   27.793">  2  9  1 -1</clus>
<clus scale="   88.694">  5  6 -1 -1</clus>
<clus scale="   91.927">  7  8 -1 -1</clus>
<clus scale="   96.786">  1  5  2 -1</clus>
<clus scale="   96.786">  1  5  2 -1</clus>
</clustering>
</event>
<event>
 9    1  0.1175034E-005  0.1471598E+03  0.7546771E-02  0.1204871E+00
          1   -1    0    0  502    0  0.00000000000E+00  0.00000000000E+00  0.32508267874E+03  0.32508267874E+03  0.00000000000E+00 0. -1.
         -1   -1    0    0    0  501 -0.00000000000E+00 -0.00000000000E+00 -0.98856859536E+02  0.98856859536E+02  0.00000000000E+00 0.  1.
         23    2    1    2    0    0 -0.92042899994E+02 -0.88256077684E+02  0.10067776866E+03  0.18381750387E+03  0.85975757853E+02 0.  0.
         23    2    1    2    0    0  0.10651878633E+03  0.34561931472E+02  0.11325449694E+03  0.18316815760E+03  0.90461118359E+02 0.  0.
        -11    1    3    3    0    0 -0.24956337168E+02 -0.74032911230E+02  0.80852985461E+02  0.11243173915E+03  0.00000000000E+00 0. -1.
         11    1    3    3    0    0 -0.67086562825E+02 -0.14223166454E+02  0.19824783200E+02  0.71385764720E+02  0.00000000000E+00 0.  1.
        -11    1    4    4    0    0  0.82819650807E+02  0.24798797102E+02  0.12734562307E+03  0.15391875329E+03  0.00000000000E+00 0.  1.
         11    1    4    4    0    0  0.23699135521E+02  0.97631343706E+01 -0.14091126133E+02  0.29249404317E+02  0.00000000000E+00 0. -1.
         21    1    1    2  502  501 -0.14475886335E+02  0.53694146212E+02  0.12293553601E+02  0.56953876802E+02  0.00000000000E+00 0.  1.
<scales pt_clust_5="13000.00000" pt_clust_6="13000.00000" pt_clust_7="13000.00000" pt_clust_8="13000.00000" pt_clust_9="55.61126"></scales>
<clustering>
<clus scale="   55.611">  2  9  1 -1</clus>
<clus scale="   85.976">  5  6 -1 -1</clus>
<clus scale="   90.461">  7  8 -1 -1</clus>
<clus scale="  144.446">  2  5  1 -1</clus>
<clus scale="  147.160">  1  5  2 -1</clus>
</clustering>
</event>
<event>
 9    1  0.1175034E-005  0.1033431E+03  0.7546771E-02  0.1275185E+00
          1   -1    0    0  502    0  0.00000000000E+00  0.00000000000E+00  0.22952347481E+03  0.22952347481E+03  0.00000000000E+00 0. -1.
         -1   -1    0    0    0  501 -0.00000000000E+00 -0.00000000000E+00 -0.44846920154E+03  0.44846920154E+03  0.00000000000E+00 0.  1.
         23    2    1    2    0    0  0.29543146198E+02 -0.11571052927E+02 -0.11691278600E+03  0.14853698698E+03  0.85953186192E+02 0.  0.
         23    2    1    2    0    0  0.35941664342E+02 -0.46902520128E+02  0.19336270048E+03  0.22129014294E+03  0.89936331884E+02 0.  0.
        -11    1    4    4    0    0 -0.23915835082E+02 -0.31341414678E+02  0.41126371280E+02  0.56970429666E+02  0.00000000000E+00 0.  1.
         11    1    4    4    0    0  0.59857499424E+02 -0.15561105450E+02  0.15223632920E+03  0.16431971327E+03  0.00000000000E+00 0. -1.
        -13    1    3    3    0    0  0.11561093140E+02 -0.34777844105E+02 -0.10463650149E+02  0.38113584056E+02  0.00000000000E+00 0.  1.
         13    1    3    3    0    0  0.17982053057E+02  0.23206791178E+02 -0.10644913585E+03  0.11042340292E+03  0.00000000000E+00 0. -1.
         21    1    1    2  502  501 -0.65484810540E+02  0.58473573055E+02 -0.29539564122E+03  0.30816554643E+03  0.00000000000E+00 0.  1.
<scales pt_clust_5="13000.00000" pt_clust_6="13000.00000" pt_clust_7="13000.00000" pt_clust_8="13000.00000" pt_clust_9="87.79191"></scales>
<clustering>
<clus scale="   85.953">  7  8 -1 -1</clus>
<clus scale="   87.792">  2  9  1 -1</clus>
<clus scale="   89.936">  5  6 -1 -1</clus>
<clus scale="   99.896">  2  7  1 -1</clus>
<clus scale="  103.343">  1  5  2 -1</clus>
</clustering>
</event>
<event>
 9    1  0.1175034E-005  0.1925686E+03  0.7546771E-02  0.1156568E+00
          2   -1    0    0  502    0  0.00000000000E+00  0.00000000000E+00  0.89737277383E+03  0.89737277383E+03  0.00000000000E+00 0. -1.
         -2   -1    0    0    0  501 -0.00000000000E+00 -0.00000000000E+00 -0.86520834099E+02  0.86520834099E+02  0.00000000000E+00 0.  1.
         23    2    1    2    0    0 -0.12650319388E+02 -0.14048520683E+03  0.57631543305E+02  0.17849586131E+03  0.92969101338E+02 0.  0.
         23    2    1    2    0    0  0.29620661859E+02  0.17199306280E+03  0.74266230387E+03  0.76808540509E+03  0.89156573888E+02 0.  0.
        -11    1    3    3    0    0  0.30560748663E+02 -0.11308700197E+03  0.32953911950E+02  0.12169054887E+03  0.00000000000E+00 0.  1.
         11    1    3    3    0    0 -0.43211068051E+02 -0.27398204859E+02  0.24677631356E+02  0.56805312436E+02  0.00000000000E+00 0. -1.
        -11    1    4    4    0    0  0.52811653075E+02  0.16245441286E+03  0.65471805623E+03  0.67663597311E+03  0.00000000000E+00 0. -1.
         11    1    4    4    0    0 -0.23190991217E+02  0.95386499367E+01  0.87944247642E+02  0.91449431980E+02  0.00000000000E+00 0.  1.
         21    1    1    2  502  501 -0.16970342471E+02 -0.31507855974E+02  0.10558092557E+02  0.37312341525E+02  0.00000000000E+00 0. -1.
<scales pt_clust_5="13000.00000" pt_clust_6="13000.00000" pt_clust_7="13000.00000" pt_clust_8="13000.00000" pt_clust_9="35.78739"></scales>
<clustering>
<clus scale="   35.787">  2  9  1 -1</clus>
<clus scale="   89.157">  7  8 -1 -1</clus>
<clus scale="   92.969">  5  6 -1 -1</clus>
<clus scale="  190.757">  1  7  2 -1</clus>
<clus scale="  190.757">  1  5  2 -1</clus>
</clustering>
</event>
<event>
 9    1  0.1175034E-005  0.9574107E+02  0.7546771E-02  0.1291411E+00
         -2   -1    0    0    0  501 -0.00000000000E+00  0.00000000000E+00  0.13299418929E+03  0.13299418929E+03  0.00000000000E+00 0.  1.
          2   -1    0    0  502    0  0.00000000000E+00 -0.00000000000E+00 -0.91328372053E+02  0.91328372053E+02  0.00000000000E+00 0. -1.
         23    2    1    2    0    0  0.24868375316E+01 -0.64673585980E+01  0.42099346873E+02  0.99732437975E+02  0.90145399712E+02 0.  0.
         23    2    1    2    0    0 -0.12779105622E+02  0.25192757800E+02 -0.14789928021E+02  0.98847599554E+02  0.93563483158E+02 0.  0.
        -13    1    4    4    0    0  0.45970272015E+01  0.47930728846E+02 -0.38527043892E+02  0.61667013369E+02  0.00000000000E+00 0.  1.
         13    1    4    4    0    0 -0.17376132823E+02 -0.22737971046E+02  0.23737115871E+02  0.37180586185E+02  0.00000000000E+00 0. -1.
        -13    1    3    3    0    0  0.35870166447E+02 -0.32185394888E+02  0.24514101528E+02  0.54069489166E+02  0.00000000000E+00 0.  1.
         13    1    3    3    0    0 -0.33383328915E+02  0.25718036290E+02  0.17585245346E+02  0.45662948809E+02  0.00000000000E+00 0. -1.
         21    1    1    2  502  501  0.10292268090E+02 -0.18725399202E+02  0.14356398386E+02  0.25742523814E+02  0.00000000000E+00 0. -1.
<scales pt_clust_5="13000.00000" pt_clust_6="13000.00000" pt_clust_7="13000.00000" pt_clust_8="13000.00000" pt_clust_9="21.36753"></scales>
<clustering>
<clus scale="   21.368">  1  9  2 -1</clus>
<clus scale="   90.145">  7  8 -1 -1</clus>
<clus scale="   92.404">  1  7  2 -1</clus>
<clus scale="   93.563">  5  6 -1 -1</clus>
<clus scale="   95.741">  2  5  1 -1</clus>
</clustering>
</event>
<event>
 9    1  0.1349582E-005  0.1733709E+03  0.7546771E-02  0.1174721E+00
          3   -1    0    0  502    0  0.00000000000E+00  0.00000000000E+00  0.23273530413E+03  0.23273530413E+03  0.00000000000E+00 0. -1.
         -3   -1    0    0    0  501 -0.00000000000E+00 -0.00000000000E+00 -0.23816164072E+03  0.23816164072E+03  0.00000000000E+00 0.  1.
         23    2    1    2    0    0  0.77149910300E+02 -0.10669747999E+03 -0.13903387646E+03  0.21251424158E+03  0.92170619904E+02 0.  0.
         23    2    1    2    0    0 -0.63449076819E+02  0.13699281962E+03  0.13996853547E+03  0.22453033694E+03  0.89609504563E+02 0.  0.
        -11    1    4    4    0    0 -0.43004673731E+02  0.39804395055E+02  0.76643150931E+01  0.59097661157E+02  0.00000000000E+00 0.  1.
         11    1    4    4    0    0 -0.20444403089E+02  0.97188424562E+02  0.13230422038E+03  0.16543267578E+03  0.00000000000E+00 0. -1.
        -11    1    3    3    0    0  0.97856517684E+02 -0.94784789349E+02 -0.11137508889E+03  0.17596722641E+03  0.00000000000E+00 0.  1.
         11    1    3    3    0    0 -0.20706607384E+02 -0.11912690640E+02 -0.27658787571E+02  0.36547015166E+02  0.00000000000E+00 0. -1.
         21    1    1    2  502  501 -0.13700833481E+02 -0.30295339628E+02 -0.63609956049E+01  0.33852366333E+02  0.00000000000E+00 0. -1.
<scales pt_clust_5="13000.00000" pt_clust_6="13000.00000" pt_clust_7="13000.00000" pt_clust_8="13000.00000" pt_clust_9="33.24937"></scales>
<clustering>
<clus scale="   33.249">  2  9  1 -1</clus>
<clus scale="   89.610">  5  6 -1 -1</clus>
<clus scale="   92.171">  7  8 -1 -1</clus>
<clus scale="  172.023">  1  5  2 -1</clus>
<clus scale="  172.023">  1  5  2 -1</clus>
</clustering>
</event>
<event>
 9    1  0.1175034E-005  0.1097546E+03  0.7546771E-02  0.1268556E+00
         -3   -1    0    0    0  501 -0.00000000000E+00  0.00000000000E+00  0.41418209840E+03  0.41418209840E+03  0.00000000000E+00 0.  1.
          3   -1    0    0  502    0  0.00000000000E+00 -0.00000000000E+00 -0.35855404006E+02  0.35855404006E+02  0.00000000000E+00 0. -1.
         23    2    1    2    0    0  0.54363589768E+02  0.81575532237E+01  0.15967833142E+03  0.19216384138E+03  0.91694202891E+02 0.  0.
         23    2    1    2    0    0 -0.64469934024E+02  0.16282462555E+02  0.11848807867E+03  0.15428053810E+03  0.73086036068E+02 0.  0.
        -11    1    3    3    0    0  0.30437094951E+02  0.42052541781E+02  0.13316738366E+03  0.14292790172E+03  0.00000000000E+00 0.  1.
         11    1    3    3    0    0  0.23926494816E+02 -0.33894988557E+02  0.26510947758E+02  0.49235939663E+02  0.00000000000E+00 0. -1.
        -13    1    4    4    0    0 -0.23785973037E+02 -0.18801799565E+02  0.78965725993E+01  0.31331071463E+02  0.00000000000E+00 0. -1.
         13    1    4    4    0    0 -0.40683960987E+02  0.35084262120E+02  0.11059150607E+03  0.12294946663E+03  0.00000000000E+00 0.  1.
         21    1    1    2  502  501  0.10106344257E+02 -0.24440015779E+02  0.10016028430E+03  0.10359312292E+03  0.00000000000E+00 0.  1.
<scales pt_clust_5="13000.00000" pt_clust_6="13000.00000" pt_clust_7="13000.00000" pt_clust_8="13000.00000" pt_clust_9="26.44717"></scales>
<clustering>
<clus scale="   26.447">  1  9  2 -1</clus>
<clus scale="   73.086">  7  8 -1 -1</clus>
<clus scale="   91.694">  5  6 -1 -1</clus>
<clus scale="   94.762">  2  7  1 -1</clus>
<clus scale="   94.762">  2  5  1 -1</clus>
</clustering>
</event>
<event>
 9    1  0.1175034E-005  0.1194506E+03  0.7546771E-02  0.1245121E+00
          3   -1    0    0  502    0  0.00000000000E+00  0.00000000000E+00  0.14766830479E+03  0.14766830479E+03  0.00000000000E+00 0. -1.
         -3   -1    0    0    0  501 -0.00000000000E+00 -0.00000000000E+00 -0.19151094957E+03  0.19151094957E+03  0.00000000000E+00 0.  1.
         23    2    1    2    0    0  0.56472962261E+02 -0.12047266014E+02 -0.10511921390E+03  0.15028749025E+03  0.90564609582E+02 0.  0.
         23    2    1    2    0    0 -0.77393575935E+02  0.66038493303E+01  0.91006323226E+02  0.15213362024E+03  0.93963349859E+02 0.  0.
        -11    1    3    3    0    0  0.31477913034E+01  0.24921092580E+02  0.18390286253E+01  0.25186335020E+02  0.00000000000E+00 0. -1.
         11    1    3    3    0    0  0.53325170958E+02 -0.36968358594E+02 -0.10695824253E+03  0.12510115523E+03  0.00000000000E+00 0.  1.
        -13    1    4    4    0    0  0.21777090761E+02 -0.30477561078E+01  0.20583066305E+02  0.30119646708E+02  0.00000000000E+00 0.  1.
         13    1    4    4    0    0 -0.99170666696E+02  0.96516054382E+01  0.70423256921E+02  0.12201397353E+03  0.00000000000E+00 0. -1.
         21    1    1    2  502  501  0.20920613674E+02  0.54434166837E+01 -0.29729754100E+02  0.36758143867E+02  0.00000000000E+00 0.  1.
<scales pt_clust_5="13000.00000" pt_clust_6="13000.00000" pt_clust_7="13000.00000" pt_clust_8="13000.00000" pt_clust_9="21.61719"></scales>
<clustering>
<clus scale="   21.617">  2  9  1 -1</clus>
<clus scale="   90.565">  5  6 -1 -1</clus>
<clus scale="   93.963">  7  8 -1 -1</clus>
<clus scale="  116.796">  2  5  1 -1</clus>
<clus scale="  119.451">  1  5  2 -1</clus>
</clustering>
</event>
<event>
 9    1  0.1175034E-005  0.1193024E+03  0.7546771E-02  0.1245306E+00
          2   -1    0    0  502    0  0.00000000000E+00  0.00000000000E+00  0.36295827977E+02  0.36295827977E+02  0.00000000000E+00 0. -1.
         -2   -1    0    0    0  501 -0.00000000000E+00 -0.00000000000E+00 -0.58919336435E+03  0.58919336435E+03  0.00000000000E+00 0.  1.
         23    2    1    2    0    0  0.85142106690E+02  0.19168495949E+02 -0.20362883019E+03  0.24089107458E+03  0.94589638730E+02 0.  0.
         23    2    1    2    0    0 -0.56850198576E+02 -0.22490413700E+02 -0.16595493582E+03  0.19908422176E+03  0.91409643065E+02 0.  0.
        -11    1    4    4    0    0 -0.72892190383E+02 -0.39858129874E+02 -0.14670809290E+03  0.16859776529E+03  0.00000000000E+00 0.  1.
         11    1    4    4    0    0  0.16041991808E+02  0.17367716174E+02 -0.19246842918E+02  0.30486456478E+02  0.00000000000E+00 0. -1.
        -11    1    3    3    0    0 -0.63656541054E+01 -0.22105125193E+02 -0.70489214250E+02  0.74147740610E+02  0.00000000000E+00 0.  1.
         11    1    3    3    0    0  0.91507760796E+02  0.41273621142E+02 -0.13313961594E+03  0.16674333397E+03  0.00000000000E+00 0. -1.
         21    1    1    2  502  501 -0.28291908115E+02  0.33219177508E+01 -0.18331377036E+03  0.18551389599E+03  0.00000000000E+00 0.  1.
<scales pt_clust_5="13000.00000" pt_clust_6="13000.00000" pt_clust_7="13000.00000" pt_clust_8="13000.00000" pt_clust_9="28.48626"></scales>
<clustering>
<clus scale="   28.486">  2  9  1 -1</clus>
<clus scale="   91.410">  5  6 -1 -1</clus>
<clus scale="   94.590">  7  8 -1 -1</clus>
<clus scale="  116.797">  1  5  2 -1</clus>
<clus scale="  116.797">  1  5  2 -1</clus>
</clustering>
</event>
<event>
 9    1  0.1175034E-005  0.1719399E+03  0.7546771E-02  0.1197445E+00
          2   -1    0    0  502    0  0.00000000000E+00  0.00000000000E+00  0.29067429279E+03  0.29067429279E+03  0.00000000000E+00 0. -1.
         -2   -1    0    0    0  501 -0.00000000000E+00 -0.00000000000E+00 -0.20011641959E+03  0.20011641959E+03  0.00000000000E+00 0.  1.
         23    2    1    2    0    0  0.47912953969E+02  0.23364385702E+02 -0.52872625896E+02  0.11879120358E+03  0.92055905853E+02 0.  0.
         23    2    1    2    0    0 -0.11913492299E+03 -0.11318275553E+03  0.17117063872E+03  0.25406128862E+03  0.90798043967E+02 0.  0.
        -11    1    3    3    0    0  0.41406904099E+02 -0.22067073594E+02  0.23596317267E+01  0.46979307210E+02  0.00000000000E+00 0.  1.
         11    1    3    3    0    0  0.65060498703E+01  0.45431459296E+02 -0.55232257623E+02  0.71811896374E+02  0.00000000000E+00 0. -1.
        -11    1    4    4    0    0 -0.50131764827E+02 -0.13541717338E+02  0.10795158011E+02  0.53038734804E+02  0.00000000000E+00 0.  1.
         11    1    4    4    0    0 -0.69003158167E+02 -0.99641038192E+02  0.16037548071E+03  0.20102255382E+03  0.00000000000E+00 0. -1.
         21    1    1    2  502  501  0.71221969026E+02  0.89818369828E+02 -0.27740139632E+02  0.11793822017E+03  0.00000000000E+00 0.  1.
<scales pt_clust_5="13000.00000" pt_clust_6="13000.00000" pt_clust_7="13000.00000" pt_clust_8="13000.00000" pt_clust_9="146.01048"></scales>
<clustering>
<clus scale="   90.798">  7  8 -1 -1</clus>
<clus scale="   92.056">  5  6 -1 -1</clus>
<clus scale="  106.376">  2  5  1 -1</clus>
<clus scale="  146.010">  2  9  1 -1</clus>
<clus scale="  171.940">  1  5  2 -1</clus>
</clustering>
</event>
<event>
 9    1  0.1175034E-005  0.1147112E+03  0.7546771E-02  0.1253747E+00
          2   -1    0    0  502    0  0.00000000000E+00  0.00000000000E+00  0.70921604411E+02  0.70921604411E+02  0.00000000000E+00 0. -1.
         -2   -1    0    0    0  501 -0.00000000000E+00 -0.00000000000E+00 -0.28943862280E+03  0.28943862280E+03  0.00000000000E+00 0.  1.
         23    2    1    2    0    0  0.12299779860E+02 -0.51442868267E+02 -0.18114097617E+03  0.21070324869E+03  0.93734478621E+02 0.  0.
         23    2    1    2    0    0 -0.30239116924E+02  0.63773201295E+02 -0.92225126460E+01  0.11406936615E+03  0.89136637573E+02 0.  0.
        -13    1    4    4    0    0  0.19214504170E+02  0.48909079202E+02  0.18187476090E+02  0.55606469817E+02  0.00000000000E+00 0. -1.
         13    1    4    4    0    0 -0.49453621093E+02  0.14864122093E+02 -0.27409988736E+02  0.58462896330E+02  0.00000000000E+00 0.  1.
        -13    1    3    3    0    0 -0.29363494145E+02  0.11987778261E+02 -0.55344759764E+02  0.63788431940E+02  0.00000000000E+00 0. -1.
         13    1    3    3    0    0  0.41663274005E+02 -0.63430646528E+02 -0.12579621640E+03  0.14691481675E+03  0.00000000000E+00 0.  1.
         21    1    1    2  502  501  0.17939337064E+02 -0.12330333028E+02 -0.28153529578E+02  0.35587612375E+02  0.00000000000E+00 0. -1.
<scales pt_clust_5="13000.00000" pt_clust_6="13000.00000" pt_clust_7="13000.00000" pt_clust_8="13000.00000" pt_clust_9="21.76826"></scales>
<clustering>
<clus scale="   21.768">  2  9  1 -1</clus>
<clus scale="   89.137">  5  6 -1 -1</clus>
<clus scale="   93.734">  7  8 -1 -1</clus>
<clus scale="  110.986">  1  5  2 -1</clus>
<clus scale="  110.986">  1  5  2 -1</clus>
</clustering>
</event>
<event>
 9    1  0.1175034E-005  0.1533941E+03  0.7546771E-02  0.1196578E+00
          1   -1    0    0  502    0  0.00000000000E+00  0.00000000000E+00  0.11963550675E+03  0.11963550675E+03  0.00000000000E+00 0. -1.
         -1   -1    0    0    0  501 -0.00000000000E+00 -0.00000000000E+00 -0.25454230590E+03  0.25454230590E+03  0.00000000000E+00 0.  1.
         23    2    1    2    0    0 -0.86659671754E+02 -0.90443162664E+02 -0.53494263296E+02  0.16483008016E+03  0.92830246893E+02 0.  0.
         23    2    1    2    0    0  0.10342496193E+03  0.63227700723E+02 -0.40194326287E+02  0.15718743032E+03  0.91639726618E+02 0.  0.
        -11    1    4    4    0    0  0.46678850955E+01 -0.21373423548E+02 -0.71350268027E+01  0.23011323146E+02  0.00000000000E+00 0.  1.
         11    1    4    4    0    0  0.98757076837E+02  0.84601124272E+02 -0.33059299485E+02  0.13417610717E+03  0.00000000000E+00 0. -1.
        -13    1    3    3    0    0 -0.73916271948E+02 -0.10814740273E+03 -0.33431145537E+02  0.13519288985E+03  0.00000000000E+00 0.  1.
         13    1    3    3    0    0 -0.12743399806E+02  0.17704240064E+02 -0.20063117759E+02  0.29637190303E+02  0.00000000000E+00 0. -1.
         21    1    1    2  502  501 -0.16765290179E+02  0.27215461940E+02 -0.41218209562E+02  0.52160302174E+02  0.00000000000E+00 0.  1.
<scales pt_clust_5="13000.00000" pt_clust_6="13000.00000" pt_clust_7="13000.00000" pt_clust_8="13000.00000" pt_clust_9="31.96492"></scales>
<clustering>
<clus scale="   31.965">  2  9  1 -1</clus>
<clus scale="   91.640">  5  6 -1 -1</clus>
<clus scale="   92.830">  7  8 -1 -1</clus>
<clus scale="  152.677">  1  5  2 -1</clus>
<clus scale="  152.677">  1  5  2 -1</clus>
</clustering>
</event>
<event>
 9    1  0.1175034E-005  0.2755682E+03  0.7546771E-02  0.1098292E+00
         -1   -1    0    0    0  501 -0.00000000000E+00  0.00000000000E+00  0.62127133868E+03  0.62127133868E+03  0.00000000000E+00 0.  1.
          1   -1    0    0  502    0  0.00000000000E+00 -0.00000000000E+00 -0.41294168773E+03  0.41294168773E+03  0.00000000000E+00 0. -1.
         23    2    1    2    0    0  0.97861637647E+02 -0.23036787071E+03  0.11911592748E+03  0.29092020849E+03  0.88315952977E+02 0.  0.
         23    2    1    2    0    0 -0.15975831641E+03  0.21068659959E+03 -0.26364722082E+03  0.38450402590E+03  0.91771051950E+02 0.  0.
        -13    1    4    4    0    0 -0.37110823420E+02  0.91767987630E+02 -0.49831204575E+02  0.11082294761E+03  0.00000000000E+00 0.  1.
         13    1    4    4    0    0 -0.12264749299E+03  0.11891861196E+03 -0.21381601624E+03  0.27368107828E+03  0.00000000000E+00 0. -1.
        -13    1    3    3    0    0  0.41227188826E+02 -0.12321545705E+03  0.14354660128E+02  0.13072025941E+03  0.00000000000E+00 0.  1.
         13    1    3    3    0    0  0.56634448822E+02 -0.10715241366E+03  0.10476126735E+03  0.16019994908E+03  0.00000000000E+00 0. -1.
         21    1    1    2  502  501  0.61896678758E+02  0.19681271119E+02  0.35286094429E+03  0.35878879202E+03  0.00000000000E+00 0.  1.
<scales pt_clust_5="13000.00000" pt_clust_6="13000.00000" pt_clust_7="13000.00000" pt_clust_8="13000.00000" pt_clust_9="64.95038"></scales>
<clustering>
<clus scale="   64.950">  1  9  2 -1</clus>
<clus scale="   88.316">  7  8 -1 -1</clus>
<clus scale="   91.771">  5  6 -1 -1</clus>
<clus scale="  274.437">  1  7  2 -1</clus>
<clus scale="  275.568">  2  5  1 -1</clus>
</clustering>
</event>
<event>
 9    1  0.1175034E-005  0.9220205E+02  0.7546771E-02  0.1297864E+00
         -2   -1    0    0    0  501 -0.00000000000E+00  0.00000000000E+00  0.18126040935E+03  0.18126040935E+03  0.00000000000E+00 0.  1.
          2   -1    0    0  502    0  0.00000000000E+00 -0.00000000000E+00 -0.75190751866E+02  0.75190751866E+02  0.00000000000E+00 0. -1.
         23    2    1    2    0    0 -0.86002291630E+01  0.18520770575E+02  0.27770240029E+02  0.97003219228E+02  0.90672241756E+02 0.  0.
         23    2    1    2    0    0  0.20979270265E+02  0.30541689016E+01  0.18264346726E+02  0.94463879408E+02  0.90224056786E+02 0.  0.
        -11    1    4    4    0    0  0.39466228936E+02 -0.26823764737E+02  0.31211099943E+02  0.57019561037E+02  0.00000000000E+00 0.  1.
         11    1    4    4    0    0 -0.18486958671E+02  0.29877933639E+02 -0.12946753217E+02  0.37444318372E+02  0.00000000000E+00 0. -1.
        -13    1    3    3    0    0 -0.35051186067E+02 -0.10846880725E+02  0.41284830289E+02  0.55232940155E+02  0.00000000000E+00 0. -1.
         13    1    3    3    0    0  0.26450956904E+02  0.29367651300E+02 -0.13514590260E+02  0.41770279074E+02  0.00000000000E+00 0.  1.
         21    1    1    2  502  501 -0.12379041102E+02 -0.21574939477E+02  0.60035070724E+02  0.64984062576E+02  0.00000000000E+00 0.  1.
<scales pt_clust_5="13000.00000" pt_clust_6="13000.00000" pt_clust_7="13000.00000" pt_clust_8="13000.00000" pt_clust_9="24.87406"></scales>
<clustering>
<clus scale="   24.874">  1  9  2 -1</clus>
<clus scale="   90.224">  5  6 -1 -1</clus>
<clus scale="   90.672">  7  8 -1 -1</clus>
<clus scale="   91.761">  2  5  1 -1</clus>
<clus scale="   91.761">  2  5  1 -1</clus>
</clustering>
</event>
<event>
 9    1  0.1175034E-005  0.9237100E+02  0.7546771E-02  0.1309732E+00
          1   -1    0    0  502    0  0.00000000000E+00  0.00000000000E+00  0.99506222513E+02  0.99506222513E+02  0.00000000000E+00 0. -1.
         -1   -1    0    0    0  501 -0.00000000000E+00 -0.00000000000E+00 -0.17696555740E+03  0.17696555740E+03  0.00000000000E+00 0.  1.
         23    2    1    2    0    0 -0.48051790339E+01 -0.43834772275E+01 -0.12063849525E+03  0.14087168450E+03  0.72449156923E+02 0.  0.
         23    2    1    2    0    0 -0.90013444816E+01 -0.12631708530E+02  0.57652719090E+02  0.10933946823E+03  0.91600758899E+02 0.  0.
        -11    1    3    3    0    0 -0.13060570267E+02  0.25948453407E+02 -0.97780124857E+02  0.10200418397E+03  0.00000000000E+00 0. -1.
         11    1    3    3    0    0  0.82553912334E+01 -0.30331930635E+02 -0.22858370396E+02  0.38867500532E+02  0.00000000000E+00 0.  1.
        -13    1    4    4    0    0 -0.65278662277E+01 -0.48379203957E+02  0.10190980804E+02  0.49869996017E+02  0.00000000000E+00 0.  1.
         13    1    4    4    0    0 -0.24734782539E+01  0.35747495426E+02  0.47461738285E+02  0.59469472210E+02  0.00000000000E+00 0. -1.
         21    1    1    2  502  501  0.13806523515E+02  0.17015185758E+02 -0.14473558721E+02  0.26260627182E+02  0.00000000000E+00 0.  1.
<scales pt_clust_5="13000.00000" pt_clust_6="13000.00000" pt_clust_7="13000.00000" pt_clust_8="13000.00000" pt_clust_9="21.91202"></scales>
<clustering>
<clus scale="   21.912">  2  9  1 -1</clus>
<clus scale="   72.449">  5  6 -1 -1</clus>
<clus scale="   73.421">  2  5  1 -1</clus>
<clus scale="   91.601">  7  8 -1 -1</clus>
<clus scale="   92.371">  1  5  2 -1</clus>
</clustering>
</event>
<event>
 9    1  0.1175034E-005  0.1129266E+03  0.7546771E-02  0.1255253E+00
          2   -1    0    0  502    0  0.00000000000E+00  0.00000000000E+00  0.24966267277E+03  0.24966267277E+03  0.00000000000E+00 0. -1.
         -2   -1    0    0    0  501 -0.00000000000E+00 -0.00000000000E+00 -0.14753437977E+03  0.14753437977E+03  0.00000000000E+00 0.  1.
         23    2    1    2    0    0 -0.72037760330E+02  0.59411839438E+02  0.90873949345E+02  0.15922665601E+03  0.91519657643E+02 0.  0.
         23    2    1    2    0    0  0.50975010249E+02 -0.72576182449E+01  0.91980867919E+02  0.13958099695E+03  0.91494535102E+02 0.  0.
        -11    1    4    4    0    0 -0.24927650052E+02  0.29416864842E+01  0.39281025791E+02  0.46615879738E+02  0.00000000000E+00 0.  1.
         11    1    4    4    0    0  0.75902660301E+02 -0.10199304729E+02  0.52699842128E+02  0.92965117211E+02  0.00000000000E+00 0. -1.
        -13    1    3    3    0    0 -0.37230322931E+02 -0.19759899068E+02  0.16866331600E+02  0.45398498856E+02  0.00000000000E+00 0.  1.
         13    1    3    3    0    0 -0.34807437398E+02  0.79171738506E+02  0.74007617745E+02  0.11382815715E+03  0.00000000000E+00 0. -1.
         21    1    1    2  502  501  0.21062750081E+02 -0.52154221193E+02 -0.80726524263E+02  0.98389399576E+02  0.00000000000E+00 0.  1.
<scales pt_clust_5="13000.00000" pt_clust_6="13000.00000" pt_clust_7="13000.00000" pt_clust_8="13000.00000" pt_clust_9="56.24680"></scales>
<clustering>
<clus scale="   56.247">  2  9  1 -1</clus>
<clus scale="   91.495">  5  6 -1 -1</clus>
<clus scale="   91.520">  7  8 -1 -1</clus>
<clus scale="  112.906">  1  5  2 -1</clus>
<clus scale="  112.906">  1  5  2 -1</clus>
</clustering>
</event>
<event>
 9    1  0.1175034E-005  0.2225203E+03  0.7546771E-02  0.1132253E+00
         -1   -1    0    0    0  501 -0.00000000000E+00  0.00000000000E+00  0.43801125892E+03  0.43801125892E+03  0.00000000000E+00 0.  1.
          1   -1    0    0  502    0  0.00000000000E+00 -0.00000000000E+00 -0.30587013739E+03  0.30587013739E+03  0.00000000000E+00 0. -1.
         23    2    1    2    0    0  0.13839733667E+03 -0.17621517211E+03  0.88227251980E+02  0.25736612210E+03  0.90816645684E+02 0.  0.
         23    2    1    2    0    0 -0.98126441846E+02  0.17111294796E+03 -0.16626156472E+03  0.27245572447E+03  0.87640027064E+02 0.  0.
        -11    1    4    4    0    0 -0.55368123502E+02  0.87205230263E+02 -0.14129623472E+03  0.17502858975E+03  0.00000000000E+00 0. -1.
         11    1    4    4    0    0 -0.42758318344E+02  0.83907717698E+02 -0.24965330001E+02  0.97427134716E+02  0.00000000000E+00 0.  1.
        -11    1    3    3    0    0  0.28951526665E+02 -0.10157414781E+03  0.61505309555E+02  0.12222275362E+03  0.00000000000E+00 0.  1.
         11    1    3    3    0    0  0.10944581001E+03 -0.74641024303E+02  0.26721942425E+02  0.13514336848E+03  0.00000000000E+00 0. -1.
         21    1    1    2  502  501 -0.40270894826E+02  0.51022241511E+01  0.21017543428E+03  0.21405954974E+03  0.00000000000E+00 0.  1.
<scales pt_clust_5="13000.00000" pt_clust_6="13000.00000" pt_clust_7="13000.00000" pt_clust_8="13000.00000" pt_clust_9="40.59283"></scales>
<clustering>
<clus scale="   40.593">  1  9  2 -1</clus>
<clus scale="   87.640">  5  6 -1 -1</clus>
<clus scale="   90.817">  7  8 -1 -1</clus>
<clus scale="  221.243">  2  5  1 -1</clus>
<clus scale="  221.243">  2  5  1 -1</clus>
</clustering>
</event>
<event>
 9    1  0.1175034E-005  0.1036453E+03  0.7546771E-02  0.1275311E+00
         -3   -1    0    0    0  501 -0.00000000000E+00  0.00000000000E+00  0.34288569479E+03  0.34288569479E+03  0.00000000000E+00 0.  1.
          3   -1    0    0  502    0  0.00000000000E+00 -0.00000000000E+00 -0.11718347213E+03  0.11718347213E+03  0.00000000000E+00 0. -1.
         23    2    1    2    0    0 -0.53819889725E+02 -0.41272332707E+01  0.11267610169E+03  0.15438162771E+03  0.90687201389E+02 0.  0.
         23    2    1    2    0    0  0.35491881276E+02 -0.87221856841E+01 -0.68081964575E+02  0.12320147918E+03  0.95956763237E+02 0.  0.
        -11    1    4    4    0    0  0.19423281068E+02 -0.43327300759E+02 -0.27709192607E+01  0.47562557039E+02  0.00000000000E+00 0.  1.
         11    1    4    4    0    0  0.16068600208E+02  0.34605115075E+02 -0.65311045314E+02  0.75638922136E+02  0.00000000000E+00 0. -1.
        -13    1    3    3    0    0 -0.48658401816E+02 -0.31097096772E+02  0.11302233199E+03  0.12692012064E+03  0.00000000000E+00 0.  1.
         13    1    3    3    0    0 -0.51614879088E+01  0.26969863501E+02 -0.34623029986E+00  0.27461507062E+02  0.00000000000E+00 0. -1.
         21    1    1    2  502  501  0.18328008449E+02  0.12849418955E+02  0.18110808553E+03  0.18248606003E+03  0.00000000000E+00 0.  1.
<scales pt_clust_5="13000.00000" pt_clust_6="13000.00000" pt_clust_7="13000.00000" pt_clust_8="13000.00000" pt_clust_9="22.38355"></scales>
<clustering>
<clus scale="   22.384">  1  9  2 -1</clus>
<clus scale="   90.687">  7  8 -1 -1</clus>
<clus scale="   95.957">  5  6 -1 -1</clus>
<clus scale="   98.787">  1  7  2 -1</clus>
<clus scale="  103.645">  2  5  1 -1</clus>
</clustering>
</event>
<event>
 9    1  0.1175034E-005  0.1095067E+03  0.7546771E-02  0.1262847E+00
         -1   -1    0    0    0  501 -0.00000000000E+00  0.00000000000E+00  0.37071002647E+03  0.37071002647E+03  0.00000000000E+00 0.  1.
          1   -1    0    0  502    0  0.00000000000E+00 -0.00000000000E+00 -0.41363508783E+02  0.41363508783E+02  0.00000000000E+00 0. -1.
         23    2    1    2    0    0  0.46573149337E+02  0.30914743277E+02  0.19052290158E+03  0.21889254804E+03  0.92142237719E+02 0.  0.
         23    2    1    2    0    0 -0.27086239775E+02 -0.46127105011E+02  0.10912623221E+03  0.15454046180E+03  0.95461225502E+02 0.  0.
        -13    1    4    4    0    0  0.11429716251E+02 -0.54408162967E+02  0.99510471962E+02  0.11398780918E+03  0.00000000000E+00 0.  1.
         13    1    4    4    0    0 -0.38515956026E+02  0.82810579555E+01  0.96157602510E+01  0.40552652622E+02  0.00000000000E+00 0. -1.
        -13    1    3    3    0    0  0.43981570291E+02 -0.23633753105E+02  0.11783122637E+03  0.12797316406E+03  0.00000000000E+00 0.  1.
         13    1    3    3    0    0  0.25915790464E+01  0.54548496382E+02  0.72691675203E+02  0.90919383980E+02  0.00000000000E+00 0. -1.
         21    1    1    2  502  501 -0.19486909562E+02  0.15212361734E+02  0.29697383898E+02  0.38640525413E+02  0.00000000000E+00 0. -1.
<scales pt_clust_5="13000.00000" pt_clust_6="13000.00000" pt_clust_7="13000.00000" pt_clust_8="13000.00000" pt_clust_9="24.72156"></scales>
<clustering>
<clus scale="   24.722">  2  9  1 -1</clus>
<clus scale="   92.142">  7  8 -1 -1</clus>
<clus scale="   95.461">  5  6 -1 -1</clus>
<clus scale="  106.626">  1  7  2 -1</clus>
<clus scale="   24.722">  2  5  1 -1</clus>
</clustering>
</event>
<event>
 9    1  0.1175034E-005  0.9423038E+02  0.7546771E-02  0.1299865E+00
          1   -1    0    0  502    0  0.00000000000E+00  0.00000000000E+00  0.59334444960E+03  0.59334444960E+03  0.00000000000E+00 0. -1.
         -1   -1    0    0    0  501 -0.00000000000E+00 -0.00000000000E+00 -0.19488929776E+02  0.19488929776E+02  0.00000000000E+00 0.  1.
         23    2    1    2    0    0  0.13493878682E+02  0.11604959931E+01  0.24611544775E+03  0.26254908553E+03  0.90420004296E+02 0.  0.
         23    2    1    2    0    0 -0.28394257442E+02 -0.26021984940E+02  0.28879274831E+03  0.30173525732E+03  0.78482714504E+02 0.  0.
        -11    1    4    4    0    0 -0.54368010795E+02 -0.27965842989E+02  0.21239856745E+03  0.22102289570E+03  0.00000000000E+00 0.  1.
         11    1    4    4    0    0  0.25973753354E+02  0.19438580494E+01  0.76394180862E+02  0.80712361612E+02  0.00000000000E+00 0. -1.
        -13    1    3    3    0    0  0.21567945192E+02 -0.40677523644E+02  0.15962233604E+03  0.16612985087E+03  0.00000000000E+00 0.  1.
         13    1    3    3    0    0 -0.80740665104E+01  0.41838019637E+02  0.86493111717E+02  0.96419234657E+02  0.00000000000E+00 0. -1.
         21    1    1    2  502  501  0.14900378760E+02  0.24861488947E+02  0.38947323760E+02  0.48549036529E+02  0.00000000000E+00 0. -1.
<scales pt_clust_5="13000.00000" pt_clust_6="13000.00000" pt_clust_7="13000.00000" pt_clust_8="13000.00000" pt_clust_9="28.98474"></scales>
<clustering>
<clus scale="   28.985">  2  9  1 -1</clus>
<clus scale="   78.483">  5  6 -1 -1</clus>
<clus scale="   82.844">  1  5  2 -1</clus>
<clus scale="   90.420">  7  8 -1 -1</clus>
<clus scale="   82.844">  1  5  2 -1</clus>
</clustering>
</event>
<event>
 9    1  0.1175034E-005  0.2633155E+03  0.7546771E-02  0.1105403E+00
         -2   -1    0    0    0  501 -0.00000000000E+00  0.00000000000E+00  0.12962925523E+03  0.12962925523E+03  0.00000000000E+00 0.  1.
          2   -1    0    0  502    0  0.00000000000E+00 -0.00000000000E+00 -0.12292093136E+04  0.12292093136E+04  0.00000000000E+00 0. -1.
         23    2    1    2    0    0 -0.21663584834E+03  0.51693138497E+02 -0.18306591508E+03  0.30329025814E+03  0.94173138755E+02 0.  0.
         23    2    1    2    0    0  0.24552554506E+03  0.11155761494E+03 -0.81021364366E+03  0.85860867703E+03  0.89637141757E+02 0.  0.
        -11    1    4    4    0    0  0.16254192676E+03  0.41015020112E+02 -0.38985063986E+03  0.42436497409E+03  0.00000000000E+00 0. -1.
         11    1    4    4    0    0  0.82983618300E+02  0.70542594829E+02 -0.42036300379E+03  0.43424370295E+03  0.00000000000E+00 0.  1.
        -11    1    3    3    0    0 -0.82938660414E+02  0.51532372876E+02 -0.12211847172E+03  0.15635641331E+03  0.00000000000E+00 0.  1.
         11    1    3    3    0    0 -0.13369718793E+03  0.16076562062E+00 -0.60947443351E+02  0.14693384483E+03  0.00000000000E+00 0. -1.
         21    1    1    2  502  501 -0.28889696716E+02 -0.16325075344E+03 -0.10630049960E+03  0.19693963362E+03  0.00000000000E+00 0.  1.
<scales pt_clust_5="13000.00000" pt_clust_6="13000.00000" pt_clust_7="13000.00000" pt_clust_8="13000.00000" pt_clust_9="165.78728"></scales>
<clustering>
<clus scale="   89.637">  5  6 -1 -1</clus>
<clus scale="   94.173">  7  8 -1 -1</clus>
<clus scale="  165.787">  1  9  2 -1</clus>
<clus scale="  261.728">  2  5  1 -1</clus>
<clus scale="  261.728">  2  5  1 -1</clus>
</clustering>
</event>
<event>
 9    1  0.1175034E-005  0.3111173E+03  0.7546771E-02  0.1079857E+00
          1   -1    0    0  502    0  0.00000000000E+00  0.00000000000E+00  0.64465692029E+03  0.64465692029E+03  0.00000000000E+00 0. -1.
         -1   -1    0    0    0  501 -0.00000000000E+00 -0.00000000000E+00 -0.17925826128E+03  0.17925826128E+03  0.00000000000E+00 0.  1.
         23    2    1    2    0    0 -0.47483636110E+02  0.31271482680E+03  0.21806481134E+03  0.39509596967E+03  0.92213365105E+02 0.  0.
         23    2    1    2    0    0  0.44424485683E+02 -0.27899004799E+03  0.25807507994E+03  0.39329326112E+03  0.90927776592E+02 0.  0.
        -13    1    4    4    0    0  0.65197136012E+02 -0.23453741633E+03  0.23747479536E+03  0.34007755679E+03  0.00000000000E+00 0.  1.
         13    1    4    4    0    0 -0.20772650329E+02 -0.44452631653E+02  0.20600284584E+02  0.53215704332E+02  0.00000000000E+00 0. -1.
        -13    1    3    3    0    0  0.20035135518E+02  0.70935184307E+02  0.79293882940E+02  0.10826230600E+03  0.00000000000E+00 0.  1.
         13    1    3    3    0    0 -0.67518771628E+02  0.24177964250E+03  0.13877092840E+03  0.28683366368E+03  0.00000000000E+00 0. -1.
         21    1    1    2  502  501  0.30591504268E+01 -0.33724778817E+02 -0.10741232273E+02  0.35525950773E+02  0.00000000000E+00 0.  1.
<scales pt_clust_5="13000.00000" pt_clust_6="13000.00000" pt_clust_7="13000.00000" pt_clust_8="13000.00000" pt_clust_9="33.86324"></scales>
<clustering>
<clus scale="   33.863">  2  9  1 -1</clus>
<clus scale="   90.928">  5  6 -1 -1</clus>
<clus scale="   92.213">  7  8 -1 -1</clus>
<clus scale="  310.739">  1  5  2 -1</clus>
<clus scale="  310.739">  1  5  2 -1</clus>
</clustering>
</event>
<event>
 9    1  0.1175034E-005  0.1238505E+03  0.7546771E-02  0.1238509E+00
         -2   -1    0    0    0  501 -0.00000000000E+00  0.00000000000E+00  0.91487927137E+02  0.91487927137E+02  0.00000000000E+00 0.  1.
          2   -1    0    0  502    0  0.00000000000E+00 -0.00000000000E+00 -0.24560115849E+03  0.24560115849E+03  0.00000000000E+00 0. -1.
         23    2    1    2    0    0 -0.89110419511E+02  0.17242481585E+02 -0.30531602709E+02  0.13496241124E+03  0.95103646870E+02 0.  0.
         23    2    1    2    0    0  0.66321161490E+02  0.22291288430E+02 -0.80784903524E+02  0.13956607229E+03  0.89761293979E+02 0.  0.
        -13    1    3    3    0    0 -0.87107090581E+01  0.38938670570E+02 -0.32805699715E+02  0.51655691379E+02  0.00000000000E+00 0.  1.
         13    1    3    3    0    0 -0.80399710453E+02 -0.21696188985E+02  0.22740970057E+01  0.83306719865E+02  0.00000000000E+00 0. -1.
        -13    1    4    4    0    0  0.14507816452E+02  0.22430466450E+02 -0.83512396732E+02  0.87680801612E+02  0.00000000000E+00 0. -1.
         13    1    4    4    0    0  0.51813345038E+02 -0.13917802018E+00  0.27274932082E+01  0.51885270682E+02  0.00000000000E+00 0.  1.
         21    1    1    2  502  501  0.22789258021E+02 -0.39533770015E+02 -0.42796725120E+02  0.62560602089E+02  0.00000000000E+00 0. -1.
<scales pt_clust_5="13000.00000" pt_clust_6="13000.00000" pt_clust_7="13000.00000" pt_clust_8="13000.00000" pt_clust_9="45.63189"></scales>
<clustering>
<clus scale="   45.632">  2  9  1 -1</clus>
<clus scale="   89.761">  7  8 -1 -1</clus>
<clus scale="   95.104">  5  6 -1 -1</clus>
<clus scale="  119.797">  2  7  1 -1</clus>
<clus scale="   45.632">  2  5  1 -1</clus>
</clustering>
</event>
<event>
 9    1  0.1175034E-005  0.2172782E+03  0.7546771E-02  0.1135949E+00
          2   -1    0    0  502    0  0.00000000000E+00  0.00000000000E+00  0.67127626872E+03  0.67127626872E+03  0.00000000000E+00 0. -1.
         -2   -1    0    0    0  501 -0.00000000000E+00 -0.00000000000E+00 -0.92948874832E+02  0.92948874832E+02  0.00000000000E+00 0.  1.
         23    2    1    2    0    0 -0.20147842680E+03 -0.69320254628E+02  0.21535109929E+03  0.31636912167E+03  0.91183721216E+02 0.  0.
         23    2    1    2    0    0  0.17728574002E+03  0.63550957776E+02  0.36714155495E+03  0.42263856219E+03  0.91441101423E+02 0.  0.
        -11    1    4    4    0    0  0.31404350587E+02  0.37737485239E+02  0.16415467602E+03  0.17133916274E+03  0.00000000000E+00 0.  1.
         11    1    4    4    0    0  0.14588138943E+03  0.25813472537E+02  0.20298687893E+03  0.25129939945E+03  0.00000000000E+00 0. -1.
        -13    1    3    3    0    0 -0.19095648660E+03 -0.33200615663E+02  0.18627637078E+03  0.26882251945E+03  0.00000000000E+00 0.  1.
         13    1    3    3    0    0 -0.10521940200E+02 -0.36119638965E+02  0.29074728510E+02  0.47546602217E+02  0.00000000000E+00 0. -1.
         21    1    1    2  502  501  0.24192686774E+02  0.57692968521E+01 -0.41652603537E+01  0.25217459693E+02  0.00000000000E+00 0. -1.
<scales pt_clust_5="13000.00000" pt_clust_6="13000.00000" pt_clust_7="13000.00000" pt_clust_8="13000.00000" pt_clust_9="24.87109"></scales>
<clustering>
<clus scale="   24.871">  2  9  1 -1</clus>
<clus scale="   91.184">  7  8 -1 -1</clus>
<clus scale="   91.441">  5  6 -1 -1</clus>
<clus scale="  217.170">  2  7  1 -1</clus>
<clus scale="  217.278">  1  5  2 -1</clus>
</clustering>
</event>
<event>
 9    1  0.1175034E-005  0.2279466E+03  0.7546771E-02  0.1128524E+00
         -1   -1    0    0    0  501 -0.00000000000E+00  0.00000000000E+00  0.77387093469E+02  0.77387093469E+02  0.00000000000E+00 0.  1.
          1   -1    0    0  502    0  0.00000000000E+00 -0.00000000000E+00 -0.82237323941E+03  0.82237323941E+03  0.00000000000E+00 0. -1.
         23    2    1    2    0    0 -0.45923608572E+02  0.20872826641E+03 -0.23718351851E+03  0.33194149442E+03  0.90844192098E+02 0.  0.
         23    2    1    2    0    0  0.21257118687E+02 -0.20602045668E+03 -0.48499549898E+03  0.53411523235E+03  0.84629508655E+02 0.  0.
        -11    1    4    4    0    0  0.21630199666E+02 -0.31915522197E+02 -0.36829818718E+02  0.53318867594E+02  0.00000000000E+00 0.  1.
         11    1    4    4    0    0 -0.37308097879E+00 -0.17410493448E+03 -0.44816568026E+03  0.48079636475E+03  0.00000000000E+00 0. -1.
        -13    1    3    3    0    0  0.12029329368E+02  0.14685872509E+03 -0.14576615753E+03  0.20726785226E+03  0.00000000000E+00 0.  1.
         13    1    3    3    0    0 -0.57952937940E+02  0.61869541324E+02 -0.91417360985E+02  0.12467364216E+03  0.00000000000E+00 0. -1.
         21    1    1    2  502  501  0.24666489884E+02 -0.27078097372E+01 -0.22807128455E+02  0.33703606115E+02  0.00000000000E+00 0. -1.
<scales pt_clust_5="13000.00000" pt_clust_6="13000.00000" pt_clust_7="13000.00000" pt_clust_8="13000.00000" pt_clust_9="24.81467"></scales>
<clustering>
<clus scale="   24.815">  1  9  2 -1</clus>
<clus scale="   84.630">  5  6 -1 -1</clus>
<clus scale="   90.844">  7  8 -1 -1</clus>
<clus scale="  225.542">  2  5  1 -1</clus>
<clus scale="  225.542">  2  5  1 -1</clus>
</clustering>
</event>
<event>
 9    1  0.1175034E-005  0.1371461E+03  0.7546771E-02  0.1217978E+00
          2   -1    0    0  502    0  0.00000000000E+00  0.00000000000E+00  0.50986382515E+03  0.50986382515E+03  0.00000000000E+00 0. -1.
         -2   -1    0    0    0  501 -0.00000000000E+00 -0.00000000000E+00 -0.11970991521E+03  0.11970991521E+03  0.00000000000E+00 0.  1.
         23    2    1    2    0    0  0.64200470806E+02  0.60831776719E+02  0.13515132894E+03  0.18688794174E+03  0.94016038755E+02 0.  0.
         23    2    1    2    0    0 -0.60287985403E+02 -0.88234676747E+02  0.33224560395E+03  0.36063269956E+03  0.90822922642E+02 0.  0.
        -13    1    4    4    0    0 -0.46483076295E+02 -0.42720565025E+02  0.29071413141E+03  0.29749021708E+03  0.00000000000E+00 0. -1.
         13    1    4    4    0    0 -0.13804909108E+02 -0.45514111722E+02  0.41531472546E+02  0.63142482475E+02  0.00000000000E+00 0.  1.
        -13    1    3    3    0    0  0.72063399691E+02  0.60505479060E+01  0.62668039729E+02  0.95692350313E+02  0.00000000000E+00 0.  1.
         13    1    3    3    0    0 -0.78629288851E+01  0.54781228813E+02  0.72483289209E+02  0.91195591425E+02  0.00000000000E+00 0. -1.
         21    1    1    2  502  501 -0.39124854033E+01  0.27402900028E+02 -0.77243022948E+02  0.82053099065E+02  0.00000000000E+00 0.  1.
<scales pt_clust_5="13000.00000" pt_clust_6="13000.00000" pt_clust_7="13000.00000" pt_clust_8="13000.00000" pt_clust_9="27.68080"></scales>
<clustering>
<clus scale="   27.681">  2  9  1 -1</clus>
<clus scale="   90.823">  5  6 -1 -1</clus>
<clus scale="   94.016">  7  8 -1 -1</clus>
<clus scale="  134.977">  1  5  2 -1</clus>
<clus scale="  134.977">  1  5  2 -1</clus>
</clustering>
</event>
<event>
 9    1  0.1175034E-005  0.1055008E+03  0.7546771E-02  0.1269191E+00
         -1   -1    0    0    0  501 -0.00000000000E+00  0.00000000000E+00  0.44069192645E+03  0.44069192645E+03  0.00000000000E+00 0.  1.
          1   -1    0    0  502    0  0.00000000000E+00 -0.00000000000E+00 -0.39097460978E+02  0.39097460978E+02  0.00000000000E+00 0. -1.
         23    2    1    2    0    0 -0.45589573535E+02  0.10782977506E+02  0.20283372307E+03  0.22702195732E+03  0.90569134210E+02 0.  0.
         23    2    1    2    0    0  0.57804196628E+02  0.16567985277E+02  0.93971052085E+02  0.14378049796E+03  0.90699777728E+02 0.  0.
        -11    1    4    4    0    0  0.35916323591E+02  0.63572754182E+01  0.10926558607E+03  0.11519273219E+03  0.00000000000E+00 0.  1.
         11    1    4    4    0    0  0.21887873036E+02  0.10210709859E+02 -0.15294533983E+02  0.28587765769E+02  0.00000000000E+00 0. -1.
        -13    1    3    3    0    0  0.23874762479E+02 -0.10366641775E+02  0.82178103987E+02  0.86201579569E+02  0.00000000000E+00 0. -1.
         13    1    3    3    0    0 -0.69464336014E+02  0.21149619280E+02  0.12065561909E+03  0.14082037775E+03  0.00000000000E+00 0.  1.
         21    1    1    2  502  501 -0.12214623093E+02 -0.27350962783E+02  0.10478969032E+03  0.10898693215E+03  0.00000000000E+00 0.  1.
<scales pt_clust_5="13000.00000" pt_clust_6="13000.00000" pt_clust_7="13000.00000" pt_clust_8="13000.00000" pt_clust_9="29.95450"></scales>
<clustering>
<clus scale="   29.955">  1  9  2 -1</clus>
<clus scale="   90.569">  7  8 -1 -1</clus>
<clus scale="   90.700">  5  6 -1 -1</clus>
<clus scale="  105.389">  1  7  2 -1</clus>
<clus scale="  105.501">  2  5  1 -1</clus>
</clustering>
</event>
<event>
 9    1  0.1175034E-005  0.1293906E+03  0.7546771E-02  0.1228718E+00
         -1   -1    0    0    0  501 -0.00000000000E+00  0.00000000000E+00  0.13230586421E+03  0.13230586421E+03  0.00000000000E+00 0.  1.
          1   -1    0    0  502    0  0.00000000000E+00 -0.00000000000E+00 -0.36815175235E+03  0.36815175235E+03  0.00000000000E+00 0. -1.
         23    2    1    2    0    0 -0.83976171421E+02 -0.48929933865E+02  0.63593805737E+02  0.14688916587E+03  0.89922850971E+02 0.  0.
         23    2    1    2    0    0  0.80212205141E+02 -0.16362703574E+02 -0.19517138444E+03  0.23048646054E+03  0.91271042880E+02 0.  0.
        -11    1    4    4    0    0 -0.19558666721E+02 -0.74795735377E+01 -0.21583267466E+02  0.30071962003E+02  0.00000000000E+00 0.  1.
         11    1    4    4    0    0  0.99770871862E+02 -0.88831300365E+01 -0.17358811697E+03  0.20041449854E+03  0.00000000000E+00 0. -1.
        -13    1    3    3    0    0 -0.59489838793E+02 -0.74323877683E+02  0.34827862093E+02  0.10137090160E+03  0.00000000000E+00 0.  1.
         13    1    3    3    0    0 -0.24486332629E+02  0.25393943817E+02  0.28765943644E+02  0.45518264267E+02  0.00000000000E+00 0. -1.
         21    1    1    2  502  501  0.37639662799E+01  0.65292637440E+02 -0.10426830944E+03  0.12308199015E+03  0.00000000000E+00 0. -1.
<scales pt_clust_5="13000.00000" pt_clust_6="13000.00000" pt_clust_7="13000.00000" pt_clust_8="13000.00000" pt_clust_9="65.40104"></scales>
<clustering>
<clus scale="   65.401">  2  9  1 -1</clus>
<clus scale="   89.923">  7  8 -1 -1</clus>
<clus scale="   91.271">  5  6 -1 -1</clus>
<clus scale="  128.443">  1  7  2 -1</clus>
<clus scale="   65.401">  2  5  1 -1</clus>
</clustering>
</event>
<event>
 9    1  0.1175034E-005  0.1194162E+03  0.7546771E-02  0.1244419E+00
          1   -1    0    0  502    0  0.00000000000E+00  0.00000000000E+00  0.25674308774E+03  0.25674308774E+03  0.00000000000E+00 0. -1.
         -1   -1    0    0    0  501 -0.00000000000E+00 -0.00000000000E+00 -0.15464133439E+03  0.15464133439E+03  0.00000000000E+00 0.  1.
         23    2    1    2    0    0  0.53139119671E+02  0.61824926450E+01  0.10434628334E+01  0.10620928223E+03  0.91746027501E+02 0.  0.
         23    2    1    2    0    0 -0.70387013240E+02  0.54908819774E+02  0.16880737876E+03  0.21233346152E+03  0.92845342563E+02 0.  0.
        -13    1    3    3    0    0  0.70584052921E+02 -0.21205028969E+02  0.19276013411E+01  0.73725690415E+02  0.00000000000E+00 0.  1.
         13    1    3    3    0    0 -0.17444933250E+02  0.27387521614E+02 -0.88413850775E+00  0.32483591814E+02  0.00000000000E+00 0. -1.
        -13    1    4    4    0    0 -0.77973023137E+02  0.20007082133E+02  0.67966701300E+02  0.10535439316E+03  0.00000000000E+00 0.  1.
         13    1    4    4    0    0  0.75860098974E+01  0.34901737641E+02  0.10084067746E+03  0.10697906836E+03  0.00000000000E+00 0. -1.
         21    1    1    2  502  501  0.17247893568E+02 -0.61091312419E+02 -0.67749088251E+02  0.92841678380E+02  0.00000000000E+00 0.  1.
<scales pt_clust_5="13000.00000" pt_clust_6="13000.00000" pt_clust_7="13000.00000" pt_clust_8="13000.00000" pt_clust_9="63.47943"></scales>
<clustering>
<clus scale="   63.479">  2  9  1 -1</clus>
<clus scale="   91.746">  5  6 -1 -1</clus>
<clus scale="   92.845">  7  8 -1 -1</clus>
<clus scale="  118.564">  2  5  1 -1</clus>
<clus scale="  119.416">  1  5  2 -1</clus>
</clustering>
</event>
<event>
 9    1  0.1175034E-005  0.1041046E+03  0.7546771E-02  0.1272340E+00
         -1   -1    0    0    0  501 -0.00000000000E+00  0.00000000000E+00  0.32529876325E+02  0.32529876325E+02  0.00000000000E+00 0.  1.
          1   -1    0    0  502    0  0.00000000000E+00 -0.00000000000E+00 -0.81872038389E+03  0.81872038389E+03  0.00000000000E+00 0. -1.
         23    2    1    2    0    0 -0.15754430663E+02  0.20471667678E+02 -0.19976411754E+03  0.22185556832E+03  0.92988705093E+02 0.  0.
         23    2    1    2    0    0  0.62334359628E+02  0.25543121900E+02 -0.53250190064E+03  0.54457192845E+03  0.91990693066E+02 0.  0.
        -11    1    4    4    0    0  0.28495118961E+02 -0.34342554938E+02 -0.23759906996E+03  0.24175338867E+03  0.00000000000E+00 0.  1.
         11    1    4    4    0    0  0.33839240667E+02  0.59885676838E+02 -0.29490283067E+03  0.30281853979E+03  0.00000000000E+00 0. -1.
        -11    1    3    3    0    0 -0.17423656833E+02 -0.35906856925E+02 -0.75888841305E+02  0.85743818589E+02  0.00000000000E+00 0. -1.
         11    1    3    3    0    0  0.16692261708E+01  0.56378524603E+02 -0.12387527623E+03  0.13611174973E+03  0.00000000000E+00 0.  1.
         21    1    1    2  502  501 -0.46579928965E+02 -0.46014789578E+02 -0.53924489390E+02  0.84822763444E+02  0.00000000000E+00 0.  1.
<scales pt_clust_5="13000.00000" pt_clust_6="13000.00000" pt_clust_7="13000.00000" pt_clust_8="13000.00000" pt_clust_9="65.47557"></scales>
<clustering>
<clus scale="   65.476">  1  9  2 -1</clus>
<clus scale="   91.991">  5  6 -1 -1</clus>
<clus scale="   92.989">  7  8 -1 -1</clus>
<clus scale="  103.214">  2  5  1 -1</clus>
<clus scale="  103.214">  2  5  1 -1</clus>
</clustering>
</event>
<event>
 9    1  0.1175034E-005  0.1562118E+03  0.7546771E-02  0.1194776E+00
         -2   -1    0    0    0  501 -0.00000000000E+00  0.00000000000E+00  0.46518116016E+02  0.46518116016E+02  0.00000000000E+00 0.  1.
          2   -1    0    0  502    0  0.00000000000E+00 -0.00000000000E+00 -0.92466796840E+03  0.92466796840E+03  0.00000000000E+00 0. -1.
         23    2    1    2    0    0 -0.94225648815E+02 -0.73649352656E+02 -0.18701367713E+03  0.24718478929E+03  0.10873593970E+03 0.  0.
         23    2    1    2    0    0  0.10232477387E+03  0.43025388103E+02 -0.66862807261E+03  0.68514209138E+03  0.10017306286E+03 0.  0.
        -11    1    4    4    0    0  0.80485225293E+02  0.73913516095E+02 -0.54535425801E+03  0.55619452180E+03  0.00000000000E+00 0.  1.
         11    1    4    4    0    0  0.21839548576E+02 -0.30888127992E+02 -0.12327381460E+03  0.12894756958E+03  0.00000000000E+00 0. -1.
        -11    1    3    3    0    0  0.20991215620E+02 -0.18591994309E+02 -0.11911377187E+02  0.30465952998E+02  0.00000000000E+00 0.  1.
         11    1    3    3    0    0 -0.11521686443E+03 -0.55057358347E+02 -0.17510229994E+03  0.21671883629E+03  0.00000000000E+00 0. -1.
         21    1    1    2  502  501 -0.80991250534E+01  0.30623964553E+02 -0.22508102645E+02  0.38859203752E+02  0.00000000000E+00 0.  1.
<scales pt_clust_5="13000.00000" pt_clust_6="13000.00000" pt_clust_7="13000.00000" pt_clust_8="13000.00000" pt_clust_9="31.67685"></scales>
<clustering>
<clus scale="   31.677">  1  9  2 -1</clus>
<clus scale="  100.173">  5  6 -1 -1</clus>
<clus scale="  108.736">  7  8 -1 -1</clus>
<clus scale="  150.377">  2  5  1 -1</clus>
<clus scale="  150.377">  2  5  1 -1</clus>
</clustering>
</event>
<event>
 9    1  0.1175034E-005  0.2789172E+03  0.7546771E-02  0.1096305E+00
          1   -1    0    0  502    0  0.00000000000E+00  0.00000000000E+00  0.33939368369E+03  0.33939368369E+03  0.00000000000E+00 0. -1.
         -1   -1    0    0    0  501 -0.00000000000E+00 -0.00000000000E+00 -0.30193730304E+03  0.30193730304E+03  0.00000000000E+00 0.  1.
         23    2    1    2    0    0  0.44313809372E+02 -0.27420360287E+03 -0.76280741207E+02  0.30237862511E+03  0.91993216699E+02 0.  0.
         23    2    1    2    0    0 -0.36058135641E+02  0.25439941911E+03  0.13874422158E+03  0.30600214341E+03  0.91477315011E+02 0.  0.
        -13    1    3    3    0    0  0.55890408167E+02 -0.25189853493E+03 -0.44452924408E+02  0.26182565213E+03  0.00000000000E+00 0.  1.
         13    1    3    3    0    0 -0.11576598794E+02 -0.22305067935E+02 -0.31827816799E+02  0.40552972979E+02  0.00000000000E+00 0. -1.
        -13    1    4    4    0    0 -0.66018845118E+01  0.16119356806E+03  0.38233605889E+02  0.16579734582E+03  0.00000000000E+00 0. -1.
         13    1    4    4    0    0 -0.29456251130E+02  0.93205851050E+02  0.10051061569E+03  0.14020479759E+03  0.00000000000E+00 0.  1.
         21    1    1    2  502  501 -0.82556737307E+01  0.19804183763E+02 -0.25007099721E+02  0.32950218204E+02  0.00000000000E+00 0.  1.
<scales pt_clust_5="13000.00000" pt_clust_6="13000.00000" pt_clust_7="13000.00000" pt_clust_8="13000.00000" pt_clust_9="21.45604"></scales>
<clustering>
<clus scale="   21.456">  2  9  1 -1</clus>
<clus scale="   91.477">  7  8 -1 -1</clus>
<clus scale="   91.993">  5  6 -1 -1</clus>
<clus scale="  278.747">  1  7  2 -1</clus>
<clus scale="  278.747">  1  5  2 -1</clus>
</clustering>
</event>
<event>
 9    1  0.1175034E-005  0.1149717E+03  0.7546771E-02  0.1251961E+00
          2   -1    0    0  502    0  0.00000000000E+00  0.00000000000E+00  0.57008783960E+03  0.57008783960E+03  0.00000000000E+00 0. -1.
         -2   -1    0    0    0  501 -0.00000000000E+00 -0.00000000000E+00 -0.51338268260E+02  0.51338268260E+02  0.00000000000E+00 0.  1.
         23    2    1    2    0    0  0.15581775311E+01 -0.47545373805E+02  0.89685550014E+02  0.13689811872E+03  0.91840114008E+02 0.  0.
         23    2    1    2    0    0  0.27899347540E+02  0.10965658682E+03  0.21801613966E+03  0.26256682830E+03  0.92775867259E+02 0.  0.
        -11    1    3    3    0    0  0.39572125750E+02 -0.28077883197E+02  0.14866969597E+02  0.50747881199E+02  0.00000000000E+00 0.  1.
         11    1    3    3    0    0 -0.38013948219E+02 -0.19467490609E+02  0.74818580417E+02  0.86150237524E+02  0.00000000000E+00 0. -1.
        -11    1    4    4    0    0  0.48882460408E+02  0.41294285536E+02  0.15330540735E+03  0.16612423326E+03  0.00000000000E+00 0. -1.
         11    1    4    4    0    0 -0.20983112868E+02  0.68362301280E+02  0.64710732313E+02  0.96442595042E+02  0.00000000000E+00 0.  1.
         21    1    1    2  502  501 -0.29457525071E+02 -0.62111213010E+02  0.21104788166E+03  0.22196116084E+03  0.00000000000E+00 0. -1.
<scales pt_clust_5="13000.00000" pt_clust_6="13000.00000" pt_clust_7="13000.00000" pt_clust_8="13000.00000" pt_clust_9="68.74263"></scales>
<clustering>
<clus scale="   68.743">  1  9  2 -1</clus>
<clus scale="   91.840">  5  6 -1 -1</clus>
<clus scale="   92.776">  7  8 -1 -1</clus>
<clus scale="  114.218">  2  5  1 -1</clus>
<clus scale="   68.743">  1  5  2 -1</clus>
</clustering>
</event>
<event>
 9    1  0.1175034E-005  0.1119962E+03  0.7546771E-02  0.1258863E+00
          1   -1    0    0  502    0  0.00000000000E+00  0.00000000000E+00  0.13682984489E+03  0.13682984489E+03  0.00000000000E+00 0. -1.
         -1   -1    0    0    0  501 -0.00000000000E+00 -0.00000000000E+00 -0.17051028155E+03  0.17051028155E+03  0.00000000000E+00 0.  1.
         23    2    1    2    0    0  0.56069674317E+02 -0.37902809309E+02 -0.89672495405E+02  0.14190645305E+03  0.86694023175E+02 0.  0.
         23    2    1    2    0    0 -0.18861574796E+02  0.60318212078E+02  0.47293787798E+02  0.12113296381E+03  0.91882788625E+02 0.  0.
        -11    1    4    4    0    0  0.31132181061E+02  0.34412953792E+02 -0.17839495050E+01  0.46439708894E+02  0.00000000000E+00 0.  1.
         11    1    4    4    0    0 -0.49993755857E+02  0.25905258286E+02  0.49077737304E+02  0.74693254919E+02  0.00000000000E+00 0. -1.
        -13    1    3    3    0    0  0.22094071348E+02  0.27977792232E+02 -0.25096360294E+02  0.43597386928E+02  0.00000000000E+00 0. -1.
         13    1    3    3    0    0  0.33975602969E+02 -0.65880601541E+02 -0.64576135111E+02  0.98309066125E+02  0.00000000000E+00 0.  1.
         21    1    1    2  502  501 -0.37208099521E+02 -0.22415402769E+02  0.86982709503E+01  0.44300709574E+02  0.00000000000E+00 0.  1.
<scales pt_clust_5="13000.00000" pt_clust_6="13000.00000" pt_clust_7="13000.00000" pt_clust_8="13000.00000" pt_clust_9="43.43838"></scales>
<clustering>
<clus scale="   43.438">  1  9  2 -1</clus>
<clus scale="   86.694">  7  8 -1 -1</clus>
<clus scale="   91.883">  5  6 -1 -1</clus>
<clus scale="  107.780">  2  7  1 -1</clus>
<clus scale="   43.438">  1  5  2 -1</clus>
</clustering>
</event>
<event>
 9    1  0.1175034E-005  0.1176221E+03  0.7546771E-02  0.1247227E+00
         -1   -1    0    0    0  501 -0.00000000000E+00  0.00000000000E+00  0.30177476709E+02  0.30177476709E+02  0.00000000000E+00 0.  1.
          1   -1    0    0  502    0  0.00000000000E+00 -0.00000000000E+00 -0.65877129706E+03  0.65877129706E+03  0.00000000000E+00 0. -1.
         23    2    1    2    0    0 -0.52429306636E+02 -0.41728302899E+02 -0.16014469420E+03  0.19479463692E+03  0.88365966498E+02 0.  0.
         23    2    1    2    0    0  0.77307705472E+02  0.30247387431E+02 -0.43052744647E+03  0.44736952465E+03  0.88849443726E+02 0.  0.
        -13    1    3    3    0    0  0.20951491841E+02 -0.25159361191E+02 -0.29661393205E+02  0.44178690709E+02  0.00000000000E+00 0.  1.
         13    1    3    3    0    0 -0.73380798477E+02 -0.16568941708E+02 -0.13048330100E+03  0.15061594621E+03  0.00000000000E+00 0. -1.
        -13    1    4    4    0    0  0.46664981570E+02 -0.20890697694E+02 -0.29372411846E+03  0.29814073777E+03  0.00000000000E+00 0. -1.
         13    1    4    4    0    0  0.30642723902E+02  0.51138085125E+02 -0.13680332802E+03  0.14922878688E+03  0.00000000000E+00 0.  1.
         21    1    1    2  502  501 -0.24878398836E+02  0.11480915468E+02 -0.37921679672E+02  0.46784612190E+02  0.00000000000E+00 0. -1.
<scales pt_clust_5="13000.00000" pt_clust_6="13000.00000" pt_clust_7="13000.00000" pt_clust_8="13000.00000" pt_clust_9="27.39975"></scales>
<clustering>
<clus scale="   27.400">  1  9  2 -1</clus>
<clus scale="   88.366">  5  6 -1 -1</clus>
<clus scale="   88.849">  7  8 -1 -1</clus>
<clus scale="  117.257">  1  5  2 -1</clus>
<clus scale="  117.622">  2  5  1 -1</clus>
</clustering>
</event>
<event>
 9    1  0.1175034E-005  0.1133182E+03  0.7546771E-02  0.1254882E+00
          1   -1    0    0  502    0  0.00000000000E+00  0.00000000000E+00  0.55876872486E+02  0.55876872486E+02  0.00000000000E+00 0. -1.
         -1   -1    0    0    0  501 -0.00000000000E+00 -0.00000000000E+00 -0.42928551812E+03  0.42928551812E+03  0.00000000000E+00 0.  1.
         23    2    1    2    0    0 -0.86119395964E+01 -0.53146240065E+02 -0.11288548388E+03  0.15440508122E+03  0.90548927655E+02 0.  0.
         23    2    1    2    0    0  0.92795409650E+01  0.76462547631E+02 -0.69508731436E+02  0.13832392226E+03  0.91484494058E+02 0.  0.
        -13    1    3    3    0    0  0.36494690635E+02 -0.47476848765E+02 -0.63691006304E+02  0.87421152459E+02  0.00000000000E+00 0.  1.
         13    1    3    3    0    0 -0.45106630231E+02 -0.56693912993E+01 -0.49194477578E+02  0.66983928764E+02  0.00000000000E+00 0. -1.
        -13    1    4    4    0    0  0.37800729501E+02  0.73857433587E+02 -0.71621877879E+02  0.10960615420E+03  0.00000000000E+00 0.  1.
         13    1    4    4    0    0 -0.28521188536E+02  0.26051140438E+01  0.21131464433E+01  0.28717768064E+02  0.00000000000E+00 0. -1.
         21    1    1    2  502  501 -0.66760136861E+00 -0.23316307567E+02 -0.19101443032E+03  0.19243338712E+03  0.00000000000E+00 0.  1.
<scales pt_clust_5="13000.00000" pt_clust_6="13000.00000" pt_clust_7="13000.00000" pt_clust_8="13000.00000" pt_clust_9="23.32586"></scales>
<clustering>
<clus scale="   23.326">  2  9  1 -1</clus>
<clus scale="   90.549">  5  6 -1 -1</clus>
<clus scale="   91.484">  7  8 -1 -1</clus>
<clus scale="  112.564">  2  5  1 -1</clus>
<clus scale="  113.318">  1  5  2 -1</clus>
</clustering>
</event>
<event>
 9    1  0.1175034E-005  0.9309796E+02  0.7546771E-02  0.1295917E+00
         -3   -1    0    0    0  501 -0.00000000000E+00  0.00000000000E+00  0.36192672618E+02  0.36192672618E+02  0.00000000000E+00 0.  1.
          3   -1    0    0  502    0  0.00000000000E+00 -0.00000000000E+00 -0.46470423149E+03  0.46470423149E+03  0.00000000000E+00 0. -1.
         23    2    1    2    0    0  0.38870393256E+02  0.80130735524E+01 -0.16091953021E+03  0.18901601830E+03  0.90867173131E+02 0.  0.
         23    2    1    2    0    0 -0.12201269060E+01 -0.78410089878E+01 -0.25674404900E+03  0.27269860888E+03  0.91564482492E+02 0.  0.
        -13    1    4    4    0    0 -0.27180615748E+01  0.37460055610E+02 -0.17729507988E+03  0.18122965810E+03  0.00000000000E+00 0.  1.
         13    1    4    4    0    0  0.14979346689E+01 -0.45301064598E+02 -0.79448969125E+02  0.91468950781E+02  0.00000000000E+00 0. -1.
        -13    1    3    3    0    0  0.40149692065E+02 -0.33550483454E+02 -0.11888005118E+03  0.12988494632E+03  0.00000000000E+00 0. -1.
         13    1    3    3    0    0 -0.12792988085E+01  0.41563557006E+02 -0.42039479029E+02  0.59131071980E+02  0.00000000000E+00 0.  1.
         21    1    1    2  502  501 -0.37650266350E+02 -0.17206456453E+00 -0.10847979659E+02  0.39182276926E+02  0.00000000000E+00 0. -1.
<scales pt_clust_5="13000.00000" pt_clust_6="13000.00000" pt_clust_7="13000.00000" pt_clust_8="13000.00000" pt_clust_9="37.65066"></scales>
<clustering>
<clus scale="   37.651">  1  9  2 -1</clus>
<clus scale="   90.867">  7  8 -1 -1</clus>
<clus scale="   91.564">  5  6 -1 -1</clus>
<clus scale="   92.412">  1  7  2 -1</clus>
<clus scale="   93.098">  2  5  1 -1</clus>
</clustering>
</event>
<event>
 9    1  0.1175034E-005  0.1045436E+03  0.7546771E-02  0.1275576E+00
         -1   -1    0    0    0  501 -0.00000000000E+00  0.00000000000E+00  0.72582213073E+02  0.72582213073E+02  0.00000000000E+00 0.  1.
          1   -1    0    0  502    0  0.00000000000E+00 -0.00000000000E+00 -0.35056627655E+03  0.35056627655E+03  0.00000000000E+00 0. -1.
         23    2    1    2    0    0  0.86249405255E+01  0.28148705468E+01 -0.30086587760E+02  0.96382538417E+02  0.91115738780E+02 0.  0.
         23    2    1    2    0    0 -0.11390067905E+02 -0.35119389017E+02 -0.26806422310E+03  0.28858316001E+03  0.10029310746E+03 0.  0.
        -11    1    3    3    0    0 -0.40184575050E+02  0.26608803129E+01 -0.24778926289E+02  0.47285045670E+02  0.00000000000E+00 0. -1.
         11    1    3    3    0    0  0.48809515576E+02  0.15399023399E+00 -0.53076614711E+01  0.49097492747E+02  0.00000000000E+00 0.  1.
        -11    1    4    4    0    0  0.35137692629E+02 -0.32913708548E+02 -0.68966131760E+02  0.84108840104E+02  0.00000000000E+00 0.  1.
         11    1    4    4    0    0 -0.46527760534E+02 -0.22056804685E+01 -0.19909809134E+03  0.20447431991E+03  0.00000000000E+00 0. -1.
         21    1    1    2  502  501  0.27651273790E+01  0.32304518470E+02  0.20166747387E+02  0.38182791191E+02  0.00000000000E+00 0.  1.
<scales pt_clust_5="13000.00000" pt_clust_6="13000.00000" pt_clust_7="13000.00000" pt_clust_8="13000.00000" pt_clust_9="32.42264"></scales>
<clustering>
<clus scale="   32.423">  1  9  2 -1</clus>
<clus scale="   91.116">  5  6 -1 -1</clus>
<clus scale="   95.774">  1  5  2 -1</clus>
<clus scale="  100.293">  7  8 -1 -1</clus>
<clus scale="  104.544">  2  5  1 -1</clus>
</clustering>
</event>
<event>
 9    1  0.1175034E-005  0.9116381E+02  0.7546771E-02  0.1303554E+00
          4   -1    0    0  502    0  0.00000000000E+00  0.00000000000E+00  0.11937340797E+03  0.11937340797E+03  0.00000000000E+00 0. -1.
         -4   -1    0    0    0  501 -0.00000000000E+00 -0.00000000000E+00 -0.12232753855E+03  0.12232753855E+03  0.00000000000E+00 0.  1.
         23    2    1    2    0    0 -0.10772072580E+02 -0.12227846542E+02  0.25016836828E+01  0.92309710220E+02  0.90825472204E+02 0.  0.
         23    2    1    2    0    0 -0.19429487275E+02 -0.44958538995E+01  0.36769512940E+02  0.94849558370E+02  0.85127692105E+02 0.  0.
        -11    1    4    4    0    0 -0.11094634841E+02  0.31147813468E+02  0.46421461688E+02  0.56993239173E+02  0.00000000000E+00 0. -1.
         11    1    4    4    0    0 -0.83348524343E+01 -0.35643667368E+02 -0.96519487487E+01  0.37856319197E+02  0.00000000000E+00 0.  1.
        -11    1    3    3    0    0  0.36311904358E+02 -0.13708430618E+02  0.17910351307E+02  0.42746416833E+02  0.00000000000E+00 0.  1.
         11    1    3    3    0    0 -0.47083976937E+02  0.14805840759E+01 -0.15408667624E+02  0.49563293387E+02  0.00000000000E+00 0. -1.
         21    1    1    2  502  501  0.30201559854E+02  0.16723700442E+02 -0.42225327207E+02  0.54541677934E+02  0.00000000000E+00 0.  1.
<scales pt_clust_5="13000.00000" pt_clust_6="13000.00000" pt_clust_7="13000.00000" pt_clust_8="13000.00000" pt_clust_9="34.52269"></scales>
<clustering>
<clus scale="   34.523">  2  9  1 -1</clus>
<clus scale="   85.128">  5  6 -1 -1</clus>
<clus scale="   85.489">  1  5  2 -1</clus>
<clus scale="   90.825">  7  8 -1 -1</clus>
<clus scale="   85.489">  1  5  2 -1</clus>
</clustering>
</event>
<event>
 9    1  0.1175034E-005  0.1079688E+03  0.7546771E-02  0.1265527E+00
         -2   -1    0    0    0  501 -0.00000000000E+00  0.00000000000E+00  0.12488431910E+03  0.12488431910E+03  0.00000000000E+00 0.  1.
          2   -1    0    0  502    0  0.00000000000E+00 -0.00000000000E+00 -0.13015803535E+03  0.13015803535E+03  0.00000000000E+00 0. -1.
         23    2    1    2    0    0  0.60198174800E+02  0.33094910914E+01  0.14234869094E+02  0.10620333813E+03  0.86265546728E+02 0.  0.
         23    2    1    2    0    0 -0.54467189890E+02 -0.34610480974E+02 -0.32029067031E+02  0.11464313035E+03  0.89177497347E+02 0.  0.
        -11    1    4    4    0    0 -0.43973480928E+02 -0.62827383168E+02 -0.35183839822E+02  0.84373275895E+02  0.00000000000E+00 0. -1.
         11    1    4    4    0    0 -0.10493708962E+02  0.28216902194E+02  0.31547727907E+01  0.30269854452E+02  0.00000000000E+00 0.  1.
        -11    1    3    3    0    0  0.43590377139E+02  0.41906819337E+02 -0.35595667390E+01  0.60572048021E+02  0.00000000000E+00 0.  1.
         11    1    3    3    0    0  0.16607797661E+02 -0.38597328246E+02  0.17794435833E+02  0.45631290114E+02  0.00000000000E+00 0. -1.
         21    1    1    2  502  501 -0.57309849100E+01  0.31300989882E+02  0.12520481692E+02  0.34195885973E+02  0.00000000000E+00 0.  1.
<scales pt_clust_5="13000.00000" pt_clust_6="13000.00000" pt_clust_7="13000.00000" pt_clust_8="13000.00000" pt_clust_9="31.82132"></scales>
<clustering>
<clus scale="   31.821">  1  9  2 -1</clus>
<clus scale="   86.266">  7  8 -1 -1</clus>
<clus scale="   89.177">  5  6 -1 -1</clus>
<clus scale="  105.576">  1  7  2 -1</clus>
<clus scale="  107.969">  2  5  1 -1</clus>
</clustering>
</event>
<event>
 9    1  0.1175034E-005  0.1022432E+03  0.7546771E-02  0.1277110E+00
         -2   -1    0    0    0  501 -0.00000000000E+00  0.00000000000E+00  0.30053604707E+02  0.30053604707E+02  0.00000000000E+00 0.  1.
          2   -1    0    0  502    0  0.00000000000E+00 -0.00000000000E+00 -0.57214662951E+03  0.57214662951E+03  0.00000000000E+00 0. -1.
         23    2    1    2    0    0 -0.28853831603E+02  0.46965725996E+02 -0.13596218279E+03  0.17489855097E+03  0.95212735318E+02 0.  0.
         23    2    1    2    0    0  0.94227171901E+01 -0.30434009053E+02 -0.37269578182E+03  0.38524494630E+03  0.92176495686E+02 0.  0.
        -13    1    4    4    0    0 -0.39506996432E+02 -0.92173271387E+01 -0.11126947600E+03  0.11843419344E+03  0.00000000000E+00 0.  1.
         13    1    4    4    0    0  0.48929713622E+02 -0.21216681915E+02 -0.26142630582E+03  0.26681075286E+03  0.00000000000E+00 0. -1.
        -13    1    3    3    0    0 -0.61058364315E+02  0.46519408563E+02 -0.10626399968E+03  0.13108858400E+03  0.00000000000E+00 0.  1.
         13    1    3    3    0    0  0.32204532712E+02  0.44631743288E+00 -0.29698183108E+02  0.43809966975E+02  0.00000000000E+00 0. -1.
         21    1    1    2  502  501  0.19431114412E+02 -0.16531716943E+02 -0.33435060200E+02  0.42056736951E+02  0.00000000000E+00 0.  1.
<scales pt_clust_5="13000.00000" pt_clust_6="13000.00000" pt_clust_7="13000.00000" pt_clust_8="13000.00000" pt_clust_9="25.51207"></scales>
<clustering>
<clus scale="   25.512">  1  9  2 -1</clus>
<clus scale="   92.176">  5  6 -1 -1</clus>
<clus scale="   95.213">  7  8 -1 -1</clus>
<clus scale="   99.422">  2  5  1 -1</clus>
<clus scale="   99.422">  2  5  1 -1</clus>
</clustering>
</event>
<event>
 9    1  0.1175034E-005  0.1223358E+03  0.7546771E-02  0.1249500E+00
          1   -1    0    0  502    0  0.00000000000E+00  0.00000000000E+00  0.18103571226E+03  0.18103571226E+03  0.00000000000E+00 0. -1.
         -1   -1    0    0    0  501 -0.00000000000E+00 -0.00000000000E+00 -0.25973813732E+03  0.25973813732E+03  0.00000000000E+00 0.  1.
         23    2    1    2    0    0  0.21384206365E+01 -0.17810116402E+02 -0.10110297747E+03  0.15587479471E+03  0.11727474785E+03 0.  0.
         23    2    1    2    0    0 -0.21853582999E+02  0.30194296537E+02  0.13591967779E+03  0.16901701410E+03  0.93291573096E+02 0.  0.
        -11    1    3    3    0    0  0.23323775663E+02 -0.29717687171E+02 -0.11954185246E+03  0.12536903099E+03  0.00000000000E+00 0.  1.
         11    1    3    3    0    0 -0.21185355026E+02  0.11907570769E+02  0.18438874991E+02  0.30505763720E+02  0.00000000000E+00 0. -1.
        -13    1    4    4    0    0  0.94963519706E+01  0.24207138909E+02 -0.32763176908E+01  0.26208787314E+02  0.00000000000E+00 0.  1.
         13    1    4    4    0    0 -0.31349934969E+02  0.59871576288E+01  0.13919599548E+03  0.14280822678E+03  0.00000000000E+00 0. -1.
         21    1    1    2  502  501  0.19715162362E+02 -0.12384180135E+02 -0.11351912539E+03  0.11588204077E+03  0.00000000000E+00 0.  1.
<scales pt_clust_5="13000.00000" pt_clust_6="13000.00000" pt_clust_7="13000.00000" pt_clust_8="13000.00000" pt_clust_9="23.28209"></scales>
<clustering>
<clus scale="   23.282">  2  9  1 -1</clus>
<clus scale="   93.292">  7  8 -1 -1</clus>
<clus scale="   99.579">  1  7  2 -1</clus>
<clus scale="  117.275">  5  6 -1 -1</clus>
<clus scale="   99.579">  1  5  2 -1</clus>
</clustering>
</event>
<event>
 9    1  0.1175034E-005  0.1137354E+03  0.7546771E-02  0.1256048E+00
          2   -1    0    0  502    0  0.00000000000E+00  0.00000000000E+00  0.14513000798E+03  0.14513000798E+03  0.00000000000E+00 0. -1.
         -2   -1    0    0    0  501 -0.00000000000E+00 -0.00000000000E+00 -0.23368640030E+03  0.23368640030E+03  0.00000000000E+00 0.  1.
         23    2    1    2    0    0 -0.65873291405E+02 -0.14469326707E+02 -0.13958932565E+03  0.17860950884E+03  0.88699069195E+02 0.  0.
         23    2    1    2    0    0  0.62356774379E+02 -0.71758246675E+01  0.96927932511E+02  0.14934208430E+03  0.94700444944E+02 0.  0.
        -11    1    3    3    0    0 -0.81432142436E+02 -0.27179437672E+02 -0.13130370356E+03  0.15687758993E+03  0.00000000000E+00 0.  1.
         11    1    3    3    0    0  0.15558851031E+02  0.12710110965E+02 -0.82856220981E+01  0.21731918914E+02  0.00000000000E+00 0. -1.
        -13    1    4    4    0    0  0.86359472894E+02 -0.16059866342E+02  0.78483309285E+02  0.11779434495E+03  0.00000000000E+00 0. -1.
         13    1    4    4    0    0 -0.24002698515E+02  0.88840416747E+01  0.18444623226E+02  0.31547739355E+02  0.00000000000E+00 0.  1.
         21    1    1    2  502  501  0.35165170259E+01  0.21645151375E+02 -0.45894999175E+02  0.50864815141E+02  0.00000000000E+00 0. -1.
<scales pt_clust_5="13000.00000" pt_clust_6="13000.00000" pt_clust_7="13000.00000" pt_clust_8="13000.00000" pt_clust_9="21.92894"></scales>
<clustering>
<clus scale="   21.929">  2  9  1 -1</clus>
<clus scale="   88.699">  5  6 -1 -1</clus>
<clus scale="   94.700">  7  8 -1 -1</clus>
<clus scale="  108.789">  2  5  1 -1</clus>
<clus scale="  113.735">  1  5  2 -1</clus>
</clustering>
</event>
<event>
 9    1  0.1175034E-005  0.9859637E+02  0.7546771E-02  0.1285034E+00
          2   -1    0    0  502    0  0.00000000000E+00  0.00000000000E+00  0.12190085571E+03  0.12190085571E+03  0.00000000000E+00 0. -1.
         -2   -1    0    0    0  501 -0.00000000000E+00 -0.00000000000E+00 -0.26793376260E+03  0.26793376260E+03  0.00000000000E+00 0.  1.
         23    2    1    2    0    0  0.60583623045E+01  0.38484869307E+02 -0.13639814277E+03  0.16939767536E+03  0.92592279083E+02 0.  0.
         23    2    1    2    0    0 -0.17361826338E+02 -0.13097031843E+02  0.79886304287E+02  0.12670150527E+03  0.95908730405E+02 0.  0.
        -11    1    3    3    0    0  0.40443206784E+02  0.45754732028E+02 -0.61523320363E+02  0.86684874266E+02  0.00000000000E+00 0.  1.
         11    1    3    3    0    0 -0.34384844480E+02 -0.72698627212E+01 -0.74874822405E+02  0.82712801089E+02  0.00000000000E+00 0. -1.
        -11    1    4    4    0    0 -0.74429447048E+01 -0.46426072068E+02  0.91796953661E+01  0.47906621678E+02  0.00000000000E+00 0. -1.
         11    1    4    4    0    0 -0.99188816332E+01  0.33329040225E+02  0.70706608921E+02  0.78794883592E+02  0.00000000000E+00 0.  1.
         21    1    1    2  502  501  0.11303464034E+02 -0.25387837464E+02 -0.89521068411E+02  0.93735437694E+02  0.00000000000E+00 0.  1.
<scales pt_clust_5="13000.00000" pt_clust_6="13000.00000" pt_clust_7="13000.00000" pt_clust_8="13000.00000" pt_clust_9="27.79048"></scales>
<clustering>
<clus scale="   27.790">  2  9  1 -1</clus>
<clus scale="   92.592">  5  6 -1 -1</clus>
<clus scale="   95.373">  2  5  1 -1</clus>
<clus scale="   95.909">  7  8 -1 -1</clus>
<clus scale="   98.596">  1  5  2 -1</clus>
</clustering>
</event>
<event>
 9    1  0.1175034E-005  0.1753567E+03  0.7546771E-02  0.1175222E+00
          1   -1    0    0  502    0  0.00000000000E+00  0.00000000000E+00  0.51537303581E+03  0.51537303581E+03  0.00000000000E+00 0. -1.
         -1   -1    0    0    0  501 -0.00000000000E+00 -0.00000000000E+00 -0.18084471936E+03  0.18084471936E+03  0.00000000000E+00 0.  1.
         23    2    1    2    0    0 -0.17966684691E+03 -0.35936051902E+02  0.15277724696E+03  0.24834308572E+03  0.69005980403E+02 0.  0.
         23    2    1    2    0    0  0.13257654396E+03  0.19553793881E+02  0.28786237728E+03  0.33063353054E+03  0.92167740565E+02 0.  0.
        -13    1    4    4    0    0  0.43870058186E+01 -0.22434748705E+02  0.76957228778E+02  0.80280625500E+02  0.00000000000E+00 0.  1.
         13    1    4    4    0    0  0.12818953814E+03  0.41988542586E+02  0.21090514850E+03  0.25035290504E+03  0.00000000000E+00 0. -1.
        -13    1    3    3    0    0 -0.15718972515E+03 -0.22638410305E+02  0.15527632841E+03  0.22210773395E+03  0.00000000000E+00 0. -1.
         13    1    3    3    0    0 -0.22477121756E+02 -0.13297641597E+02 -0.24990814501E+01  0.26235351771E+02  0.00000000000E+00 0.  1.
         21    1    1    2  502  501  0.47090302944E+02  0.16382258021E+02 -0.10611130780E+03  0.11724113891E+03  0.00000000000E+00 0.  1.
<scales pt_clust_5="13000.00000" pt_clust_6="13000.00000" pt_clust_7="13000.00000" pt_clust_8="13000.00000" pt_clust_9="49.85855"></scales>
<clustering>
<clus scale="   49.859">  2  9  1 -1</clus>
<clus scale="   69.006">  7  8 -1 -1</clus>
<clus scale="   92.168">  5  6 -1 -1</clus>
<clus scale="  164.368">  2  7  1 -1</clus>
<clus scale="  175.357">  1  5  2 -1</clus>
</clustering>
</event>
<event>
 9    1  0.1175034E-005  0.2079187E+03  0.7546771E-02  0.1143350E+00
          1   -1    0    0  502    0  0.00000000000E+00  0.00000000000E+00  0.90753032495E+03  0.90753032495E+03  0.00000000000E+00 0. -1.
         -1   -1    0    0    0  501 -0.00000000000E+00 -0.00000000000E+00 -0.90145334716E+02  0.90145334716E+02  0.00000000000E+00 0.  1.
         23    2    1    2    0    0  0.16275908399E+03 -0.13903166451E+03  0.15905895345E+03  0.28180202412E+03  0.91062104995E+02 0.  0.
         23    2    1    2    0    0 -0.14273841197E+03  0.11002971192E+03  0.64888916953E+03  0.67939083102E+03  0.89632333379E+02 0.  0.
        -11    1    4    4    0    0 -0.79996490117E+02  0.35544595650E+02  0.17588384620E+03  0.19646369656E+03  0.00000000000E+00 0.  1.
         11    1    4    4    0    0 -0.62741921849E+02  0.74485116274E+02  0.47300532333E+03  0.48292713446E+03  0.00000000000E+00 0. -1.
        -11    1    3    3    0    0  0.45440642157E+02 -0.72575144915E+02  0.19643056361E+02  0.87851313492E+02  0.00000000000E+00 0.  1.
         11    1    3    3    0    0  0.11731844183E+03 -0.66456519598E+02  0.13941589709E+03  0.19395071063E+03  0.00000000000E+00 0. -1.
         21    1    1    2  502  501 -0.20020672023E+02  0.29001952589E+02  0.94368672498E+01  0.36482804522E+02  0.00000000000E+00 0. -1.
<scales pt_clust_5="13000.00000" pt_clust_6="13000.00000" pt_clust_7="13000.00000" pt_clust_8="13000.00000" pt_clust_9="35.24118"></scales>
<clustering>
<clus scale="   35.241">  2  9  1 -1</clus>
<clus scale="   89.632">  5  6 -1 -1</clus>
<clus scale="   91.062">  7  8 -1 -1</clus>
<clus scale="  207.297">  1  5  2 -1</clus>
<clus scale="  207.297">  1  5  2 -1</clus>
</clustering>
</event>
<event>
 9    1  0.1175034E-005  0.9367313E+02  0.7546771E-02  0.1294967E+00
         -2   -1    0    0    0  501 -0.00000000000E+00  0.00000000000E+00  0.46056392841E+02  0.46056392841E+02  0.00000000000E+00 0.  1.
          2   -1    0    0  502    0  0.00000000000E+00 -0.00000000000E+00 -0.63190292855E+03  0.63190292855E+03  0.00000000000E+00 0. -1.
         23    2    1    2    0    0 -0.14077601597E+00 -0.93463245307E+01 -0.30955225049E+02  0.97001470493E+02  0.91453188681E+02 0.  0.
         23    2    1    2    0    0 -0.85654424339E+01 -0.22222733988E+02 -0.53410207698E+03  0.54216872958E+03  0.90081551905E+02 0.  0.
        -13    1    4    4    0    0  0.35808027345E+02  0.11308278619E+02 -0.21183632112E+03  0.21513883642E+03  0.00000000000E+00 0.  1.
         13    1    4    4    0    0 -0.44373469779E+02 -0.33531012606E+02 -0.32226575586E+03  0.32702989317E+03  0.00000000000E+00 0. -1.
        -13    1    3    3    0    0 -0.17604276471E+02 -0.36130355446E+02  0.13361821821E+02  0.42353883141E+02  0.00000000000E+00 0. -1.
         13    1    3    3    0    0  0.17463500455E+02  0.26784030916E+02 -0.44317046870E+02  0.54647587353E+02  0.00000000000E+00 0.  1.
         21    1    1    2  502  501  0.87062184499E+01  0.31569058519E+02 -0.20789233683E+02  0.38789121317E+02  0.00000000000E+00 0.  1.
<scales pt_clust_5="13000.00000" pt_clust_6="13000.00000" pt_clust_7="13000.00000" pt_clust_8="13000.00000" pt_clust_9="32.74758"></scales>
<clustering>
<clus scale="   32.748">  1  9  2 -1</clus>
<clus scale="   90.082">  5  6 -1 -1</clus>
<clus scale="   91.453">  7  8 -1 -1</clus>
<clus scale="   92.334">  2  5  1 -1</clus>
<clus scale="   92.334">  2  5  1 -1</clus>
</clustering>
</event>
<event>
 9    1  0.1175034E-005  0.1115877E+03  0.7546771E-02  0.1258536E+00
          1   -1    0    0  502    0  0.00000000000E+00  0.00000000000E+00  0.40133519715E+03  0.40133519715E+03  0.00000000000E+00 0. -1.
         -1   -1    0    0    0  501 -0.00000000000E+00 -0.00000000000E+00 -0.47556153910E+02  0.47556153910E+02  0.00000000000E+00 0.  1.
         23    2    1    2    0    0  0.36723767986E+02  0.21642499773E+02  0.67538973020E+02  0.12365606954E+03  0.94404860709E+02 0.  0.
         23    2    1    2    0    0 -0.57971374915E+02 -0.31944825000E+02  0.27794907100E+03  0.30020850839E+03  0.92132026388E+02 0.  0.
        -13    1    4    4    0    0 -0.80955740771E+02 -0.23487964446E+02  0.24540595525E+03  0.25947947762E+03  0.00000000000E+00 0. -1.
         13    1    4    4    0    0  0.22984365856E+02 -0.84568605542E+01  0.32543115756E+02  0.40729030769E+02  0.00000000000E+00 0.  1.
        -13    1    3    3    0    0  0.61652026080E+02 -0.10856170520E+02  0.42112718669E+02  0.75447397780E+02  0.00000000000E+00 0.  1.
         13    1    3    3    0    0 -0.24928258094E+02  0.32498670293E+02  0.25426254351E+02  0.48208671758E+02  0.00000000000E+00 0. -1.
         21    1    1    2  502  501  0.21247606929E+02  0.10302325227E+02  0.82909992196E+01  0.25026773131E+02  0.00000000000E+00 0.  1.
<scales pt_clust_5="13000.00000" pt_clust_6="13000.00000" pt_clust_7="13000.00000" pt_clust_8="13000.00000" pt_clust_9="23.61353"></scales>
<clustering>
<clus scale="   23.614">  2  9  1 -1</clus>
<clus scale="   92.132">  5  6 -1 -1</clus>
<clus scale="   94.405">  7  8 -1 -1</clus>
<clus scale="  109.672">  1  5  2 -1</clus>
<clus scale="  109.672">  1  5  2 -1</clus>
</clustering>
</event>
<event>
 9    1  0.1175034E-005  0.2391422E+03  0.7546771E-02  0.1159646E+00
         -2   -1    0    0    0  501 -0.00000000000E+00  0.00000000000E+00  0.15508626231E+03  0.15508626231E+03  0.00000000000E+00 0.  1.
          2   -1    0    0  502    0  0.00000000000E+00 -0.00000000000E+00 -0.66229424688E+03  0.66229424688E+03  0.00000000000E+00 0. -1.
         23    2    1    2    0    0  0.62217036324E+01  0.11095375862E+02 -0.42940332367E+02  0.10215632117E+03  0.91816255915E+02 0.  0.
         23    2    1    2    0    0  0.21462625387E+03 -0.35452653744E+02 -0.44101433842E+02  0.23992770332E+03  0.91099104529E+02 0.  0.
        -11    1    4    4    0    0  0.36017087787E+02 -0.22857770021E+02 -0.43427002068E+02  0.60873744518E+02  0.00000000000E+00 0. -1.
         11    1    4    4    0    0  0.17860916608E+03 -0.12594883723E+02 -0.67443177360E+00  0.17905395880E+03  0.00000000000E+00 0.  1.
        -11    1    3    3    0    0  0.31856764341E+02 -0.27741166368E+02 -0.58431161133E+01  0.42644668502E+02  0.00000000000E+00 0.  1.
         11    1    3    3    0    0 -0.25635060708E+02  0.38836542230E+02 -0.37097216254E+02  0.59511652672E+02  0.00000000000E+00 0. -1.
         21    1    1    2  502  501 -0.22084795750E+03  0.24357277882E+02 -0.42016621835E+03  0.47529648470E+03  0.00000000000E+00 0. -1.
<scales pt_clust_5="13000.00000" pt_clust_6="13000.00000" pt_clust_7="13000.00000" pt_clust_8="13000.00000" pt_clust_9="221.11070"></scales>
<clustering>
<clus scale="   91.099">  5  6 -1 -1</clus>
<clus scale="   91.816">  7  8 -1 -1</clus>
<clus scale="   92.693">  1  7  2 -1</clus>
<clus scale="  221.111">  2  9  1 -1</clus>
<clus scale="  221.111">  2  5  1 -1</clus>
</clustering>
</event>
<event>
 9    1  0.1175034E-005  0.1359693E+03  0.7546771E-02  0.1218968E+00
         -2   -1    0    0    0  501 -0.00000000000E+00  0.00000000000E+00  0.12082848875E+03  0.12082848875E+03  0.00000000000E+00 0.  1.
          2   -1    0    0  502    0  0.00000000000E+00 -0.00000000000E+00 -0.19162747686E+03  0.19162747686E+03  0.00000000000E+00 0. -1.
         23    2    1    2    0    0  0.51839719729E+02 -0.10031454505E+03 -0.29050381013E+02  0.14864376183E+03  0.92199125833E+02 0.  0.
         23    2    1    2    0    0 -0.52048604427E+02  0.74071114271E+02 -0.46741203397E+02  0.13709727706E+03  0.91735140976E+02 0.  0.
        -11    1    4    4    0    0 -0.31166303605E+02  0.52928004923E+02  0.19542912735E+02  0.64456478524E+02  0.00000000000E+00 0.  1.
         11    1    4    4    0    0 -0.20882300823E+02  0.21143109348E+02 -0.66284116132E+02  0.72640798536E+02  0.00000000000E+00 0. -1.
        -11    1    3    3    0    0  0.56144887051E+02 -0.19646262671E+02 -0.32508638694E+02  0.67786691678E+02  0.00000000000E+00 0. -1.
         11    1    3    3    0    0 -0.43051673215E+01 -0.80668282380E+02  0.34582576809E+01  0.80857070155E+02  0.00000000000E+00 0.  1.
         21    1    1    2  502  501  0.20888469817E+00  0.26243430780E+02  0.49925963022E+01  0.26714926722E+02  0.00000000000E+00 0.  1.
<scales pt_clust_5="13000.00000" pt_clust_6="13000.00000" pt_clust_7="13000.00000" pt_clust_8="13000.00000" pt_clust_9="26.24426"></scales>
<clustering>
<clus scale="   26.244">  1  9  2 -1</clus>
<clus scale="   91.735">  5  6 -1 -1</clus>
<clus scale="   92.199">  7  8 -1 -1</clus>
<clus scale="  135.655">  2  5  1 -1</clus>
<clus scale="  135.655">  2  5  1 -1</clus>
</clustering>
</event>
<event>
 9    1  0.1175034E-005  0.9608471E+02  0.7546771E-02  0.1290719E+00
          1   -1    0    0  502    0  0.00000000000E+00  0.00000000000E+00  0.64088253661E+02  0.64088253661E+02  0.00000000000E+00 0. -1.
         -1   -1    0    0    0  501 -0.00000000000E+00 -0.00000000000E+00 -0.22808656883E+03  0.22808656883E+03  0.00000000000E+00 0.  1.
         23    2    1    2    0    0  0.22229801778E+02 -0.14059358742E+02 -0.13518522805E+03  0.16479214055E+03  0.90496265379E+02 0.  0.
         23    2    1    2    0    0 -0.46990243829E+01 -0.66478634911E+01 -0.11270636892E+02  0.95073940577E+02  0.94051858045E+02 0.  0.
        -13    1    3    3    0    0 -0.13511626110E+02 -0.42694750805E+02 -0.44148795643E+02  0.62884989808E+02  0.00000000000E+00 0. -1.
         13    1    3    3    0    0  0.35741427888E+02  0.28635392064E+02 -0.91036432411E+02  0.10190715074E+03  0.00000000000E+00 0.  1.
        -13    1    4    4    0    0  0.44417687500E+02 -0.74620536299E+01 -0.20082344998E+01  0.45084877875E+02  0.00000000000E+00 0.  1.
         13    1    4    4    0    0 -0.49116711882E+02  0.81419013879E+00 -0.92624023924E+01  0.49989062702E+02  0.00000000000E+00 0. -1.
         21    1    1    2  502  501 -0.17530777395E+02  0.20707222233E+02 -0.17542450220E+02  0.32308741362E+02  0.00000000000E+00 0. -1.
<scales pt_clust_5="13000.00000" pt_clust_6="13000.00000" pt_clust_7="13000.00000" pt_clust_8="13000.00000" pt_clust_9="27.13148"></scales>
<clustering>
<clus scale="   27.131">  1  9  2 -1</clus>
<clus scale="   90.496">  5  6 -1 -1</clus>
<clus scale="   92.607">  2  5  1 -1</clus>
<clus scale="   94.052">  7  8 -1 -1</clus>
<clus scale="   27.131">  1  5  2 -1</clus>
</clustering>
</event>
<event>
 9    1  0.1175034E-005  0.9481647E+02  0.7546771E-02  0.1292662E+00
          1   -1    0    0  502    0  0.00000000000E+00  0.00000000000E+00  0.22727985337E+03  0.22727985337E+03  0.00000000000E+00 0. -1.
         -1   -1    0    0    0  501 -0.00000000000E+00 -0.00000000000E+00 -0.27240147672E+03  0.27240147672E+03  0.00000000000E+00 0.  1.
         23    2    1    2    0    0 -0.82870138106E+02 -0.57424969786E+02 -0.18722251411E+03  0.23080973114E+03  0.89753970670E+02 0.  0.
         23    2    1    2    0    0  0.19920727589E+02  0.18250865970E+01  0.15763477973E+03  0.18345920524E+03  0.91697273017E+02 0.  0.
        -13    1    3    3    0    0 -0.63156795262E+01 -0.58085019821E+02 -0.81019029381E+02  0.99889140838E+02  0.00000000000E+00 0. -1.
         13    1    3    3    0    0 -0.76554458580E+02  0.66005003475E+00 -0.10620348473E+03  0.13092059030E+03  0.00000000000E+00 0.  1.
        -13    1    4    4    0    0 -0.17908826670E+02 -0.24564979449E+02  0.15693926262E+02  0.34212038956E+02  0.00000000000E+00 0.  1.
         13    1    4    4    0    0  0.37829554259E+02  0.26390066046E+02  0.14194085346E+03  0.14924716628E+03  0.00000000000E+00 0. -1.
         21    1    1    2  502  501  0.62949410517E+02  0.55599883189E+02 -0.15533888963E+02  0.85412393723E+02  0.00000000000E+00 0. -1.
<scales pt_clust_5="13000.00000" pt_clust_6="13000.00000" pt_clust_7="13000.00000" pt_clust_8="13000.00000" pt_clust_9="83.98795"></scales>
<clustering>
<clus scale="   83.988">  2  9  1 -1</clus>
<clus scale="   89.754">  5  6 -1 -1</clus>
<clus scale="   91.697">  7  8 -1 -1</clus>
<clus scale="   92.938">  2  5  1 -1</clus>
<clus scale="   94.816">  1  5  2 -1</clus>
</clustering>
</event>
<event>
 9    1  0.1175034E-005  0.1721061E+03  0.7546771E-02  0.1175755E+00
          1   -1    0    0  502    0  0.00000000000E+00  0.00000000000E+00  0.13462111591E+03  0.13462111591E+03  0.00000000000E+00 0. -1.
         -1   -1    0    0    0  501 -0.00000000000E+00 -0.00000000000E+00 -0.37397617233E+03  0.37397617233E+03  0.00000000000E+00 0.  1.
         23    2    1    2    0    0 -0.50114269494E+01 -0.10707183432E+03 -0.10828535101E+03  0.17708438466E+03  0.90242284679E+02 0.  0.
         23    2    1    2    0    0 -0.39364769894E+02  0.17739559772E+03 -0.37970511916E+02  0.20668446782E+03  0.90873132789E+02 0.  0.
        -11    1    3    3    0    0 -0.45907045081E+02 -0.38556090138E+02 -0.40082847966E+02  0.72115626433E+02  0.00000000000E+00 0.  1.
         11    1    3    3    0    0  0.40895618132E+02 -0.68515744183E+02 -0.68202503040E+02  0.10496875823E+03  0.00000000000E+00 0. -1.
        -11    1    4    4    0    0 -0.60547638582E+02  0.13343660658E+03 -0.52689674934E+02  0.15571623666E+03  0.00000000000E+00 0.  1.
         11    1    4    4    0    0  0.21182868688E+02  0.43958991137E+02  0.14719163019E+02  0.50968231160E+02  0.00000000000E+00 0. -1.
         21    1    1    2  502  501  0.44376196843E+02 -0.70323763397E+02 -0.93099193494E+02  0.12482843576E+03  0.00000000000E+00 0. -1.
<scales pt_clust_5="13000.00000" pt_clust_6="13000.00000" pt_clust_7="13000.00000" pt_clust_8="13000.00000" pt_clust_9="83.15455"></scales>
<clustering>
<clus scale="   83.155">  2  9  1 -1</clus>
<clus scale="   90.242">  5  6 -1 -1</clus>
<clus scale="   90.873">  7  8 -1 -1</clus>
<clus scale="  171.774">  2  5  1 -1</clus>
<clus scale="  172.106">  1  5  2 -1</clus>
</clustering>
</event>
<event>
 9    1  0.1175034E-005  0.1156189E+03  0.7546771E-02  0.1250794E+00
         -2   -1    0    0    0  501 -0.00000000000E+00  0.00000000000E+00  0.28693264770E+03  0.28693264770E+03  0.00000000000E+00 0.  1.
          2   -1    0    0  502    0  0.00000000000E+00 -0.00000000000E+00 -0.13018030575E+03  0.13018030575E+03  0.00000000000E+00 0. -1.
         23    2    1    2    0    0  0.47228139529E+02  0.18211265368E+02  0.57890934824E+02  0.11850364572E+03  0.90164329785E+02 0.  0.
         23    2    1    2    0    0 -0.79893655985E+02 -0.17465114838E+02 -0.60896071465E+02  0.13554476630E+03  0.89308597835E+02 0.  0.
        -11    1    4    4    0    0 -0.31228471563E+02 -0.50988054086E+02 -0.17731582806E+02  0.62365119453E+02  0.00000000000E+00 0.  1.
         11    1    4    4    0    0 -0.48665184422E+02  0.33522939248E+02 -0.43164488659E+02  0.73179646842E+02  0.00000000000E+00 0. -1.
        -13    1    3    3    0    0  0.68923270539E+02  0.29771614921E+02  0.56349520980E+02  0.93872438934E+02  0.00000000000E+00 0.  1.
         13    1    3    3    0    0 -0.21695131009E+02 -0.11560349553E+02  0.15414138439E+01  0.24631206790E+02  0.00000000000E+00 0. -1.
         21    1    1    2  502  501  0.32665516455E+02 -0.74615052983E+00  0.15975747859E+03  0.16306454143E+03  0.00000000000E+00 0.  1.
<scales pt_clust_5="13000.00000" pt_clust_6="13000.00000" pt_clust_7="13000.00000" pt_clust_8="13000.00000" pt_clust_9="32.67404"></scales>
<clustering>
<clus scale="   32.674">  1  9  2 -1</clus>
<clus scale="   89.309">  5  6 -1 -1</clus>
<clus scale="   90.164">  7  8 -1 -1</clus>
<clus scale="  114.953">  2  5  1 -1</clus>
<clus scale="  114.953">  2  5  1 -1</clus>
</clustering>
</event>
<event>
 9    1  0.1175034E-005  0.1575862E+03  0.7546771E-02  0.1191458E+00
          2   -1    0    0  502    0  0.00000000000E+00  0.00000000000E+00  0.29899811378E+03  0.29899811378E+03  0.00000000000E+00 0. -1.
         -2   -1    0    0    0  501 -0.00000000000E+00 -0.00000000000E+00 -0.11562444123E+03  0.11562444123E+03  0.00000000000E+00 0.  1.
         23    2    1    2    0    0  0.57632405689E+02  0.10901670062E+03  0.12265104435E+02  0.15377684875E+03  0.91053562397E+02 0.  0.
         23    2    1    2    0    0 -0.78290818698E+02 -0.10541251700E+03  0.17757352585E+03  0.23890132552E+03  0.91105626721E+02 0.  0.
        -13    1    3    3    0    0  0.61009386167E+02  0.65495990827E+02  0.44067681314E+02  0.99768885687E+02  0.00000000000E+00 0. -1.
         13    1    3    3    0    0 -0.33769804778E+01  0.43520709795E+02 -0.31802576879E+02  0.54007963064E+02  0.00000000000E+00 0.  1.
        -13    1    4    4    0    0 -0.35112169087E+02  0.28184411100E+01  0.78157297992E+02  0.85728474019E+02  0.00000000000E+00 0.  1.
         13    1    4    4    0    0 -0.43178649611E+02 -0.10823095811E+03  0.99416227855E+02  0.15317285150E+03  0.00000000000E+00 0. -1.
         21    1    1    2  502  501  0.20658413009E+02 -0.36041836232E+01 -0.64649577368E+01  0.21944380743E+02  0.00000000000E+00 0.  1.
<scales pt_clust_5="13000.00000" pt_clust_6="13000.00000" pt_clust_7="13000.00000" pt_clust_8="13000.00000" pt_clust_9="20.97046"></scales>
<clustering>
<clus scale="   20.970">  2  9  1 -1</clus>
<clus scale="   91.054">  5  6 -1 -1</clus>
<clus scale="   91.106">  7  8 -1 -1</clus>
<clus scale="  157.556">  2  5  1 -1</clus>
<clus scale="  157.586">  1  5  2 -1</clus>
</clustering>
</event>
<event>
 9    1  0.1175034E-005  0.9607751E+02  0.7546771E-02  0.1289793E+00
         -1   -1    0    0    0  501 -0.00000000000E+00  0.00000000000E+00  0.23600423710E+03  0.23600423710E+03  0.00000000000E+00 0.  1.
          1   -1    0    0  502    0  0.00000000000E+00 -0.00000000000E+00 -0.68933451731E+02  0.68933451731E+02  0.00000000000E+00 0. -1.
         23    2    1    2    0    0  0.71728449704E+01 -0.32070631402E+01  0.96575902517E+02  0.13264535712E+03  0.90587807458E+02 0.  0.
         23    2    1    2    0    0 -0.77270118269E+01  0.34697432129E+02  0.45243546367E+01  0.99189246733E+02  0.92490098792E+02 0.  0.
        -11    1    4    4    0    0 -0.30759836560E+02  0.40848829763E+02  0.33904147659E+02  0.61353774673E+02  0.00000000000E+00 0. -1.
         11    1    4    4    0    0  0.23032824733E+02 -0.61513976338E+01 -0.29379793022E+02  0.37835472060E+02  0.00000000000E+00 0.  1.
        -11    1    3    3    0    0 -0.74730973343E+01 -0.43867110334E+02  0.66413437534E+02  0.79943200073E+02  0.00000000000E+00 0.  1.
         11    1    3    3    0    0  0.14645942305E+02  0.40660047194E+02  0.30162464983E+02  0.52702157049E+02  0.00000000000E+00 0. -1.
         21    1    1    2  502  501  0.55416685658E+00 -0.31490368989E+02  0.65970528214E+02  0.73103084974E+02  0.00000000000E+00 0.  1.
<scales pt_clust_5="13000.00000" pt_clust_6="13000.00000" pt_clust_7="13000.00000" pt_clust_8="13000.00000" pt_clust_9="31.49524"></scales>
<clustering>
<clus scale="   31.495">  1  9  2 -1</clus>
<clus scale="   90.588">  7  8 -1 -1</clus>
<clus scale="   92.490">  5  6 -1 -1</clus>
<clus scale="   94.248">  1  7  2 -1</clus>
<clus scale="   96.078">  2  5  1 -1</clus>
</clustering>
</event>
<event>
 9    1  0.1175034E-005  0.9511840E+02  0.7546771E-02  0.1292887E+00
          2   -1    0    0  502    0  0.00000000000E+00  0.00000000000E+00  0.44023137503E+03  0.44023137503E+03  0.00000000000E+00 0. -1.
         -2   -1    0    0    0  501 -0.00000000000E+00 -0.00000000000E+00 -0.46708769341E+02  0.46708769341E+02  0.00000000000E+00 0.  1.
         23    2    1    2    0    0 -0.74815772945E+01 -0.16692837904E+01  0.10448415663E+03  0.14044178348E+03  0.93531786327E+02 0.  0.
         23    2    1    2    0    0 -0.11898743693E+02  0.21707417230E+02  0.30174705068E+03  0.31586125613E+03  0.90023655042E+02 0.  0.
        -11    1    4    4    0    0  0.50745840890E+01  0.54843399159E+02  0.15612444626E+03  0.16555480227E+03  0.00000000000E+00 0. -1.
         11    1    4    4    0    0 -0.16973327782E+02 -0.33135981928E+02  0.14562260442E+03  0.15030645386E+03  0.00000000000E+00 0.  1.
        -13    1    3    3    0    0  0.10487236623E+02 -0.31129704258E+02  0.10046706678E+03  0.10570086152E+03  0.00000000000E+00 0. -1.
         13    1    3    3    0    0 -0.17968813918E+02  0.29460420467E+02  0.40170898500E+01  0.34740921959E+02  0.00000000000E+00 0.  1.
         21    1    1    2  502  501  0.19380320988E+02 -0.20038133440E+02 -0.12708601614E+02  0.30637104764E+02  0.00000000000E+00 0. -1.
<scales pt_clust_5="13000.00000" pt_clust_6="13000.00000" pt_clust_7="13000.00000" pt_clust_8="13000.00000" pt_clust_9="27.87694"></scales>
<clustering>
<clus scale="   27.877">  2  9  1 -1</clus>
<clus scale="   90.024">  5  6 -1 -1</clus>
<clus scale="   91.671">  1  5  2 -1</clus>
<clus scale="   93.532">  7  8 -1 -1</clus>
<clus scale="   91.671">  1  5  2 -1</clus>
</clustering>
</event>
<event>
 9    1  0.1175034E-005  0.9436116E+02  0.7546771E-02  0.1293897E+00
         -2   -1    0    0    0  501 -0.00000000000E+00  0.00000000000E+00  0.33490749166E+02  0.33490749166E+02  0.00000000000E+00 0.  1.
          2   -1    0    0  502    0  0.00000000000E+00 -0.00000000000E+00 -0.52607264604E+03  0.52607264604E+03  0.00000000000E+00 0. -1.
         23    2    1    2    0    0 -0.90724345314E+01  0.58353724421E+01 -0.88959996345E+02  0.12784718177E+03  0.91184759126E+02 0.  0.
         23    2    1    2    0    0  0.59923259166E+01  0.16453943604E+02 -0.39705913209E+03  0.40827755715E+03  0.93423600170E+02 0.  0.
        -11    1    4    4    0    0  0.46492317429E+02  0.80411663414E+01 -0.28392336166E+03  0.28781707947E+03  0.00000000000E+00 0.  1.
         11    1    4    4    0    0 -0.40499991512E+02  0.84127772628E+01 -0.11313577043E+03  0.12046047769E+03  0.00000000000E+00 0. -1.
        -13    1    3    3    0    0 -0.37503452082E+02 -0.21739168561E+02 -0.73498835150E+02  0.85329825596E+02  0.00000000000E+00 0. -1.
         13    1    3    3    0    0  0.28431017550E+02  0.27574541003E+02 -0.15461161195E+02  0.42517356174E+02  0.00000000000E+00 0.  1.
         21    1    1    2  502  501  0.30801086147E+01 -0.22289316046E+02 -0.65627684429E+01  0.23438656287E+02  0.00000000000E+00 0.  1.
<scales pt_clust_5="13000.00000" pt_clust_6="13000.00000" pt_clust_7="13000.00000" pt_clust_8="13000.00000" pt_clust_9="22.50113"></scales>
<clustering>
<clus scale="   22.501">  1  9  2 -1</clus>
<clus scale="   91.185">  7  8 -1 -1</clus>
<clus scale="   92.145">  1  7  2 -1</clus>
<clus scale="   93.424">  5  6 -1 -1</clus>
<clus scale="   94.361">  2  5  1 -1</clus>
</clustering>
</event>
<event>
 9    1  0.1175034E-005  0.1024247E+03  0.7546771E-02  0.1275445E+00
          2   -1    0    0  502    0  0.00000000000E+00  0.00000000000E+00  0.24703351146E+03  0.24703351146E+03  0.00000000000E+00 0. -1.
         -2   -1    0    0    0  501 -0.00000000000E+00 -0.00000000000E+00 -0.71566571288E+02  0.71566571288E+02  0.00000000000E+00 0.  1.
         23    2    1    2    0    0  0.28291168281E+02 -0.17195862911E+02  0.43638488868E+02  0.10562663856E+03  0.90313792733E+02 0.  0.
         23    2    1    2    0    0 -0.40664717586E+02  0.38389016488E+02  0.14889150918E+03  0.18308360603E+03  0.90684008773E+02 0.  0.
        -13    1    3    3    0    0 -0.22772798316E+02 -0.33789520795E+02  0.89959136321E+01  0.41728389865E+02  0.00000000000E+00 0.  1.
         13    1    3    3    0    0  0.51063966597E+02  0.16593657884E+02  0.34642575236E+02  0.63898248690E+02  0.00000000000E+00 0. -1.
        -13    1    4    4    0    0 -0.60694664331E+02  0.53513859389E+02  0.10552834753E+03  0.13298047811E+03  0.00000000000E+00 0. -1.
         13    1    4    4    0    0  0.20029946744E+02 -0.15124842901E+02  0.43363161651E+02  0.50103127924E+02  0.00000000000E+00 0.  1.
         21    1    1    2  502  501  0.12373549305E+02 -0.21193153577E+02 -0.17063057881E+02  0.29889838159E+02  0.00000000000E+00 0.  1.
<scales pt_clust_5="13000.00000" pt_clust_6="13000.00000" pt_clust_7="13000.00000" pt_clust_8="13000.00000" pt_clust_9="24.54087"></scales>
<clustering>
<clus scale="   24.541">  2  9  1 -1</clus>
<clus scale="   90.314">  5  6 -1 -1</clus>
<clus scale="   90.684">  7  8 -1 -1</clus>
<clus scale="  102.097">  2  5  1 -1</clus>
<clus scale="  102.425">  1  5  2 -1</clus>
</clustering>
</event>
<event>
 9    1  0.1175034E-005  0.1622070E+03  0.7546771E-02  0.1186240E+00
         -1   -1    0    0    0  501 -0.00000000000E+00  0.00000000000E+00  0.23900590224E+03  0.23900590224E+03  0.00000000000E+00 0.  1.
          1   -1    0    0  502    0  0.00000000000E+00 -0.00000000000E+00 -0.13295963100E+03  0.13295963100E+03  0.00000000000E+00 0. -1.
         23    2    1    2    0    0 -0.11484281481E+03 -0.39700774563E+02  0.60906464211E+02  0.16344924554E+03  0.90780145807E+02 0.  0.
         23    2    1    2    0    0  0.14093365974E+03  0.37227715484E+02  0.21135434692E+02  0.17297675897E+03  0.90697592567E+02 0.  0.
        -11    1    4    4    0    0  0.42679297314E+02 -0.22431948953E+02  0.31450763753E+02  0.57566181858E+02  0.00000000000E+00 0.  1.
         11    1    4    4    0    0  0.98254362424E+02  0.59659664437E+02 -0.10315329062E+02  0.11541057711E+03  0.00000000000E+00 0. -1.
        -13    1    3    3    0    0 -0.75436584289E+02 -0.29711858050E+02  0.83958670709E+02  0.11671559941E+03  0.00000000000E+00 0.  1.
         13    1    3    3    0    0 -0.39406230519E+02 -0.99889165131E+01 -0.23052206498E+02  0.46733646137E+02  0.00000000000E+00 0. -1.
         21    1    1    2  502  501 -0.26090844930E+02  0.24730590789E+01  0.24004372337E+02  0.35539528720E+02  0.00000000000E+00 0. -1.
<scales pt_clust_5="13000.00000" pt_clust_6="13000.00000" pt_clust_7="13000.00000" pt_clust_8="13000.00000" pt_clust_9="26.20779"></scales>
<clustering>
<clus scale="   26.208">  1  9  2 -1</clus>
<clus scale="   90.698">  5  6 -1 -1</clus>
<clus scale="   90.780">  7  8 -1 -1</clus>
<clus scale="  162.161">  2  5  1 -1</clus>
<clus scale="  162.161">  2  5  1 -1</clus>
</clustering>
</event>
<event>
 9    1  0.1175034E-005  0.2179875E+03  0.7546771E-02  0.1135406E+00
          1   -1    0    0  502    0  0.00000000000E+00  0.00000000000E+00  0.59257342612E+03  0.59257342612E+03  0.00000000000E+00 0. -1.
         -1   -1    0    0    0  501 -0.00000000000E+00 -0.00000000000E+00 -0.22234783529E+03  0.22234783529E+03  0.00000000000E+00 0.  1.
         23    2    1    2    0    0  0.18156791741E+03  0.12147670952E+03  0.88558454915E+02  0.25287986890E+03  0.91553965342E+02 0.  0.
         23    2    1    2    0    0 -0.15765253493E+03 -0.10786753772E+03  0.39347041452E+03  0.44690178949E+03  0.91719762755E+02 0.  0.
        -11    1    4    4    0    0 -0.65894365980E+02 -0.19127561195E+02  0.65058884332E+02  0.94554690501E+02  0.00000000000E+00 0.  1.
         11    1    4    4    0    0 -0.91758168947E+02 -0.88739976528E+02  0.32841153019E+03  0.35234709899E+03  0.00000000000E+00 0. -1.
        -11    1    3    3    0    0  0.38158723059E+02  0.72126926276E+02  0.10389914789E+02  0.82257716774E+02  0.00000000000E+00 0.  1.
         11    1    3    3    0    0  0.14340919435E+03  0.49349783243E+02  0.78168540126E+02  0.17062215213E+03  0.00000000000E+00 0. -1.
         21    1    1    2  502  501 -0.23915382487E+02 -0.13609171796E+02 -0.11180327861E+03  0.11513960302E+03  0.00000000000E+00 0. -1.
<scales pt_clust_5="13000.00000" pt_clust_6="13000.00000" pt_clust_7="13000.00000" pt_clust_8="13000.00000" pt_clust_9="27.51645"></scales>
<clustering>
<clus scale="   27.516">  2  9  1 -1</clus>
<clus scale="   91.554">  7  8 -1 -1</clus>
<clus scale="   91.720">  5  6 -1 -1</clus>
<clus scale="  217.918">  2  7  1 -1</clus>
<clus scale="  217.987">  1  5  2 -1</clus>
</clustering>
</event>
<event>
 9    1  0.1175034E-005  0.9885389E+02  0.7546771E-02  0.1283192E+00
          1   -1    0    0  502    0  0.00000000000E+00  0.00000000000E+00  0.13436401909E+03  0.13436401909E+03  0.00000000000E+00 0. -1.
         -1   -1    0    0    0  501 -0.00000000000E+00 -0.00000000000E+00 -0.14039703602E+03  0.14039703602E+03  0.00000000000E+00 0.  1.
         23    2    1    2    0    0  0.30231560923E+02  0.51754151235E+02  0.79859722317E+01  0.10937319185E+03  0.91138794684E+02 0.  0.
         23    2    1    2    0    0 -0.20922438698E+02 -0.93935759860E+01  0.33893588169E+02  0.10076052263E+03  0.92075620503E+02 0.  0.
        -11    1    4    4    0    0 -0.36235971946E+02  0.31897280329E+02  0.29327791761E+02  0.56485409840E+02  0.00000000000E+00 0. -1.
         11    1    4    4    0    0  0.15313533247E+02 -0.41290856315E+02  0.45657964079E+01  0.44275112790E+02  0.00000000000E+00 0.  1.
        -13    1    3    3    0    0 -0.31813061758E+02  0.28358401137E+02  0.28742169941E+00  0.42618686332E+02  0.00000000000E+00 0. -1.
         13    1    3    3    0    0  0.62044622681E+02  0.23395750097E+02  0.76985505323E+01  0.66754505515E+02  0.00000000000E+00 0.  1.
         21    1    1    2  502  501 -0.93091222246E+01 -0.42360575249E+02 -0.47912577330E+02  0.64627340641E+02  0.00000000000E+00 0. -1.
<scales pt_clust_5="13000.00000" pt_clust_6="13000.00000" pt_clust_7="13000.00000" pt_clust_8="13000.00000" pt_clust_9="43.37140"></scales>
<clustering>
<clus scale="   43.371">  2  9  1 -1</clus>
<clus scale="   91.139">  7  8 -1 -1</clus>
<clus scale="   92.076">  5  6 -1 -1</clus>
<clus scale="   97.982">  2  7  1 -1</clus>
<clus scale="   98.854">  1  5  2 -1</clus>
</clustering>
</event>
<event>
 9    1  0.1175034E-005  0.9516314E+02  0.7546771E-02  0.1292871E+00
         -1   -1    0    0    0  501 -0.00000000000E+00  0.00000000000E+00  0.23289274446E+03  0.23289274446E+03  0.00000000000E+00 0.  1.
          1   -1    0    0  502    0  0.00000000000E+00 -0.00000000000E+00 -0.15589871688E+03  0.15589871688E+03  0.00000000000E+00 0. -1.
         23    2    1    2    0    0 -0.39572787527E+02  0.79325910589E+01  0.17465695462E+03  0.19963032292E+03  0.87853756420E+02 0.  0.
         23    2    1    2    0    0  0.15188504165E+02 -0.20288459476E+02 -0.12055213254E+03  0.15350757636E+03  0.91593924982E+02 0.  0.
        -11    1    4    4    0    0  0.36920511579E+02  0.14925807201E+02 -0.19562217459E+02  0.44368730518E+02  0.00000000000E+00 0.  1.
         11    1    4    4    0    0 -0.21732007414E+02 -0.35214266677E+02 -0.10098991508E+03  0.10913884584E+03  0.00000000000E+00 0. -1.
        -13    1    3    3    0    0  0.15757881632E+02  0.30967957916E+02  0.45547134274E+02  0.57287578860E+02  0.00000000000E+00 0.  1.
         13    1    3    3    0    0 -0.55330669159E+02 -0.23035366857E+02  0.12910982035E+03  0.14234274406E+03  0.00000000000E+00 0. -1.
         21    1    1    2  502  501  0.24384283362E+02  0.12355868417E+02  0.22889205491E+02  0.35653562058E+02  0.00000000000E+00 0.  1.
<scales pt_clust_5="13000.00000" pt_clust_6="13000.00000" pt_clust_7="13000.00000" pt_clust_8="13000.00000" pt_clust_9="27.33607"></scales>
<clustering>
<clus scale="   27.336">  1  9  2 -1</clus>
<clus scale="   87.854">  7  8 -1 -1</clus>
<clus scale="   91.569">  1  7  2 -1</clus>
<clus scale="   91.594">  5  6 -1 -1</clus>
<clus scale="   95.163">  2  5  1 -1</clus>
</clustering>
</event>
<event>
 9    1  0.1175034E-005  0.1034569E+03  0.7546771E-02  0.1274400E+00
          3   -1    0    0  502    0  0.00000000000E+00  0.00000000000E+00  0.47540622907E+02  0.47540622907E+02  0.00000000000E+00 0. -1.
         -3   -1    0    0    0  501 -0.00000000000E+00 -0.00000000000E+00 -0.43920589740E+03  0.43920589740E+03  0.00000000000E+00 0.  1.
         23    2    1    2    0    0 -0.18472307528E+02 -0.55372861281E+02 -0.12758132018E+03  0.16906557848E+03  0.94333433406E+02 0.  0.
         23    2    1    2    0    0 -0.64698818295E+01  0.34060840912E+02 -0.69095973615E+02  0.11995227005E+03  0.91718554649E+02 0.  0.
        -11    1    3    3    0    0 -0.36411868535E+02  0.51951659210E+01 -0.14497592546E+02  0.39534720294E+02  0.00000000000E+00 0. -1.
         11    1    3    3    0    0  0.17939561007E+02 -0.60568027202E+02 -0.11308372763E+03  0.12953085819E+03  0.00000000000E+00 0.  1.
        -11    1    4    4    0    0 -0.16587039853E+02 -0.24532222158E+02 -0.11120229782E+01  0.29634378856E+02  0.00000000000E+00 0.  1.
         11    1    4    4    0    0  0.10117158024E+02  0.58593063069E+02 -0.67983950637E+02  0.90317891198E+02  0.00000000000E+00 0. -1.
         21    1    1    2  502  501  0.24942189357E+02  0.21312020369E+02 -0.19498798070E+03  0.19772867177E+03  0.00000000000E+00 0.  1.
<scales pt_clust_5="13000.00000" pt_clust_6="13000.00000" pt_clust_7="13000.00000" pt_clust_8="13000.00000" pt_clust_9="32.80724"></scales>
<clustering>
<clus scale="   32.807">  2  9  1 -1</clus>
<clus scale="   91.719">  7  8 -1 -1</clus>
<clus scale="   94.333">  5  6 -1 -1</clus>
<clus scale="  101.078">  1  7  2 -1</clus>
<clus scale="  101.078">  1  5  2 -1</clus>
</clustering>
</event>
<event>
 9    1  0.1175034E-005  0.1119569E+03  0.7546771E-02  0.1257453E+00
          1   -1    0    0  502    0  0.00000000000E+00  0.00000000000E+00  0.85887265787E+03  0.85887265787E+03  0.00000000000E+00 0. -1.
         -1   -1    0    0    0  501 -0.00000000000E+00 -0.00000000000E+00 -0.34616895253E+02  0.34616895253E+02  0.00000000000E+00 0.  1.
         23    2    1    2    0    0 -0.38507082590E+02  0.86015756682E+02  0.20930850930E+03  0.24701610347E+03  0.91243616229E+02 0.  0.
         23    2    1    2    0    0  0.57355738487E+02 -0.22765475895E+02  0.51684305599E+03  0.52823511669E+03  0.89986923186E+02 0.  0.
        -11    1    3    3    0    0 -0.65144800976E+02  0.63886880758E+02  0.17934950732E+03  0.20122530756E+03  0.00000000000E+00 0. -1.
         11    1    3    3    0    0  0.26637718386E+02  0.22128875924E+02  0.29959001973E+02  0.45790795906E+02  0.00000000000E+00 0.  1.
        -13    1    4    4    0    0  0.36838254469E+01  0.31956062079E+02  0.13561289297E+03  0.13937581287E+03  0.00000000000E+00 0. -1.
         13    1    4    4    0    0  0.53671913040E+02 -0.54721537974E+02  0.38123016302E+03  0.38885930381E+03  0.00000000000E+00 0.  1.
         21    1    1    2  502  501 -0.18848655897E+02 -0.63250280787E+02  0.98104197326E+02  0.11823833296E+03  0.00000000000E+00 0.  1.
<scales pt_clust_5="13000.00000" pt_clust_6="13000.00000" pt_clust_7="13000.00000" pt_clust_8="13000.00000" pt_clust_9="65.99901"></scales>
<clustering>
<clus scale="   65.999">  2  9  1 -1</clus>
<clus scale="   89.987">  7  8 -1 -1</clus>
<clus scale="   91.244">  5  6 -1 -1</clus>
<clus scale="  110.935">  1  7  2 -1</clus>
<clus scale="  110.935">  1  5  2 -1</clus>
</clustering>
</event>
<event>
 9    1  0.1175034E-005  0.1222571E+03  0.7546771E-02  0.1239494E+00
          1   -1    0    0  502    0  0.00000000000E+00  0.00000000000E+00  0.38432801318E+03  0.38432801318E+03  0.00000000000E+00 0. -1.
         -1   -1    0    0    0  501 -0.00000000000E+00 -0.00000000000E+00 -0.64120842481E+02  0.64120842481E+02  0.00000000000E+00 0.  1.
         23    2    1    2    0    0  0.33553068519E+02  0.64771696392E+02  0.66209128180E+02  0.13434594624E+03  0.91345517441E+02 0.  0.
         23    2    1    2    0    0 -0.54330922882E+02 -0.65129882218E+02  0.26325609121E+03  0.29135298647E+03  0.91591715920E+02 0.  0.
        -13    1    3    3    0    0  0.24241816081E+02  0.27994256667E+01  0.67384453947E+02  0.71667057040E+02  0.00000000000E+00 0. -1.
         13    1    3    3    0    0  0.93112524379E+01  0.61972270726E+02 -0.11753257675E+01  0.62678889201E+02  0.00000000000E+00 0.  1.
        -13    1    4    4    0    0 -0.23495302343E+02  0.20363206363E+02  0.42827323933E+02  0.52923237626E+02  0.00000000000E+00 0.  1.
         13    1    4    4    0    0 -0.30835620539E+02 -0.85493088581E+02  0.22042876728E+03  0.23842974884E+03  0.00000000000E+00 0. -1.
         21    1    1    2  502  501  0.20777854363E+02  0.35818582558E+00 -0.92580486876E+01  0.22749922956E+02  0.00000000000E+00 0.  1.
<scales pt_clust_5="13000.00000" pt_clust_6="13000.00000" pt_clust_7="13000.00000" pt_clust_8="13000.00000" pt_clust_9="20.78094"></scales>
<clustering>
<clus scale="   20.781">  2  9  1 -1</clus>
<clus scale="   91.346">  5  6 -1 -1</clus>
<clus scale="   91.592">  7  8 -1 -1</clus>
<clus scale="  122.073">  2  5  1 -1</clus>
<clus scale="  122.257">  1  5  2 -1</clus>
</clustering>
</event>
<event>
 9    1  0.1175034E-005  0.1377197E+03  0.7546771E-02  0.1216617E+00
         -1   -1    0    0    0  501 -0.00000000000E+00  0.00000000000E+00  0.59926926742E+02  0.59926926742E+02  0.00000000000E+00 0.  1.
          1   -1    0    0  502    0  0.00000000000E+00 -0.00000000000E+00 -0.37193663549E+03  0.37193663549E+03  0.00000000000E+00 0. -1.
         23    2    1    2    0    0  0.88935440086E+02  0.39536560072E+02 -0.11989012426E+03  0.17933574054E+03  0.91186697794E+02 0.  0.
         23    2    1    2    0    0 -0.90247397871E+02 -0.60867502599E+02 -0.17568645534E+03  0.22556899984E+03  0.90367015014E+02 0.  0.
        -13    1    4    4    0    0 -0.83988196709E+02 -0.80849525747E+02 -0.16508642070E+03  0.20209945398E+03  0.00000000000E+00 0.  1.
         13    1    4    4    0    0 -0.62592011618E+01  0.19982023148E+02 -0.10600034637E+02  0.23469545854E+02  0.00000000000E+00 0. -1.
        -13    1    3    3    0    0  0.58621755481E+02 -0.22656344220E+02 -0.69767783422E+02  0.93900818701E+02  0.00000000000E+00 0.  1.
         13    1    3    3    0    0  0.30313684605E+02  0.62192904293E+02 -0.50122340838E+02  0.85434921839E+02  0.00000000000E+00 0. -1.
         21    1    1    2  502  501  0.13119577856E+01  0.21330942527E+02 -0.16433129153E+02  0.26958821859E+02  0.00000000000E+00 0. -1.
<scales pt_clust_5="13000.00000" pt_clust_6="13000.00000" pt_clust_7="13000.00000" pt_clust_8="13000.00000" pt_clust_9="21.37125"></scales>
<clustering>
<clus scale="   21.371">  1  9  2 -1</clus>
<clus scale="   90.367">  5  6 -1 -1</clus>
<clus scale="   91.187">  7  8 -1 -1</clus>
<clus scale="  137.178">  2  5  1 -1</clus>
<clus scale="  137.178">  2  5  1 -1</clus>
</clustering>
</event>
<event>
 9    1  0.1175034E-005  0.1365676E+03  0.7546771E-02  0.1236879E+00
         -2   -1    0    0    0  501 -0.00000000000E+00  0.00000000000E+00  0.57237403907E+02  0.57237403907E+02  0.00000000000E+00 0.  1.
          2   -1    0    0  502    0  0.00000000000E+00 -0.00000000000E+00 -0.50412603962E+03  0.50412603962E+03  0.00000000000E+00 0. -1.
         23    2    1    2    0    0  0.13005161168E+02 -0.23372584276E+02 -0.11160012512E+03  0.14486810602E+03  0.88412489514E+02 0.  0.
         23    2    1    2    0    0  0.91678839192E+02  0.38437912337E+02 -0.23322841225E+03  0.26951925879E+03  0.91447558294E+02 0.  0.
        -11    1    4    4    0    0  0.68681210350E+02  0.61086165356E+02 -0.21149957217E+03  0.23060940415E+03  0.00000000000E+00 0.  1.
         11    1    4    4    0    0  0.22997628841E+02 -0.22648253019E+02 -0.21728840080E+02  0.38909854643E+02  0.00000000000E+00 0. -1.
        -13    1    3    3    0    0  0.44050931723E+02  0.27126362827E+01 -0.28879854825E+02  0.52743615689E+02  0.00000000000E+00 0.  1.
         13    1    3    3    0    0 -0.31045770555E+02 -0.26085220559E+02 -0.82720270295E+02  0.92124490330E+02  0.00000000000E+00 0. -1.
         21    1    1    2  502  501 -0.10468400036E+03 -0.15065328062E+02 -0.10206009834E+03  0.14697607871E+03  0.00000000000E+00 0. -1.
<scales pt_clust_5="13000.00000" pt_clust_6="13000.00000" pt_clust_7="13000.00000" pt_clust_8="13000.00000" pt_clust_9="101.43002"></scales>
<clustering>
<clus scale="   88.412">  7  8 -1 -1</clus>
<clus scale="   91.448">  5  6 -1 -1</clus>
<clus scale="   92.370">  1  7  2 -1</clus>
<clus scale="  101.430">  1  9  2 -1</clus>
<clus scale="  136.568">  2  5  1 -1</clus>
</clustering>
</event>
<event>
 9    1  0.1175034E-005  0.9850103E+02  0.7546771E-02  0.1285126E+00
          1   -1    0    0  502    0  0.00000000000E+00  0.00000000000E+00  0.12434448323E+03  0.12434448323E+03  0.00000000000E+00 0. -1.
         -1   -1    0    0    0  501 -0.00000000000E+00 -0.00000000000E+00 -0.15789007220E+03  0.15789007220E+03  0.00000000000E+00 0.  1.
         23    2    1    2    0    0  0.33680824631E+02  0.20811244632E+00 -0.13859880581E+02  0.10088680780E+03  0.94082997618E+02 0.  0.
         23    2    1    2    0    0 -0.14459113351E+02  0.30974083264E+02  0.44969187986E+02  0.10703718889E+03  0.90919041704E+02 0.  0.
        -11    1    3    3    0    0  0.61829835870E+02 -0.18527941181E+02 -0.17501817085E+02  0.66876952752E+02  0.00000000000E+00 0.  1.
         11    1    3    3    0    0 -0.28149011239E+02  0.18736053627E+02  0.36419365044E+01  0.34009855053E+02  0.00000000000E+00 0. -1.
        -11    1    4    4    0    0 -0.42517962017E+02  0.48075035165E+02  0.31953479438E+02  0.71693869671E+02  0.00000000000E+00 0. -1.
         11    1    4    4    0    0  0.28058848666E+02 -0.17100951901E+02  0.13015708548E+02  0.35343319219E+02  0.00000000000E+00 0.  1.
         21    1    1    2  502  501 -0.19221711280E+02 -0.31182195711E+02 -0.64654896376E+02  0.74310558734E+02  0.00000000000E+00 0. -1.
<scales pt_clust_5="13000.00000" pt_clust_6="13000.00000" pt_clust_7="13000.00000" pt_clust_8="13000.00000" pt_clust_9="36.63064"></scales>
<clustering>
<clus scale="   36.631">  2  9  1 -1</clus>
<clus scale="   90.919">  7  8 -1 -1</clus>
<clus scale="   94.083">  5  6 -1 -1</clus>
<clus scale="   95.484">  1  7  2 -1</clus>
<clus scale="   95.484">  1  5  2 -1</clus>
</clustering>
</event>
<event>
 9    1  0.1175034E-005  0.1887325E+03  0.7546771E-02  0.1159612E+00
          2   -1    0    0  502    0  0.00000000000E+00  0.00000000000E+00  0.40074164484E+03  0.40074164484E+03  0.00000000000E+00 0. -1.
         -2   -1    0    0    0  501 -0.00000000000E+00 -0.00000000000E+00 -0.13294728870E+03  0.13294728870E+03  0.00000000000E+00 0.  1.
         23    2    1    2    0    0  0.11673042299E+03  0.14837700234E+03  0.60840355433E+02  0.21850097987E+03  0.91648256277E+02 0.  0.
         23    2    1    2    0    0 -0.11573412531E+03 -0.10366402744E+03  0.20099925618E+03  0.27006920239E+03  0.91629988285E+02 0.  0.
        -11    1    4    4    0    0 -0.12316023231E+03 -0.65164918105E+02  0.13974804214E+03  0.19734341807E+03  0.00000000000E+00 0. -1.
         11    1    4    4    0    0  0.74261069991E+01 -0.38499109333E+02  0.61251214037E+02  0.72725784325E+02  0.00000000000E+00 0.  1.
        -13    1    3    3    0    0  0.78334495436E+02  0.77026601925E+02 -0.10741819154E+02  0.11038467855E+03  0.00000000000E+00 0.  1.
         13    1    3    3    0    0  0.38395927550E+02  0.71350400420E+02  0.71582174587E+02  0.10811630132E+03  0.00000000000E+00 0. -1.
         21    1    1    2  502  501 -0.99629767498E+00 -0.44712974907E+02  0.59547445312E+01  0.45118751274E+02  0.00000000000E+00 0. -1.
<scales pt_clust_5="13000.00000" pt_clust_6="13000.00000" pt_clust_7="13000.00000" pt_clust_8="13000.00000" pt_clust_9="44.72407"></scales>
<clustering>
<clus scale="   44.724">  2  9  1 -1</clus>
<clus scale="   91.630">  5  6 -1 -1</clus>
<clus scale="   91.648">  7  8 -1 -1</clus>
<clus scale="  188.724">  1  5  2 -1</clus>
<clus scale="  188.724">  1  5  2 -1</clus>
</clustering>
</event>
<event>
 9    1  0.1175034E-005  0.1080060E+03  0.7546771E-02  0.1272292E+00
          1   -1    0    0  502    0  0.00000000000E+00  0.00000000000E+00  0.11334709547E+03  0.11334709547E+03  0.00000000000E+00 0. -1.
         -1   -1    0    0    0  501 -0.00000000000E+00 -0.00000000000E+00 -0.14432633337E+03  0.14432633337E+03  0.00000000000E+00 0.  1.
         23    2    1    2    0    0  0.31646100141E+01  0.14763579217E+02 -0.55408683717E+02  0.12143586481E+03  0.10699798598E+03 0.  0.
         23    2    1    2    0    0 -0.18473921876E+02  0.72506469411E+01  0.43740381741E+02  0.10319345065E+03  0.91333507494E+02 0.  0.
        -11    1    3    3    0    0 -0.45835873927E+01  0.59102643538E+02 -0.15482213181E+02  0.61268512888E+02  0.00000000000E+00 0. -1.
         11    1    3    3    0    0  0.77481974068E+01 -0.44339064321E+02 -0.39926470536E+02  0.60167351923E+02  0.00000000000E+00 0.  1.
        -13    1    4    4    0    0 -0.53417226074E+02 -0.60653701098E+01  0.36828808158E+02  0.65165557362E+02  0.00000000000E+00 0. -1.
         13    1    4    4    0    0  0.34943304198E+02  0.13316017051E+02  0.69115735835E+01  0.38027893286E+02  0.00000000000E+00 0.  1.
         21    1    1    2  502  501  0.15309311862E+02 -0.22014226158E+02 -0.19310935926E+02  0.33044113385E+02  0.00000000000E+00 0. -1.
<scales pt_clust_5="13000.00000" pt_clust_6="13000.00000" pt_clust_7="13000.00000" pt_clust_8="13000.00000" pt_clust_9="26.81420"></scales>
<clustering>
<clus scale="   26.814">  2  9  1 -1</clus>
<clus scale="   91.334">  7  8 -1 -1</clus>
<clus scale="   92.512">  1  7  2 -1</clus>
<clus scale="  106.998">  5  6 -1 -1</clus>
<clus scale="   92.512">  1  5  2 -1</clus>
</clustering>
</event>
<event>
 9    1  0.1175034E-005  0.1087635E+03  0.7546771E-02  0.1263142E+00
          1   -1    0    0  502    0  0.00000000000E+00  0.00000000000E+00  0.51290697631E+03  0.51290697631E+03  0.00000000000E+00 0. -1.
         -1   -1    0    0    0  501 -0.00000000000E+00 -0.00000000000E+00 -0.30393674458E+02  0.30393674458E+02  0.00000000000E+00 0.  1.
         23    2    1    2    0    0  0.28225028845E+01  0.46561495961E+02  0.12957673974E+03  0.16528421298E+03  0.91393654871E+02 0.  0.
         23    2    1    2    0    0  0.38093871244E+01 -0.65454392436E+02  0.32429535194E+03  0.34307015869E+03  0.90724139983E+02 0.  0.
        -13    1    3    3    0    0 -0.82638277744E+00  0.67829904320E+02  0.12642753961E+03  0.14347648449E+03  0.00000000000E+00 0.  1.
         13    1    3    3    0    0  0.36488856619E+01 -0.21268408359E+02  0.31492001301E+01  0.21807728496E+02  0.00000000000E+00 0. -1.
        -13    1    4    4    0    0  0.27973689749E+02  0.58073608788E+01  0.15772999242E+03  0.16029661028E+03  0.00000000000E+00 0.  1.
         13    1    4    4    0    0 -0.24164302625E+02 -0.71261753315E+02  0.16656535952E+03  0.18277354841E+03  0.00000000000E+00 0. -1.
         21    1    1    2  502  501 -0.66318900089E+01  0.18892896475E+02  0.28641210163E+02  0.34946279085E+02  0.00000000000E+00 0. -1.
<scales pt_clust_5="13000.00000" pt_clust_6="13000.00000" pt_clust_7="13000.00000" pt_clust_8="13000.00000" pt_clust_9="20.02307"></scales>
<clustering>
<clus scale="   20.023">  2  9  1 -1</clus>
<clus scale="   90.724">  7  8 -1 -1</clus>
<clus scale="   91.394">  5  6 -1 -1</clus>
<clus scale="  108.202">  1  7  2 -1</clus>
<clus scale="  108.202">  1  5  2 -1</clus>
</clustering>
</event>
<event>
 9    1  0.1175034E-005  0.1604600E+03  0.7546771E-02  0.1188406E+00
          1   -1    0    0  502    0  0.00000000000E+00  0.00000000000E+00  0.25304348561E+03  0.25304348561E+03  0.00000000000E+00 0. -1.
         -1   -1    0    0    0  501 -0.00000000000E+00 -0.00000000000E+00 -0.14886490705E+03  0.14886490705E+03  0.00000000000E+00 0.  1.
         23    2    1    2    0    0 -0.13917937196E+03 -0.31717723410E+02  0.53112175269E+02  0.17851788003E+03  0.93117231322E+02 0.  0.
         23    2    1    2    0    0  0.11923227889E+03  0.27359552689E+02  0.91435487633E+02  0.17815177763E+03  0.91720913760E+02 0.  0.
        -11    1    3    3    0    0 -0.98305813060E+02 -0.64607237521E+02  0.41862265829E+02  0.12486223337E+03  0.00000000000E+00 0. -1.
         11    1    3    3    0    0 -0.40873558903E+02  0.32889514111E+02  0.11249909440E+02  0.53655646658E+02  0.00000000000E+00 0.  1.
        -13    1    4    4    0    0  0.99670763969E+02  0.53731148227E+01  0.10575765690E+03  0.14542287834E+03  0.00000000000E+00 0.  1.
         13    1    4    4    0    0  0.19561514917E+02  0.21986437867E+02 -0.14322169264E+02  0.32728899284E+02  0.00000000000E+00 0. -1.
         21    1    1    2  502  501  0.19947093078E+02  0.43581707208E+01 -0.40369084347E+02  0.45238735010E+02  0.00000000000E+00 0.  1.
<scales pt_clust_5="13000.00000" pt_clust_6="13000.00000" pt_clust_7="13000.00000" pt_clust_8="13000.00000" pt_clust_9="20.41764"></scales>
<clustering>
<clus scale="   20.418">  2  9  1 -1</clus>
<clus scale="   91.721">  7  8 -1 -1</clus>
<clus scale="   93.117">  5  6 -1 -1</clus>
<clus scale="  159.654">  1  7  2 -1</clus>
<clus scale="  159.654">  1  5  2 -1</clus>
</clustering>
</event>
<event>
 9    1  0.1175034E-005  0.1352301E+03  0.7546771E-02  0.1237740E+00
          1   -1    0    0  502    0  0.00000000000E+00  0.00000000000E+00  0.70207360845E+03  0.70207360845E+03  0.00000000000E+00 0. -1.
         -1   -1    0    0    0  501 -0.00000000000E+00 -0.00000000000E+00 -0.54710862609E+02  0.54710862609E+02  0.00000000000E+00 0.  1.
         23    2    1    2    0    0  0.90926929311E+02 -0.62705909497E+02  0.40167958700E+03  0.42643356306E+03  0.91100798780E+02 0.  0.
         23    2    1    2    0    0  0.14534280354E+01  0.28436031664E+02  0.20197550973E+03  0.22255984370E+03  0.89039638075E+02 0.  0.
        -11    1    4    4    0    0 -0.13196630466E+02  0.54213611884E+02  0.17014088993E+03  0.17905638552E+03  0.00000000000E+00 0.  1.
         11    1    4    4    0    0  0.14650058502E+02 -0.25777580220E+02  0.31834619799E+02  0.43503458182E+02  0.00000000000E+00 0. -1.
        -11    1    3    3    0    0 -0.87410372449E+01 -0.26638184740E+02  0.35575468009E+02  0.45294729742E+02  0.00000000000E+00 0.  1.
         11    1    3    3    0    0  0.99667966556E+02 -0.36067724756E+02  0.36610411899E+03  0.38113883332E+03  0.00000000000E+00 0. -1.
         21    1    1    2  502  501 -0.92380357347E+02  0.34269877833E+02  0.43707649115E+02  0.10779106429E+03  0.00000000000E+00 0.  1.
<scales pt_clust_5="13000.00000" pt_clust_6="13000.00000" pt_clust_7="13000.00000" pt_clust_8="13000.00000" pt_clust_9="99.93914"></scales>
<clustering>
<clus scale="   89.040">  5  6 -1 -1</clus>
<clus scale="   91.101">  7  8 -1 -1</clus>
<clus scale="   93.481">  1  5  2 -1</clus>
<clus scale="   99.939">  2  9  1 -1</clus>
<clus scale="   93.481">  1  5  2 -1</clus>
</clustering>
</event>
<event>
 9    1  0.1175034E-005  0.1422509E+03  0.7546771E-02  0.1210726E+00
          1   -1    0    0  502    0  0.00000000000E+00  0.00000000000E+00  0.56696835829E+03  0.56696835829E+03  0.00000000000E+00 0. -1.
         -1   -1    0    0    0  501 -0.00000000000E+00 -0.00000000000E+00 -0.51350982582E+02  0.51350982582E+02  0.00000000000E+00 0.  1.
         23    2    1    2    0    0  0.80042108854E+02  0.39754804757E+02  0.11660267279E+03  0.17247341112E+03  0.90353254227E+02 0.  0.
         23    2    1    2    0    0 -0.97075245694E+02 -0.67814265157E+02  0.37842399799E+03  0.40709753368E+03  0.92202504252E+02 0.  0.
        -11    1    4    4    0    0 -0.90800191830E+02 -0.10073257571E+02  0.21266545203E+03  0.23145785760E+03  0.00000000000E+00 0. -1.
         11    1    4    4    0    0 -0.62750538641E+01 -0.57741007586E+02  0.16575854596E+03  0.17563967609E+03  0.00000000000E+00 0.  1.
        -11    1    3    3    0    0  0.82739031763E+02  0.61820007297E+02  0.84605665661E+02  0.13351246886E+03  0.00000000000E+00 0.  1.
         11    1    3    3    0    0 -0.26969229088E+01 -0.22065202540E+02  0.31997007128E+02  0.38960942256E+02  0.00000000000E+00 0. -1.
         21    1    1    2  502  501  0.17033136839E+02  0.28059460400E+02  0.20590704923E+02  0.38748396067E+02  0.00000000000E+00 0.  1.
<scales pt_clust_5="13000.00000" pt_clust_6="13000.00000" pt_clust_7="13000.00000" pt_clust_8="13000.00000" pt_clust_9="32.82470"></scales>
<clustering>
<clus scale="   32.825">  2  9  1 -1</clus>
<clus scale="   90.353">  7  8 -1 -1</clus>
<clus scale="   92.203">  5  6 -1 -1</clus>
<clus scale="  141.059">  2  7  1 -1</clus>
<clus scale="  142.251">  1  5  2 -1</clus>
</clustering>
</event>
<event>
 9    1  0.1175034E-005  0.9777808E+02  0.7546771E-02  0.1285266E+00
          1   -1    0    0  502    0  0.00000000000E+00  0.00000000000E+00  0.17415691534E+02  0.17415691534E+02  0.00000000000E+00 0. -1.
         -1   -1    0    0    0  501 -0.00000000000E+00 -0.00000000000E+00 -0.89054388191E+03  0.89054388191E+03  0.00000000000E+00 0.  1.
         23    2    1    2    0    0  0.97144398717E+00 -0.47020831833E+02 -0.32987645886E+03  0.34581879100E+03  0.92521650263E+02 0.  0.
         23    2    1    2    0    0  0.25736527226E+02  0.12098305651E+02 -0.30488926123E+03  0.31975768526E+03  0.92080279301E+02 0.  0.
        -13    1    4    4    0    0  0.34824884711E+02 -0.32571306501E+02 -0.11541593024E+03  0.12487793863E+03  0.00000000000E+00 0. -1.
         13    1    4    4    0    0 -0.90883574850E+01  0.44669612152E+02 -0.18947333099E+03  0.19487974664E+03  0.00000000000E+00 0.  1.
        -13    1    3    3    0    0 -0.18913613705E+02 -0.66272212950E+02 -0.16789146267E+03  0.18148629212E+03  0.00000000000E+00 0. -1.
         13    1    3    3    0    0  0.19885057692E+02  0.19251381116E+02 -0.16198499620E+03  0.16433249888E+03  0.00000000000E+00 0.  1.
         21    1    1    2  502  501 -0.26707971213E+02  0.34922526183E+02 -0.23836247028E+03  0.24238309719E+03  0.00000000000E+00 0.  1.
<scales pt_clust_5="13000.00000" pt_clust_6="13000.00000" pt_clust_7="13000.00000" pt_clust_8="13000.00000" pt_clust_9="43.96474"></scales>
<clustering>
<clus scale="   43.965">  2  9  1 -1</clus>
<clus scale="   92.080">  5  6 -1 -1</clus>
<clus scale="   92.522">  7  8 -1 -1</clus>
<clus scale="   97.361">  1  5  2 -1</clus>
<clus scale="   97.361">  1  5  2 -1</clus>
</clustering>
</event>
<event>
 9    1  0.1175034E-005  0.1016800E+03  0.7546771E-02  0.1291245E+00
          1   -1    0    0  502    0  0.00000000000E+00  0.00000000000E+00  0.17132158367E+03  0.17132158367E+03  0.00000000000E+00 0. -1.
         -1   -1    0    0    0  501 -0.00000000000E+00 -0.00000000000E+00 -0.67172576349E+02  0.67172576349E+02  0.00000000000E+00 0.  1.
         23    2    1    2    0    0  0.43810556516E+02 -0.44104548730E+02  0.56612261417E+02  0.12409073879E+03  0.91263285224E+02 0.  0.
         23    2    1    2    0    0 -0.24033895125E+02  0.25469819399E+02  0.48973785683E+02  0.87192494084E+02  0.63069481728E+02 0.  0.
        -13    1    4    4    0    0 -0.35761267614E+02  0.69943182265E+01  0.33505622489E+01  0.36592554108E+02  0.00000000000E+00 0. -1.
         13    1    4    4    0    0  0.11727372488E+02  0.18475501173E+02  0.45623223434E+02  0.50599939976E+02  0.00000000000E+00 0.  1.
        -13    1    3    3    0    0 -0.56273309522E+01 -0.23483994597E+02 -0.19486071711E+02  0.31030176387E+02  0.00000000000E+00 0. -1.
         13    1    3    3    0    0  0.49437887468E+02 -0.20620554133E+02  0.76098333128E+02  0.93060562403E+02  0.00000000000E+00 0.  1.
         21    1    1    2  502  501 -0.19776661390E+02  0.18634729330E+02 -0.14370397753E+01  0.27210927149E+02  0.00000000000E+00 0. -1.
<scales pt_clust_5="13000.00000" pt_clust_6="13000.00000" pt_clust_7="13000.00000" pt_clust_8="13000.00000" pt_clust_9="27.17295"></scales>
<clustering>
<clus scale="   27.173">  2  9  1 -1</clus>
<clus scale="   63.069">  5  6 -1 -1</clus>
<clus scale="   77.380">  1  5  2 -1</clus>
<clus scale="   91.263">  7  8 -1 -1</clus>
<clus scale="   77.380">  1  5  2 -1</clus>
</clustering>
</event>
<event>
 9    1  0.1175034E-005  0.9341825E+02  0.7546771E-02  0.1296949E+00
          1   -1    0    0  502    0  0.00000000000E+00  0.00000000000E+00  0.70386268079E+02  0.70386268079E+02  0.00000000000E+00 0. -1.
         -1   -1    0    0    0  501 -0.00000000000E+00 -0.00000000000E+00 -0.63388604314E+03  0.63388604314E+03  0.00000000000E+00 0.  1.
         23    2    1    2    0    0  0.74880908961E+02  0.40194454024E+02 -0.36690363922E+03  0.38652834897E+03  0.86966311999E+02 0.  0.
         23    2    1    2    0    0 -0.12110004248E+02 -0.10115418553E+02  0.16477029217E+02  0.93589755237E+02  0.90766601226E+02 0.  0.
        -11    1    3    3    0    0 -0.34075808779E+01  0.32049005311E+02 -0.46361154529E+02  0.56463324363E+02  0.00000000000E+00 0.  1.
         11    1    3    3    0    0  0.78288489839E+02  0.81454487123E+01 -0.32054248470E+03  0.33006502461E+03  0.00000000000E+00 0. -1.
        -13    1    4    4    0    0 -0.16575500841E+02  0.24118979615E+02 -0.25794914206E+02  0.39010895974E+02  0.00000000000E+00 0. -1.
         13    1    4    4    0    0  0.44654965930E+01 -0.34234398168E+02  0.42271943423E+02  0.54578859263E+02  0.00000000000E+00 0.  1.
         21    1    1    2  502  501 -0.62770904714E+02 -0.30079035471E+02 -0.21307316505E+03  0.22415420701E+03  0.00000000000E+00 0.  1.
<scales pt_clust_5="13000.00000" pt_clust_6="13000.00000" pt_clust_7="13000.00000" pt_clust_8="13000.00000" pt_clust_9="69.60557"></scales>
<clustering>
<clus scale="   69.606">  2  9  1 -1</clus>
<clus scale="   86.966">  5  6 -1 -1</clus>
<clus scale="   89.730">  2  5  1 -1</clus>
<clus scale="   90.767">  7  8 -1 -1</clus>
<clus scale="   93.418">  1  5  2 -1</clus>
</clustering>
</event>
<event>
 9    1  0.1175034E-005  0.1129112E+03  0.7546771E-02  0.1258056E+00
         -2   -1    0    0    0  501 -0.00000000000E+00  0.00000000000E+00  0.69085846971E+02  0.69085846971E+02  0.00000000000E+00 0.  1.
          2   -1    0    0  502    0  0.00000000000E+00 -0.00000000000E+00 -0.23190414695E+03  0.23190414695E+03  0.00000000000E+00 0. -1.
         23    2    1    2    0    0 -0.40359487269E+02  0.57320436794E+02 -0.57318446021E+02  0.12818572678E+03  0.90728471873E+02 0.  0.
         23    2    1    2    0    0  0.16905628998E+02 -0.44548677618E+02 -0.93879243172E+02  0.14367970886E+03  0.97776078209E+02 0.  0.
        -11    1    4    4    0    0  0.41791706032E+02  0.15164029682E+00 -0.80651752097E+02  0.90836527918E+02  0.00000000000E+00 0. -1.
         11    1    4    4    0    0 -0.24886077034E+02 -0.44700317915E+02 -0.13227491075E+02  0.52843180941E+02  0.00000000000E+00 0.  1.
        -13    1    3    3    0    0 -0.27571124870E+02 -0.18748378824E+02 -0.33957167544E+02  0.47589472184E+02  0.00000000000E+00 0.  1.
         13    1    3    3    0    0 -0.12788362399E+02  0.76068815618E+02 -0.23361278477E+02  0.80596254593E+02  0.00000000000E+00 0. -1.
         21    1    1    2  502  501  0.23453858271E+02 -0.12771759176E+02 -0.11620610788E+02  0.29124558286E+02  0.00000000000E+00 0.  1.
<scales pt_clust_5="13000.00000" pt_clust_6="13000.00000" pt_clust_7="13000.00000" pt_clust_8="13000.00000" pt_clust_9="26.70583"></scales>
<clustering>
<clus scale="   26.706">  1  9  2 -1</clus>
<clus scale="   90.728">  7  8 -1 -1</clus>
<clus scale="   97.776">  5  6 -1 -1</clus>
<clus scale="  106.866">  1  7  2 -1</clus>
<clus scale="  112.911">  2  5  1 -1</clus>
</clustering>
</event>
<event>
 9    1  0.1175034E-005  0.9621226E+02  0.7546771E-02  0.1289645E+00
         -1   -1    0    0    0  501 -0.00000000000E+00  0.00000000000E+00  0.18843907207E+03  0.18843907207E+03  0.00000000000E+00 0.  1.
          1   -1    0    0  502    0  0.00000000000E+00 -0.00000000000E+00 -0.14350663977E+03  0.14350663977E+03  0.00000000000E+00 0. -1.
         23    2    1    2    0    0  0.27746661463E+02  0.24625479449E+02  0.82738488960E+02  0.13003145464E+03  0.93199947311E+02 0.  0.
         23    2    1    2    0    0  0.14000949340E+01  0.34119340062E+02 -0.78305915845E+02  0.12483815311E+03  0.91031084715E+02 0.  0.
        -11    1    3    3    0    0 -0.99243819481E+01 -0.26196719646E+02  0.53391633646E+02  0.60294510701E+02  0.00000000000E+00 0. -1.
         11    1    3    3    0    0  0.37671043411E+02  0.50822199095E+02  0.29346855314E+02  0.69736943935E+02  0.00000000000E+00 0.  1.
        -11    1    4    4    0    0  0.59639341173E+01  0.60488683711E+02 -0.76926166714E+02  0.98041238734E+02  0.00000000000E+00 0.  1.
         11    1    4    4    0    0 -0.45638391833E+01 -0.26369343649E+02 -0.13797491312E+01  0.26796914379E+02  0.00000000000E+00 0. -1.
         21    1    1    2  502  501 -0.29146756397E+02 -0.58744819511E+02  0.40499859181E+02  0.77076104089E+02  0.00000000000E+00 0. -1.
<scales pt_clust_5="13000.00000" pt_clust_6="13000.00000" pt_clust_7="13000.00000" pt_clust_8="13000.00000" pt_clust_9="65.57810"></scales>
<clustering>
<clus scale="   65.578">  1  9  2 -1</clus>
<clus scale="   91.031">  7  8 -1 -1</clus>
<clus scale="   93.200">  5  6 -1 -1</clus>
<clus scale="   94.113">  2  7  1 -1</clus>
<clus scale="   94.113">  2  5  1 -1</clus>
</clustering>
</event>
<event>
 9    1  0.1175034E-005  0.9701672E+02  0.7546771E-02  0.1287508E+00
          1   -1    0    0  502    0  0.00000000000E+00  0.00000000000E+00  0.41319508576E+02  0.41319508576E+02  0.00000000000E+00 0. -1.
         -1   -1    0    0    0  501 -0.00000000000E+00 -0.00000000000E+00 -0.33082005207E+03  0.33082005207E+03  0.00000000000E+00 0.  1.
         23    2    1    2    0    0 -0.21005723918E+01  0.37583722491E+02 -0.11142114556E+03  0.14757290161E+03  0.89141129741E+02 0.  0.
         23    2    1    2    0    0 -0.17382172118E+02 -0.29793594139E+02 -0.84555880444E+02  0.12871828004E+03  0.90713287551E+02 0.  0.
        -11    1    4    4    0    0 -0.38187338390E+02 -0.91047111345E+01 -0.43735620931E-01  0.39257744344E+02  0.00000000000E+00 0. -1.
         11    1    4    4    0    0  0.20805166272E+02 -0.20688883005E+02 -0.84512144823E+02  0.89460535691E+02  0.00000000000E+00 0.  1.
        -13    1    3    3    0    0  0.39059397709E+02  0.27349893936E+02 -0.85410420480E+02  0.97819186125E+02  0.00000000000E+00 0.  1.
         13    1    3    3    0    0 -0.41159970101E+02  0.10233828554E+02 -0.26010725085E+02  0.49753715489E+02  0.00000000000E+00 0. -1.
         21    1    1    2  502  501  0.19482744510E+02 -0.77901283514E+01 -0.93523517486E+02  0.95848378997E+02  0.00000000000E+00 0. -1.
<scales pt_clust_5="13000.00000" pt_clust_6="13000.00000" pt_clust_7="13000.00000" pt_clust_8="13000.00000" pt_clust_9="20.98246"></scales>
<clustering>
<clus scale="   20.982">  2  9  1 -1</clus>
<clus scale="   89.141">  7  8 -1 -1</clus>
<clus scale="   90.713">  5  6 -1 -1</clus>
<clus scale="   95.548">  2  7  1 -1</clus>
<clus scale="   97.017">  1  5  2 -1</clus>
</clustering>
</event>
<event>
 9    1  0.1175034E-005  0.1098316E+03  0.7546771E-02  0.1266949E+00
          2   -1    0    0  502    0  0.00000000000E+00  0.00000000000E+00  0.33390249964E+03  0.33390249964E+03  0.00000000000E+00 0. -1.
         -2   -1    0    0    0  501 -0.00000000000E+00 -0.00000000000E+00 -0.41052145859E+02  0.41052145859E+02  0.00000000000E+00 0.  1.
         23    2    1    2    0    0 -0.15256827107E+02 -0.47098748767E+02  0.13134508103E+03  0.17463344613E+03  0.10389536702E+03 0.  0.
         23    2    1    2    0    0  0.11071879952E+02  0.23562895430E+02  0.13247242151E+03  0.16271326634E+03  0.90823279051E+02 0.  0.
        -13    1    4    4    0    0  0.29997447916E+02  0.37564770662E+02  0.28023686612E+02  0.55644279919E+02  0.00000000000E+00 0.  1.
         13    1    4    4    0    0 -0.18925567964E+02 -0.14001875232E+02  0.10444873490E+03  0.10706898643E+03  0.00000000000E+00 0. -1.
        -13    1    3    3    0    0 -0.33732842810E+02  0.20081615755E+02  0.22071815497E+02  0.45037107086E+02  0.00000000000E+00 0.  1.
         13    1    3    3    0    0  0.18476015703E+02 -0.67180364522E+02  0.10927326554E+03  0.12959633905E+03  0.00000000000E+00 0. -1.
         21    1    1    2  502  501  0.41849471551E+01  0.23535853337E+02  0.29032851239E+02  0.37607933020E+02  0.00000000000E+00 0.  1.
<scales pt_clust_5="13000.00000" pt_clust_6="13000.00000" pt_clust_7="13000.00000" pt_clust_8="13000.00000" pt_clust_9="23.90502"></scales>
<clustering>
<clus scale="   23.905">  2  9  1 -1</clus>
<clus scale="   90.823">  5  6 -1 -1</clus>
<clus scale="   97.558">  1  5  2 -1</clus>
<clus scale="  103.895">  7  8 -1 -1</clus>
<clus scale="   97.558">  1  5  2 -1</clus>
</clustering>
</event>
<event>
 9    1  0.1175034E-005  0.1008296E+03  0.7546771E-02  0.1280803E+00
          2   -1    0    0  502    0  0.00000000000E+00  0.00000000000E+00  0.23460004779E+03  0.23460004779E+03  0.00000000000E+00 0. -1.
         -2   -1    0    0    0  501 -0.00000000000E+00 -0.00000000000E+00 -0.12563215860E+03  0.12563215860E+03  0.00000000000E+00 0.  1.
         23    2    1    2    0    0  0.59788811439E+02 -0.14469794864E+02  0.86102026714E+02  0.13848246192E+03  0.89329481794E+02 0.  0.
         23    2    1    2    0    0  0.12947076078E+02  0.42141175086E+02  0.75081722610E+02  0.12803362705E+03  0.93871396970E+02 0.  0.
        -13    1    3    3    0    0  0.38074741087E+02 -0.50929104027E+02  0.36942050089E+02  0.73540292429E+02  0.00000000000E+00 0.  1.
         13    1    3    3    0    0  0.21714070352E+02  0.36459309164E+02  0.49159976626E+02  0.64942169488E+02  0.00000000000E+00 0. -1.
        -13    1    4    4    0    0  0.13655027395E+02 -0.24231818494E+02 -0.50144096372E-02  0.27814399613E+02  0.00000000000E+00 0.  1.
         13    1    4    4    0    0 -0.70795131733E+00  0.66372993581E+02  0.75086737020E+02  0.10021922744E+03  0.00000000000E+00 0. -1.
         21    1    1    2  502  501 -0.72735887516E+02 -0.27671380223E+02 -0.52215860135E+02  0.93716117429E+02  0.00000000000E+00 0.  1.
<scales pt_clust_5="13000.00000" pt_clust_6="13000.00000" pt_clust_7="13000.00000" pt_clust_8="13000.00000" pt_clust_9="77.82168"></scales>
<clustering>
<clus scale="   77.822">  2  9  1 -1</clus>
<clus scale="   89.329">  5  6 -1 -1</clus>
<clus scale="   93.871">  7  8 -1 -1</clus>
<clus scale="   96.615">  2  5  1 -1</clus>
<clus scale="  100.830">  1  5  2 -1</clus>
</clustering>
</event>
<event>
 9    1  0.1175034E-005  0.9252558E+02  0.7546771E-02  0.1298978E+00
         -1   -1    0    0    0  501 -0.00000000000E+00  0.00000000000E+00  0.38012763622E+03  0.38012763622E+03  0.00000000000E+00 0.  1.
          1   -1    0    0  502    0  0.00000000000E+00 -0.00000000000E+00 -0.47204648647E+02  0.47204648647E+02  0.00000000000E+00 0. -1.
         23    2    1    2    0    0 -0.37582444219E+02 -0.12083653463E+02  0.14643018799E+03  0.17754840661E+03  0.92321080701E+02 0.  0.
         23    2    1    2    0    0 -0.88132746912E+01 -0.87849172478E+01  0.46751756547E+02  0.10107066739E+03  0.88739531688E+02 0.  0.
        -11    1    4    4    0    0  0.11554401585E+02  0.35015541685E+02  0.36106933388E+02  0.51607199053E+02  0.00000000000E+00 0.  1.
         11    1    4    4    0    0 -0.20367676276E+02 -0.43800458933E+02  0.10644823159E+02  0.49463468334E+02  0.00000000000E+00 0. -1.
        -13    1    3    3    0    0 -0.89546109212E+01 -0.41893378989E+02  0.12253529209E+03  0.12980808168E+03  0.00000000000E+00 0.  1.
         13    1    3    3    0    0 -0.28627833298E+02  0.29809725525E+02  0.23894895893E+02  0.47740324936E+02  0.00000000000E+00 0. -1.
         21    1    1    2  502  501  0.46395718910E+02  0.20868570711E+02  0.13974104304E+03  0.14871321087E+03  0.00000000000E+00 0.  1.
<scales pt_clust_5="13000.00000" pt_clust_6="13000.00000" pt_clust_7="13000.00000" pt_clust_8="13000.00000" pt_clust_9="50.87298"></scales>
<clustering>
<clus scale="   50.873">  1  9  2 -1</clus>
<clus scale="   88.740">  5  6 -1 -1</clus>
<clus scale="   88.952">  2  5  1 -1</clus>
<clus scale="   92.321">  7  8 -1 -1</clus>
<clus scale="   88.952">  2  5  1 -1</clus>
</clustering>
</event>
<event>
 9    1  0.1175034E-005  0.1063405E+03  0.7546771E-02  0.1272866E+00
          1   -1    0    0  502    0  0.00000000000E+00  0.00000000000E+00  0.62209817578E+02  0.62209817578E+02  0.00000000000E+00 0. -1.
         -1   -1    0    0    0  501 -0.00000000000E+00 -0.00000000000E+00 -0.25083931143E+03  0.25083931143E+03  0.00000000000E+00 0.  1.
         23    2    1    2    0    0 -0.17670914778E+00  0.53708272853E+01 -0.98939328905E+02  0.13651067800E+03  0.93900465341E+02 0.  0.
         23    2    1    2    0    0  0.30652345576E+02  0.14922145951E+02 -0.45194187764E+02  0.11891500818E+03  0.10457546478E+03 0.  0.
        -11    1    4    4    0    0  0.60251419511E+02 -0.66998858207E+01 -0.54034483171E+02  0.81208665760E+02  0.00000000000E+00 0. -1.
         11    1    4    4    0    0 -0.29599073935E+02  0.21622031772E+02  0.88402954071E+01  0.37706342419E+02  0.00000000000E+00 0.  1.
        -11    1    3    3    0    0  0.39058504299E+02  0.28166749106E+02 -0.43745024028E+02  0.65058125092E+02  0.00000000000E+00 0. -1.
         11    1    3    3    0    0 -0.39235213446E+02 -0.22795921821E+02 -0.55194304877E+02  0.71452552905E+02  0.00000000000E+00 0.  1.
         21    1    1    2  502  501 -0.30475636428E+02 -0.20292973236E+02 -0.44495977188E+02  0.57623442837E+02  0.00000000000E+00 0.  1.
<scales pt_clust_5="13000.00000" pt_clust_6="13000.00000" pt_clust_7="13000.00000" pt_clust_8="13000.00000" pt_clust_9="36.61378"></scales>
<clustering>
<clus scale="   36.614">  2  9  1 -1</clus>
<clus scale="   93.900">  7  8 -1 -1</clus>
<clus scale="   95.862">  2  7  1 -1</clus>
<clus scale="  104.575">  5  6 -1 -1</clus>
<clus scale="  106.341">  1  5  2 -1</clus>
</clustering>
</event>
<event>
 9    1  0.1175034E-005  0.9470349E+02  0.7546771E-02  0.1291954E+00
         -1   -1    0    0    0  501 -0.00000000000E+00  0.00000000000E+00  0.25747191624E+03  0.25747191624E+03  0.00000000000E+00 0.  1.
          1   -1    0    0  502    0  0.00000000000E+00 -0.00000000000E+00 -0.24005055183E+03  0.24005055183E+03  0.00000000000E+00 0. -1.
         23    2    1    2    0    0  0.43387603081E+02 -0.90284058018E+01  0.12399711919E+03  0.16102412138E+03  0.92679479325E+02 0.  0.
         23    2    1    2    0    0  0.87072227682E+01 -0.84653265260E+00  0.91966759581E+02  0.13099770119E+03  0.92876156806E+02 0.  0.
        -11    1    4    4    0    0 -0.89863211345E+01 -0.44893241360E+02  0.43338548042E+02  0.63042738152E+02  0.00000000000E+00 0.  1.
         11    1    4    4    0    0  0.17693543903E+02  0.44046708707E+02  0.48628211540E+02  0.67954963037E+02  0.00000000000E+00 0. -1.
        -11    1    3    3    0    0  0.27056266922E+02  0.30815534922E+02  0.10724760995E+03  0.11482024478E+03  0.00000000000E+00 0.  1.
         11    1    3    3    0    0  0.16331336158E+02 -0.39843940724E+02  0.16749509240E+02  0.46203876601E+02  0.00000000000E+00 0. -1.
         21    1    1    2  502  501 -0.52094825849E+02  0.98749384544E+01 -0.19854251437E+03  0.20550064550E+03  0.00000000000E+00 0. -1.
<scales pt_clust_5="13000.00000" pt_clust_6="13000.00000" pt_clust_7="13000.00000" pt_clust_8="13000.00000" pt_clust_9="53.02250"></scales>
<clustering>
<clus scale="   53.022">  2  9  1 -1</clus>
<clus scale="   92.679">  7  8 -1 -1</clus>
<clus scale="   92.876">  5  6 -1 -1</clus>
<clus scale="   94.511">  1  7  2 -1</clus>
<clus scale="   53.022">  2  5  1 -1</clus>
</clustering>
</event>
<event>
 9    1  0.1175034E-005  0.1078317E+03  0.7546771E-02  0.1265270E+00
         -1   -1    0    0    0  501 -0.00000000000E+00  0.00000000000E+00  0.24453997915E+02  0.24453997915E+02  0.00000000000E+00 0.  1.
          1   -1    0    0  502    0  0.00000000000E+00 -0.00000000000E+00 -0.59589731588E+03  0.59589731588E+03  0.00000000000E+00 0. -1.
         23    2    1    2    0    0  0.51871836148E+02  0.35752057439E+02 -0.23134844685E+03  0.25657819997E+03  0.91331111045E+02 0.  0.
         23    2    1    2    0    0 -0.29265162894E+02 -0.40758058527E+02 -0.28913271980E+03  0.30779756033E+03  0.92865167799E+02 0.  0.
        -11    1    3    3    0    0  0.22773442370E+02  0.65292712544E+02 -0.15411226276E+03  0.16891523768E+03  0.00000000000E+00 0.  1.
         11    1    3    3    0    0  0.29098393778E+02 -0.29540655105E+02 -0.77236184092E+02  0.87662962290E+02  0.00000000000E+00 0. -1.
        -11    1    4    4    0    0  0.25293956577E+01 -0.58756941835E+02 -0.23666132227E+03  0.24385929860E+03  0.00000000000E+00 0. -1.
         11    1    4    4    0    0 -0.31794558551E+02  0.17998883307E+02 -0.52471397538E+02  0.63938261732E+02  0.00000000000E+00 0.  1.
         21    1    1    2  502  501 -0.22606673254E+02  0.50060010879E+01 -0.50962151310E+02  0.55975553491E+02  0.00000000000E+00 0. -1.
<scales pt_clust_5="13000.00000" pt_clust_6="13000.00000" pt_clust_7="13000.00000" pt_clust_8="13000.00000" pt_clust_9="23.15430"></scales>
<clustering>
<clus scale="   23.154">  1  9  2 -1</clus>
<clus scale="   91.331">  5  6 -1 -1</clus>
<clus scale="   92.865">  7  8 -1 -1</clus>
<clus scale="  106.513">  1  5  2 -1</clus>
<clus scale="  107.832">  2  5  1 -1</clus>
</clustering>
</event>
<event>
 9    1  0.1175034E-005  0.2474589E+03  0.7546771E-02  0.1114997E+00
         -1   -1    0    0    0  501 -0.00000000000E+00  0.00000000000E+00  0.11061895658E+03  0.11061895658E+03  0.00000000000E+00 0.  1.
          1   -1    0    0  502    0  0.00000000000E+00 -0.00000000000E+00 -0.94595317551E+03  0.94595317551E+03  0.00000000000E+00 0. -1.
         23    2    1    2    0    0 -0.16477427424E+03 -0.12666502536E+03 -0.22852829296E+03  0.32182741400E+03  0.90294593519E+02 0.  0.
         23    2    1    2    0    0  0.18105795799E+03  0.16063512937E+03 -0.63629184267E+03  0.68690597222E+03  0.91579892339E+02 0.  0.
        -13    1    4    4    0    0  0.10162288006E+03  0.35066997028E+02 -0.31705360953E+03  0.33478335584E+03  0.00000000000E+00 0.  1.
         13    1    4    4    0    0  0.79435077932E+02  0.12556813234E+03 -0.31923823314E+03  0.35212261638E+03  0.00000000000E+00 0. -1.
        -13    1    3    3    0    0 -0.15492902192E+03 -0.99850438832E+02 -0.22809624995E+03  0.29325929006E+03  0.00000000000E+00 0. -1.
         13    1    3    3    0    0 -0.98452523236E+01 -0.26814586531E+02 -0.43204300720E+00  0.28568123938E+02  0.00000000000E+00 0.  1.
         21    1    1    2  502  501 -0.16283683750E+02 -0.33970104008E+02  0.29485916703E+02  0.47838745873E+02  0.00000000000E+00 0. -1.
<scales pt_clust_5="13000.00000" pt_clust_6="13000.00000" pt_clust_7="13000.00000" pt_clust_8="13000.00000" pt_clust_9="37.67129"></scales>
<clustering>
<clus scale="   37.671">  1  9  2 -1</clus>
<clus scale="   90.295">  7  8 -1 -1</clus>
<clus scale="   91.580">  5  6 -1 -1</clus>
<clus scale="  246.986">  1  7  2 -1</clus>
<clus scale="  247.459">  2  5  1 -1</clus>
</clustering>
</event>
<event>
 9    1  0.1175034E-005  0.1550853E+03  0.7546771E-02  0.1195369E+00
         -3   -1    0    0    0  501 -0.00000000000E+00  0.00000000000E+00  0.14270166309E+03  0.14270166309E+03  0.00000000000E+00 0.  1.
          3   -1    0    0  502    0  0.00000000000E+00 -0.00000000000E+00 -0.31428670986E+03  0.31428670986E+03  0.00000000000E+00 0. -1.
         23    2    1    2    0    0  0.13595172904E+03 -0.59484746460E+02  0.24558284314E+02  0.17361157717E+03  0.86698112483E+02 0.  0.
         23    2    1    2    0    0 -0.11750847800E+03  0.18285622812E+02 -0.18158018430E+03  0.23594677847E+03  0.92503581192E+02 0.  0.
        -13    1    4    4    0    0 -0.72846308056E+02 -0.24488783331E+02 -0.14497037682E+03  0.16408136781E+03  0.00000000000E+00 0. -1.
         13    1    4    4    0    0 -0.44662169949E+02  0.42774406143E+02 -0.36609807482E+02  0.71865410660E+02  0.00000000000E+00 0.  1.
        -13    1    3    3    0    0  0.79956830237E+02 -0.23253342657E+02 -0.28894519826E+02  0.88140262776E+02  0.00000000000E+00 0. -1.
         13    1    3    3    0    0  0.55994898802E+02 -0.36231403803E+02  0.53452804140E+02  0.85471314391E+02  0.00000000000E+00 0.  1.
         21    1    1    2  502  501 -0.18443251035E+02  0.41199123648E+02 -0.14563146786E+02  0.47430017314E+02  0.00000000000E+00 0. -1.
<scales pt_clust_5="13000.00000" pt_clust_6="13000.00000" pt_clust_7="13000.00000" pt_clust_8="13000.00000" pt_clust_9="45.13891"></scales>
<clustering>
<clus scale="   45.139">  1  9  2 -1</clus>
<clus scale="   86.698">  7  8 -1 -1</clus>
<clus scale="   92.504">  5  6 -1 -1</clus>
<clus scale="  151.694">  1  7  2 -1</clus>
<clus scale="  155.085">  2  5  1 -1</clus>
</clustering>
</event>
<event>
 9    1  0.1175034E-005  0.3741064E+03  0.7546771E-02  0.1053171E+00
          1   -1    0    0  502    0  0.00000000000E+00  0.00000000000E+00  0.19780836767E+04  0.19780836767E+04  0.00000000000E+00 0. -1.
         -1   -1    0    0    0  501 -0.00000000000E+00 -0.00000000000E+00 -0.92376379596E+02  0.92376379596E+02  0.00000000000E+00 0.  1.
         23    2    1    2    0    0  0.25904649775E+03 -0.22984557555E+03  0.79565038965E+03  0.87281879994E+03  0.93909735281E+02 0.  0.
         23    2    1    2    0    0 -0.34281444386E+03  0.17565723259E+03  0.85574092760E+03  0.94297004926E+03  0.92318862378E+02 0.  0.
        -11    1    4    4    0    0 -0.28002607136E+03  0.11096730815E+03  0.59156362284E+03  0.66383421423E+03  0.00000000000E+00 0. -1.
         11    1    4    4    0    0 -0.62788372500E+02  0.64689924443E+02  0.26417730476E+03  0.27913583503E+03  0.00000000000E+00 0.  1.
        -13    1    3    3    0    0  0.20641671367E+03 -0.18086072458E+03  0.52038911092E+03  0.58832243552E+03  0.00000000000E+00 0.  1.
         13    1    3    3    0    0  0.52629784080E+02 -0.48984850967E+02  0.27526127873E+03  0.28449636441E+03  0.00000000000E+00 0. -1.
         21    1    1    2  502  501  0.83767946117E+02  0.54188342959E+02  0.23431597985E+03  0.25467120710E+03  0.00000000000E+00 0. -1.
<scales pt_clust_5="13000.00000" pt_clust_6="13000.00000" pt_clust_7="13000.00000" pt_clust_8="13000.00000" pt_clust_9="99.76695"></scales>
<clustering>
<clus scale="   92.319">  5  6 -1 -1</clus>
<clus scale="   93.910">  7  8 -1 -1</clus>
<clus scale="   99.767">  1  9  2 -1</clus>
<clus scale="  373.710">  1  5  2 -1</clus>
<clus scale="   99.767">  1  5  2 -1</clus>
</clustering>
</event>
<event>
 9    1  0.1175034E-005  0.1178904E+03  0.7546771E-02  0.1250278E+00
         -1   -1    0    0    0  501 -0.00000000000E+00  0.00000000000E+00  0.64248207293E+02  0.64248207293E+02  0.00000000000E+00 0.  1.
          1   -1    0    0  502    0  0.00000000000E+00 -0.00000000000E+00 -0.28089054248E+03  0.28089054248E+03  0.00000000000E+00 0. -1.
         23    2    1    2    0    0  0.57062302503E+02 -0.20190857566E+02 -0.74377791132E+02  0.12632244502E+03  0.82228506042E+02 0.  0.
         23    2    1    2    0    0 -0.77289603154E+02  0.29266006609E+02 -0.15039166586E+03  0.19520376295E+03  0.93041248980E+02 0.  0.
        -11    1    3    3    0    0  0.28129652387E+02  0.31687065919E+02 -0.25986006005E+02  0.49705331686E+02  0.00000000000E+00 0. -1.
         11    1    3    3    0    0  0.28932650116E+02 -0.51877923485E+02 -0.48391785127E+02  0.76617113334E+02  0.00000000000E+00 0.  1.
        -11    1    4    4    0    0 -0.57737449208E+02  0.61302839397E+02 -0.84037213294E+02  0.11897018272E+03  0.00000000000E+00 0.  1.
         11    1    4    4    0    0 -0.19552153946E+02 -0.32036832788E+02 -0.66354452563E+02  0.76233580225E+02  0.00000000000E+00 0. -1.
         21    1    1    2  502  501  0.20227300651E+02 -0.90751490426E+01  0.81271218000E+01  0.23612541805E+02  0.00000000000E+00 0.  1.
<scales pt_clust_5="13000.00000" pt_clust_6="13000.00000" pt_clust_7="13000.00000" pt_clust_8="13000.00000" pt_clust_9="22.16984"></scales>
<clustering>
<clus scale="   22.170">  1  9  2 -1</clus>
<clus scale="   82.229">  5  6 -1 -1</clus>
<clus scale="   93.041">  7  8 -1 -1</clus>
<clus scale="  109.558">  1  5  2 -1</clus>
<clus scale="  117.890">  2  5  1 -1</clus>
</clustering>
</event>
<event>
 9    1  0.1175034E-005  0.9819551E+02  0.7546771E-02  0.1284634E+00
         -1   -1    0    0    0  501 -0.00000000000E+00  0.00000000000E+00  0.11513673596E+03  0.11513673596E+03  0.00000000000E+00 0.  1.
          1   -1    0    0  502    0  0.00000000000E+00 -0.00000000000E+00 -0.36848186574E+03  0.36848186574E+03  0.00000000000E+00 0. -1.
         23    2    1    2    0    0 -0.22671107930E+01 -0.23916318712E+00  0.42820047949E+02  0.99733001925E+02  0.90043979123E+02 0.  0.
         23    2    1    2    0    0 -0.13927853095E+02 -0.41106001038E+02 -0.31894945975E+03  0.33397745447E+03  0.89042090082E+02 0.  0.
        -11    1    3    3    0    0  0.20213130964E+02 -0.39437235936E+02  0.26807385227E+02  0.51792877351E+02  0.00000000000E+00 0. -1.
         11    1    3    3    0    0 -0.22480241757E+02  0.39198072749E+02  0.16012662722E+02  0.47940124574E+02  0.00000000000E+00 0.  1.
        -13    1    4    4    0    0 -0.72816306546E+01  0.21384694930E+02 -0.26361748872E+02  0.34716986128E+02  0.00000000000E+00 0.  1.
         13    1    4    4    0    0 -0.66462224406E+01 -0.62490695967E+02 -0.29258771088E+03  0.29926046834E+03  0.00000000000E+00 0. -1.
         21    1    1    2  502  501  0.16194963888E+02  0.41345164225E+02  0.22784282019E+02  0.49908145300E+02  0.00000000000E+00 0.  1.
<scales pt_clust_5="13000.00000" pt_clust_6="13000.00000" pt_clust_7="13000.00000" pt_clust_8="13000.00000" pt_clust_9="44.40382"></scales>
<clustering>
<clus scale="   44.404">  1  9  2 -1</clus>
<clus scale="   89.042">  7  8 -1 -1</clus>
<clus scale="   90.044">  5  6 -1 -1</clus>
<clus scale="   97.278">  2  7  1 -1</clus>
<clus scale="   97.278">  2  5  1 -1</clus>
</clustering>
</event>
<event>
 9    1  0.1175034E-005  0.1579007E+03  0.7546771E-02  0.1192769E+00
          1   -1    0    0  502    0  0.00000000000E+00  0.00000000000E+00  0.16793056393E+03  0.16793056393E+03  0.00000000000E+00 0. -1.
         -1   -1    0    0    0  501 -0.00000000000E+00 -0.00000000000E+00 -0.19685634942E+03  0.19685634942E+03  0.00000000000E+00 0.  1.
         23    2    1    2    0    0 -0.10202463531E+03 -0.45981420239E+02 -0.60928906895E+02  0.15667771178E+03  0.91171577016E+02 0.  0.
         23    2    1    2    0    0  0.12601188209E+03  0.55209084216E+02  0.59665582683E+02  0.17035010260E+03  0.80821644949E+02 0.  0.
        -11    1    3    3    0    0 -0.77187123941E+02  0.13434357046E+01 -0.67858860718E+02  0.10278366553E+03  0.00000000000E+00 0.  1.
         11    1    3    3    0    0 -0.24837511367E+02 -0.47324855944E+02  0.69299538237E+01  0.53894046248E+02  0.00000000000E+00 0. -1.
        -13    1    4    4    0    0  0.80605208709E+02  0.41480318772E+02 -0.42533410088E+01  0.90751900400E+02  0.00000000000E+00 0.  1.
         13    1    4    4    0    0  0.45406673382E+02  0.13728765444E+02  0.63918923692E+02  0.79598202204E+02  0.00000000000E+00 0. -1.
         21    1    1    2  502  501 -0.23987246782E+02 -0.92276639771E+01 -0.27662461275E+02  0.37759098962E+02  0.00000000000E+00 0.  1.
<scales pt_clust_5="13000.00000" pt_clust_6="13000.00000" pt_clust_7="13000.00000" pt_clust_8="13000.00000" pt_clust_9="25.70093"></scales>
<clustering>
<clus scale="   25.701">  2  9  1 -1</clus>
<clus scale="   80.822">  7  8 -1 -1</clus>
<clus scale="   91.172">  5  6 -1 -1</clus>
<clus scale="  152.160">  1  7  2 -1</clus>
<clus scale="  152.160">  1  5  2 -1</clus>
</clustering>
</event>
<event>
 9    1  0.1175034E-005  0.1122368E+03  0.7546771E-02  0.1263861E+00
         -1   -1    0    0    0  501 -0.00000000000E+00  0.00000000000E+00  0.62227844471E+02  0.62227844471E+02  0.00000000000E+00 0.  1.
          1   -1    0    0  502    0  0.00000000000E+00 -0.00000000000E+00 -0.28362679490E+03  0.28362679490E+03  0.00000000000E+00 0. -1.
         23    2    1    2    0    0  0.18696894622E+02 -0.33321731934E+02 -0.83546115803E+02  0.14209934307E+03  0.10840829372E+03 0.  0.
         23    2    1    2    0    0  0.73200565882E+00  0.26228829408E+02 -0.15111807737E+03  0.17918380678E+03  0.92637335780E+02 0.  0.
        -11    1    4    4    0    0  0.39009734632E+02 -0.13063583047E+02 -0.71676624961E+02  0.82643542784E+02  0.00000000000E+00 0. -1.
         11    1    4    4    0    0 -0.38277728973E+02  0.39292412455E+02 -0.79441452408E+02  0.96540263997E+02  0.00000000000E+00 0.  1.
        -13    1    3    3    0    0  0.64079642420E+02 -0.14356036603E+02 -0.44972002262E+02  0.79591314520E+02  0.00000000000E+00 0. -1.
         13    1    3    3    0    0 -0.45382747798E+02 -0.18965695331E+02 -0.38574113541E+02  0.62508028545E+02  0.00000000000E+00 0.  1.
         21    1    1    2  502  501 -0.19428900281E+02  0.70929025256E+01  0.13265242743E+02  0.24571489524E+02  0.00000000000E+00 0.  1.
<scales pt_clust_5="13000.00000" pt_clust_6="13000.00000" pt_clust_7="13000.00000" pt_clust_8="13000.00000" pt_clust_9="20.68312"></scales>
<clustering>
<clus scale="   20.683">  1  9  2 -1</clus>
<clus scale="   92.637">  5  6 -1 -1</clus>
<clus scale="   97.090">  2  5  1 -1</clus>
<clus scale="  108.408">  7  8 -1 -1</clus>
<clus scale="   97.090">  2  5  1 -1</clus>
</clustering>
</event>
<event>
 9    1  0.1175034E-005  0.9879089E+02  0.7546771E-02  0.1284677E+00
          4   -1    0    0  502    0  0.00000000000E+00  0.00000000000E+00  0.86488352437E+02  0.86488352437E+02  0.00000000000E+00 0. -1.
         -4   -1    0    0    0  501 -0.00000000000E+00 -0.00000000000E+00 -0.20421887580E+03  0.20421887580E+03  0.00000000000E+00 0.  1.
         23    2    1    2    0    0 -0.40895481069E+02 -0.28269766949E+02 -0.97344935978E+02  0.14354359859E+03  0.93043581402E+02 0.  0.
         23    2    1    2    0    0  0.25496173434E+02  0.12400585006E+02  0.24594008581E+02  0.97042439872E+02  0.89490449267E+02 0.  0.
        -13    1    3    3    0    0 -0.88162085941E+01  0.26557736338E+02 -0.68074613432E+02  0.73601575304E+02  0.00000000000E+00 0. -1.
         13    1    3    3    0    0 -0.32079272475E+02 -0.54827503287E+02 -0.29270322546E+02  0.69942023284E+02  0.00000000000E+00 0.  1.
        -13    1    4    4    0    0  0.12916905664E+02  0.28267923317E+02  0.53427300467E+02  0.61809371262E+02  0.00000000000E+00 0. -1.
         13    1    4    4    0    0  0.12579267769E+02 -0.15867338311E+02 -0.28833291886E+02  0.35233068610E+02  0.00000000000E+00 0.  1.
         21    1    1    2  502  501  0.15399307635E+02  0.15869181943E+02 -0.44979595962E+02  0.50121189771E+02  0.00000000000E+00 0.  1.
<scales pt_clust_5="13000.00000" pt_clust_6="13000.00000" pt_clust_7="13000.00000" pt_clust_8="13000.00000" pt_clust_9="22.11266"></scales>
<clustering>
<clus scale="   22.113">  2  9  1 -1</clus>
<clus scale="   89.490">  7  8 -1 -1</clus>
<clus scale="   93.044">  5  6 -1 -1</clus>
<clus scale="   95.452">  1  7  2 -1</clus>
<clus scale="   95.452">  1  5  2 -1</clus>
</clustering>
</event>
<event>
 9    1  0.1175034E-005  0.1902811E+03  0.7546771E-02  0.1192134E+00
         -1   -1    0    0    0  501 -0.00000000000E+00  0.00000000000E+00  0.31972110557E+03  0.31972110557E+03  0.00000000000E+00 0.  1.
          1   -1    0    0  502    0  0.00000000000E+00 -0.00000000000E+00 -0.50665951087E+03  0.50665951087E+03  0.00000000000E+00 0. -1.
         23    2    1    2    0    0 -0.88410194892E+02 -0.91420643514E+02 -0.22300923675E+03  0.27270945807E+03  0.91995827205E+02 0.  0.
         23    2    1    2    0    0 -0.34180223035E+02 -0.27230505687E+02 -0.22507865375E+03  0.24173276798E+03  0.76580302005E+02 0.  0.
        -13    1    4    4    0    0  0.21454060057E+02 -0.62700713345E+01 -0.27691226567E+02  0.35586437252E+02  0.00000000000E+00 0.  1.
         13    1    4    4    0    0 -0.55634283092E+02 -0.20960434353E+02 -0.19738742719E+03  0.20614633073E+03  0.00000000000E+00 0. -1.
        -13    1    3    3    0    0 -0.48603435918E+02 -0.54000920476E+00 -0.34243532394E+02  0.59457590801E+02  0.00000000000E+00 0.  1.
         13    1    3    3    0    0 -0.39806758974E+02 -0.90880634309E+02 -0.18876570436E+03  0.21325186727E+03  0.00000000000E+00 0. -1.
         21    1    1    2  502  501  0.12259041793E+03  0.11865114920E+03  0.26114948520E+03  0.31193839038E+03  0.00000000000E+00 0.  1.
<scales pt_clust_5="13000.00000" pt_clust_6="13000.00000" pt_clust_7="13000.00000" pt_clust_8="13000.00000" pt_clust_9="166.56429"></scales>
<clustering>
<clus scale="   76.580">  5  6 -1 -1</clus>
<clus scale="   88.172">  2  5  1 -1</clus>
<clus scale="   91.996">  7  8 -1 -1</clus>
<clus scale="  166.564">  1  9  2 -1</clus>
<clus scale="   88.172">  2  5  1 -1</clus>
</clustering>
</event>
<event>
 9    1  0.1175034E-005  0.1777320E+03  0.7546771E-02  0.1170206E+00
         -1   -1    0    0    0  501 -0.00000000000E+00  0.00000000000E+00  0.13571024488E+03  0.13571024488E+03  0.00000000000E+00 0.  1.
          1   -1    0    0  502    0  0.00000000000E+00 -0.00000000000E+00 -0.37139192519E+03  0.37139192519E+03  0.00000000000E+00 0. -1.
         23    2    1    2    0    0  0.66387760299E+02  0.11186256559E+03 -0.26067135605E+02  0.16157800442E+03  0.92235501065E+02 0.  0.
         23    2    1    2    0    0 -0.10210384231E+03 -0.12689957073E+03 -0.23440927500E+03  0.29951841940E+03  0.90746237875E+02 0.  0.
        -13    1    4    4    0    0 -0.36036927047E+02 -0.34368566695E+02 -0.14961372460E+03  0.15768362336E+03  0.00000000000E+00 0. -1.
         13    1    4    4    0    0 -0.66066915267E+02 -0.92531004031E+02 -0.84795550397E+02  0.14183479604E+03  0.00000000000E+00 0.  1.
        -13    1    3    3    0    0  0.89610784595E+02  0.96021565623E+02 -0.20781059413E+02  0.13297400577E+03  0.00000000000E+00 0.  1.
         13    1    3    3    0    0 -0.23223024296E+02  0.15840999968E+02 -0.52860761926E+01  0.28603998653E+02  0.00000000000E+00 0. -1.
         21    1    1    2  502  501  0.35716082015E+02  0.15037005135E+02  0.24794730295E+02  0.46005746253E+02  0.00000000000E+00 0.  1.
<scales pt_clust_5="13000.00000" pt_clust_6="13000.00000" pt_clust_7="13000.00000" pt_clust_8="13000.00000" pt_clust_9="38.75242"></scales>
<clustering>
<clus scale="   38.752">  1  9  2 -1</clus>
<clus scale="   90.746">  5  6 -1 -1</clus>
<clus scale="   92.236">  7  8 -1 -1</clus>
<clus scale="  176.964">  2  5  1 -1</clus>
<clus scale="  176.964">  2  5  1 -1</clus>
</clustering>
</event>
<event>
 9    1  0.1175034E-005  0.1212562E+03  0.7546771E-02  0.1241193E+00
          1   -1    0    0  502    0  0.00000000000E+00  0.00000000000E+00  0.68983590091E+03  0.68983590091E+03  0.00000000000E+00 0. -1.
         -1   -1    0    0    0  501 -0.00000000000E+00 -0.00000000000E+00 -0.64915443293E+02  0.64915443293E+02  0.00000000000E+00 0.  1.
         23    2    1    2    0    0  0.78268301890E+02 -0.49676286011E+02  0.10788199122E+03  0.16895017283E+03  0.91170041114E+02 0.  0.
         23    2    1    2    0    0 -0.55109962265E+02  0.53551023695E+02  0.53992228075E+03  0.55301411226E+03  0.91671800585E+02 0.  0.
        -13    1    3    3    0    0  0.72989551578E+02  0.29240810491E+01  0.82863405812E+02  0.11046433321E+03  0.00000000000E+00 0.  1.
         13    1    3    3    0    0  0.52787503121E+01 -0.52600367060E+02  0.25018585408E+02  0.58485839616E+02  0.00000000000E+00 0. -1.
        -13    1    4    4    0    0 -0.79947661065E+02  0.43995410855E+02  0.45338637836E+03  0.46247857547E+03  0.00000000000E+00 0. -1.
         13    1    4    4    0    0  0.24837698800E+02  0.95556128398E+01  0.86535902394E+02  0.90535536788E+02  0.00000000000E+00 0.  1.
         21    1    1    2  502  501 -0.23158339625E+02 -0.38747376835E+01 -0.22883814354E+02  0.32787059119E+02  0.00000000000E+00 0. -1.
<scales pt_clust_5="13000.00000" pt_clust_6="13000.00000" pt_clust_7="13000.00000" pt_clust_8="13000.00000" pt_clust_9="23.48025"></scales>
<clustering>
<clus scale="   23.480">  2  9  1 -1</clus>
<clus scale="   91.170">  5  6 -1 -1</clus>
<clus scale="   91.672">  7  8 -1 -1</clus>
<clus scale="  120.877">  2  5  1 -1</clus>
<clus scale="  121.256">  1  5  2 -1</clus>
</clustering>
</event>
<event>
 9    1  0.1175034E-005  0.1119443E+03  0.7546771E-02  0.1258263E+00
         -1   -1    0    0    0  501 -0.00000000000E+00  0.00000000000E+00  0.11986305789E+03  0.11986305789E+03  0.00000000000E+00 0.  1.
          1   -1    0    0  502    0  0.00000000000E+00 -0.00000000000E+00 -0.15540963602E+03  0.15540963602E+03  0.00000000000E+00 0. -1.
         23    2    1    2    0    0 -0.44306900300E+02  0.31555173576E+02 -0.14129125097E+02  0.10710239325E+03  0.91172693664E+02 0.  0.
         23    2    1    2    0    0  0.70669651657E+02 -0.23738915106E+02 -0.52578215400E+02  0.12661212858E+03  0.87797645835E+02 0.  0.
        -11    1    4    4    0    0  0.58357606164E+02 -0.75498983006E+01 -0.75659213004E+02  0.95848462032E+02  0.00000000000E+00 0. -1.
         11    1    4    4    0    0  0.12312045493E+02 -0.16189016805E+02  0.23080997604E+02  0.30763666552E+02  0.00000000000E+00 0.  1.
        -13    1    3    3    0    0 -0.15156970251E+02 -0.21077765114E+02 -0.34859830879E+02  0.43465086429E+02  0.00000000000E+00 0. -1.
         13    1    3    3    0    0 -0.29149930049E+02  0.52632938690E+02  0.20730705782E+02  0.63637306819E+02  0.00000000000E+00 0.  1.
         21    1    1    2  502  501 -0.26362751358E+02 -0.78162584703E+01  0.31160762360E+02  0.41558172079E+02  0.00000000000E+00 0.  1.
<scales pt_clust_5="13000.00000" pt_clust_6="13000.00000" pt_clust_7="13000.00000" pt_clust_8="13000.00000" pt_clust_9="27.49706"></scales>
<clustering>
<clus scale="   27.497">  1  9  2 -1</clus>
<clus scale="   87.798">  5  6 -1 -1</clus>
<clus scale="   91.173">  7  8 -1 -1</clus>
<clus scale="  109.213">  2  5  1 -1</clus>
<clus scale="  109.213">  2  5  1 -1</clus>
</clustering>
</event>
<event>
 9    1  0.1175034E-005  0.9330704E+02  0.7546771E-02  0.1297555E+00
         -1   -1    0    0    0  501 -0.00000000000E+00  0.00000000000E+00  0.13742863731E+03  0.13742863731E+03  0.00000000000E+00 0.  1.
          1   -1    0    0  502    0  0.00000000000E+00 -0.00000000000E+00 -0.22621967328E+03  0.22621967328E+03  0.00000000000E+00 0. -1.
         23    2    1    2    0    0  0.42487458870E+02 -0.36333026159E+02 -0.52851468340E+02  0.11869418352E+03  0.90386716643E+02 0.  0.
         23    2    1    2    0    0 -0.65069751832E+01  0.67250411769E+01 -0.12054665250E+03  0.14836434089E+03  0.85982063905E+02 0.  0.
        -13    1    4    4    0    0  0.22332228870E+02 -0.27856145262E+02 -0.27746788796E+02  0.45217005249E+02  0.00000000000E+00 0.  1.
         13    1    4    4    0    0 -0.28839204053E+02  0.34581186439E+02 -0.92799863707E+02  0.10314733564E+03  0.00000000000E+00 0. -1.
        -13    1    3    3    0    0 -0.18784286856E+02 -0.33716572136E+02 -0.40857220296E+02  0.56204707273E+02  0.00000000000E+00 0. -1.
         13    1    3    3    0    0  0.61271745726E+02 -0.26164540232E+01 -0.11994248044E+02  0.62489476251E+02  0.00000000000E+00 0.  1.
         21    1    1    2  502  501 -0.35980483687E+02  0.29607984982E+02  0.84607084873E+02  0.96589786167E+02  0.00000000000E+00 0.  1.
<scales pt_clust_5="13000.00000" pt_clust_6="13000.00000" pt_clust_7="13000.00000" pt_clust_8="13000.00000" pt_clust_9="46.59644"></scales>
<clustering>
<clus scale="   46.596">  1  9  2 -1</clus>
<clus scale="   85.982">  5  6 -1 -1</clus>
<clus scale="   89.047">  2  5  1 -1</clus>
<clus scale="   90.387">  7  8 -1 -1</clus>
<clus scale="   89.047">  2  5  1 -1</clus>
</clustering>
</event>
<event>
 9    1  0.1175034E-005  0.9892332E+02  0.7546771E-02  0.1286761E+00
         -2   -1    0    0    0  501 -0.00000000000E+00  0.00000000000E+00  0.41345358524E+02  0.41345358524E+02  0.00000000000E+00 0.  1.
          2   -1    0    0  502    0  0.00000000000E+00 -0.00000000000E+00 -0.35221856210E+03  0.35221856210E+03  0.00000000000E+00 0. -1.
         23    2    1    2    0    0 -0.14349661469E+02 -0.20877185810E+02 -0.83903657867E+02  0.12584134717E+03  0.90301999882E+02 0.  0.
         23    2    1    2    0    0 -0.58768420562E+01  0.10791079606E+02 -0.22419801687E+03  0.24495148750E+03  0.97905545248E+02 0.  0.
        -11    1    4    4    0    0  0.16630026832E+02 -0.33566901512E+02 -0.42899103414E+02  0.56952855444E+02  0.00000000000E+00 0.  1.
         11    1    4    4    0    0 -0.22506868888E+02  0.44357981118E+02 -0.18129891346E+03  0.18799863206E+03  0.00000000000E+00 0. -1.
        -13    1    3    3    0    0 -0.45818383976E+02  0.37811550084E+01 -0.69534280624E+02  0.83358488622E+02  0.00000000000E+00 0. -1.
         13    1    3    3    0    0  0.31468722508E+02 -0.24658340818E+02 -0.14369377243E+02  0.42482858549E+02  0.00000000000E+00 0.  1.
         21    1    1    2  502  501  0.20226503525E+02  0.10086106203E+02 -0.27715288391E+01  0.22771085949E+02  0.00000000000E+00 0. -1.
<scales pt_clust_5="13000.00000" pt_clust_6="13000.00000" pt_clust_7="13000.00000" pt_clust_8="13000.00000" pt_clust_9="22.60179"></scales>
<clustering>
<clus scale="   22.602">  1  9  2 -1</clus>
<clus scale="   90.302">  7  8 -1 -1</clus>
<clus scale="   91.404">  1  7  2 -1</clus>
<clus scale="   97.906">  5  6 -1 -1</clus>
<clus scale="   98.923">  2  5  1 -1</clus>
</clustering>
</event>
<event>
 9    1  0.1175034E-005  0.1042752E+03  0.7546771E-02  0.1274174E+00
         -1   -1    0    0    0  501 -0.00000000000E+00  0.00000000000E+00  0.64506906953E+02  0.64506906953E+02  0.00000000000E+00 0.  1.
          1   -1    0    0  502    0  0.00000000000E+00 -0.00000000000E+00 -0.33799977731E+03  0.33799977731E+03  0.00000000000E+00 0. -1.
         23    2    1    2    0    0  0.20587016539E+02  0.22273026057E+02 -0.16252720888E+02  0.10272748357E+03  0.96792933652E+02 0.  0.
         23    2    1    2    0    0 -0.46184699278E+01 -0.41521754997E+02 -0.25573863634E+03  0.27472400984E+03  0.91244972815E+02 0.  0.
        -13    1    4    4    0    0  0.27573841249E+02  0.17432152861E+02 -0.70468011613E+02  0.77652671140E+02  0.00000000000E+00 0. -1.
         13    1    4    4    0    0 -0.32192311177E+02 -0.58953907858E+02 -0.18527062473E+03  0.19707133870E+03  0.00000000000E+00 0.  1.
        -13    1    3    3    0    0  0.34625152305E+00  0.41342640682E+02  0.28374960825E+02  0.50144513463E+02  0.00000000000E+00 0.  1.
         13    1    3    3    0    0  0.20240765016E+02 -0.19069614625E+02 -0.44627681713E+02  0.52582970109E+02  0.00000000000E+00 0. -1.
         21    1    1    2  502  501 -0.15968546611E+02  0.19248728939E+02 -0.15015131253E+01  0.25055190846E+02  0.00000000000E+00 0. -1.
<scales pt_clust_5="13000.00000" pt_clust_6="13000.00000" pt_clust_7="13000.00000" pt_clust_8="13000.00000" pt_clust_9="25.01016"></scales>
<clustering>
<clus scale="   25.010">  1  9  2 -1</clus>
<clus scale="   91.245">  5  6 -1 -1</clus>
<clus scale="   96.793">  7  8 -1 -1</clus>
<clus scale="   99.147">  2  5  1 -1</clus>
<clus scale="   99.147">  2  5  1 -1</clus>
</clustering>
</event>
<event>
 9    1  0.1175034E-005  0.4005387E+03  0.7546771E-02  0.1043666E+00
          2   -1    0    0  502    0  0.00000000000E+00  0.00000000000E+00  0.10752430851E+04  0.10752430851E+04  0.00000000000E+00 0. -1.
         -2   -1    0    0    0  501 -0.00000000000E+00 -0.00000000000E+00 -0.21818333554E+03  0.21818333554E+03  0.00000000000E+00 0.  1.
         23    2    1    2    0    0  0.27554836216E+03  0.24386184285E+03  0.20385939113E+03  0.43109765890E+03  0.94292321389E+02 0.  0.
         23    2    1    2    0    0 -0.26843193252E+03 -0.29755809843E+03  0.68554364400E+03  0.79924136556E+03  0.90665033213E+02 0.  0.
        -11    1    3    3    0    0  0.16122742538E+03  0.16135061310E+03  0.17423973489E+03  0.28703273029E+03  0.00000000000E+00 0. -1.
         11    1    3    3    0    0  0.11432093678E+03  0.82511229748E+02  0.29619656240E+02  0.14406492862E+03  0.00000000000E+00 0.  1.
        -13    1    4    4    0    0 -0.11086551198E+03 -0.18885940161E+03  0.34698954672E+03  0.41031790219E+03  0.00000000000E+00 0. -1.
         13    1    4    4    0    0 -0.15756642055E+03 -0.10869869683E+03  0.33855409728E+03  0.38892346337E+03  0.00000000000E+00 0.  1.
         21    1    1    2  502  501 -0.71164296356E+01  0.53696255581E+02 -0.32343285573E+02  0.63087396173E+02  0.00000000000E+00 0. -1.
<scales pt_clust_5="13000.00000" pt_clust_6="13000.00000" pt_clust_7="13000.00000" pt_clust_8="13000.00000" pt_clust_9="54.16578"></scales>
<clustering>
<clus scale="   54.166">  2  9  1 -1</clus>
<clus scale="   90.665">  7  8 -1 -1</clus>
<clus scale="   94.292">  5  6 -1 -1</clus>
<clus scale="  399.700">  1  7  2 -1</clus>
<clus scale="  399.700">  1  5  2 -1</clus>
</clustering>
</event>
<event>
 9    1  0.1175034E-005  0.2281581E+03  0.7546771E-02  0.1128046E+00
         -2   -1    0    0    0  501 -0.00000000000E+00  0.00000000000E+00  0.19902428450E+03  0.19902428450E+03  0.00000000000E+00 0.  1.
          2   -1    0    0  502    0  0.00000000000E+00 -0.00000000000E+00 -0.45393903409E+03  0.45393903409E+03  0.00000000000E+00 0. -1.
         23    2    1    2    0    0  0.19115655901E+03  0.20748472205E+02  0.77440071979E+02  0.22736840256E+03  0.93424282605E+02 0.  0.
         23    2    1    2    0    0 -0.21120031546E+03 -0.17584769634E+02 -0.33299029143E+03  0.40529306862E+03  0.92006194951E+02 0.  0.
        -13    1    3    3    0    0  0.17367866732E+03  0.41212132313E+02  0.87301925036E+02  0.19870668194E+03  0.00000000000E+00 0.  1.
         13    1    3    3    0    0  0.17477891691E+02 -0.20463660108E+02 -0.98618530571E+01  0.28661720616E+02  0.00000000000E+00 0. -1.
        -13    1    4    4    0    0 -0.11107206302E+02 -0.27900535824E+02 -0.54376355393E+02  0.62117613902E+02  0.00000000000E+00 0.  1.
         13    1    4    4    0    0 -0.20009310916E+03  0.10315766190E+02 -0.27861393604E+03  0.34317545472E+03  0.00000000000E+00 0. -1.
         21    1    1    2  502  501  0.20043756449E+02 -0.31637025710E+01  0.63546986209E+00  0.20301847416E+02  0.00000000000E+00 0. -1.
<scales pt_clust_5="13000.00000" pt_clust_6="13000.00000" pt_clust_7="13000.00000" pt_clust_8="13000.00000" pt_clust_9="20.29190"></scales>
<clustering>
<clus scale="   20.292">  1  9  2 -1</clus>
<clus scale="   92.006">  7  8 -1 -1</clus>
<clus scale="   93.424">  5  6 -1 -1</clus>
<clus scale="  227.581">  2  7  1 -1</clus>
<clus scale="  227.581">  2  5  1 -1</clus>
</clustering>
</event>
<event>
 9    1  0.1175034E-005  0.1342398E+03  0.7546771E-02  0.1223420E+00
          4   -1    0    0  502    0  0.00000000000E+00  0.00000000000E+00  0.20247316105E+03  0.20247316105E+03  0.00000000000E+00 0. -1.
         -4   -1    0    0    0  501 -0.00000000000E+00 -0.00000000000E+00 -0.28874926782E+03  0.28874926782E+03  0.00000000000E+00 0.  1.
         23    2    1    2    0    0  0.58463130592E+02 -0.20613914697E+02 -0.15206117005E+03  0.19131147080E+03  0.98156040592E+02 0.  0.
         23    2    1    2    0    0 -0.87419659537E+02  0.39036968852E+02  0.15565569170E+03  0.20371002593E+03  0.90016656767E+02 0.  0.
        -11    1    4    4    0    0  0.15267430855E+02  0.19887852339E+02  0.17797059614E+02  0.30746649354E+02  0.00000000000E+00 0.  1.
         11    1    4    4    0    0 -0.10268709039E+03  0.19149116512E+02  0.13785863208E+03  0.17296337657E+03  0.00000000000E+00 0. -1.
        -13    1    3    3    0    0  0.85272820320E+02 -0.21658900349E+02 -0.12768704694E+03  0.15506303172E+03  0.00000000000E+00 0.  1.
         13    1    3    3    0    0 -0.26809689728E+02  0.10449856526E+01 -0.24374123105E+02  0.36248439076E+02  0.00000000000E+00 0. -1.
         21    1    1    2  502  501  0.28956528946E+02 -0.18423054155E+02 -0.89870628415E+02  0.96200932141E+02  0.00000000000E+00 0. -1.
<scales pt_clust_5="13000.00000" pt_clust_6="13000.00000" pt_clust_7="13000.00000" pt_clust_8="13000.00000" pt_clust_9="34.32039"></scales>
<clustering>
<clus scale="   34.320">  2  9  1 -1</clus>
<clus scale="   90.017">  5  6 -1 -1</clus>
<clus scale="   98.156">  7  8 -1 -1</clus>
<clus scale="  128.408">  1  5  2 -1</clus>
<clus scale="  128.408">  1  5  2 -1</clus>
</clustering>
</event>
<event>
 9    1  0.1175034E-005  0.1090264E+03  0.7546771E-02  0.1263189E+00
          2   -1    0    0  502    0  0.00000000000E+00  0.00000000000E+00  0.74187542063E+02  0.74187542063E+02  0.00000000000E+00 0. -1.
         -2   -1    0    0    0  501 -0.00000000000E+00 -0.00000000000E+00 -0.29533264108E+03  0.29533264108E+03  0.00000000000E+00 0.  1.
         23    2    1    2    0    0 -0.34452579242E+02  0.20231351996E+02 -0.20392789217E+03  0.22655633997E+03  0.90249111662E+02 0.  0.
         23    2    1    2    0    0  0.58274226871E+02 -0.23284690182E+02  0.29149727669E+01  0.11162539353E+03  0.92269545899E+02 0.  0.
        -11    1    3    3    0    0 -0.22449454976E+02 -0.32596925516E+02 -0.12265189983E+03  0.12887989026E+03  0.00000000000E+00 0. -1.
         11    1    3    3    0    0 -0.12003124266E+02  0.52828277512E+02 -0.81275992345E+02  0.97676449714E+02  0.00000000000E+00 0.  1.
        -13    1    4    4    0    0 -0.11916754849E+02  0.19322341884E+02 -0.15483215096E+02  0.27478935418E+02  0.00000000000E+00 0.  1.
         13    1    4    4    0    0  0.70190981720E+02 -0.42607032066E+02  0.18398187863E+02  0.84146458113E+02  0.00000000000E+00 0. -1.
         21    1    1    2  502  501 -0.23821647629E+02  0.30533381866E+01 -0.20132179611E+02  0.31338449638E+02  0.00000000000E+00 0.  1.
<scales pt_clust_5="13000.00000" pt_clust_6="13000.00000" pt_clust_7="13000.00000" pt_clust_8="13000.00000" pt_clust_9="24.01653"></scales>
<clustering>
<clus scale="   24.017">  2  9  1 -1</clus>
<clus scale="   90.249">  5  6 -1 -1</clus>
<clus scale="   92.270">  7  8 -1 -1</clus>
<clus scale="  107.322">  2  5  1 -1</clus>
<clus scale="  109.026">  1  5  2 -1</clus>
</clustering>
</event>
<event>
 9    1  0.1175034E-005  0.1045090E+03  0.7546771E-02  0.1271734E+00
          1   -1    0    0  502    0  0.00000000000E+00  0.00000000000E+00  0.64898892636E+03  0.64898892636E+03  0.00000000000E+00 0. -1.
         -1   -1    0    0    0  501 -0.00000000000E+00 -0.00000000000E+00 -0.37536011854E+02  0.37536011854E+02  0.00000000000E+00 0.  1.
         23    2    1    2    0    0 -0.54754105855E+02  0.52350950522E+02  0.18807581010E+03  0.22330084546E+03  0.93552782493E+02 0.  0.
         23    2    1    2    0    0 -0.26696893009E+01 -0.41707746459E+02  0.37178354628E+03  0.38529678506E+03  0.92108327214E+02 0.  0.
        -13    1    3    3    0    0 -0.32600486199E+02 -0.10834759785E+00  0.15296723798E+03  0.15640261933E+03  0.00000000000E+00 0. -1.
         13    1    3    3    0    0 -0.22153619656E+02  0.52459298120E+02  0.35108572119E+02  0.66898226130E+02  0.00000000000E+00 0.  1.
        -13    1    4    4    0    0 -0.32170771513E+02  0.14913581321E+02  0.99551673188E+02  0.10567832835E+03  0.00000000000E+00 0.  1.
         13    1    4    4    0    0  0.29501082212E+02 -0.56621327780E+02  0.27223187309E+03  0.27961845672E+03  0.00000000000E+00 0. -1.
         21    1    1    2  502  501  0.57423795156E+02 -0.10643204063E+02  0.51593558130E+02  0.77927307687E+02  0.00000000000E+00 0.  1.
<scales pt_clust_5="13000.00000" pt_clust_6="13000.00000" pt_clust_7="13000.00000" pt_clust_8="13000.00000" pt_clust_9="58.40180"></scales>
<clustering>
<clus scale="   58.402">  2  9  1 -1</clus>
<clus scale="   92.108">  7  8 -1 -1</clus>
<clus scale="   93.553">  5  6 -1 -1</clus>
<clus scale="  103.218">  1  7  2 -1</clus>
<clus scale="  103.218">  1  5  2 -1</clus>
</clustering>
</event>
<event>
 9    1  0.1175034E-005  0.9308900E+02  0.7546771E-02  0.1296696E+00
          2   -1    0    0  502    0  0.00000000000E+00  0.00000000000E+00  0.20139344276E+03  0.20139344276E+03  0.00000000000E+00 0. -1.
         -2   -1    0    0    0  501 -0.00000000000E+00 -0.00000000000E+00 -0.95443842365E+02  0.95443842365E+02  0.00000000000E+00 0.  1.
         23    2    1    2    0    0 -0.34052778541E+02  0.20002168934E+02  0.25851772633E+02  0.10243898054E+03  0.90916181710E+02 0.  0.
         23    2    1    2    0    0 -0.33017926417E+02  0.10526873793E+02  0.66700427338E+02  0.11949842307E+03  0.92897403477E+02 0.  0.
        -11    1    3    3    0    0  0.25961279323E+02  0.65835018377E+01 -0.12924680474E+02  0.29738491655E+02  0.00000000000E+00 0.  1.
         11    1    3    3    0    0 -0.60014057865E+02  0.13418667096E+02  0.38776453107E+02  0.72700488881E+02  0.00000000000E+00 0. -1.
        -11    1    4    4    0    0  0.28849113145E+02  0.19879000242E+02  0.14135778042E+02  0.37779176814E+02  0.00000000000E+00 0.  1.
         11    1    4    4    0    0 -0.61867039562E+02 -0.93521264497E+01  0.52564649296E+02  0.81719246258E+02  0.00000000000E+00 0. -1.
         21    1    1    2  502  501  0.67070704959E+02 -0.30529042726E+02  0.13397400426E+02  0.74899881520E+02  0.00000000000E+00 0.  1.
<scales pt_clust_5="13000.00000" pt_clust_6="13000.00000" pt_clust_7="13000.00000" pt_clust_8="13000.00000" pt_clust_9="73.69194"></scales>
<clustering>
<clus scale="   73.692">  2  9  1 -1</clus>
<clus scale="   90.916">  5  6 -1 -1</clus>
<clus scale="   91.112">  2  5  1 -1</clus>
<clus scale="   92.897">  7  8 -1 -1</clus>
<clus scale="   93.089">  1  5  2 -1</clus>
</clustering>
</event>
<event>
 9    1  0.1175034E-005  0.1186764E+03  0.7546771E-02  0.1251224E+00
          3   -1    0    0  502    0  0.00000000000E+00  0.00000000000E+00  0.11175999756E+03  0.11175999756E+03  0.00000000000E+00 0. -1.
         -3   -1    0    0    0  501 -0.00000000000E+00 -0.00000000000E+00 -0.21874245187E+03  0.21874245187E+03  0.00000000000E+00 0.  1.
         23    2    1    2    0    0 -0.33686114258E+02  0.45263895891E+02 -0.10045243659E+02  0.99276110874E+02  0.81063337613E+02 0.  0.
         23    2    1    2    0    0  0.55861442547E+02 -0.56955153458E+02  0.50044146405E+01  0.12624764713E+03  0.97719158664E+02 0.  0.
        -11    1    4    4    0    0  0.70320290726E+02 -0.16408236330E+02 -0.21932576308E+02  0.75466624482E+02  0.00000000000E+00 0.  1.
         11    1    4    4    0    0 -0.14458848179E+02 -0.40546917128E+02  0.26936990949E+02  0.50781022643E+02  0.00000000000E+00 0. -1.
        -13    1    3    3    0    0 -0.20914021777E+02 -0.21414267420E+02  0.32082708861E+01  0.30104155164E+02  0.00000000000E+00 0. -1.
         13    1    3    3    0    0 -0.12772092481E+02  0.66678163312E+02 -0.13253514545E+02  0.69171955710E+02  0.00000000000E+00 0.  1.
         21    1    1    2  502  501 -0.22175328288E+02  0.11691257567E+02 -0.10194162529E+03  0.10497869143E+03  0.00000000000E+00 0.  1.
<scales pt_clust_5="13000.00000" pt_clust_6="13000.00000" pt_clust_7="13000.00000" pt_clust_8="13000.00000" pt_clust_9="25.06852"></scales>
<clustering>
<clus scale="   25.069">  2  9  1 -1</clus>
<clus scale="   81.063">  7  8 -1 -1</clus>
<clus scale="   97.719">  5  6 -1 -1</clus>
<clus scale="  105.387">  2  7  1 -1</clus>
<clus scale="  118.676">  1  5  2 -1</clus>
</clustering>
</event>
<event>
 9    1  0.1175034E-005  0.1063613E+03  0.7546771E-02  0.1268465E+00
         -2   -1    0    0    0  501 -0.00000000000E+00  0.00000000000E+00  0.42428392105E+02  0.42428392105E+02  0.00000000000E+00 0.  1.
          2   -1    0    0  502    0  0.00000000000E+00 -0.00000000000E+00 -0.53033687395E+03  0.53033687395E+03  0.00000000000E+00 0. -1.
         23    2    1    2    0    0  0.16320201785E+02  0.50925230544E+02 -0.26083032173E+03  0.28204506910E+03  0.93044269971E+02 0.  0.
         23    2    1    2    0    0  0.20588815454E+01 -0.42231757587E+02 -0.24329884240E+03  0.26471101184E+03  0.95340614302E+02 0.  0.
        -11    1    4    4    0    0 -0.10921722262E+02  0.24972952213E+02 -0.12589372595E+03  0.12881056864E+03  0.00000000000E+00 0. -1.
         11    1    4    4    0    0  0.12980603808E+02 -0.67204709800E+02 -0.11740511645E+03  0.13590044321E+03  0.00000000000E+00 0.  1.
        -11    1    3    3    0    0  0.98075298018E+01 -0.26907608761E+02 -0.83539535307E+02  0.88312292515E+02  0.00000000000E+00 0.  1.
         11    1    3    3    0    0  0.65126719833E+01  0.77832839305E+02 -0.17729078643E+03  0.19373277658E+03  0.00000000000E+00 0. -1.
         21    1    1    2  502  501 -0.18379083331E+02 -0.86934729570E+01  0.16220682293E+02  0.26009185111E+02  0.00000000000E+00 0.  1.
<scales pt_clust_5="13000.00000" pt_clust_6="13000.00000" pt_clust_7="13000.00000" pt_clust_8="13000.00000" pt_clust_9="20.33143"></scales>
<clustering>
<clus scale="   20.331">  1  9  2 -1</clus>
<clus scale="   93.044">  7  8 -1 -1</clus>
<clus scale="   95.341">  5  6 -1 -1</clus>
<clus scale="  104.308">  1  7  2 -1</clus>
<clus scale="  106.361">  2  5  1 -1</clus>
</clustering>
</event>
<event>
 9    1  0.1175034E-005  0.1617278E+03  0.7546771E-02  0.1210921E+00
          1   -1    0    0  502    0  0.00000000000E+00  0.00000000000E+00  0.56227947974E+03  0.56227947974E+03  0.00000000000E+00 0. -1.
         -1   -1    0    0    0  501 -0.00000000000E+00 -0.00000000000E+00 -0.72977174544E+02  0.72977174544E+02  0.00000000000E+00 0.  1.
         23    2    1    2    0    0  0.20115151704E+02  0.20837063030E+02  0.80223370231E+02  0.12479147127E+03  0.91095113181E+02 0.  0.
         23    2    1    2    0    0  0.12588146750E+03 -0.14160924094E+02  0.25198510199E+03  0.29590037694E+03  0.89520197811E+02 0.  0.
        -11    1    3    3    0    0  0.46567148635E+02  0.41125752239E+02  0.55207538507E+02  0.83112569069E+02  0.00000000000E+00 0.  1.
         11    1    3    3    0    0 -0.26451996930E+02 -0.20288689209E+02  0.25015831724E+02  0.41678902196E+02  0.00000000000E+00 0. -1.
        -13    1    4    4    0    0  0.57601701822E+02  0.32154311504E+02  0.15571551820E+03  0.16911291616E+03  0.00000000000E+00 0. -1.
         13    1    4    4    0    0  0.68279765676E+02 -0.46315235597E+02  0.96269583788E+02  0.12678746078E+03  0.00000000000E+00 0.  1.
         21    1    1    2  502  501 -0.14599661920E+03 -0.66761389358E+01  0.15709383297E+03  0.21456480608E+03  0.00000000000E+00 0. -1.
<scales pt_clust_5="13000.00000" pt_clust_6="13000.00000" pt_clust_7="13000.00000" pt_clust_8="13000.00000" pt_clust_9="134.69224"></scales>
<clustering>
<clus scale="   89.520">  7  8 -1 -1</clus>
<clus scale="   91.095">  5  6 -1 -1</clus>
<clus scale="   95.588">  2  5  1 -1</clus>
<clus scale="  134.692">  2  9  1 -1</clus>
<clus scale="  161.728">  1  5  2 -1</clus>
</clustering>
</event>
<event>
 9    1  0.1175034E-005  0.1049742E+03  0.7546771E-02  0.1270635E+00
         -2   -1    0    0    0  501 -0.00000000000E+00  0.00000000000E+00  0.16126666473E+03  0.16126666473E+03  0.00000000000E+00 0.  1.
          2   -1    0    0  502    0  0.00000000000E+00 -0.00000000000E+00 -0.10926076285E+03  0.10926076285E+03  0.00000000000E+00 0. -1.
         23    2    1    2    0    0 -0.90950145059E+01 -0.54637165165E+02  0.16027278870E+02  0.11137241610E+03  0.95283798696E+02 0.  0.
         23    2    1    2    0    0 -0.10551104354E+02  0.36563919096E+02 -0.13894841333E+02  0.10258669301E+03  0.94248167007E+02 0.  0.
        -11    1    3    3    0    0 -0.48080359095E+02 -0.72712463326E+01  0.34451474684E+01  0.48748958913E+02  0.00000000000E+00 0.  1.
         11    1    3    3    0    0  0.38985344590E+02 -0.47365918833E+02  0.12582131401E+02  0.62623457188E+02  0.00000000000E+00 0. -1.
        -13    1    4    4    0    0 -0.19179956299E+02 -0.24250234050E+02  0.15392982932E+02  0.34538217942E+02  0.00000000000E+00 0.  1.
         13    1    4    4    0    0  0.86288519446E+01  0.60814153146E+02 -0.29287824265E+02  0.68048475067E+02  0.00000000000E+00 0. -1.
         21    1    1    2  502  501  0.19646118860E+02  0.18073246069E+02  0.49873464343E+02  0.56568318477E+02  0.00000000000E+00 0.  1.
<scales pt_clust_5="13000.00000" pt_clust_6="13000.00000" pt_clust_7="13000.00000" pt_clust_8="13000.00000" pt_clust_9="26.69480"></scales>
<clustering>
<clus scale="   26.695">  1  9  2 -1</clus>
<clus scale="   94.248">  7  8 -1 -1</clus>
<clus scale="   95.284">  5  6 -1 -1</clus>
<clus scale="  104.035">  2  7  1 -1</clus>
<clus scale="  104.035">  2  5  1 -1</clus>
</clustering>
</event>
<event>
 9    1  0.1175034E-005  0.9282150E+02  0.7546771E-02  0.1296438E+00
          3   -1    0    0  502    0  0.00000000000E+00  0.00000000000E+00  0.91722449583E+02  0.91722449583E+02  0.00000000000E+00 0. -1.
         -3   -1    0    0    0  501 -0.00000000000E+00 -0.00000000000E+00 -0.64458252414E+03  0.64458252414E+03  0.00000000000E+00 0.  1.
         23    2    1    2    0    0  0.18287944484E+02 -0.10222890693E+02 -0.39755878764E+03  0.40855352021E+03  0.91782530115E+02 0.  0.
         23    2    1    2    0    0  0.10358027823E+02 -0.62983485604E+01  0.59478093872E+02  0.11044124785E+03  0.92264118924E+02 0.  0.
        -11    1    3    3    0    0 -0.31656979512E+02 -0.20005736539E+02 -0.10226514610E+03  0.10890617041E+03  0.00000000000E+00 0.  1.
         11    1    3    3    0    0  0.49944923995E+02  0.97828458465E+01 -0.29529364154E+03  0.29964734980E+03  0.00000000000E+00 0. -1.
        -13    1    4    4    0    0 -0.32591978107E+02  0.41344019514E+01  0.57468855090E+02  0.66196673796E+02  0.00000000000E+00 0. -1.
         13    1    4    4    0    0  0.42950005930E+02 -0.10432750512E+02  0.20092387826E+01  0.44244574053E+02  0.00000000000E+00 0.  1.
         21    1    1    2  502  501 -0.28645972307E+02  0.16521239253E+02 -0.21477938079E+03  0.21731020567E+03  0.00000000000E+00 0.  1.
<scales pt_clust_5="13000.00000" pt_clust_6="13000.00000" pt_clust_7="13000.00000" pt_clust_8="13000.00000" pt_clust_9="33.06876"></scales>
<clustering>
<clus scale="   33.069">  2  9  1 -1</clus>
<clus scale="   91.783">  5  6 -1 -1</clus>
<clus scale="   92.264">  7  8 -1 -1</clus>
<clus scale="   92.343">  2  5  1 -1</clus>
<clus scale="   92.821">  1  5  2 -1</clus>
</clustering>
</event>
<event>
 9    1  0.1175034E-005  0.1384551E+03  0.7546771E-02  0.1216407E+00
          1   -1    0    0  502    0  0.00000000000E+00  0.00000000000E+00  0.12761172979E+03  0.12761172979E+03  0.00000000000E+00 0. -1.
         -1   -1    0    0    0  501 -0.00000000000E+00 -0.00000000000E+00 -0.58755186488E+03  0.58755186488E+03  0.00000000000E+00 0.  1.
         23    2    1    2    0    0 -0.20700021960E+02  0.70313721781E+02 -0.37232240983E+03  0.39024546869E+03  0.91077102443E+02 0.  0.
         23    2    1    2    0    0  0.18719029518E+02 -0.10601294834E+03  0.75799513545E+02  0.15763527257E+03  0.86684287053E+02 0.  0.
        -13    1    3    3    0    0 -0.42473063903E+02  0.16657365900E+02 -0.25898127061E+03  0.26296906192E+03  0.00000000000E+00 0.  1.
         13    1    3    3    0    0  0.21773041942E+02  0.53656355881E+02 -0.11334113922E+03  0.12727640677E+03  0.00000000000E+00 0. -1.
        -13    1    4    4    0    0  0.41504400264E+02 -0.10731226508E+03  0.59055500542E+02  0.12932938421E+03  0.00000000000E+00 0. -1.
         13    1    4    4    0    0 -0.22785370747E+02  0.12993167346E+01  0.16744013002E+02  0.28305888353E+02  0.00000000000E+00 0.  1.
         21    1    1    2  502  501  0.19809924424E+01  0.35699226560E+02 -0.16341723880E+03  0.16728285341E+03  0.00000000000E+00 0.  1.
<scales pt_clust_5="13000.00000" pt_clust_6="13000.00000" pt_clust_7="13000.00000" pt_clust_8="13000.00000" pt_clust_9="35.75415"></scales>
<clustering>
<clus scale="   35.754">  2  9  1 -1</clus>
<clus scale="   86.684">  7  8 -1 -1</clus>
<clus scale="   91.077">  5  6 -1 -1</clus>
<clus scale="  135.606">  1  7  2 -1</clus>
<clus scale="  135.606">  1  5  2 -1</clus>
</clustering>
</event>
<event>
 9    1  0.1175034E-005  0.1010155E+03  0.7546771E-02  0.1279301E+00
          1   -1    0    0  502    0  0.00000000000E+00  0.00000000000E+00  0.18250845497E+03  0.18250845497E+03  0.00000000000E+00 0. -1.
         -1   -1    0    0    0  501 -0.00000000000E+00 -0.00000000000E+00 -0.10270306936E+03  0.10270306936E+03  0.00000000000E+00 0.  1.
         23    2    1    2    0    0 -0.31965977092E+02  0.30877142714E+02  0.60279074149E+02  0.11908992596E+03  0.92593855366E+02 0.  0.
         23    2    1    2    0    0  0.24073464658E+01 -0.42240497531E+02  0.58758906253E+02  0.11570300090E+03  0.90246996645E+02 0.  0.
        -11    1    4    4    0    0 -0.31845931672E+02 -0.54204522431E+02  0.31472974337E+02  0.70305346380E+02  0.00000000000E+00 0.  1.
         11    1    4    4    0    0  0.34253278138E+02  0.11964024900E+02  0.27285931916E+02  0.45397654515E+02  0.00000000000E+00 0. -1.
        -11    1    3    3    0    0 -0.57845923794E+02  0.44915896653E+02  0.41716759883E+02  0.84284498734E+02  0.00000000000E+00 0.  1.
         11    1    3    3    0    0  0.25879946703E+02 -0.14038753940E+02  0.18562314266E+02  0.34805427227E+02  0.00000000000E+00 0. -1.
         21    1    1    2  502  501  0.29558630626E+02  0.11363354817E+02 -0.39232594789E+02  0.50418597472E+02  0.00000000000E+00 0.  1.
<scales pt_clust_5="13000.00000" pt_clust_6="13000.00000" pt_clust_7="13000.00000" pt_clust_8="13000.00000" pt_clust_9="31.66763"></scales>
<clustering>
<clus scale="   31.668">  2  9  1 -1</clus>
<clus scale="   90.247">  5  6 -1 -1</clus>
<clus scale="   92.594">  7  8 -1 -1</clus>
<clus scale="   98.869">  1  5  2 -1</clus>
<clus scale="   98.869">  1  5  2 -1</clus>
</clustering>
</event>
<event>
 9    1  0.1175034E-005  0.1305111E+03  0.7546771E-02  0.1226845E+00
          2   -1    0    0  502    0  0.00000000000E+00  0.00000000000E+00  0.53849572346E+03  0.53849572346E+03  0.00000000000E+00 0. -1.
         -2   -1    0    0    0  501 -0.00000000000E+00 -0.00000000000E+00 -0.10224597477E+03  0.10224597477E+03  0.00000000000E+00 0.  1.
         23    2    1    2    0    0  0.41873636277E+01 -0.74244989879E+02  0.15719616308E+02  0.11789140149E+03  0.90118941804E+02 0.  0.
         23    2    1    2    0    0 -0.12718809577E+02  0.96670921539E+02  0.45877136964E+03  0.47770497353E+03  0.90685373375E+02 0.  0.
        -11    1    4    4    0    0 -0.27796965639E+02  0.27101942529E+02  0.52780094307E+02  0.65520416227E+02  0.00000000000E+00 0.  1.
         11    1    4    4    0    0  0.15078156063E+02  0.69568979010E+02  0.40599127533E+03  0.41218455730E+03  0.00000000000E+00 0. -1.
        -13    1    3    3    0    0 -0.25553435290E+02 -0.19762657893E+01  0.28911998681E+02  0.38636606338E+02  0.00000000000E+00 0. -1.
         13    1    3    3    0    0  0.29740798917E+02 -0.72268724089E+02 -0.13192382373E+02  0.79254795151E+02  0.00000000000E+00 0.  1.
         21    1    1    2  502  501  0.85314459489E+01 -0.22425931660E+02 -0.38241237262E+02  0.45145323214E+02  0.00000000000E+00 0.  1.
<scales pt_clust_5="13000.00000" pt_clust_6="13000.00000" pt_clust_7="13000.00000" pt_clust_8="13000.00000" pt_clust_9="23.99392"></scales>
<clustering>
<clus scale="   23.994">  2  9  1 -1</clus>
<clus scale="   90.119">  7  8 -1 -1</clus>
<clus scale="   90.685">  5  6 -1 -1</clus>
<clus scale="  130.118">  2  7  1 -1</clus>
<clus scale="  130.511">  1  5  2 -1</clus>
</clustering>
</event>
<event>
 9    1  0.1175034E-005  0.1602367E+03  0.7546771E-02  0.1191745E+00
         -1   -1    0    0    0  501 -0.00000000000E+00  0.00000000000E+00  0.48938328530E+02  0.48938328530E+02  0.00000000000E+00 0.  1.
          1   -1    0    0  502    0  0.00000000000E+00 -0.00000000000E+00 -0.60158727579E+03  0.60158727579E+03  0.00000000000E+00 0. -1.
         23    2    1    2    0    0 -0.44231771410E+02  0.11787302642E+03 -0.21380199271E+03  0.26346735797E+03  0.88618602295E+02 0.  0.
         23    2    1    2    0    0  0.23984297115E+02 -0.11326779720E+03 -0.32764308904E+03  0.36346386240E+03  0.10654175278E+03 0.  0.
        -13    1    4    4    0    0 -0.41198445184E+02 -0.61626512268E+02 -0.15904007969E+03  0.17546762051E+03  0.00000000000E+00 0.  1.
         13    1    4    4    0    0  0.65182742299E+02 -0.51641284932E+02 -0.16860300935E+03  0.18799624189E+03  0.00000000000E+00 0. -1.
        -13    1    3    3    0    0 -0.69062316902E+02  0.10237772720E+03 -0.15884903937E+03  0.20120591430E+03  0.00000000000E+00 0.  1.
         13    1    3    3    0    0  0.24830545492E+02  0.15495299224E+02 -0.54952953341E+02  0.62261443674E+02  0.00000000000E+00 0. -1.
         21    1    1    2  502  501  0.20247474294E+02 -0.46052292194E+01 -0.11203865518E+02  0.23594383951E+02  0.00000000000E+00 0.  1.
<scales pt_clust_5="13000.00000" pt_clust_6="13000.00000" pt_clust_7="13000.00000" pt_clust_8="13000.00000" pt_clust_9="20.76459"></scales>
<clustering>
<clus scale="   20.765">  1  9  2 -1</clus>
<clus scale="   88.619">  7  8 -1 -1</clus>
<clus scale="  106.542">  5  6 -1 -1</clus>
<clus scale="  148.923">  1  7  2 -1</clus>
<clus scale="  160.237">  2  5  1 -1</clus>
</clustering>
</event>
<event>
 9    1  0.1175034E-005  0.1365999E+03  0.7546771E-02  0.1218258E+00
         -1   -1    0    0    0  501 -0.00000000000E+00  0.00000000000E+00  0.20493374151E+03  0.20493374151E+03  0.00000000000E+00 0.  1.
          1   -1    0    0  502    0  0.00000000000E+00 -0.00000000000E+00 -0.17488501397E+03  0.17488501397E+03  0.00000000000E+00 0. -1.
         23    2    1    2    0    0 -0.67876208587E+02 -0.97582232359E+02  0.98412267388E+02  0.17980289342E+03  0.92274776327E+02 0.  0.
         23    2    1    2    0    0  0.42582149818E+02  0.84987876983E+02 -0.92993681734E+02  0.16253185099E+03  0.93448376262E+02 0.  0.
        -11    1    3    3    0    0 -0.28530079352E+02 -0.10126969881E+03  0.92010322385E+02  0.13976915522E+03  0.00000000000E+00 0.  1.
         11    1    3    3    0    0 -0.39346129235E+02  0.36874664543E+01  0.64019450038E+01  0.40033738202E+02  0.00000000000E+00 0. -1.
        -13    1    4    4    0    0  0.10038758248E+02  0.66733360518E+02 -0.58519779891E+01  0.67737461715E+02  0.00000000000E+00 0.  1.
         13    1    4    4    0    0  0.32543391570E+02  0.18254516466E+02 -0.87141703745E+02  0.94794389274E+02  0.00000000000E+00 0. -1.
         21    1    1    2  502  501  0.25294058769E+02  0.12594355375E+02  0.24630141889E+02  0.37484011069E+02  0.00000000000E+00 0. -1.
<scales pt_clust_5="13000.00000" pt_clust_6="13000.00000" pt_clust_7="13000.00000" pt_clust_8="13000.00000" pt_clust_9="28.25610"></scales>
<clustering>
<clus scale="   28.256">  1  9  2 -1</clus>
<clus scale="   92.275">  5  6 -1 -1</clus>
<clus scale="   93.448">  7  8 -1 -1</clus>
<clus scale="  135.800">  1  5  2 -1</clus>
<clus scale="  136.600">  2  5  1 -1</clus>
</clustering>
</event>
<event>
 9    1  0.1175034E-005  0.1897083E+03  0.7546771E-02  0.1159446E+00
         -2   -1    0    0    0  501 -0.00000000000E+00  0.00000000000E+00  0.19395088089E+03  0.19395088089E+03  0.00000000000E+00 0.  1.
          2   -1    0    0  502    0  0.00000000000E+00 -0.00000000000E+00 -0.42808791364E+03  0.42808791364E+03  0.00000000000E+00 0. -1.
         23    2    1    2    0    0  0.95739476557E+02 -0.12843374854E+03  0.16430689024E+02  0.18512067175E+03  0.91314951861E+02 0.  0.
         23    2    1    2    0    0 -0.11921511391E+03  0.11237511020E+03 -0.31401340364E+03  0.36738870481E+03  0.97619844192E+02 0.  0.
        -11    1    4    4    0    0 -0.87916636357E+02  0.92845586750E+02 -0.30302101104E+03  0.32889416392E+03  0.00000000000E+00 0. -1.
         11    1    4    4    0    0 -0.31298477552E+02  0.19529523454E+02 -0.10992392596E+02  0.38494540891E+02  0.00000000000E+00 0.  1.
        -13    1    3    3    0    0  0.39260776623E+02 -0.12063997360E+03  0.49619691034E+01  0.12696469174E+03  0.00000000000E+00 0.  1.
         13    1    3    3    0    0  0.56478699934E+02 -0.77937749312E+01  0.11468719920E+02  0.58155980007E+02  0.00000000000E+00 0. -1.
         21    1    1    2  502  501  0.23475637352E+02  0.16058638331E+02  0.63445681867E+02  0.69529417958E+02  0.00000000000E+00 0.  1.
<scales pt_clust_5="13000.00000" pt_clust_6="13000.00000" pt_clust_7="13000.00000" pt_clust_8="13000.00000" pt_clust_9="28.44267"></scales>
<clustering>
<clus scale="   28.443">  1  9  2 -1</clus>
<clus scale="   91.315">  7  8 -1 -1</clus>
<clus scale="   97.620">  5  6 -1 -1</clus>
<clus scale="  186.542">  1  7  2 -1</clus>
<clus scale="  189.708">  2  5  1 -1</clus>
</clustering>
</event>
<event>
 9    1  0.1175034E-005  0.1196906E+03  0.7546771E-02  0.1244044E+00
          2   -1    0    0  502    0  0.00000000000E+00  0.00000000000E+00  0.71648518552E+03  0.71648518552E+03  0.00000000000E+00 0. -1.
         -2   -1    0    0    0  501 -0.00000000000E+00 -0.00000000000E+00 -0.34246723500E+02  0.34246723500E+02  0.00000000000E+00 0.  1.
         23    2    1    2    0    0 -0.16721321053E+02  0.79365003007E+02  0.28920808004E+03  0.31428540342E+03  0.92496459167E+02 0.  0.
         23    2    1    2    0    0  0.50737580365E+02 -0.57402433017E+02  0.37246825436E+03  0.39103437649E+03  0.91136939364E+02 0.  0.
        -11    1    4    4    0    0 -0.19648751516E+02  0.96115499330E+01  0.68027377757E+02  0.71457536011E+02  0.00000000000E+00 0.  1.
         11    1    4    4    0    0  0.70386331881E+02 -0.67013982950E+02  0.30444087660E+03  0.31957684048E+03  0.00000000000E+00 0. -1.
        -13    1    3    3    0    0 -0.23273868506E+02  0.37710601011E+02  0.34634581540E+02  0.56243369585E+02  0.00000000000E+00 0.  1.
         13    1    3    3    0    0  0.65525474534E+01  0.41654401997E+02  0.25457349850E+03  0.25804203383E+03  0.00000000000E+00 0. -1.
         21    1    1    2  502  501 -0.34016259312E+02 -0.21962569990E+02  0.20562127621E+02  0.45412129112E+02  0.00000000000E+00 0.  1.
<scales pt_clust_5="13000.00000" pt_clust_6="13000.00000" pt_clust_7="13000.00000" pt_clust_8="13000.00000" pt_clust_9="40.49025"></scales>
<clustering>
<clus scale="   40.490">  2  9  1 -1</clus>
<clus scale="   91.137">  5  6 -1 -1</clus>
<clus scale="   92.496">  7  8 -1 -1</clus>
<clus scale="  118.643">  1  5  2 -1</clus>
<clus scale="  118.643">  1  5  2 -1</clus>
</clustering>
</event>
<event>
 9    1  0.1175034E-005  0.1398796E+03  0.7546771E-02  0.1213711E+00
          3   -1    0    0  502    0  0.00000000000E+00  0.00000000000E+00  0.60520896201E+03  0.60520896201E+03  0.00000000000E+00 0. -1.
         -3   -1    0    0    0  501 -0.00000000000E+00 -0.00000000000E+00 -0.10893314419E+03  0.10893314419E+03  0.00000000000E+00 0.  1.
         23    2    1    2    0    0  0.61548602462E+02  0.90332135851E+02  0.16433948996E+03  0.21772836056E+03  0.91924130680E+02 0.  0.
         23    2    1    2    0    0 -0.74874507087E+02 -0.72769388792E+02  0.40083520797E+03  0.42407367722E+03  0.90928785349E+02 0.  0.
        -11    1    4    4    0    0 -0.10906864988E+02 -0.50671492538E+02  0.74261386426E+02  0.90561102985E+02  0.00000000000E+00 0.  1.
         11    1    4    4    0    0 -0.63967642098E+02 -0.22097896254E+02  0.32657382154E+03  0.33351257423E+03  0.00000000000E+00 0. -1.
        -13    1    3    3    0    0  0.38829743946E+02  0.85958370624E+02  0.16954337792E+03  0.19401429713E+03  0.00000000000E+00 0. -1.
         13    1    3    3    0    0  0.22718858516E+02  0.43737652273E+01 -0.52038879605E+01  0.23714063432E+02  0.00000000000E+00 0.  1.
         21    1    1    2  502  501  0.13325904625E+02 -0.17562747059E+02 -0.68898880114E+02  0.72340068422E+02  0.00000000000E+00 0.  1.
<scales pt_clust_5="13000.00000" pt_clust_6="13000.00000" pt_clust_7="13000.00000" pt_clust_8="13000.00000" pt_clust_9="22.04608"></scales>
<clustering>
<clus scale="   22.046">  2  9  1 -1</clus>
<clus scale="   90.929">  5  6 -1 -1</clus>
<clus scale="   91.924">  7  8 -1 -1</clus>
<clus scale="  139.228">  1  5  2 -1</clus>
<clus scale="  139.228">  1  5  2 -1</clus>
</clustering>
</event>
<event>
 9    1  0.1175034E-005  0.9566679E+02  0.7546771E-02  0.1289912E+00
          1   -1    0    0  502    0  0.00000000000E+00  0.00000000000E+00  0.23858771147E+03  0.23858771147E+03  0.00000000000E+00 0. -1.
         -1   -1    0    0    0  501 -0.00000000000E+00 -0.00000000000E+00 -0.53126400399E+02  0.53126400399E+02  0.00000000000E+00 0.  1.
         23    2    1    2    0    0 -0.33983942561E+02 -0.54510376356E+01  0.86867808362E+02  0.13039746656E+03  0.90955269188E+02 0.  0.
         23    2    1    2    0    0  0.21842717910E+02 -0.16788708214E+02  0.96754587454E+02  0.13591197564E+03  0.91387361708E+02 0.  0.
        -11    1    3    3    0    0 -0.18326220501E+02 -0.23154311246E+02  0.99366931601E+02  0.10366175564E+03  0.00000000000E+00 0. -1.
         11    1    3    3    0    0 -0.15657722060E+02  0.17703273610E+02 -0.12499123239E+02  0.26735710920E+02  0.00000000000E+00 0.  1.
        -13    1    4    4    0    0  0.57540497209E+02 -0.58078789741E+01  0.63702288783E+02  0.86038490650E+02  0.00000000000E+00 0.  1.
         13    1    4    4    0    0 -0.35697779299E+02 -0.10980829240E+02  0.33052298671E+02  0.49873484990E+02  0.00000000000E+00 0. -1.
         21    1    1    2  502  501  0.12141224651E+02  0.22239745850E+02  0.18389152554E+01  0.25404669665E+02  0.00000000000E+00 0. -1.
<scales pt_clust_5="13000.00000" pt_clust_6="13000.00000" pt_clust_7="13000.00000" pt_clust_8="13000.00000" pt_clust_9="25.33803"></scales>
<clustering>
<clus scale="   25.338">  2  9  1 -1</clus>
<clus scale="   90.955">  5  6 -1 -1</clus>
<clus scale="   91.387">  7  8 -1 -1</clus>
<clus scale="   95.254">  2  5  1 -1</clus>
<clus scale="   95.667">  1  5  2 -1</clus>
</clustering>
</event>
<event>
 9    1  0.1175034E-005  0.9949891E+02  0.7546771E-02  0.1284320E+00
          2   -1    0    0  502    0  0.00000000000E+00  0.00000000000E+00  0.23372187570E+03  0.23372187570E+03  0.00000000000E+00 0. -1.
         -2   -1    0    0    0  501 -0.00000000000E+00 -0.00000000000E+00 -0.61584099383E+02  0.61584099383E+02  0.00000000000E+00 0.  1.
         23    2    1    2    0    0  0.26407711221E+02  0.76640979123E+01  0.68039865351E+02  0.11761695356E+03  0.91914193018E+02 0.  0.
         23    2    1    2    0    0 -0.46491485561E+02  0.15336997987E+02  0.10848819364E+03  0.14683966195E+03  0.85997188472E+02 0.  0.
        -11    1    3    3    0    0 -0.21198309509E+02 -0.23243607763E+02  0.34739862864E+01  0.31649679439E+02  0.00000000000E+00 0.  1.
         11    1    3    3    0    0  0.47606020730E+02  0.30907705675E+02  0.64565879065E+02  0.85967274118E+02  0.00000000000E+00 0. -1.
        -13    1    4    4    0    0  0.11349517128E+02  0.35648258578E+02  0.36213723778E+02  0.52067683534E+02  0.00000000000E+00 0. -1.
         13    1    4    4    0    0 -0.57841002689E+02 -0.20311260592E+02  0.72274469863E+02  0.94771978416E+02  0.00000000000E+00 0.  1.
         21    1    1    2  502  501  0.20083774340E+02 -0.23001095899E+02 -0.43902826760E+01  0.30849359576E+02  0.00000000000E+00 0.  1.
<scales pt_clust_5="13000.00000" pt_clust_6="13000.00000" pt_clust_7="13000.00000" pt_clust_8="13000.00000" pt_clust_9="30.53536"></scales>
<clustering>
<clus scale="   30.535">  2  9  1 -1</clus>
<clus scale="   85.997">  7  8 -1 -1</clus>
<clus scale="   91.914">  5  6 -1 -1</clus>
<clus scale="   94.060">  1  7  2 -1</clus>
<clus scale="   94.060">  1  5  2 -1</clus>
</clustering>
</event>
<event>
 9    1  0.1175034E-005  0.1956711E+03  0.7546771E-02  0.1154802E+00
         -2   -1    0    0    0  501 -0.00000000000E+00  0.00000000000E+00  0.93000600626E+02  0.93000600626E+02  0.00000000000E+00 0.  1.
          2   -1    0    0  502    0  0.00000000000E+00 -0.00000000000E+00 -0.47511003869E+03  0.47511003869E+03  0.00000000000E+00 0. -1.
         23    2    1    2    0    0 -0.17092415096E+03  0.13569802927E+02 -0.18122465393E+03  0.26879762652E+03  0.10005290550E+03 0.  0.
         23    2    1    2    0    0  0.15225181156E+03  0.47535468599E+01 -0.19719512127E+03  0.27289303895E+03  0.11127211925E+03 0.  0.
        -11    1    4    4    0    0  0.11732077272E+03 -0.22495963785E+02 -0.19481857156E+03  0.22852682102E+03  0.00000000000E+00 0.  1.
         11    1    4    4    0    0  0.34931038840E+02  0.27249510645E+02 -0.23765497041E+01  0.44366217930E+02  0.00000000000E+00 0. -1.
        -11    1    3    3    0    0 -0.14686694460E+03 -0.28618302809E+02 -0.14327806745E+03  0.20716542009E+03  0.00000000000E+00 0. -1.
         11    1    3    3    0    0 -0.24057206365E+02  0.42188105736E+02 -0.37946586482E+02  0.61632206429E+02  0.00000000000E+00 0.  1.
         21    1    1    2  502  501  0.18672339397E+02 -0.18323349787E+02 -0.36896628682E+01  0.26419973847E+02  0.00000000000E+00 0.  1.
<scales pt_clust_5="13000.00000" pt_clust_6="13000.00000" pt_clust_7="13000.00000" pt_clust_8="13000.00000" pt_clust_9="26.16107"></scales>
<clustering>
<clus scale="   26.161">  1  9  2 -1</clus>
<clus scale="  100.053">  7  8 -1 -1</clus>
<clus scale="  111.272">  5  6 -1 -1</clus>
<clus scale="  189.516">  1  7  2 -1</clus>
<clus scale="  195.671">  2  5  1 -1</clus>
</clustering>
</event>
<event>
 9    1  0.1175034E-005  0.1314959E+03  0.7546771E-02  0.1227633E+00
         -1   -1    0    0    0  501 -0.00000000000E+00  0.00000000000E+00  0.40375656242E+03  0.40375656242E+03  0.00000000000E+00 0.  1.
          1   -1    0    0  502    0  0.00000000000E+00 -0.00000000000E+00 -0.13408410315E+03  0.13408410315E+03  0.00000000000E+00 0. -1.
         23    2    1    2    0    0 -0.83264784266E+02 -0.38468637483E+02  0.75645711267E+02  0.14374677412E+03  0.80796046123E+02 0.  0.
         23    2    1    2    0    0  0.99581369252E+02  0.15352823211E+01 -0.52465250586E+02  0.14431677272E+03  0.90310144372E+02 0.  0.
        -11    1    4    4    0    0  0.78048907637E+02  0.37138681054E+02 -0.13823867632E+02  0.87532924834E+02  0.00000000000E+00 0.  1.
         11    1    4    4    0    0  0.21532461615E+02 -0.35603398733E+02 -0.38641382954E+02  0.56783847890E+02  0.00000000000E+00 0. -1.
        -11    1    3    3    0    0  0.41358189552E+01 -0.33095640952E+02  0.11807455966E+02  0.35381385853E+02  0.00000000000E+00 0. -1.
         11    1    3    3    0    0 -0.87400603221E+02 -0.53729965306E+01  0.63838255301E+02  0.10836538827E+03  0.00000000000E+00 0.  1.
         21    1    1    2  502  501 -0.16316584986E+02  0.36933355162E+02  0.24649199858E+03  0.24977711872E+03  0.00000000000E+00 0.  1.
<scales pt_clust_5="13000.00000" pt_clust_6="13000.00000" pt_clust_7="13000.00000" pt_clust_8="13000.00000" pt_clust_9="40.37702"></scales>
<clustering>
<clus scale="   40.377">  1  9  2 -1</clus>
<clus scale="   80.796">  7  8 -1 -1</clus>
<clus scale="   90.310">  5  6 -1 -1</clus>
<clus scale="  125.153">  1  7  2 -1</clus>
<clus scale="  131.496">  2  5  1 -1</clus>
</clustering>
</event>
<event>
 9    1  0.1175034E-005  0.9701987E+02  0.7546771E-02  0.1287192E+00
          3   -1    0    0  502    0  0.00000000000E+00  0.00000000000E+00  0.12293488297E+03  0.12293488297E+03  0.00000000000E+00 0. -1.
         -3   -1    0    0    0  501 -0.00000000000E+00 -0.00000000000E+00 -0.21215145172E+03  0.21215145172E+03  0.00000000000E+00 0.  1.
         23    2    1    2    0    0  0.20818525819E+02 -0.63736807249E+01 -0.10530552911E+03  0.14120679000E+03  0.91520862427E+02 0.  0.
         23    2    1    2    0    0 -0.21042625519E+02  0.27735240647E+02  0.80470886438E+02  0.12604593304E+03  0.90553729956E+02 0.  0.
        -11    1    4    4    0    0 -0.56670150130E+02  0.12876206950E+02  0.53146204000E+02  0.78751645195E+02  0.00000000000E+00 0. -1.
         11    1    4    4    0    0  0.35627524611E+02  0.14859033697E+02  0.27324682437E+02  0.47294287844E+02  0.00000000000E+00 0.  1.
        -13    1    3    3    0    0 -0.28681926707E+02 -0.27933810290E+02 -0.47032588887E+02  0.61765808457E+02  0.00000000000E+00 0. -1.
         13    1    3    3    0    0  0.49500452527E+02  0.21560129565E+02 -0.58272940218E+02  0.79440981545E+02  0.00000000000E+00 0.  1.
         21    1    1    2  502  501  0.22409969993E+00 -0.21361559922E+02 -0.64381926087E+02  0.67833611651E+02  0.00000000000E+00 0.  1.
<scales pt_clust_5="13000.00000" pt_clust_6="13000.00000" pt_clust_7="13000.00000" pt_clust_8="13000.00000" pt_clust_9="21.36274"></scales>
<clustering>
<clus scale="   21.363">  2  9  1 -1</clus>
<clus scale="   90.554">  5  6 -1 -1</clus>
<clus scale="   91.521">  7  8 -1 -1</clus>
<clus scale="   96.108">  1  5  2 -1</clus>
<clus scale="   96.108">  1  5  2 -1</clus>
</clustering>
</event>
<event>
 9    1  0.1175034E-005  0.1018575E+03  0.7546771E-02  0.1277995E+00
          1   -1    0    0  502    0  0.00000000000E+00  0.00000000000E+00  0.11752284419E+03  0.11752284419E+03  0.00000000000E+00 0. -1.
         -1   -1    0    0    0  501 -0.00000000000E+00 -0.00000000000E+00 -0.27536819507E+03  0.27536819507E+03  0.00000000000E+00 0.  1.
         23    2    1    2    0    0  0.28763097920E+02  0.28470022817E+02 -0.13805400526E+03  0.17221171252E+03  0.94657844675E+02 0.  0.
         23    2    1    2    0    0  0.10725502662E+02 -0.38745854668E+02  0.70055111465E+02  0.12200142573E+03  0.91434958177E+02 0.  0.
        -11    1    3    3    0    0  0.57817441172E+02  0.17641516632E+02 -0.48684356857E+02  0.77616017776E+02  0.00000000000E+00 0. -1.
         11    1    3    3    0    0 -0.29054343252E+02  0.10828506185E+02 -0.89369648401E+02  0.94595694740E+02  0.00000000000E+00 0.  1.
        -13    1    4    4    0    0  0.36880640427E+02 -0.11774368287E+02 -0.40405450454E+01  0.38924842853E+02  0.00000000000E+00 0. -1.
         13    1    4    4    0    0 -0.26155137765E+02 -0.26971486381E+02  0.74095656510E+02  0.83076582879E+02  0.00000000000E+00 0.  1.
         21    1    1    2  502  501 -0.39488600582E+02  0.10275831851E+02 -0.89846457085E+02  0.98677901006E+02  0.00000000000E+00 0.  1.
<scales pt_clust_5="13000.00000" pt_clust_6="13000.00000" pt_clust_7="13000.00000" pt_clust_8="13000.00000" pt_clust_9="40.80370"></scales>
<clustering>
<clus scale="   40.804">  2  9  1 -1</clus>
<clus scale="   91.435">  7  8 -1 -1</clus>
<clus scale="   94.658">  5  6 -1 -1</clus>
<clus scale="   98.870">  1  7  2 -1</clus>
<clus scale="   98.870">  1  5  2 -1</clus>
</clustering>
</event>
<event>
 9    1  0.1175034E-005  0.9650535E+02  0.7546771E-02  0.1288616E+00
          1   -1    0    0  502    0  0.00000000000E+00  0.00000000000E+00  0.49399955662E+03  0.49399955662E+03  0.00000000000E+00 0. -1.
         -1   -1    0    0    0  501 -0.00000000000E+00 -0.00000000000E+00 -0.30829459235E+02  0.30829459235E+02  0.00000000000E+00 0.  1.
         23    2    1    2    0    0 -0.12358317517E+02  0.33367249528E+02  0.96214960103E+02  0.13659084440E+03  0.90186688997E+02 0.  0.
         23    2    1    2    0    0 -0.11837938904E+02 -0.34017145159E+02  0.33342092663E+03  0.34688089310E+03  0.88654028231E+02 0.  0.
        -11    1    3    3    0    0  0.29040612915E+02  0.42811030468E+02  0.68676855573E+02  0.85980532795E+02  0.00000000000E+00 0. -1.
         11    1    3    3    0    0 -0.41398930432E+02 -0.94437809392E+01  0.27538104529E+02  0.50610311601E+02  0.00000000000E+00 0.  1.
        -13    1    4    4    0    0 -0.14846905191E+02  0.28612949143E+02  0.93458126540E+02  0.98861280938E+02  0.00000000000E+00 0. -1.
         13    1    4    4    0    0  0.30089662869E+01 -0.62630094302E+02  0.23996280009E+03  0.24801961216E+03  0.00000000000E+00 0.  1.
         21    1    1    2  502  501  0.24196256421E+02  0.64989563079E+00  0.33534210648E+02  0.41357278354E+02  0.00000000000E+00 0.  1.
<scales pt_clust_5="13000.00000" pt_clust_6="13000.00000" pt_clust_7="13000.00000" pt_clust_8="13000.00000" pt_clust_9="24.20498"></scales>
<clustering>
<clus scale="   24.205">  2  9  1 -1</clus>
<clus scale="   88.654">  7  8 -1 -1</clus>
<clus scale="   90.187">  5  6 -1 -1</clus>
<clus scale="   95.075">  1  7  2 -1</clus>
<clus scale="   95.075">  1  5  2 -1</clus>
</clustering>
</event>
<event>
 9    1  0.1175034E-005  0.1334822E+03  0.7546771E-02  0.1222929E+00
          1   -1    0    0  502    0  0.00000000000E+00  0.00000000000E+00  0.10028166549E+04  0.10028166549E+04  0.00000000000E+00 0. -1.
         -1   -1    0    0    0  501 -0.00000000000E+00 -0.00000000000E+00 -0.25718961839E+02  0.25718961839E+02  0.00000000000E+00 0.  1.
         23    2    1    2    0    0 -0.78033345640E+02 -0.54369229632E+02  0.40744852996E+03  0.42757779074E+03  0.88109286712E+02 0.  0.
         23    2    1    2    0    0  0.95539903987E+02  0.36108828259E+02  0.55545002148E+03  0.57194856080E+03  0.90380911185E+02 0.  0.
        -11    1    3    3    0    0 -0.48709734973E+02  0.34269627525E+01  0.79592308054E+02  0.93377287689E+02  0.00000000000E+00 0.  1.
         11    1    3    3    0    0 -0.29323610667E+02 -0.57796192384E+02  0.32785622191E+03  0.33420050305E+03  0.00000000000E+00 0. -1.
        -13    1    4    4    0    0  0.21967913393E+02  0.52976256940E+02  0.17749948844E+03  0.18653455823E+03  0.00000000000E+00 0. -1.
         13    1    4    4    0    0  0.73571990594E+02 -0.16867428681E+02  0.37795053304E+03  0.38541400257E+03  0.00000000000E+00 0.  1.
         21    1    1    2  502  501 -0.17506558347E+02  0.18260401373E+02  0.14199141580E+02  0.29009265159E+02  0.00000000000E+00 0. -1.
<scales pt_clust_5="13000.00000" pt_clust_6="13000.00000" pt_clust_7="13000.00000" pt_clust_8="13000.00000" pt_clust_9="25.29668"></scales>
<clustering>
<clus scale="   25.297">  2  9  1 -1</clus>
<clus scale="   88.109">  5  6 -1 -1</clus>
<clus scale="   90.381">  7  8 -1 -1</clus>
<clus scale="  131.955">  2  5  1 -1</clus>
<clus scale="  133.482">  1  5  2 -1</clus>
</clustering>
</event>
<event>
 9    1  0.1175034E-005  0.1086937E+03  0.7546771E-02  0.1264290E+00
         -1   -1    0    0    0  501 -0.00000000000E+00  0.00000000000E+00  0.23555258041E+03  0.23555258041E+03  0.00000000000E+00 0.  1.
          1   -1    0    0  502    0  0.00000000000E+00 -0.00000000000E+00 -0.88758746458E+02  0.88758746458E+02  0.00000000000E+00 0. -1.
         23    2    1    2    0    0 -0.51357183244E+02 -0.77096401326E+01  0.10891399008E+03  0.14988291436E+03  0.88913620779E+02 0.  0.
         23    2    1    2    0    0  0.57749416506E+02 -0.21844147109E+02 -0.16601489072E+02  0.11211868112E+03  0.92102265699E+02 0.  0.
        -11    1    3    3    0    0 -0.61415964908E+02  0.17704621319E+02  0.39145602810E+02  0.74951668300E+02  0.00000000000E+00 0.  1.
         11    1    3    3    0    0  0.10058781664E+02 -0.25414261451E+02  0.69768387274E+02  0.74931246062E+02  0.00000000000E+00 0. -1.
        -13    1    4    4    0    0  0.55362973491E+02 -0.49029340471E+02 -0.32230289392E+02  0.80670481683E+02  0.00000000000E+00 0. -1.
         13    1    4    4    0    0  0.23864430149E+01  0.27185193362E+02  0.15628800319E+02  0.31448199436E+02  0.00000000000E+00 0.  1.
         21    1    1    2  502  501 -0.63922332617E+01  0.29553787242E+02  0.54481332940E+02  0.62309731386E+02  0.00000000000E+00 0. -1.
<scales pt_clust_5="13000.00000" pt_clust_6="13000.00000" pt_clust_7="13000.00000" pt_clust_8="13000.00000" pt_clust_9="30.23718"></scales>
<clustering>
<clus scale="   30.237">  1  9  2 -1</clus>
<clus scale="   88.914">  5  6 -1 -1</clus>
<clus scale="   92.102">  7  8 -1 -1</clus>
<clus scale="  106.005">  1  5  2 -1</clus>
<clus scale="  108.694">  2  5  1 -1</clus>
</clustering>
</event>
<event>
 9    1  0.1175034E-005  0.9677628E+02  0.7546771E-02  0.1287241E+00
          2   -1    0    0  502    0  0.00000000000E+00  0.00000000000E+00  0.34842368151E+03  0.34842368151E+03  0.00000000000E+00 0. -1.
         -2   -1    0    0    0  501 -0.00000000000E+00 -0.00000000000E+00 -0.84373395907E+02  0.84373395907E+02  0.00000000000E+00 0.  1.
         23    2    1    2    0    0 -0.70242096002E+01  0.22767687553E+02  0.10868694502E+03  0.14479403010E+03  0.92653936882E+02 0.  0.
         23    2    1    2    0    0  0.42250875503E+02  0.13164337098E+02  0.19734378384E+03  0.22247148238E+03  0.92685248017E+02 0.  0.
        -11    1    4    4    0    0 -0.92136333094E+01  0.33152170334E+02  0.13445004034E+03  0.13878317904E+03  0.00000000000E+00 0. -1.
         11    1    4    4    0    0  0.51464508812E+02 -0.19987833236E+02  0.62893743503E+02  0.83688303344E+02  0.00000000000E+00 0.  1.
        -11    1    3    3    0    0 -0.49018705306E+02  0.17589908042E+02  0.71544364831E+02  0.88492002316E+02  0.00000000000E+00 0. -1.
         11    1    3    3    0    0  0.41994495706E+02  0.51777795115E+01  0.37142580184E+02  0.56302027787E+02  0.00000000000E+00 0.  1.
         21    1    1    2  502  501 -0.35226665903E+02 -0.35932024651E+02 -0.41980443257E+02  0.65531564930E+02  0.00000000000E+00 0.  1.
<scales pt_clust_5="13000.00000" pt_clust_6="13000.00000" pt_clust_7="13000.00000" pt_clust_8="13000.00000" pt_clust_9="50.31926"></scales>
<clustering>
<clus scale="   50.319">  2  9  1 -1</clus>
<clus scale="   92.654">  7  8 -1 -1</clus>
<clus scale="   92.685">  5  6 -1 -1</clus>
<clus scale="   96.746">  2  7  1 -1</clus>
<clus scale="   96.776">  1  5  2 -1</clus>
</clustering>
</event>
<event>
 9    1  0.1175034E-005  0.1103258E+03  0.7546771E-02  0.1260748E+00
         -1   -1    0    0    0  501 -0.00000000000E+00  0.00000000000E+00  0.12355309649E+03  0.12355309649E+03  0.00000000000E+00 0.  1.
          1   -1    0    0  502    0  0.00000000000E+00 -0.00000000000E+00 -0.15282492907E+03  0.15282492907E+03  0.00000000000E+00 0. -1.
         23    2    1    2    0    0 -0.30188491093E+02  0.37668634091E+02  0.21457635994E+02  0.10468459314E+03  0.90377889501E+02 0.  0.
         23    2    1    2    0    0  0.64022686566E+02 -0.25984974955E+02 -0.65847837354E+02  0.13283695613E+03  0.92388288825E+02 0.  0.
        -11    1    4    4    0    0  0.15877886015E+01  0.27598080872E+02 -0.30391663098E+00  0.27645388509E+02  0.00000000000E+00 0.  1.
         11    1    4    4    0    0  0.62434897965E+02 -0.53583055827E+02 -0.65543920723E+02  0.10519156762E+03  0.00000000000E+00 0. -1.
        -13    1    3    3    0    0 -0.56531887008E+02  0.43335883778E+01  0.25173063936E+02  0.62034807849E+02  0.00000000000E+00 0.  1.
         13    1    3    3    0    0  0.26343395914E+02  0.33335045713E+02 -0.37154279424E+01  0.42649785296E+02  0.00000000000E+00 0. -1.
         21    1    1    2  502  501 -0.33834195473E+02 -0.11683659136E+02  0.15118368787E+02  0.38856476280E+02  0.00000000000E+00 0.  1.
<scales pt_clust_5="13000.00000" pt_clust_6="13000.00000" pt_clust_7="13000.00000" pt_clust_8="13000.00000" pt_clust_9="35.79470"></scales>
<clustering>
<clus scale="   35.795">  1  9  2 -1</clus>
<clus scale="   90.378">  7  8 -1 -1</clus>
<clus scale="   92.388">  5  6 -1 -1</clus>
<clus scale="  108.648">  1  7  2 -1</clus>
<clus scale="  110.326">  2  5  1 -1</clus>
</clustering>
</event>
<event>
 9    1  0.1175034E-005  0.1286834E+03  0.7546771E-02  0.1229865E+00
         -2   -1    0    0    0  501 -0.00000000000E+00  0.00000000000E+00  0.31248488666E+02  0.31248488666E+02  0.00000000000E+00 0.  1.
          2   -1    0    0  502    0  0.00000000000E+00 -0.00000000000E+00 -0.76770335582E+03  0.76770335582E+03  0.00000000000E+00 0. -1.
         23    2    1    2    0    0 -0.72982645882E+02 -0.23112920785E+02 -0.18466549450E+03  0.21968506450E+03  0.91101641043E+02 0.  0.
         23    2    1    2    0    0  0.87336199989E+02  0.37874709643E+02 -0.53874183584E+03  0.55489111296E+03  0.92732281868E+02 0.  0.
        -11    1    4    4    0    0  0.20306669050E+02  0.56387727036E+02 -0.18798962190E+03  0.19731202323E+03  0.00000000000E+00 0.  1.
         11    1    4    4    0    0  0.67029530939E+02 -0.18513017393E+02 -0.35075221394E+03  0.35757908973E+03  0.00000000000E+00 0. -1.
        -13    1    3    3    0    0  0.16542375258E+02 -0.24074917983E+02 -0.51835910168E+02  0.59499692756E+02  0.00000000000E+00 0. -1.
         13    1    3    3    0    0 -0.89525021140E+02  0.96199719796E+00 -0.13282958433E+03  0.16018537175E+03  0.00000000000E+00 0.  1.
         21    1    1    2  502  501 -0.14353554107E+02 -0.14761788858E+02 -0.13047536818E+02  0.24375667023E+02  0.00000000000E+00 0. -1.
<scales pt_clust_5="13000.00000" pt_clust_6="13000.00000" pt_clust_7="13000.00000" pt_clust_8="13000.00000" pt_clust_9="20.58968"></scales>
<clustering>
<clus scale="   20.590">  1  9  2 -1</clus>
<clus scale="   91.102">  7  8 -1 -1</clus>
<clus scale="   92.732">  5  6 -1 -1</clus>
<clus scale="  127.513">  1  7  2 -1</clus>
<clus scale="  128.683">  2  5  1 -1</clus>
</clustering>
</event>
<event>
 9    1  0.1175034E-005  0.9274825E+02  0.7546771E-02  0.1296742E+00
         -1   -1    0    0    0  501 -0.00000000000E+00  0.00000000000E+00  0.52484116552E+03  0.52484116552E+03  0.00000000000E+00 0.  1.
          1   -1    0    0  502    0  0.00000000000E+00 -0.00000000000E+00 -0.14681626947E+03  0.14681626947E+03  0.00000000000E+00 0. -1.
         23    2    1    2    0    0  0.22169743688E+02 -0.40955367062E+02  0.16821014573E+03  0.19725281298E+03  0.91897657612E+02 0.  0.
         23    2    1    2    0    0  0.13697675898E+02  0.33493265034E+01 -0.11387822128E+03  0.14656651267E+03  0.91184697408E+02 0.  0.
        -11    1    3    3    0    0 -0.14728536210E+02 -0.58513407510E+02  0.81584852495E+02  0.10147333046E+03  0.00000000000E+00 0.  1.
         11    1    3    3    0    0  0.36898279899E+02  0.17558040448E+02  0.86625293240E+02  0.95779482525E+02  0.00000000000E+00 0. -1.
        -11    1    4    4    0    0  0.25232065547E+02 -0.34585314722E+02 -0.91542794244E+02  0.10105881606E+03  0.00000000000E+00 0. -1.
         11    1    4    4    0    0 -0.11534389649E+02  0.37934641226E+02 -0.22335427033E+02  0.45507696604E+02  0.00000000000E+00 0.  1.
         21    1    1    2  502  501 -0.35867419586E+02  0.37606040559E+02  0.32369297160E+03  0.32783810934E+03  0.00000000000E+00 0.  1.
<scales pt_clust_5="13000.00000" pt_clust_6="13000.00000" pt_clust_7="13000.00000" pt_clust_8="13000.00000" pt_clust_9="51.96813"></scales>
<clustering>
<clus scale="   51.968">  1  9  2 -1</clus>
<clus scale="   91.185">  7  8 -1 -1</clus>
<clus scale="   91.898">  5  6 -1 -1</clus>
<clus scale="   92.042">  2  7  1 -1</clus>
<clus scale="   92.042">  2  5  1 -1</clus>
</clustering>
</event>
<event>
 9    1  0.1175034E-005  0.1418428E+03  0.7546771E-02  0.1211255E+00
          2   -1    0    0  502    0  0.00000000000E+00  0.00000000000E+00  0.17447262352E+03  0.17447262352E+03  0.00000000000E+00 0.  1.
         -2   -1    0    0    0  501 -0.00000000000E+00 -0.00000000000E+00 -0.19649381803E+03  0.19649381803E+03  0.00000000000E+00 0. -1.
         23    2    1    2    0    0  0.94593822158E+02  0.78344716692E+02 -0.69776233062E+02  0.16649290521E+03  0.88120820246E+02 0.  0.
         23    2    1    2    0    0 -0.95556421093E+02 -0.45975820698E+02  0.78614231286E+02  0.15974142483E+03  0.89957321797E+02 0.  0.
        -11    1    3    3    0    0  0.65694151000E+02  0.74460002619E+02 -0.97702722742E+01  0.99777110030E+02  0.00000000000E+00 0. -1.
         11    1    3    3    0    0  0.28899671158E+02  0.38847140736E+01 -0.60005960788E+02  0.66715795180E+02  0.00000000000E+00 0.  1.
        -13    1    4    4    0    0 -0.36788553577E+02  0.18920422544E+02 -0.10339229967E+01  0.41381747912E+02  0.00000000000E+00 0. -1.
         13    1    4    4    0    0 -0.58767867516E+02 -0.64896243242E+02  0.79648154283E+02  0.11835967692E+03  0.00000000000E+00 0.  1.
         21    1    1    2  502  501  0.96259893454E+00 -0.32368895995E+02 -0.30859192730E+02  0.44732111515E+02  0.00000000000E+00 0.  1.
<scales pt_clust_5="13000.00000" pt_clust_6="13000.00000" pt_clust_7="13000.00000" pt_clust_8="13000.00000" pt_clust_9="32.38321"></scales>
<clustering>
<clus scale="   32.383">  2  9  1 -1</clus>
<clus scale="   88.121">  5  6 -1 -1</clus>
<clus scale="   89.957">  7  8 -1 -1</clus>
<clus scale="  140.685">  2  5  1 -1</clus>
<clus scale="  141.843">  1  5  2 -1</clus>
</clustering>
</event>
<event>
 9    1  0.1175034E-005  0.1041050E+03  0.7546771E-02  0.1272035E+00
          1   -1    0    0  502    0  0.00000000000E+00  0.00000000000E+00  0.22293258474E+03  0.22293258474E+03  0.00000000000E+00 0. -1.
         -1   -1    0    0    0  501 -0.00000000000E+00 -0.00000000000E+00 -0.83817602280E+02  0.83817602280E+02  0.00000000000E+00 0.  1.
         23    2    1    2    0    0  0.43500170001E+02 -0.95988389135E+01 -0.14376547252E+02  0.10298997264E+03  0.91737924848E+02 0.  0.
         23    2    1    2    0    0 -0.61945236329E+02  0.20864842314E+02  0.12987737029E+03  0.17174815681E+03  0.91415229070E+02 0.  0.
        -11    1    3    3    0    0  0.53029275122E+02 -0.41996743279E+02 -0.14675160024E+02  0.69218428093E+02  0.00000000000E+00 0.  1.
         11    1    3    3    0    0 -0.95291051206E+01  0.32397904365E+02  0.29861277194E+00  0.33771544549E+02  0.00000000000E+00 0. -1.
        -13    1    4    4    0    0  0.73984333365E+01 -0.22064428212E+02  0.59982809385E+02  0.64339049028E+02  0.00000000000E+00 0.  1.
         13    1    4    4    0    0 -0.69343669666E+02  0.42929270526E+02  0.69894560905E+02  0.10740910778E+03  0.00000000000E+00 0. -1.
         21    1    1    2  502  501  0.18445066328E+02 -0.11266003400E+02  0.23614159425E+02  0.32012057569E+02  0.00000000000E+00 0.  1.
<scales pt_clust_5="13000.00000" pt_clust_6="13000.00000" pt_clust_7="13000.00000" pt_clust_8="13000.00000" pt_clust_9="21.61350"></scales>
<clustering>
<clus scale="   21.613">  1  9  2 -1</clus>
<clus scale="   91.415">  7  8 -1 -1</clus>
<clus scale="   91.738">  5  6 -1 -1</clus>
<clus scale="  103.821">  1  7  2 -1</clus>
<clus scale="   21.613">  1  5  2 -1</clus>
</clustering>
</event>
<event>
 9    1  0.1175034E-005  0.1075982E+03  0.7546771E-02  0.1265532E+00
         -3   -1    0    0    0  501 -0.00000000000E+00  0.00000000000E+00  0.12710080688E+03  0.12710080688E+03  0.00000000000E+00 0.  1.
          3   -1    0    0  502    0  0.00000000000E+00 -0.00000000000E+00 -0.21566203513E+03  0.21566203513E+03  0.00000000000E+00 0. -1.
         23    2    1    2    0    0  0.50322427039E+02  0.19361440975E+02  0.64486946785E+02  0.12337998605E+03  0.90315240084E+02 0.  0.
         23    2    1    2    0    0 -0.54740836207E+02 -0.41362012759E+02 -0.71543721792E+02  0.13484574343E+03  0.91419336824E+02 0.  0.
        -13    1    4    4    0    0  0.18025607385E+02  0.13141940654E+02 -0.71126762724E+01  0.23414168563E+02  0.00000000000E+00 0.  1.
         13    1    4    4    0    0 -0.72766443591E+02 -0.54503953413E+02 -0.64431045520E+02  0.11143157487E+03  0.00000000000E+00 0. -1.
        -13    1    3    3    0    0 -0.25517243344E+02  0.14031750790E+02  0.19360527294E+02  0.34969268726E+02  0.00000000000E+00 0.  1.
         13    1    3    3    0    0  0.75839670382E+02  0.53296901848E+01  0.45126419491E+02  0.88410717321E+02  0.00000000000E+00 0. -1.
         21    1    1    2  502  501  0.44184091679E+01  0.22000571784E+02 -0.81504453237E+02  0.84537112535E+02  0.00000000000E+00 0. -1.
<scales pt_clust_5="13000.00000" pt_clust_6="13000.00000" pt_clust_7="13000.00000" pt_clust_8="13000.00000" pt_clust_9="22.43986"></scales>
<clustering>
<clus scale="   22.440">  2  9  1 -1</clus>
<clus scale="   90.315">  7  8 -1 -1</clus>
<clus scale="   91.419">  5  6 -1 -1</clus>
<clus scale="  106.662">  1  7  2 -1</clus>
<clus scale="   22.440">  2  5  1 -1</clus>
</clustering>
</event>
<event>
 9    1  0.1175034E-005  0.9790723E+02  0.7546771E-02  0.1285023E+00
         -1   -1    0    0    0  501 -0.00000000000E+00  0.00000000000E+00  0.33408474733E+02  0.33408474733E+02  0.00000000000E+00 0.  1.
          1   -1    0    0  502    0  0.00000000000E+00 -0.00000000000E+00 -0.60796691536E+03  0.60796691536E+03  0.00000000000E+00 0. -1.
         23    2    1    2    0    0 -0.42961304813E+01  0.39266289324E+02 -0.10244584603E+03  0.14240374964E+03  0.90682844733E+02 0.  0.
         23    2    1    2    0    0  0.33347840908E+02 -0.18657040178E+02 -0.44012531519E+03  0.45109754440E+03  0.91206018711E+02 0.  0.
        -13    1    3    3    0    0 -0.51235690225E+01 -0.28895845424E+02 -0.42378063991E+02  0.51547271023E+02  0.00000000000E+00 0. -1.
         13    1    3    3    0    0  0.82743854122E+00  0.68162134748E+02 -0.60067782037E+02  0.90856478618E+02  0.00000000000E+00 0.  1.
        -13    1    4    4    0    0 -0.51760341732E+01  0.33417973318E+02 -0.16790927481E+03  0.17128069605E+03  0.00000000000E+00 0.  1.
         13    1    4    4    0    0  0.38523875082E+02 -0.52075013496E+02 -0.27221604038E+03  0.27981684835E+03  0.00000000000E+00 0. -1.
         21    1    1    2  502  501 -0.29051710427E+02 -0.20609249146E+02 -0.31987279410E+02  0.47874096056E+02  0.00000000000E+00 0. -1.
<scales pt_clust_5="13000.00000" pt_clust_6="13000.00000" pt_clust_7="13000.00000" pt_clust_8="13000.00000" pt_clust_9="35.61942"></scales>
<clustering>
<clus scale="   35.619">  1  9  2 -1</clus>
<clus scale="   90.683">  5  6 -1 -1</clus>
<clus scale="   91.206">  7  8 -1 -1</clus>
<clus scale="   97.420">  1  5  2 -1</clus>
<clus scale="   97.907">  2  5  1 -1</clus>
</clustering>
</event>
<event>
 9    1  0.1175034E-005  0.2199644E+03  0.7546771E-02  0.1143192E+00
         -2   -1    0    0    0  501 -0.00000000000E+00  0.00000000000E+00  0.21316707617E+03  0.21316707617E+03  0.00000000000E+00 0. -1.
          2   -1    0    0  502    0  0.00000000000E+00 -0.00000000000E+00 -0.80599986052E+03  0.80599986052E+03  0.00000000000E+00 0.  1.
         23    2    1    2    0    0 -0.11450206531E+03 -0.97241100655E+02  0.86793138379E+02  0.19599983971E+03  0.91193934458E+02 0.  0.
         23    2    1    2    0    0  0.21875942975E+03 -0.54755556304E+02 -0.53690374306E+03  0.59005295682E+03  0.95094708029E+02 0.  0.
        -11    1    4    4    0    0  0.13481063077E+03 -0.37432262201E+02 -0.43470687119E+03  0.45666743291E+03  0.00000000000E+00 0.  1.
         11    1    4    4    0    0  0.83948798987E+02 -0.17323294103E+02 -0.10219687186E+03  0.13338552391E+03  0.00000000000E+00 0. -1.
        -13    1    3    3    0    0 -0.26551117521E+02 -0.80385775559E+02  0.55082804520E+02  0.10099975301E+03  0.00000000000E+00 0.  1.
         13    1    3    3    0    0 -0.87950947787E+02 -0.16855325095E+02  0.31710333859E+02  0.95000086706E+02  0.00000000000E+00 0. -1.
         21    1    1    2  502  501 -0.10425736444E+03  0.15199665696E+03 -0.14272217968E+03  0.23311414015E+03  0.00000000000E+00 0.  1.
<scales pt_clust_5="13000.00000" pt_clust_6="13000.00000" pt_clust_7="13000.00000" pt_clust_8="13000.00000" pt_clust_9="198.34653"></scales>
<clustering>
<clus scale="   91.194">  7  8 -1 -1</clus>
<clus scale="   95.095">  5  6 -1 -1</clus>
<clus scale="  175.735">  1  7  2 -1</clus>
<clus scale="  198.347">  1  9  2 -1</clus>
<clus scale="  219.964">  2  5  1 -1</clus>
</clustering>
</event>
<event>
 9    1  0.1175034E-005  0.9711374E+02  0.7546771E-02  0.1289510E+00
         -1   -1    0    0    0  501 -0.00000000000E+00  0.00000000000E+00  0.13404610011E+03  0.13404610011E+03  0.00000000000E+00 0.  1.
          1   -1    0    0  502    0  0.00000000000E+00 -0.00000000000E+00 -0.16022166970E+03  0.16022166970E+03  0.00000000000E+00 0. -1.
         23    2    1    2    0    0  0.58639317503E+02  0.53137874437E+01 -0.13631627903E+02  0.10941663256E+03  0.91210593170E+02 0.  0.
         23    2    1    2    0    0 -0.14567054939E+02 -0.22691478668E+02 -0.67567580195E+02  0.11224294711E+03  0.85475136673E+02 0.  0.
        -11    1    4    4    0    0  0.18371487676E+02 -0.12350784739E+02  0.12234671301E+02  0.25293094413E+02  0.00000000000E+00 0. -1.
         11    1    4    4    0    0 -0.32938542615E+02 -0.10340693929E+02 -0.79802251497E+02  0.86949852699E+02  0.00000000000E+00 0.  1.
        -11    1    3    3    0    0  0.53232577563E+02 -0.35959869871E+02  0.36536720511E+01  0.64344144058E+02  0.00000000000E+00 0. -1.
         11    1    3    3    0    0  0.54067399398E+01  0.41273657314E+02 -0.17285299954E+02  0.45072488498E+02  0.00000000000E+00 0.  1.
         21    1    1    2  502  501 -0.44072262564E+02  0.17377691225E+02  0.55023638512E+02  0.72608190137E+02  0.00000000000E+00 0.  1.
<scales pt_clust_5="13000.00000" pt_clust_6="13000.00000" pt_clust_7="13000.00000" pt_clust_8="13000.00000" pt_clust_9="47.37456"></scales>
<clustering>
<clus scale="   47.375">  1  9  2 -1</clus>
<clus scale="   85.475">  5  6 -1 -1</clus>
<clus scale="   91.211">  7  8 -1 -1</clus>
<clus scale="   91.748">  2  5  1 -1</clus>
<clus scale="   91.748">  2  5  1 -1</clus>
</clustering>
</event>
<event>
 9    1  0.1175034E-005  0.1262396E+03  0.7546771E-02  0.1237321E+00
          2   -1    0    0  502    0  0.00000000000E+00  0.00000000000E+00  0.60194896298E+02  0.60194896298E+02  0.00000000000E+00 0. -1.
         -2   -1    0    0    0  501 -0.00000000000E+00 -0.00000000000E+00 -0.34181414565E+03  0.34181414565E+03  0.00000000000E+00 0.  1.
         23    2    1    2    0    0  0.79515976260E+02 -0.58143002751E+01 -0.13433584030E+03  0.18414491390E+03  0.97501973085E+02 0.  0.
         23    2    1    2    0    0 -0.77641712006E+02 -0.34061770792E+02 -0.96741310721E+02  0.15345824623E+03  0.83678626080E+02 0.  0.
        -13    1    4    4    0    0 -0.33059769663E+02  0.17790811310E+02 -0.71142674818E+02  0.80440919422E+02  0.00000000000E+00 0.  1.
         13    1    4    4    0    0 -0.44581942342E+02 -0.51852582102E+02 -0.25598635903E+02  0.73017326805E+02  0.00000000000E+00 0. -1.
        -13    1    3    3    0    0 -0.46897258250E+01 -0.35474905438E+02 -0.28955664219E+02  0.46031434200E+02  0.00000000000E+00 0. -1.
         13    1    3    3    0    0  0.84205702085E+02  0.29660605163E+02 -0.10538017609E+03  0.13811347970E+03  0.00000000000E+00 0.  1.
         21    1    1    2  502  501 -0.18742642542E+01  0.39876071067E+02 -0.50542098323E+02  0.64405881821E+02  0.00000000000E+00 0.  1.
<scales pt_clust_5="13000.00000" pt_clust_6="13000.00000" pt_clust_7="13000.00000" pt_clust_8="13000.00000" pt_clust_9="39.92009"></scales>
<clustering>
<clus scale="   39.920">  2  9  1 -1</clus>
<clus scale="   83.679">  5  6 -1 -1</clus>
<clus scale="   97.502">  7  8 -1 -1</clus>
<clus scale="  115.896">  1  5  2 -1</clus>
<clus scale="  115.896">  1  5  2 -1</clus>
</clustering>
</event>
<event>
 9    1  0.1175034E-005  0.9984710E+02  0.7546771E-02  0.1280758E+00
          3   -1    0    0  502    0  0.00000000000E+00  0.00000000000E+00  0.29983549902E+02  0.29983549902E+02  0.00000000000E+00 0. -1.
         -3   -1    0    0    0  501 -0.00000000000E+00 -0.00000000000E+00 -0.44563786531E+03  0.44563786531E+03  0.00000000000E+00 0.  1.
         23    2    1    2    0    0 -0.27906119739E+02 -0.17562602187E+02 -0.21128968744E+03  0.23238715821E+03  0.90957477808E+02 0.  0.
         23    2    1    2    0    0  0.25013923473E+02  0.39919905261E+02 -0.13081586424E+03  0.16630809470E+03  0.91248544221E+02 0.  0.
        -11    1    3    3    0    0  0.25097676506E+02 -0.19534904407E+02 -0.13978761960E+03  0.14335998203E+03  0.00000000000E+00 0.  1.
         11    1    3    3    0    0 -0.53003796245E+02  0.19723022200E+01 -0.71502067839E+02  0.89027176175E+02  0.00000000000E+00 0. -1.
        -11    1    4    4    0    0  0.48880590960E+02 -0.37796337234E+01 -0.87559387469E+02  0.10035060606E+03  0.00000000000E+00 0.  1.
         11    1    4    4    0    0 -0.23866667487E+02  0.43699538984E+02 -0.43256476767E+02  0.65957488632E+02  0.00000000000E+00 0. -1.
         21    1    1    2  502  501  0.28921962655E+01 -0.22357303074E+02 -0.73548763741E+02  0.76926162310E+02  0.00000000000E+00 0. -1.
<scales pt_clust_5="13000.00000" pt_clust_6="13000.00000" pt_clust_7="13000.00000" pt_clust_8="13000.00000" pt_clust_9="22.54360"></scales>
<clustering>
<clus scale="   22.544">  2  9  1 -1</clus>
<clus scale="   90.957">  5  6 -1 -1</clus>
<clus scale="   91.249">  7  8 -1 -1</clus>
<clus scale="   99.581">  2  5  1 -1</clus>
<clus scale="   99.847">  1  5  2 -1</clus>
</clustering>
</event>
<event>
 9    1  0.1175034E-005  0.1112546E+03  0.7546771E-02  0.1258678E+00
          2   -1    0    0  502    0  0.00000000000E+00  0.00000000000E+00  0.89550318040E+03  0.89550318040E+03  0.00000000000E+00 0. -1.
         -2   -1    0    0    0  501 -0.00000000000E+00 -0.00000000000E+00 -0.21825383709E+02  0.21825383709E+02  0.00000000000E+00 0.  1.
         23    2    1    2    0    0  0.54893279838E+02  0.13223506237E+02  0.28271915428E+03  0.30261747363E+03  0.91973267103E+02 0.  0.
         23    2    1    2    0    0 -0.66590599599E+02  0.18099775811E+02  0.55060599052E+03  0.56230582545E+03  0.90878901305E+02 0.  0.
        -11    1    4    4    0    0  0.19711229259E+02  0.19263900842E+02  0.14942041249E+03  0.15194107445E+03  0.00000000000E+00 0. -1.
         11    1    4    4    0    0 -0.86301828857E+02 -0.11641250310E+01  0.40118557802E+03  0.41036475100E+03  0.00000000000E+00 0.  1.
        -13    1    3    3    0    0  0.33053670127E+01  0.43988533098E+02  0.82111176394E+02  0.93210309430E+02  0.00000000000E+00 0. -1.
         13    1    3    3    0    0  0.51587912825E+02 -0.30765026861E+02  0.20060797788E+03  0.20940716420E+03  0.00000000000E+00 0.  1.
         21    1    1    2  502  501  0.11697319761E+02 -0.31323282047E+02  0.40352651898E+02  0.52405265031E+02  0.00000000000E+00 0. -1.
<scales pt_clust_5="13000.00000" pt_clust_6="13000.00000" pt_clust_7="13000.00000" pt_clust_8="13000.00000" pt_clust_9="33.43614"></scales>
<clustering>
<clus scale="   33.436">  2  9  1 -1</clus>
<clus scale="   90.879">  5  6 -1 -1</clus>
<clus scale="   91.973">  7  8 -1 -1</clus>
<clus scale="  110.352">  1  5  2 -1</clus>
<clus scale="  110.352">  1  5  2 -1</clus>
</clustering>
</event>
<event>
 9    1  0.1175034E-005  0.1387859E+03  0.7546771E-02  0.1214995E+00
          1   -1    0    0  502    0  0.00000000000E+00  0.00000000000E+00  0.18058676736E+03  0.18058676736E+03  0.00000000000E+00 0. -1.
         -1   -1    0    0    0  501 -0.00000000000E+00 -0.00000000000E+00 -0.15103763973E+03  0.15103763973E+03  0.00000000000E+00 0.  1.
         23    2    1    2    0    0 -0.13028696225E+02  0.12211461541E+03 -0.28340564838E+01  0.15271476049E+03  0.90730590056E+02 0.  0.
         23    2    1    2    0    0  0.15171277658E+02 -0.93728207302E+02  0.55104166722E+02  0.14248682585E+03  0.90834364871E+02 0.  0.
        -11    1    4    4    0    0  0.36843047493E+02 -0.10180856017E+03  0.45182392740E+02  0.11731940030E+03  0.00000000000E+00 0. -1.
         11    1    4    4    0    0 -0.21671769835E+02  0.80803528657E+01  0.99217739824E+01  0.25167425557E+02  0.00000000000E+00 0.  1.
        -13    1    3    3    0    0 -0.38621251405E+02  0.26095610627E+02 -0.21951499570E+02  0.51521357586E+02  0.00000000000E+00 0.  1.
         13    1    3    3    0    0  0.25592555180E+02  0.96019004787E+02  0.19117443087E+02  0.10119340290E+03  0.00000000000E+00 0. -1.
         21    1    1    2  502  501 -0.21425814333E+01 -0.28386408112E+02 -0.22720982608E+02  0.36422820750E+02  0.00000000000E+00 0.  1.
<scales pt_clust_5="13000.00000" pt_clust_6="13000.00000" pt_clust_7="13000.00000" pt_clust_8="13000.00000" pt_clust_9="28.46715"></scales>
<clustering>
<clus scale="   28.467">  2  9  1 -1</clus>
<clus scale="   90.731">  7  8 -1 -1</clus>
<clus scale="   90.834">  5  6 -1 -1</clus>
<clus scale="  138.718">  2  7  1 -1</clus>
<clus scale="  138.786">  1  5  2 -1</clus>
</clustering>
</event>
<event>
 9    1  0.1175034E-005  0.1143630E+03  0.7546771E-02  0.1252985E+00
         -1   -1    0    0    0  501 -0.00000000000E+00  0.00000000000E+00  0.99166426960E+02  0.99166426960E+02  0.00000000000E+00 0.  1.
          1   -1    0    0  502    0  0.00000000000E+00 -0.00000000000E+00 -0.23457480983E+03  0.23457480983E+03  0.00000000000E+00 0. -1.
         23    2    1    2    0    0  0.78264375307E+02 -0.14621889100E+01  0.13638540040E+02  0.11974618040E+03  0.89586201548E+02 0.  0.
         23    2    1    2    0    0 -0.65286778774E+02 -0.21028539238E+02 -0.14990096162E+03  0.18801467444E+03  0.90413807380E+02 0.  0.
        -11    1    3    3    0    0  0.57030425673E+02  0.33896387331E+02  0.33098470263E+02  0.74141373472E+02  0.00000000000E+00 0.  1.
         11    1    3    3    0    0  0.21233949634E+02 -0.35358576241E+02 -0.19459930223E+02  0.45604806930E+02  0.00000000000E+00 0. -1.
        -13    1    4    4    0    0  0.81523329643E+01 -0.22437456605E+02 -0.90361780219E+02  0.93462031414E+02  0.00000000000E+00 0. -1.
         13    1    4    4    0    0 -0.73439111739E+02  0.14089173674E+01 -0.59539181396E+02  0.94552643022E+02  0.00000000000E+00 0.  1.
         21    1    1    2  502  501 -0.12977596533E+02  0.22490728148E+02  0.85403870362E+00  0.25980381954E+02  0.00000000000E+00 0. -1.
<scales pt_clust_5="13000.00000" pt_clust_6="13000.00000" pt_clust_7="13000.00000" pt_clust_8="13000.00000" pt_clust_9="25.96634"></scales>
<clustering>
<clus scale="   25.966">  1  9  2 -1</clus>
<clus scale="   89.586">  5  6 -1 -1</clus>
<clus scale="   90.414">  7  8 -1 -1</clus>
<clus scale="  113.710">  1  5  2 -1</clus>
<clus scale="  114.363">  2  5  1 -1</clus>
</clustering>
</event>
<event>
 9    1  0.1175034E-005  0.2011635E+03  0.7546771E-02  0.1149083E+00
         -2   -1    0    0    0  501 -0.00000000000E+00  0.00000000000E+00  0.11870556440E+03  0.11870556440E+03  0.00000000000E+00 0.  1.
          2   -1    0    0  502    0  0.00000000000E+00 -0.00000000000E+00 -0.78180534521E+03  0.78180534521E+03  0.00000000000E+00 0. -1.
         23    2    1    2    0    0 -0.76725573606E+02  0.15157005307E+03 -0.28104992784E+03  0.34033617355E+03  0.89327232425E+02 0.  0.
         23    2    1    2    0    0  0.10194215009E+03 -0.15524257008E+03 -0.44567153706E+03  0.49163947654E+03  0.92702742253E+02 0.  0.
        -13    1    3    3    0    0 -0.47257977143E+02  0.18909542449E+02 -0.11504436202E+03  0.12580179821E+03  0.00000000000E+00 0. -1.
         13    1    3    3    0    0 -0.29467596462E+02  0.13266051062E+03 -0.16600556582E+03  0.21453437534E+03  0.00000000000E+00 0.  1.
        -13    1    4    4    0    0  0.71641398862E+02 -0.95137326019E+02 -0.37748433216E+03  0.39582574684E+03  0.00000000000E+00 0. -1.
         13    1    4    4    0    0  0.30300751230E+02 -0.60105244056E+02 -0.68187204902E+02  0.95813729708E+02  0.00000000000E+00 0.  1.
         21    1    1    2  502  501 -0.25216576486E+02  0.36725170075E+01  0.63621684088E+02  0.68535259517E+02  0.00000000000E+00 0.  1.
<scales pt_clust_5="13000.00000" pt_clust_6="13000.00000" pt_clust_7="13000.00000" pt_clust_8="13000.00000" pt_clust_9="25.48260"></scales>
<clustering>
<clus scale="   25.483">  1  9  2 -1</clus>
<clus scale="   89.327">  5  6 -1 -1</clus>
<clus scale="   92.703">  7  8 -1 -1</clus>
<clus scale="  199.630">  1  5  2 -1</clus>
<clus scale="  201.164">  2  5  1 -1</clus>
</clustering>
</event>
<event>
 9    1  0.1175034E-005  0.1091090E+03  0.7546771E-02  0.1263282E+00
          1   -1    0    0  502    0  0.00000000000E+00  0.00000000000E+00  0.26474626304E+03  0.26474626304E+03  0.00000000000E+00 0. -1.
         -1   -1    0    0    0  501 -0.00000000000E+00 -0.00000000000E+00 -0.21383930579E+03  0.21383930579E+03  0.00000000000E+00 0.  1.
         23    2    1    2    0    0  0.14295203039E+01 -0.21829148334E+02  0.16093228213E+02  0.98833554713E+02  0.95029070803E+02 0.  0.
         23    2    1    2    0    0  0.56554543549E+02  0.41535990377E+02  0.18452594739E+03  0.21799831366E+03  0.92465045317E+02 0.  0.
        -11    1    4    4    0    0 -0.20591947916E+02 -0.79115689524E+01  0.55683569525E+02  0.59893915862E+02  0.00000000000E+00 0.  1.
         11    1    4    4    0    0  0.77146491465E+02  0.49447559329E+02  0.12884237787E+03  0.15810439780E+03  0.00000000000E+00 0. -1.
        -11    1    3    3    0    0  0.39448082596E+02  0.10285297522E+01  0.32918549017E+02  0.51389103547E+02  0.00000000000E+00 0. -1.
         11    1    3    3    0    0 -0.38018562292E+02 -0.22857678086E+02 -0.16825320804E+02  0.47444451166E+02  0.00000000000E+00 0.  1.
         21    1    1    2  502  501 -0.57984063853E+02 -0.19706842043E+02 -0.14971221836E+03  0.16175370045E+03  0.00000000000E+00 0.  1.
<scales pt_clust_5="13000.00000" pt_clust_6="13000.00000" pt_clust_7="13000.00000" pt_clust_8="13000.00000" pt_clust_9="61.24142"></scales>
<clustering>
<clus scale="   61.241">  2  9  1 -1</clus>
<clus scale="   92.465">  5  6 -1 -1</clus>
<clus scale="   95.029">  7  8 -1 -1</clus>
<clus scale="  106.883">  1  5  2 -1</clus>
<clus scale="  106.883">  1  5  2 -1</clus>
</clustering>
</event>
<event>
 9    1  0.1175034E-005  0.9276141E+02  0.7546771E-02  0.1297249E+00
          1   -1    0    0  502    0  0.00000000000E+00  0.00000000000E+00  0.23567336019E+03  0.23567336019E+03  0.00000000000E+00 0. -1.
         -1   -1    0    0    0  501 -0.00000000000E+00 -0.00000000000E+00 -0.35178980736E+03  0.35178980736E+03  0.00000000000E+00 0.  1.
         23    2    1    2    0    0  0.11747508425E+00  0.12730893701E+02 -0.11758463614E+03  0.14923812583E+03  0.91015284929E+02 0.  0.
         23    2    1    2    0    0  0.18051849541E+02  0.74643818708E+01  0.20940922266E+03  0.22851703757E+03  0.89365696196E+02 0.  0.
        -13    1    3    3    0    0 -0.41114530561E+02  0.75365745325E+01 -0.90351764232E+02  0.99552226890E+02  0.00000000000E+00 0.  1.
         13    1    3    3    0    0  0.41232005645E+02  0.51943191683E+01 -0.27232871904E+02  0.49685898938E+02  0.00000000000E+00 0. -1.
        -13    1    4    4    0    0  0.13345487023E+02 -0.39197461617E+02  0.12840196997E+03  0.13491333853E+03  0.00000000000E+00 0.  1.
         13    1    4    4    0    0  0.47063625180E+01  0.46661843488E+02  0.81007252693E+02  0.93603699043E+02  0.00000000000E+00 0. -1.
         21    1    1    2  502  501 -0.18169324626E+02 -0.20195275572E+02 -0.20794103370E+03  0.20970800416E+03  0.00000000000E+00 0.  1.
<scales pt_clust_5="13000.00000" pt_clust_6="13000.00000" pt_clust_7="13000.00000" pt_clust_8="13000.00000" pt_clust_9="27.16567"></scales>
<clustering>
<clus scale="   27.166">  2  9  1 -1</clus>
<clus scale="   89.366">  7  8 -1 -1</clus>
<clus scale="   91.015">  5  6 -1 -1</clus>
<clus scale="   91.143">  1  7  2 -1</clus>
<clus scale="   91.143">  1  5  2 -1</clus>
</clustering>
</event>
<event>
 9    1  0.1175034E-005  0.9728399E+02  0.7546771E-02  0.1287540E+00
         -4   -1    0    0    0  501 -0.00000000000E+00  0.00000000000E+00  0.37811285688E+02  0.37811285688E+02  0.00000000000E+00 0.  1.
          4   -1    0    0  502    0  0.00000000000E+00 -0.00000000000E+00 -0.44294975013E+03  0.44294975013E+03  0.00000000000E+00 0. -1.
         23    2    1    2    0    0 -0.20002513227E+02  0.18333459584E+02 -0.12346349724E+03  0.15197985962E+03  0.84370766870E+02 0.  0.
         23    2    1    2    0    0  0.40715455388E+02 -0.33781570871E+02 -0.28501130704E+03  0.30272736114E+03  0.87255184416E+02 0.  0.
        -11    1    4    4    0    0 -0.15170870381E+02  0.18111355775E+02 -0.44055650647E+02  0.49990767848E+02  0.00000000000E+00 0.  1.
         11    1    4    4    0    0  0.55886325769E+02 -0.51892926646E+02 -0.24095565639E+03  0.25273659329E+03  0.00000000000E+00 0. -1.
        -13    1    3    3    0    0 -0.46517800736E+02 -0.46365392775E+01 -0.40304201561E+02  0.61723836119E+02  0.00000000000E+00 0.  1.
         13    1    3    3    0    0  0.26515287510E+02  0.22969998861E+02 -0.83159295683E+02  0.90256023499E+02  0.00000000000E+00 0. -1.
         21    1    1    2  502  501 -0.20712942161E+02  0.15448111288E+02  0.33363398413E+01  0.26053815054E+02  0.00000000000E+00 0.  1.
<scales pt_clust_5="13000.00000" pt_clust_6="13000.00000" pt_clust_7="13000.00000" pt_clust_8="13000.00000" pt_clust_9="25.83931"></scales>
<clustering>
<clus scale="   25.839">  1  9  2 -1</clus>
<clus scale="   84.371">  7  8 -1 -1</clus>
<clus scale="   87.255">  5  6 -1 -1</clus>
<clus scale="   94.706">  1  7  2 -1</clus>
<clus scale="   97.284">  2  5  1 -1</clus>
</clustering>
</event>
<event>
 9    1  0.1175034E-005  0.1849717E+03  0.7546771E-02  0.1163634E+00
         -1   -1    0    0    0  501 -0.00000000000E+00  0.00000000000E+00  0.25613369312E+03  0.25613369312E+03  0.00000000000E+00 0.  1.
          1   -1    0    0  502    0  0.00000000000E+00 -0.00000000000E+00 -0.19050775434E+03  0.19050775434E+03  0.00000000000E+00 0. -1.
         23    2    1    2    0    0 -0.16824463426E+03  0.24507455596E+02 -0.85731249098E+01  0.19444280459E+03  0.93955486524E+02 0.  0.
         23    2    1    2    0    0  0.14807900790E+03 -0.19835412260E+02 -0.12046425340E+01  0.17400529668E+03  0.89193923275E+02 0.  0.
        -11    1    3    3    0    0 -0.12478297979E+03 -0.50753818096E+01  0.30956315644E+02  0.12866563264E+03  0.00000000000E+00 0.  1.
         11    1    3    3    0    0 -0.43461654471E+02  0.29582837406E+02 -0.39529440554E+02  0.65777171943E+02  0.00000000000E+00 0. -1.
        -13    1    4    4    0    0  0.10441414739E+03 -0.53585784237E+02  0.96584882522E+01  0.11775838332E+03  0.00000000000E+00 0.  1.
         13    1    4    4    0    0  0.43664860515E+02  0.33750371977E+02 -0.10863130786E+02  0.56246913362E+02  0.00000000000E+00 0. -1.
         21    1    1    2  502  501  0.20165626357E+02 -0.46720433360E+01  0.75403706231E+02  0.78193346191E+02  0.00000000000E+00 0. -1.
<scales pt_clust_5="13000.00000" pt_clust_6="13000.00000" pt_clust_7="13000.00000" pt_clust_8="13000.00000" pt_clust_9="20.69977"></scales>
<clustering>
<clus scale="   20.700">  1  9  2 -1</clus>
<clus scale="   89.194">  7  8 -1 -1</clus>
<clus scale="   93.955">  5  6 -1 -1</clus>
<clus scale="  182.599">  2  7  1 -1</clus>
<clus scale="  182.599">  2  5  1 -1</clus>
</clustering>
</event>
<event>
 9    1  0.1175034E-005  0.1423352E+03  0.7546771E-02  0.1210294E+00
         -1   -1    0    0    0  501 -0.00000000000E+00  0.00000000000E+00  0.16039587099E+03  0.16039587099E+03  0.00000000000E+00 0.  1.
          1   -1    0    0  502    0  0.00000000000E+00 -0.00000000000E+00 -0.23979673662E+03  0.23979673662E+03  0.00000000000E+00 0. -1.
         23    2    1    2    0    0  0.11527500696E+03  0.22186496776E+01  0.24237619728E+02  0.14970810892E+03  0.92367775933E+02 0.  0.
         23    2    1    2    0    0 -0.89705288914E+02  0.68944437412E+02 -0.95739652787E+02  0.17445564232E+03  0.92023451973E+02 0.  0.
        -11    1    3    3    0    0  0.94740439417E+02  0.41017302502E+02  0.23123381404E+02  0.10579631720E+03  0.00000000000E+00 0.  1.
         11    1    3    3    0    0  0.20534567544E+02 -0.38798652825E+02  0.11142383233E+01  0.43911791722E+02  0.00000000000E+00 0. -1.
        -13    1    4    4    0    0 -0.35020611897E+02 -0.19329199588E+02 -0.14266260970E+02  0.42468663935E+02  0.00000000000E+00 0. -1.
         13    1    4    4    0    0 -0.54684677017E+02  0.88273637000E+02 -0.81473391817E+02  0.13198697839E+03  0.00000000000E+00 0.  1.
         21    1    1    2  502  501 -0.25569718046E+02 -0.71163087090E+02 -0.78988325656E+01  0.76028856371E+02  0.00000000000E+00 0. -1.
<scales pt_clust_5="13000.00000" pt_clust_6="13000.00000" pt_clust_7="13000.00000" pt_clust_8="13000.00000" pt_clust_9="75.61743"></scales>
<clustering>
<clus scale="   75.617">  1  9  2 -1</clus>
<clus scale="   92.023">  7  8 -1 -1</clus>
<clus scale="   92.368">  5  6 -1 -1</clus>
<clus scale="  142.112">  2  7  1 -1</clus>
<clus scale="  142.112">  2  5  1 -1</clus>
</clustering>
</event>
<event>
 9    1  0.1175034E-005  0.1108824E+03  0.7546771E-02  0.1258965E+00
         -3   -1    0    0    0  501 -0.00000000000E+00  0.00000000000E+00  0.16810943957E+03  0.16810943957E+03  0.00000000000E+00 0.  1.
          3   -1    0    0  502    0  0.00000000000E+00 -0.00000000000E+00 -0.12628242651E+03  0.12628242651E+03  0.00000000000E+00 0. -1.
         23    2    1    2    0    0  0.51137839106E+02 -0.45494315955E+01  0.61600764014E+02  0.12080789146E+03  0.90355501196E+02 0.  0.
         23    2    1    2    0    0 -0.66517194948E+02  0.19659599896E+02 -0.59375071852E+02  0.12849399359E+03  0.90411670370E+02 0.  0.
        -13    1    4    4    0    0 -0.92166696989E+01 -0.33867698988E+02 -0.23671171638E+02  0.42335474508E+02  0.00000000000E+00 0. -1.
         13    1    4    4    0    0 -0.57300525250E+02  0.53527298884E+02 -0.35703900213E+02  0.86158519081E+02  0.00000000000E+00 0.  1.
        -13    1    3    3    0    0  0.34827779130E+02  0.16110914981E+02 -0.13928514164E+02  0.40823268946E+02  0.00000000000E+00 0. -1.
         13    1    3    3    0    0  0.16310059976E+02 -0.20660346577E+02  0.75529278177E+02  0.79984622516E+02  0.00000000000E+00 0.  1.
         21    1    1    2  502  501  0.15379355843E+02 -0.15110168301E+02  0.39601320896E+02  0.45089981026E+02  0.00000000000E+00 0. -1.
<scales pt_clust_5="13000.00000" pt_clust_6="13000.00000" pt_clust_7="13000.00000" pt_clust_8="13000.00000" pt_clust_9="21.56019"></scales>
<clustering>
<clus scale="   21.560">  1  9  2 -1</clus>
<clus scale="   90.356">  7  8 -1 -1</clus>
<clus scale="   90.412">  5  6 -1 -1</clus>
<clus scale="  110.837">  1  7  2 -1</clus>
<clus scale="  110.882">  2  5  1 -1</clus>
</clustering>
</event>
<event>
 9    1  0.1175034E-005  0.1160854E+03  0.7546771E-02  0.1254116E+00
         -2   -1    0    0    0  501 -0.00000000000E+00  0.00000000000E+00  0.17153882590E+03  0.17153882590E+03  0.00000000000E+00 0.  1.
          2   -1    0    0  502    0  0.00000000000E+00 -0.00000000000E+00 -0.10956509370E+03  0.10956509370E+03  0.00000000000E+00 0. -1.
         23    2    1    2    0    0  0.11191397972E+02  0.42775407219E+02  0.65360539222E+02  0.12077226803E+03  0.91427336094E+02 0.  0.
         23    2    1    2    0    0  0.74793248052E+01 -0.59899408199E+02 -0.30817055069E+02  0.12299205052E+03  0.10263271509E+03 0.  0.
        -11    1    3    3    0    0  0.27349785790E+02  0.36469021953E+01 -0.13914616053E+02  0.30901896678E+02  0.00000000000E+00 0.  1.
         11    1    3    3    0    0 -0.16158387818E+02  0.39128505024E+02  0.79275155275E+02  0.89870371348E+02  0.00000000000E+00 0. -1.
        -11    1    4    4    0    0 -0.35999616374E+02 -0.35755081854E+02 -0.48518403102E+02  0.70202804054E+02  0.00000000000E+00 0. -1.
         11    1    4    4    0    0  0.43478941179E+02 -0.24144326345E+02  0.17701348033E+02  0.52789246471E+02  0.00000000000E+00 0.  1.
         21    1    1    2  502  501 -0.18670722777E+02  0.17124000980E+02  0.27430248046E+02  0.37339601048E+02  0.00000000000E+00 0. -1.
<scales pt_clust_5="13000.00000" pt_clust_6="13000.00000" pt_clust_7="13000.00000" pt_clust_8="13000.00000" pt_clust_9="25.33431"></scales>
<clustering>
<clus scale="   25.334">  1  9  2 -1</clus>
<clus scale="   91.427">  5  6 -1 -1</clus>
<clus scale="  102.633">  7  8 -1 -1</clus>
<clus scale="  106.308">  1  5  2 -1</clus>
<clus scale="  116.085">  2  5  1 -1</clus>
</clustering>
</event>
<event>
 9    1  0.1175034E-005  0.9348978E+02  0.7546771E-02  0.1295663E+00
         -1   -1    0    0    0  501 -0.00000000000E+00  0.00000000000E+00  0.17237455270E+02  0.17237455270E+02  0.00000000000E+00 0.  1.
          1   -1    0    0  502    0  0.00000000000E+00 -0.00000000000E+00 -0.71774166387E+03  0.71774166387E+03  0.00000000000E+00 0. -1.
         23    2    1    2    0    0  0.94556790339E+01  0.15686638629E+02 -0.28694902413E+03  0.30215944655E+03  0.92871460593E+02 0.  0.
         23    2    1    2    0    0  0.10042359836E+02 -0.69460315440E+01 -0.39140818431E+03  0.40204531073E+03  0.91054757074E+02 0.  0.
        -13    1    3    3    0    0 -0.26635667286E+02  0.41907009836E+02 -0.13732911042E+03  0.14603061602E+03  0.00000000000E+00 0.  1.
         13    1    3    3    0    0  0.36091346320E+02 -0.26220371207E+02 -0.14961991371E+03  0.15612883054E+03  0.00000000000E+00 0. -1.
        -13    1    4    4    0    0  0.44804947266E+02  0.13275726401E+02 -0.27359575865E+03  0.27755786309E+03  0.00000000000E+00 0. -1.
         13    1    4    4    0    0 -0.34762587429E+02 -0.20221757945E+02 -0.11781242566E+03  0.12448744764E+03  0.00000000000E+00 0.  1.
         21    1    1    2  502  501 -0.19498038870E+02 -0.87406070848E+01 -0.22147000156E+02  0.30774361860E+02  0.00000000000E+00 0. -1.
<scales pt_clust_5="13000.00000" pt_clust_6="13000.00000" pt_clust_7="13000.00000" pt_clust_8="13000.00000" pt_clust_9="21.36754"></scales>
<clustering>
<clus scale="   21.368">  1  9  2 -1</clus>
<clus scale="   91.055">  7  8 -1 -1</clus>
<clus scale="   91.685">  2  7  1 -1</clus>
<clus scale="   92.871">  5  6 -1 -1</clus>
<clus scale="   91.685">  2  5  1 -1</clus>
</clustering>
</event>
<event>
 9    1  0.1175034E-005  0.2210388E+03  0.7546771E-02  0.1133824E+00
         -2   -1    0    0    0  501 -0.00000000000E+00  0.00000000000E+00  0.17341198013E+03  0.17341198013E+03  0.00000000000E+00 0.  1.
          2   -1    0    0  502    0  0.00000000000E+00 -0.00000000000E+00 -0.62730396425E+03  0.62730396425E+03  0.00000000000E+00 0. -1.
         23    2    1    2    0    0  0.75047176248E+02  0.17318277945E+03 -0.23707694207E+03  0.31892577559E+03  0.99417403475E+02 0.  0.
         23    2    1    2    0    0 -0.63093839206E+02 -0.19562208553E+03 -0.31133186043E+03  0.38391354398E+03  0.90626977437E+02 0.  0.
        -11    1    3    3    0    0  0.40973227130E+02  0.33045064131E+02 -0.12706343146E+03  0.13753507633E+03  0.00000000000E+00 0. -1.
         11    1    3    3    0    0  0.34073949118E+02  0.14013771532E+03 -0.11001351061E+03  0.18139069927E+03  0.00000000000E+00 0.  1.
        -11    1    4    4    0    0 -0.45063522425E+02 -0.68632099922E+02 -0.59822203131E+02  0.10158632871E+03  0.00000000000E+00 0. -1.
         11    1    4    4    0    0 -0.18030316781E+02 -0.12698998561E+03 -0.25150965730E+03  0.28232721528E+03  0.00000000000E+00 0.  1.
         21    1    1    2  502  501 -0.11953337042E+02  0.22439306079E+02  0.94516818394E+02  0.97876624804E+02  0.00000000000E+00 0.  1.
<scales pt_clust_5="13000.00000" pt_clust_6="13000.00000" pt_clust_7="13000.00000" pt_clust_8="13000.00000" pt_clust_9="25.42449"></scales>
<clustering>
<clus scale="   25.424">  1  9  2 -1</clus>
<clus scale="   90.627">  7  8 -1 -1</clus>
<clus scale="   99.417">  5  6 -1 -1</clus>
<clus scale="  217.227">  2  7  1 -1</clus>
<clus scale="  217.227">  2  5  1 -1</clus>
</clustering>
</event>
<event>
 9    1  0.1175034E-005  0.1028625E+03  0.7546771E-02  0.1275305E+00
         -1   -1    0    0    0  501 -0.00000000000E+00  0.00000000000E+00  0.30145918176E+03  0.30145918176E+03  0.00000000000E+00 0.  1.
          1   -1    0    0  502    0  0.00000000000E+00 -0.00000000000E+00 -0.79278028056E+02  0.79278028056E+02  0.00000000000E+00 0. -1.
         23    2    1    2    0    0  0.40488863094E+02  0.40477652661E+02  0.21954228061E+03  0.24526971512E+03  0.93169908127E+02 0.  0.
         23    2    1    2    0    0 -0.37355031621E+02 -0.18397765520E+02 -0.21583226063E+02  0.10254254362E+03  0.91188055363E+02 0.  0.
        -11    1    4    4    0    0 -0.15220557887E+02  0.36274329473E+02 -0.18521478807E+02  0.43480312077E+02  0.00000000000E+00 0.  1.
         11    1    4    4    0    0 -0.22134473734E+02 -0.54672094993E+02 -0.30617472559E+01  0.59062231542E+02  0.00000000000E+00 0. -1.
        -13    1    3    3    0    0  0.16486169695E+02  0.49544432629E+02  0.21227454385E+03  0.21860221079E+03  0.00000000000E+00 0.  1.
         13    1    3    3    0    0  0.24002693399E+02 -0.90667799684E+01  0.72677367549E+01  0.26667504325E+02  0.00000000000E+00 0. -1.
         21    1    1    2  502  501 -0.31338314725E+01 -0.22079887141E+02  0.24222099157E+02  0.32924951077E+02  0.00000000000E+00 0.  1.
<scales pt_clust_5="13000.00000" pt_clust_6="13000.00000" pt_clust_7="13000.00000" pt_clust_8="13000.00000" pt_clust_9="22.30117"></scales>
<clustering>
<clus scale="   22.301">  1  9  2 -1</clus>
<clus scale="   91.188">  5  6 -1 -1</clus>
<clus scale="   93.170">  7  8 -1 -1</clus>
<clus scale="  101.071">  2  5  1 -1</clus>
<clus scale="  101.071">  2  5  1 -1</clus>
</clustering>
</event>
<event>
 9    1  0.1175034E-005  0.1197230E+03  0.7546771E-02  0.1247764E+00
          1   -1    0    0  502    0  0.00000000000E+00  0.00000000000E+00  0.12430135653E+03  0.12430135653E+03  0.00000000000E+00 0. -1.
         -1   -1    0    0    0  501 -0.00000000000E+00 -0.00000000000E+00 -0.17990337943E+03  0.17990337943E+03  0.00000000000E+00 0.  1.
         23    2    1    2    0    0 -0.15084176912E+02  0.63414460136E+02 -0.42558945921E+02  0.11842438088E+03  0.89242052655E+02 0.  0.
         23    2    1    2    0    0 -0.10171387274E+02 -0.64771613663E+02  0.40117669760E+02  0.12690973098E+03  0.10098432223E+03 0.  0.
        -13    1    3    3    0    0  0.27065793905E+02  0.21824445175E+01 -0.34125737063E+02  0.43610620196E+02  0.00000000000E+00 0. -1.
         13    1    3    3    0    0 -0.42149970816E+02  0.61232015618E+02 -0.84332088575E+01  0.74813760687E+02  0.00000000000E+00 0.  1.
        -13    1    4    4    0    0 -0.25537054992E+02 -0.28048292695E+02 -0.28592055034E+02  0.47501089585E+02  0.00000000000E+00 0.  1.
         13    1    4    4    0    0  0.15365667718E+02 -0.36723320969E+02  0.68709724793E+02  0.79408641397E+02  0.00000000000E+00 0. -1.
         21    1    1    2  502  501  0.25255564186E+02  0.13571535279E+01 -0.53160746741E+02  0.58870624101E+02  0.00000000000E+00 0. -1.
<scales pt_clust_5="13000.00000" pt_clust_6="13000.00000" pt_clust_7="13000.00000" pt_clust_8="13000.00000" pt_clust_9="25.29200"></scales>
<clustering>
<clus scale="   25.292">  2  9  1 -1</clus>
<clus scale="   89.242">  5  6 -1 -1</clus>
<clus scale="  100.984">  7  8 -1 -1</clus>
<clus scale="  110.000">  2  5  1 -1</clus>
<clus scale="  119.723">  1  5  2 -1</clus>
</clustering>
</event>
<event>
 9    1  0.1175034E-005  0.1101077E+03  0.7546771E-02  0.1260895E+00
         -1   -1    0    0    0  501 -0.00000000000E+00  0.00000000000E+00  0.44925823943E+02  0.44925823943E+02  0.00000000000E+00 0.  1.
          1   -1    0    0  502    0  0.00000000000E+00 -0.00000000000E+00 -0.33903050126E+03  0.33903050126E+03  0.00000000000E+00 0. -1.
         23    2    1    2    0    0 -0.38742963122E+02  0.25592411589E+02 -0.12156471334E+03  0.16156199726E+03  0.95751296113E+02 0.  0.
         23    2    1    2    0    0  0.60842972378E+02 -0.16211837161E+02 -0.15721043876E+03  0.19390924537E+03  0.94450952524E+02 0.  0.
        -11    1    3    3    0    0  0.16304537952E+02  0.22732277465E+02  0.11946675057E+00  0.27975143769E+02  0.00000000000E+00 0.  1.
         11    1    3    3    0    0 -0.55047501074E+02  0.28601341240E+01 -0.12168418009E+03  0.13358685349E+03  0.00000000000E+00 0. -1.
        -13    1    4    4    0    0  0.61438889975E+02  0.28883367189E+02 -0.85176927728E+02  0.10892242707E+03  0.00000000000E+00 0.  1.
         13    1    4    4    0    0 -0.59591759659E+00 -0.45095204350E+02 -0.72033511036E+02  0.84986818303E+02  0.00000000000E+00 0. -1.
         21    1    1    2  502  501 -0.22100009257E+02 -0.93805744289E+01 -0.15329525215E+02  0.28485082571E+02  0.00000000000E+00 0.  1.
<scales pt_clust_5="13000.00000" pt_clust_6="13000.00000" pt_clust_7="13000.00000" pt_clust_8="13000.00000" pt_clust_9="24.00845"></scales>
<clustering>
<clus scale="   24.008">  1  9  2 -1</clus>
<clus scale="   94.451">  7  8 -1 -1</clus>
<clus scale="   95.751">  5  6 -1 -1</clus>
<clus scale="  108.979">  2  7  1 -1</clus>
<clus scale="  108.979">  2  5  1 -1</clus>
</clustering>
</event>
<event>
 9    1  0.1175034E-005  0.1773018E+03  0.7546771E-02  0.1171363E+00
          1   -1    0    0  502    0  0.00000000000E+00  0.00000000000E+00  0.68212370372E+03  0.68212370372E+03  0.00000000000E+00 0. -1.
         -1   -1    0    0    0  501 -0.00000000000E+00 -0.00000000000E+00 -0.16069485624E+03  0.16069485624E+03  0.00000000000E+00 0.  1.
         23    2    1    2    0    0 -0.49021915144E+02  0.15841072015E+03  0.16406307783E+03  0.25037878042E+03  0.90971070988E+02 0.  0.
         23    2    1    2    0    0  0.54306563649E+02 -0.13070132458E+03  0.45730128006E+03  0.48859930402E+03  0.97840584824E+02 0.  0.
        -11    1    4    4    0    0  0.10457293809E+02 -0.11787866190E+03  0.25381945043E+03  0.28005186545E+03  0.00000000000E+00 0.  1.
         11    1    4    4    0    0  0.43849269840E+02 -0.12822662685E+02  0.20348182964E+03  0.20854743857E+03  0.00000000000E+00 0. -1.
        -13    1    3    3    0    0  0.88484892206E+00  0.11872849421E+03  0.13650838850E+03  0.18091925941E+03  0.00000000000E+00 0.  1.
         13    1    3    3    0    0 -0.49906764066E+02  0.39682225941E+02  0.27554689328E+02  0.69459521011E+02  0.00000000000E+00 0. -1.
         21    1    1    2  502  501 -0.52846485045E+01 -0.27709395564E+02 -0.99935510418E+02  0.10384047551E+03  0.00000000000E+00 0.  1.
<scales pt_clust_5="13000.00000" pt_clust_6="13000.00000" pt_clust_7="13000.00000" pt_clust_8="13000.00000" pt_clust_9="28.20883"></scales>
<clustering>
<clus scale="   28.209">  2  9  1 -1</clus>
<clus scale="   90.971">  7  8 -1 -1</clus>
<clus scale="   97.841">  5  6 -1 -1</clus>
<clus scale="  173.606">  2  7  1 -1</clus>
<clus scale="  177.302">  1  5  2 -1</clus>
</clustering>
</event>
<event>
 9    1  0.1175034E-005  0.9388822E+02  0.7546771E-02  0.1294033E+00
         -1   -1    0    0    0  501 -0.00000000000E+00  0.00000000000E+00  0.18685778653E+03  0.18685778653E+03  0.00000000000E+00 0.  1.
          1   -1    0    0  502    0  0.00000000000E+00 -0.00000000000E+00 -0.10662510783E+03  0.10662510783E+03  0.00000000000E+00 0. -1.
         23    2    1    2    0    0  0.19579191247E+02  0.12514306524E+02 -0.85317930866E+01  0.94326660646E+02  0.91020738393E+02 0.  0.
         23    2    1    2    0    0 -0.25985224803E+02  0.64664498450E+01 -0.13217668672E+02  0.95225182762E+02  0.90421688689E+02 0.  0.
        -11    1    4    4    0    0  0.44135587427E+01  0.22204107989E+02  0.31573818629E+02  0.38851099536E+02  0.00000000000E+00 0.  1.
         11    1    4    4    0    0 -0.30398783546E+02 -0.15737658144E+02 -0.44791487301E+02  0.56374083226E+02  0.00000000000E+00 0. -1.
        -13    1    3    3    0    0 -0.23449084285E+02 -0.26090910060E+02 -0.10074497059E+02  0.36497816819E+02  0.00000000000E+00 0. -1.
         13    1    3    3    0    0  0.43028275532E+02  0.38605216584E+02  0.15427039727E+01  0.57828843827E+02  0.00000000000E+00 0.  1.
         21    1    1    2  502  501  0.64060335557E+01 -0.18980756369E+02  0.10198214046E+03  0.10393105095E+03  0.00000000000E+00 0.  1.
<scales pt_clust_5="13000.00000" pt_clust_6="13000.00000" pt_clust_7="13000.00000" pt_clust_8="13000.00000" pt_clust_9="20.03263"></scales>
<clustering>
<clus scale="   20.033">  1  9  2 -1</clus>
<clus scale="   90.422">  5  6 -1 -1</clus>
<clus scale="   91.021">  7  8 -1 -1</clus>
<clus scale="   93.308">  2  5  1 -1</clus>
<clus scale="   93.308">  2  5  1 -1</clus>
</clustering>
</event>
<event>
 9    1  0.1175034E-005  0.1342046E+03  0.7546771E-02  0.1221473E+00
         -2   -1    0    0    0  501 -0.00000000000E+00  0.00000000000E+00  0.45826801648E+03  0.45826801648E+03  0.00000000000E+00 0.  1.
          2   -1    0    0  502    0  0.00000000000E+00 -0.00000000000E+00 -0.72359108556E+02  0.72359108556E+02  0.00000000000E+00 0. -1.
         23    2    1    2    0    0  0.64215047246E+02  0.97808383684E+02  0.24046254120E+03  0.28285229912E+03  0.92158218215E+02 0.  0.
         23    2    1    2    0    0 -0.56499250590E+02 -0.71812699486E+02  0.35017002074E+02  0.13406487168E+03  0.91640440094E+02 0.  0.
        -11    1    4    4    0    0 -0.60748551497E+02 -0.34210198416E+01  0.14752995225E+02  0.62607833007E+02  0.00000000000E+00 0.  1.
         11    1    4    4    0    0  0.42493009074E+01 -0.68391679645E+02  0.20264006850E+02  0.71457038676E+02  0.00000000000E+00 0. -1.
        -13    1    3    3    0    0  0.42254831167E+00  0.70835570758E+02  0.16943115625E+03  0.18364305960E+03  0.00000000000E+00 0.  1.
         13    1    3    3    0    0  0.63792498934E+02  0.26972812926E+02  0.71031384946E+02  0.99209239513E+02  0.00000000000E+00 0. -1.
         21    1    1    2  502  501 -0.77157966566E+01 -0.25995684198E+02  0.11042936465E+03  0.11370995423E+03  0.00000000000E+00 0. -1.
<scales pt_clust_5="13000.00000" pt_clust_6="13000.00000" pt_clust_7="13000.00000" pt_clust_8="13000.00000" pt_clust_9="27.11658"></scales>
<clustering>
<clus scale="   27.117">  1  9  2 -1</clus>
<clus scale="   91.640">  5  6 -1 -1</clus>
<clus scale="   92.158">  7  8 -1 -1</clus>
<clus scale="  133.850">  2  5  1 -1</clus>
<clus scale="  133.850">  2  5  1 -1</clus>
</clustering>
</event>
<event>
 9    1  0.1175034E-005  0.1132284E+03  0.7546771E-02  0.1254965E+00
          2   -1    0    0  502    0  0.00000000000E+00  0.00000000000E+00  0.26957692168E+03  0.26957692168E+03  0.00000000000E+00 0. -1.
         -2   -1    0    0    0  501 -0.00000000000E+00 -0.00000000000E+00 -0.17413266654E+03  0.17413266654E+03  0.00000000000E+00 0.  1.
         23    2    1    2    0    0 -0.84032197762E+02  0.40175880764E+02  0.94950410553E+02  0.16136126237E+03  0.91358441716E+02 0.  0.
         23    2    1    2    0    0  0.23205949713E+01 -0.66807386292E+02  0.10017883797E+03  0.15073099787E+03  0.90638965781E+02 0.  0.
        -13    1    4    4    0    0  0.46264749960E+02 -0.39783158830E+02  0.52967756307E+02  0.80800433313E+02  0.00000000000E+00 0.  1.
         13    1    4    4    0    0 -0.43944154989E+02 -0.27024227462E+02  0.47211081666E+02  0.69930564560E+02  0.00000000000E+00 0. -1.
        -13    1    3    3    0    0  0.17830338776E+02  0.14893737162E+02  0.65460317342E+01  0.24137003107E+02  0.00000000000E+00 0.  1.
         13    1    3    3    0    0 -0.10186253654E+03  0.25282143602E+02  0.88404378819E+02  0.13722425926E+03  0.00000000000E+00 0. -1.
         21    1    1    2  502  501  0.81711602791E+02  0.26631505528E+02 -0.99684993392E+02  0.13161732798E+03  0.00000000000E+00 0.  1.
<scales pt_clust_5="13000.00000" pt_clust_6="13000.00000" pt_clust_7="13000.00000" pt_clust_8="13000.00000" pt_clust_9="85.94198"></scales>
<clustering>
<clus scale="   85.942">  2  9  1 -1</clus>
<clus scale="   90.639">  5  6 -1 -1</clus>
<clus scale="   91.358">  7  8 -1 -1</clus>
<clus scale="  112.649">  1  5  2 -1</clus>
<clus scale="  112.649">  1  5  2 -1</clus>
</clustering>
</event>
<event>
 9    1  0.1175034E-005  0.1664773E+03  0.7546771E-02  0.1181613E+00
         -2   -1    0    0    0  501 -0.00000000000E+00  0.00000000000E+00  0.99432811113E+02  0.99432811113E+02  0.00000000000E+00 0.  1.
          2   -1    0    0  502    0  0.00000000000E+00 -0.00000000000E+00 -0.46729160373E+03  0.46729160373E+03  0.00000000000E+00 0. -1.
         23    2    1    2    0    0  0.59088107883E+02 -0.10845807753E+03 -0.10780229168E+03  0.18816925780E+03  0.92367615626E+02 0.  0.
         23    2    1    2    0    0 -0.45185500109E+02  0.14156673649E+03 -0.28533964041E+03  0.33463815643E+03  0.92092969609E+02 0.  0.
        -11    1    4    4    0    0  0.15927462285E+02  0.63904937248E+02 -0.62177088936E+02  0.90573260115E+02  0.00000000000E+00 0.  1.
         11    1    4    4    0    0 -0.61112962394E+02  0.77661799241E+02 -0.22316255148E+03  0.24406489632E+03  0.00000000000E+00 0. -1.
        -13    1    3    3    0    0  0.42956418003E+02  0.14422432800E+01 -0.26170008757E+02  0.50321002292E+02  0.00000000000E+00 0. -1.
         13    1    3    3    0    0  0.16131689880E+02 -0.10990032081E+03 -0.81632282923E+02  0.13784825551E+03  0.00000000000E+00 0.  1.
         21    1    1    2  502  501 -0.13902607774E+02 -0.33108658957E+02  0.25283139471E+02  0.43917000608E+02  0.00000000000E+00 0.  1.
<scales pt_clust_5="13000.00000" pt_clust_6="13000.00000" pt_clust_7="13000.00000" pt_clust_8="13000.00000" pt_clust_9="35.90913"></scales>
<clustering>
<clus scale="   35.909">  1  9  2 -1</clus>
<clus scale="   92.093">  5  6 -1 -1</clus>
<clus scale="   92.368">  7  8 -1 -1</clus>
<clus scale="  166.325">  2  5  1 -1</clus>
<clus scale="  166.325">  2  5  1 -1</clus>
</clustering>
</event>
<event>
 9    1  0.1175034E-005  0.1599351E+03  0.7546771E-02  0.1189283E+00
          2   -1    0    0  502    0  0.00000000000E+00  0.00000000000E+00  0.66886436714E+03  0.66886436714E+03  0.00000000000E+00 0. -1.
         -2   -1    0    0    0  501 -0.00000000000E+00 -0.00000000000E+00 -0.12086483698E+03  0.12086483698E+03  0.00000000000E+00 0.  1.
         23    2    1    2    0    0 -0.11441517251E+03 -0.37021209904E+02 -0.42642610445E+02  0.15657665097E+03  0.90754910166E+02 0.  0.
         23    2    1    2    0    0  0.13064437484E+03  0.24868750064E+02  0.59180201131E+03  0.61284455994E+03  0.87535288028E+02 0.  0.
        -11    1    3    3    0    0 -0.53603246455E+02 -0.56713719832E+02 -0.49307531047E+02  0.92309190581E+02  0.00000000000E+00 0.  1.
         11    1    3    3    0    0 -0.60811926058E+02  0.19692509929E+02  0.66649206019E+01  0.64267460389E+02  0.00000000000E+00 0. -1.
        -13    1    4    4    0    0  0.11803393974E+03 -0.78770297483E+01  0.51491142804E+03  0.52832550312E+03  0.00000000000E+00 0. -1.
         13    1    4    4    0    0  0.12610435100E+02  0.32745779812E+02  0.76890583268E+02  0.84519056811E+02  0.00000000000E+00 0.  1.
         21    1    1    2  502  501 -0.16229202325E+02  0.12152459840E+02 -0.11598707063E+01  0.20307993213E+02  0.00000000000E+00 0.  1.
<scales pt_clust_5="13000.00000" pt_clust_6="13000.00000" pt_clust_7="13000.00000" pt_clust_8="13000.00000" pt_clust_9="20.27484"></scales>
<clustering>
<clus scale="   20.275">  2  9  1 -1</clus>
<clus scale="   87.535">  7  8 -1 -1</clus>
<clus scale="   90.755">  5  6 -1 -1</clus>
<clus scale="  158.130">  1  7  2 -1</clus>
<clus scale="  158.130">  1  5  2 -1</clus>
</clustering>
</event>
<event>
 9    1  0.1175034E-005  0.1473691E+03  0.7546771E-02  0.1203785E+00
         -1   -1    0    0    0  501 -0.00000000000E+00  0.00000000000E+00  0.22474325368E+03  0.22474325368E+03  0.00000000000E+00 0.  1.
          1   -1    0    0  502    0  0.00000000000E+00 -0.00000000000E+00 -0.19840426031E+03  0.19840426031E+03  0.00000000000E+00 0. -1.
         23    2    1    2    0    0 -0.25500900386E+02 -0.86126280442E+02  0.82631720513E+01  0.12858094257E+03  0.91633763840E+02 0.  0.
         23    2    1    2    0    0  0.51837994245E+02  0.12342406826E+03 -0.83966053942E+02  0.18277519521E+03  0.91846586752E+02 0.  0.
        -11    1    4    4    0    0 -0.25850475798E+02  0.21728008357E+02 -0.11304416588E+02  0.35610999432E+02  0.00000000000E+00 0.  1.
         11    1    4    4    0    0  0.77688470043E+02  0.10169605990E+03 -0.72661637354E+02  0.14716419578E+03  0.00000000000E+00 0. -1.
        -13    1    3    3    0    0  0.34377710253E+02 -0.23400809573E+02  0.18814710718E+01  0.41628893624E+02  0.00000000000E+00 0. -1.
         13    1    3    3    0    0 -0.59878610639E+02 -0.62725470869E+02  0.63817009795E+01  0.86952048942E+02  0.00000000000E+00 0.  1.
         21    1    1    2  502  501 -0.26337093859E+02 -0.37297787816E+02  0.10204187526E+03  0.11179137621E+03  0.00000000000E+00 0.  1.
<scales pt_clust_5="13000.00000" pt_clust_6="13000.00000" pt_clust_7="13000.00000" pt_clust_8="13000.00000" pt_clust_9="45.65925"></scales>
<clustering>
<clus scale="   45.659">  1  9  2 -1</clus>
<clus scale="   91.634">  7  8 -1 -1</clus>
<clus scale="   91.847">  5  6 -1 -1</clus>
<clus scale="  147.237">  1  7  2 -1</clus>
<clus scale="  147.369">  2  5  1 -1</clus>
</clustering>
</event>
<event>
 9    1  0.1175034E-005  0.9865346E+02  0.7546771E-02  0.1283782E+00
         -1   -1    0    0    0  501 -0.00000000000E+00  0.00000000000E+00  0.20647868921E+03  0.20647868921E+03  0.00000000000E+00 0.  1.
          1   -1    0    0  502    0  0.00000000000E+00 -0.00000000000E+00 -0.11129023232E+03  0.11129023232E+03  0.00000000000E+00 0. -1.
         23    2    1    2    0    0 -0.25320272560E+02 -0.69602233726E+02  0.50784153303E+02  0.12756645464E+03  0.90601230562E+02 0.  0.
         23    2    1    2    0    0  0.23876531049E+02  0.15560386919E+02 -0.29805432800E+02  0.98389120539E+02  0.89329954887E+02 0.  0.
        -11    1    4    4    0    0 -0.22865138334E+02 -0.54331248595E+01 -0.39764654417E+02  0.46190487524E+02  0.00000000000E+00 0.  1.
         11    1    4    4    0    0  0.46741669382E+02  0.20993511779E+02  0.99592216175E+01  0.52198633016E+02  0.00000000000E+00 0. -1.
        -11    1    3    3    0    0 -0.31980606304E+01 -0.84218823125E+02  0.55113868253E+02  0.10070042817E+03  0.00000000000E+00 0.  1.
         11    1    3    3    0    0 -0.22122211930E+02  0.14616589400E+02 -0.43297149496E+01  0.26866026463E+02  0.00000000000E+00 0. -1.
         21    1    1    2  502  501  0.14437415115E+01  0.54041846806E+02  0.74209736381E+02  0.91813346359E+02  0.00000000000E+00 0.  1.
<scales pt_clust_5="13000.00000" pt_clust_6="13000.00000" pt_clust_7="13000.00000" pt_clust_8="13000.00000" pt_clust_9="54.06113"></scales>
<clustering>
<clus scale="   54.061">  1  9  2 -1</clus>
<clus scale="   89.330">  5  6 -1 -1</clus>
<clus scale="   90.601">  7  8 -1 -1</clus>
<clus scale="   97.487">  2  5  1 -1</clus>
<clus scale="   97.487">  2  5  1 -1</clus>
</clustering>
</event>
<event>
 9    1  0.1175034E-005  0.1790597E+03  0.7546771E-02  0.1168949E+00
         -1   -1    0    0    0  501 -0.00000000000E+00  0.00000000000E+00  0.10871454841E+03  0.10871454841E+03  0.00000000000E+00 0.  1.
          1   -1    0    0  502    0  0.00000000000E+00 -0.00000000000E+00 -0.45453254244E+03  0.45453254244E+03  0.00000000000E+00 0. -1.
         23    2    1    2    0    0  0.33171143436E+02  0.15344946445E+03 -0.14794632217E+03  0.23414845627E+03  0.91051207739E+02 0.  0.
         23    2    1    2    0    0 -0.50927494539E+02 -0.14399802397E+03 -0.23064331087E+03  0.29064609168E+03  0.89161500395E+02 0.  0.
        -11    1    3    3    0    0  0.64134869745E+02  0.97798131032E+02 -0.10639759380E+03  0.15810820319E+03  0.00000000000E+00 0.  1.
         11    1    3    3    0    0 -0.30963726308E+02  0.55651333420E+02 -0.41548728376E+02  0.76040253077E+02  0.00000000000E+00 0. -1.
        -11    1    4    4    0    0 -0.16389435487E+02 -0.13964999189E+03 -0.16892104522E+03  0.21978410622E+03  0.00000000000E+00 0. -1.
         11    1    4    4    0    0 -0.34538059052E+02 -0.43480320825E+01 -0.61722265646E+02  0.70861985455E+02  0.00000000000E+00 0.  1.
         21    1    1    2  502  501  0.17756351103E+02 -0.94514404793E+01  0.32771639020E+02  0.38452542902E+02  0.00000000000E+00 0. -1.
<scales pt_clust_5="13000.00000" pt_clust_6="13000.00000" pt_clust_7="13000.00000" pt_clust_8="13000.00000" pt_clust_9="20.11511"></scales>
<clustering>
<clus scale="   20.115">  1  9  2 -1</clus>
<clus scale="   89.162">  7  8 -1 -1</clus>
<clus scale="   91.051">  5  6 -1 -1</clus>
<clus scale="  178.106">  2  7  1 -1</clus>
<clus scale="  178.106">  2  5  1 -1</clus>
</clustering>
</event>
<event>
 9    1  0.1175034E-005  0.1067200E+03  0.7546771E-02  0.1266808E+00
          1   -1    0    0  502    0  0.00000000000E+00  0.00000000000E+00  0.22707438165E+02  0.22707438165E+02  0.00000000000E+00 0. -1.
         -1   -1    0    0    0  501 -0.00000000000E+00 -0.00000000000E+00 -0.66570179177E+03  0.66570179177E+03  0.00000000000E+00 0.  1.
         23    2    1    2    0    0  0.21074128633E+02  0.36589720102E+02 -0.24946307206E+03  0.26885382928E+03  0.90926512525E+02 0.  0.
         23    2    1    2    0    0 -0.46547117068E+02 -0.52552950568E+02 -0.32646483566E+03  0.34605978153E+03  0.90827510995E+02 0.  0.
        -11    1    4    4    0    0 -0.67007751635E+02 -0.25284914142E+02 -0.27613050113E+03  0.28526727698E+03  0.00000000000E+00 0.  1.
         11    1    4    4    0    0  0.20460634567E+02 -0.27268036426E+02 -0.50334334532E+02  0.60792504556E+02  0.00000000000E+00 0. -1.
        -13    1    3    3    0    0 -0.99338928995E+00 -0.28795696106E+02 -0.10288686054E+03  0.10684514499E+03  0.00000000000E+00 0. -1.
         13    1    3    3    0    0  0.22067517923E+02  0.65385416208E+02 -0.14657621152E+03  0.16200868429E+03  0.00000000000E+00 0.  1.
         21    1    1    2  502  501  0.25472988435E+02  0.15963230466E+02 -0.67066445882E+02  0.73495619121E+02  0.00000000000E+00 0.  1.
<scales pt_clust_5="13000.00000" pt_clust_6="13000.00000" pt_clust_7="13000.00000" pt_clust_8="13000.00000" pt_clust_9="30.06157"></scales>
<clustering>
<clus scale="   30.062">  1  9  2 -1</clus>
<clus scale="   90.828">  5  6 -1 -1</clus>
<clus scale="   90.927">  7  8 -1 -1</clus>
<clus scale="  106.636">  1  5  2 -1</clus>
<clus scale="   30.062">  1  5  2 -1</clus>
</clustering>
</event>
<event>
 9    1  0.1175034E-005  0.1863922E+03  0.7546771E-02  0.1162096E+00
         -1   -1    0    0    0  501 -0.00000000000E+00  0.00000000000E+00  0.39983279960E+03  0.39983279960E+03  0.00000000000E+00 0.  1.
          1   -1    0    0  502    0  0.00000000000E+00 -0.00000000000E+00 -0.25409650589E+03  0.25409650589E+03  0.00000000000E+00 0. -1.
         23    2    1    2    0    0  0.11729591899E+03 -0.63253094904E+02  0.29723393084E+03  0.34021750763E+03  0.98186843470E+02 0.  0.
         23    2    1    2    0    0 -0.14011954442E+03  0.80278028127E+02 -0.18924062402E+03  0.26643284600E+03  0.95375044524E+02 0.  0.
        -11    1    4    4    0    0 -0.84343300698E+02  0.32448124973E+02 -0.16662794030E+03  0.18955617552E+03  0.00000000000E+00 0. -1.
         11    1    4    4    0    0 -0.55776243725E+02  0.47829903154E+02 -0.22612683722E+02  0.76876670485E+02  0.00000000000E+00 0.  1.
        -13    1    3    3    0    0  0.21738546592E+02 -0.55773163757E+02  0.61883525607E+02  0.86097508355E+02  0.00000000000E+00 0. -1.
         13    1    3    3    0    0  0.95557372397E+02 -0.74799311468E+01  0.23535040523E+03  0.25411999928E+03  0.00000000000E+00 0.  1.
         21    1    1    2  502  501  0.22823625433E+02 -0.17024933224E+02  0.37742986894E+02  0.47278951859E+02  0.00000000000E+00 0.  1.
<scales pt_clust_5="13000.00000" pt_clust_6="13000.00000" pt_clust_7="13000.00000" pt_clust_8="13000.00000" pt_clust_9="28.47396"></scales>
<clustering>
<clus scale="   28.474">  1  9  2 -1</clus>
<clus scale="   95.375">  5  6 -1 -1</clus>
<clus scale="   98.187">  7  8 -1 -1</clus>
<clus scale="  184.926">  2  5  1 -1</clus>
<clus scale="  184.926">  2  5  1 -1</clus>
</clustering>
</event>
<event>
 9    1  0.1175034E-005  0.9753538E+02  0.7546771E-02  0.1285836E+00
         -1   -1    0    0    0  501 -0.00000000000E+00  0.00000000000E+00  0.84572366336E+03  0.84572366336E+03  0.00000000000E+00 0.  1.
          1   -1    0    0  502    0  0.00000000000E+00 -0.00000000000E+00 -0.18141810153E+02  0.18141810153E+02  0.00000000000E+00 0. -1.
         23    2    1    2    0    0  0.31099584929E+02 -0.10452527530E+02  0.34617080416E+03  0.35953519698E+03  0.91405102158E+02 0.  0.
         23    2    1    2    0    0 -0.28498181893E+02 -0.32267608065E+02  0.26606600791E+03  0.28477330437E+03  0.91931329887E+02 0.  0.
        -11    1    4    4    0    0 -0.42602472129E+02 -0.57605074908E+02  0.20529292769E+03  0.21743620086E+03  0.00000000000E+00 0. -1.
         11    1    4    4    0    0  0.14104290236E+02  0.25337466842E+02  0.60773080219E+02  0.67337103504E+02  0.00000000000E+00 0.  1.
        -13    1    3    3    0    0  0.61181359375E+02  0.21171433517E+01  0.17798925260E+03  0.18822278043E+03  0.00000000000E+00 0.  1.
         13    1    3    3    0    0 -0.30081774446E+02 -0.12569670882E+02  0.16818155156E+03  0.17131241656E+03  0.00000000000E+00 0. -1.
         21    1    1    2  502  501 -0.26014030352E+01  0.42720135595E+02  0.21534504114E+03  0.21955697217E+03  0.00000000000E+00 0.  1.
<scales pt_clust_5="13000.00000" pt_clust_6="13000.00000" pt_clust_7="13000.00000" pt_clust_8="13000.00000" pt_clust_9="42.79927"></scales>
<clustering>
<clus scale="   42.799">  1  9  2 -1</clus>
<clus scale="   91.405">  7  8 -1 -1</clus>
<clus scale="   91.931">  5  6 -1 -1</clus>
<clus scale="   97.040">  1  7  2 -1</clus>
<clus scale="   97.535">  2  5  1 -1</clus>
</clustering>
</event>
<event>
 9    1  0.1175034E-005  0.2142608E+03  0.7546771E-02  0.1138363E+00
          1   -1    0    0  502    0  0.00000000000E+00  0.00000000000E+00  0.16761162445E+03  0.16761162445E+03  0.00000000000E+00 0. -1.
         -1   -1    0    0    0  501 -0.00000000000E+00 -0.00000000000E+00 -0.36883220920E+03  0.36883220920E+03  0.00000000000E+00 0.  1.
         23    2    1    2    0    0 -0.41072695440E+01 -0.19738314005E+03 -0.64102424800E+02  0.22727633885E+03  0.92565866794E+02 0.  0.
         23    2    1    2    0    0  0.40764050939E+02  0.18666866782E+03 -0.55107070021E+02  0.21870016142E+03  0.91027864115E+02 0.  0.
        -11    1    4    4    0    0  0.45588163413E+02  0.72851221288E+02 -0.59777365388E+02  0.10468483414E+03  0.00000000000E+00 0.  1.
         11    1    4    4    0    0 -0.48241124739E+01  0.11381744653E+03  0.46702953663E+01  0.11401532728E+03  0.00000000000E+00 0. -1.
        -11    1    3    3    0    0 -0.45459010634E+02 -0.14013034236E+03 -0.46618535382E+02  0.15451965033E+03  0.00000000000E+00 0. -1.
         11    1    3    3    0    0  0.41351741090E+02 -0.57252797694E+02 -0.17483889418E+02  0.72756688518E+02  0.00000000000E+00 0.  1.
         21    1    1    2  502  501 -0.36656781395E+02  0.10714472230E+02 -0.82011089931E+02  0.90467333381E+02  0.00000000000E+00 0. -1.
<scales pt_clust_5="13000.00000" pt_clust_6="13000.00000" pt_clust_7="13000.00000" pt_clust_8="13000.00000" pt_clust_9="38.19057"></scales>
<clustering>
<clus scale="   38.191">  2  9  1 -1</clus>
<clus scale="   91.028">  5  6 -1 -1</clus>
<clus scale="   92.566">  7  8 -1 -1</clus>
<clus scale="  213.601">  1  5  2 -1</clus>
<clus scale="  213.601">  1  5  2 -1</clus>
</clustering>
</event>
<event>
 9    1  0.1175034E-005  0.9697384E+02  0.7546771E-02  0.1286854E+00
          4   -1    0    0  502    0  0.00000000000E+00  0.00000000000E+00  0.15604382953E+03  0.15604382953E+03  0.00000000000E+00 0. -1.
         -4   -1    0    0    0  501 -0.00000000000E+00 -0.00000000000E+00 -0.91674964323E+02  0.91674964323E+02  0.00000000000E+00 0.  1.
         23    2    1    2    0    0 -0.57920736196E+01  0.21079399220E+02  0.34891331379E+01  0.93395488689E+02  0.90733974173E+02 0.  0.
         23    2    1    2    0    0 -0.14469306100E+01 -0.40757020692E+02  0.78601271054E+02  0.12687034698E+03  0.90855361906E+02 0.  0.
        -11    1    4    4    0    0 -0.38704646046E+02 -0.33450914646E+02  0.15901616433E+02  0.53571211685E+02  0.00000000000E+00 0.  1.
         11    1    4    4    0    0  0.37257715436E+02 -0.73061060461E+01  0.62699654622E+02  0.73299135293E+02  0.00000000000E+00 0. -1.
        -13    1    3    3    0    0  0.41421494360E+02  0.20174760434E+02  0.45129083863E+00  0.46075642340E+02  0.00000000000E+00 0.  1.
         13    1    3    3    0    0 -0.47213567980E+02  0.90463878606E+00  0.30378422992E+01  0.47319846350E+02  0.00000000000E+00 0. -1.
         21    1    1    2  502  501  0.72390042296E+01  0.19677621472E+02 -0.17721538986E+02  0.27452958184E+02  0.00000000000E+00 0.  1.
<scales pt_clust_5="13000.00000" pt_clust_6="13000.00000" pt_clust_7="13000.00000" pt_clust_8="13000.00000" pt_clust_9="20.96693"></scales>
<clustering>
<clus scale="   20.967">  2  9  1 -1</clus>
<clus scale="   90.734">  7  8 -1 -1</clus>
<clus scale="   90.855">  5  6 -1 -1</clus>
<clus scale="   96.860">  2  7  1 -1</clus>
<clus scale="   96.974">  1  5  2 -1</clus>
</clustering>
</event>
<event>
 9    1  0.1175034E-005  0.2121503E+03  0.7546771E-02  0.1140025E+00
         -1   -1    0    0    0  501 -0.00000000000E+00  0.00000000000E+00  0.64124836376E+02  0.64124836376E+02  0.00000000000E+00 0.  1.
          1   -1    0    0  502    0  0.00000000000E+00 -0.00000000000E+00 -0.11805122743E+04  0.11805122743E+04  0.00000000000E+00 0. -1.
         23    2    1    2    0    0  0.82600534333E+01  0.17098285668E+03 -0.32969197986E+03  0.38281907353E+03  0.92467700902E+02 0.  0.
         23    2    1    2    0    0 -0.27061575851E+02 -0.20065606142E+03 -0.79528911681E+03  0.82565386569E+03  0.90688162070E+02 0.  0.
        -11    1    4    4    0    0 -0.32886287805E+02 -0.17532368226E+03 -0.76599051731E+03  0.78648672849E+03  0.00000000000E+00 0. -1.
         11    1    4    4    0    0  0.58247119540E+01 -0.25332379167E+02 -0.29298599498E+02  0.39167137196E+02  0.00000000000E+00 0.  1.
        -13    1    3    3    0    0  0.12036019265E+02  0.47132272528E+02 -0.18983433625E+03  0.19596783433E+03  0.00000000000E+00 0. -1.
         13    1    3    3    0    0 -0.37759658320E+01  0.12385058415E+03 -0.13985764362E+03  0.18685123920E+03  0.00000000000E+00 0.  1.
         21    1    1    2  502  501  0.18801522417E+02  0.29673204746E+02  0.85936587653E+01  0.36164171442E+02  0.00000000000E+00 0.  1.
<scales pt_clust_5="13000.00000" pt_clust_6="13000.00000" pt_clust_7="13000.00000" pt_clust_8="13000.00000" pt_clust_9="35.12828"></scales>
<clustering>
<clus scale="   35.128">  1  9  2 -1</clus>
<clus scale="   90.688">  5  6 -1 -1</clus>
<clus scale="   92.468">  7  8 -1 -1</clus>
<clus scale="  211.381">  2  5  1 -1</clus>
<clus scale="  211.381">  2  5  1 -1</clus>
</clustering>
</event>
<event>
 9    1  0.1175034E-005  0.9426282E+02  0.7546771E-02  0.1293344E+00
         -1   -1    0    0    0  501 -0.00000000000E+00  0.00000000000E+00  0.11634908075E+03  0.11634908075E+03  0.00000000000E+00 0.  1.
          1   -1    0    0  502    0  0.00000000000E+00 -0.00000000000E+00 -0.13654482152E+03  0.13654482152E+03  0.00000000000E+00 0. -1.
         23    2    1    2    0    0  0.21793608654E+01  0.64314149948E+01  0.30457521047E+02  0.96227875569E+02  0.91027637207E+02 0.  0.
         23    2    1    2    0    0 -0.26892795634E+02  0.10409037927E+02 -0.71703042394E+02  0.12009489088E+03  0.91923261473E+02 0.  0.
        -11    1    3    3    0    0  0.18514124887E+02 -0.37712547486E+02  0.24887299225E+02  0.48830182479E+02  0.00000000000E+00 0.  1.
         11    1    3    3    0    0 -0.16334764022E+02  0.44143962480E+02  0.55702218226E+01  0.47397693090E+02  0.00000000000E+00 0. -1.
        -13    1    4    4    0    0 -0.21729829427E+02 -0.40078030234E+02 -0.34016979374E+02  0.56882236947E+02  0.00000000000E+00 0.  1.
         13    1    4    4    0    0 -0.51629662070E+01  0.50487068161E+02 -0.37686063021E+02  0.63212653935E+02  0.00000000000E+00 0. -1.
         21    1    1    2  502  501  0.24713434769E+02 -0.16840452922E+02  0.21049780573E+02  0.36571135816E+02  0.00000000000E+00 0.  1.
<scales pt_clust_5="13000.00000" pt_clust_6="13000.00000" pt_clust_7="13000.00000" pt_clust_8="13000.00000" pt_clust_9="29.90576"></scales>
<clustering>
<clus scale="   29.906">  1  9  2 -1</clus>
<clus scale="   91.028">  5  6 -1 -1</clus>
<clus scale="   91.923">  7  8 -1 -1</clus>
<clus scale="   93.390">  1  5  2 -1</clus>
<clus scale="   94.263">  2  5  1 -1</clus>
</clustering>
</event>
<event>
 9    1  0.1175034E-005  0.1072653E+03  0.7546771E-02  0.1266097E+00
         -2   -1    0    0    0  501 -0.00000000000E+00  0.00000000000E+00  0.32672149700E+03  0.32672149700E+03  0.00000000000E+00 0.  1.
          2   -1    0    0  502    0  0.00000000000E+00 -0.00000000000E+00 -0.54567059747E+02  0.54567059747E+02  0.00000000000E+00 0. -1.
         23    2    1    2    0    0 -0.49849008970E+02 -0.15368360346E+02  0.18201669416E+03  0.21027079590E+03  0.91447364420E+02 0.  0.
         23    2    1    2    0    0  0.58393267800E+02 -0.12857920700E+02  0.45781940752E+02  0.11775272070E+03  0.90524125428E+02 0.  0.
        -11    1    4    4    0    0  0.19426631086E+02 -0.64359871748E+01 -0.27635181679E+02  0.34387776792E+02  0.00000000000E+00 0. -1.
         11    1    4    4    0    0  0.38966636715E+02 -0.64219335254E+01  0.73417122431E+02  0.83364943910E+02  0.00000000000E+00 0.  1.
        -13    1    3    3    0    0 -0.63636355973E+02  0.20469574111E+02  0.11813675345E+03  0.13573828414E+03  0.00000000000E+00 0.  1.
         13    1    3    3    0    0  0.13787347004E+02 -0.35837934458E+02  0.63879940713E+02  0.74532511759E+02  0.00000000000E+00 0. -1.
         21    1    1    2  502  501 -0.85442588309E+01  0.28226281047E+02  0.44355802340E+02  0.53265040148E+02  0.00000000000E+00 0. -1.
<scales pt_clust_5="13000.00000" pt_clust_6="13000.00000" pt_clust_7="13000.00000" pt_clust_8="13000.00000" pt_clust_9="29.49114"></scales>
<clustering>
<clus scale="   29.491">  1  9  2 -1</clus>
<clus scale="   90.524">  5  6 -1 -1</clus>
<clus scale="   91.447">  7  8 -1 -1</clus>
<clus scale="  106.479">  2  5  1 -1</clus>
<clus scale="  106.479">  2  5  1 -1</clus>
</clustering>
</event>
<event>
 9    1  0.1175034E-005  0.9550229E+02  0.7546771E-02  0.1290530E+00
          2   -1    0    0  502    0  0.00000000000E+00  0.00000000000E+00  0.27300368183E+03  0.27300368183E+03  0.00000000000E+00 0. -1.
         -2   -1    0    0    0  501 -0.00000000000E+00 -0.00000000000E+00 -0.13130407065E+03  0.13130407065E+03  0.00000000000E+00 0.  1.
         23    2    1    2    0    0  0.16383775166E+02  0.34644405891E+01 -0.60114597863E+02  0.10945451332E+03  0.89922717782E+02 0.  0.
         23    2    1    2    0    0 -0.64294222571E+02 -0.39847213848E+02  0.44273282951E+02  0.12621676460E+03  0.90824008801E+02 0.  0.
        -13    1    4    4    0    0 -0.72656225968E+02  0.22056696946E+01  0.14782458678E+02  0.74177579060E+02  0.00000000000E+00 0.  1.
         13    1    4    4    0    0  0.83620033969E+01 -0.42052883543E+02  0.29490824274E+02  0.52039185537E+02  0.00000000000E+00 0. -1.
        -13    1    3    3    0    0 -0.10889247502E+02  0.25049226842E+02 -0.68441645815E+02  0.73690558136E+02  0.00000000000E+00 0.  1.
         13    1    3    3    0    0  0.27273022668E+02 -0.21584786252E+02  0.83270479520E+01  0.35763955187E+02  0.00000000000E+00 0. -1.
         21    1    1    2  502  501  0.47910447405E+02  0.36382773259E+02  0.15754092609E+03  0.16863647456E+03  0.00000000000E+00 0. -1.
<scales pt_clust_5="13000.00000" pt_clust_6="13000.00000" pt_clust_7="13000.00000" pt_clust_8="13000.00000" pt_clust_9="60.15910"></scales>
<clustering>
<clus scale="   60.159">  1  9  2 -1</clus>
<clus scale="   89.923">  7  8 -1 -1</clus>
<clus scale="   90.824">  5  6 -1 -1</clus>
<clus scale="   94.646">  2  7  1 -1</clus>
<clus scale="   60.159">  1  5  2 -1</clus>
</clustering>
</event>
<event>
 9    1  0.1175034E-005  0.1346984E+03  0.7546771E-02  0.1221163E+00
          1   -1    0    0  502    0  0.00000000000E+00  0.00000000000E+00  0.17849401960E+03  0.17849401960E+03  0.00000000000E+00 0. -1.
         -1   -1    0    0    0  501 -0.00000000000E+00 -0.00000000000E+00 -0.33985891882E+03  0.33985891882E+03  0.00000000000E+00 0.  1.
         23    2    1    2    0    0  0.67626489064E+02 -0.76746913236E+02 -0.18365953451E+03  0.22949024244E+03  0.92040839003E+02 0.  0.
         23    2    1    2    0    0 -0.79190998609E+02  0.57885834981E+02  0.12574348728E+03  0.18307449658E+03  0.89904741552E+02 0.  0.
        -11    1    3    3    0    0  0.72556056009E+02 -0.43927408700E+02 -0.17608671712E+03  0.19544955984E+03  0.00000000000E+00 0.  1.
         11    1    3    3    0    0 -0.49295669452E+01 -0.32819504536E+02 -0.75728173933E+01  0.34040682595E+02  0.00000000000E+00 0. -1.
        -13    1    4    4    0    0 -0.39505346519E+02 -0.20892942852E+02  0.38099587017E+02  0.58726195139E+02  0.00000000000E+00 0.  1.
         13    1    4    4    0    0 -0.39685652090E+02  0.78778777833E+02  0.87643900266E+02  0.12434830145E+03  0.00000000000E+00 0. -1.
         21    1    1    2  502  501  0.11564509545E+02  0.18861078255E+02 -0.10344885199E+03  0.10578819940E+03  0.00000000000E+00 0. -1.
<scales pt_clust_5="13000.00000" pt_clust_6="13000.00000" pt_clust_7="13000.00000" pt_clust_8="13000.00000" pt_clust_9="22.12415"></scales>
<clustering>
<clus scale="   22.124">  2  9  1 -1</clus>
<clus scale="   89.905">  7  8 -1 -1</clus>
<clus scale="   92.041">  5  6 -1 -1</clus>
<clus scale="  133.248">  1  7  2 -1</clus>
<clus scale="  133.248">  1  5  2 -1</clus>
</clustering>
</event>
<event>
 9    1  0.1175034E-005  0.1087669E+03  0.7546771E-02  0.1264144E+00
         -1   -1    0    0    0  501 -0.00000000000E+00  0.00000000000E+00  0.16052287225E+03  0.16052287225E+03  0.00000000000E+00 0.  1.
          1   -1    0    0  502    0  0.00000000000E+00 -0.00000000000E+00 -0.12043453719E+03  0.12043453719E+03  0.00000000000E+00 0. -1.
         23    2    1    2    0    0 -0.60121165704E+02  0.43302990175E+02  0.50587487324E+02  0.12800087033E+03  0.91298550958E+02 0.  0.
         23    2    1    2    0    0  0.16056783562E+02 -0.29624531579E+02  0.13194167441E+02  0.10108994676E+03  0.94390985334E+02 0.  0.
        -11    1    4    4    0    0 -0.19920418339E+02  0.26715961679E+02  0.28517713922E+01  0.33446947175E+02  0.00000000000E+00 0.  1.
         11    1    4    4    0    0  0.35977201902E+02 -0.56340493258E+02  0.10342396049E+02  0.67642999588E+02  0.00000000000E+00 0. -1.
        -11    1    3    3    0    0  0.14531055089E+02  0.27872639704E+02 -0.73155173955E+01  0.32273090971E+02  0.00000000000E+00 0. -1.
         11    1    3    3    0    0 -0.74652220793E+02  0.15430350472E+02  0.57903004719E+02  0.95727779356E+02  0.00000000000E+00 0.  1.
         21    1    1    2  502  501  0.44064382142E+02 -0.13678458596E+02 -0.23693319705E+02  0.51866592347E+02  0.00000000000E+00 0. -1.
<scales pt_clust_5="13000.00000" pt_clust_6="13000.00000" pt_clust_7="13000.00000" pt_clust_8="13000.00000" pt_clust_9="46.13860"></scales>
<clustering>
<clus scale="   46.139">  2  9  1 -1</clus>
<clus scale="   91.299">  7  8 -1 -1</clus>
<clus scale="   94.391">  5  6 -1 -1</clus>
<clus scale="  106.094">  1  7  2 -1</clus>
<clus scale="   46.139">  2  5  1 -1</clus>
</clustering>
</event>
<event>
 9    1  0.1175034E-005  0.2020880E+03  0.7546771E-02  0.1148042E+00
          2   -1    0    0  502    0  0.00000000000E+00  0.00000000000E+00  0.14554776295E+04  0.14554776295E+04  0.00000000000E+00 0. -1.
         -2   -1    0    0    0  501 -0.00000000000E+00 -0.00000000000E+00 -0.37467029467E+02  0.37467029467E+02  0.00000000000E+00 0.  1.
         23    2    1    2    0    0  0.15664177067E+03 -0.93316418586E+01  0.49909702088E+03  0.53120621535E+03  0.91970012061E+02 0.  0.
         23    2    1    2    0    0 -0.19993670068E+03 -0.12206071053E+02  0.84560297606E+03  0.87391607422E+03  0.92526964711E+02 0.  0.
        -11    1    4    4    0    0 -0.73274409841E+02  0.45424135396E+01  0.15391940441E+03  0.17053139216E+03  0.00000000000E+00 0.  1.
         11    1    4    4    0    0 -0.12666229084E+03 -0.16748484593E+02  0.69168357165E+03  0.70338468206E+03  0.00000000000E+00 0. -1.
        -13    1    3    3    0    0  0.55801841785E+02 -0.46813377099E+02  0.23530966262E+03  0.24632493813E+03  0.00000000000E+00 0. -1.
         13    1    3    3    0    0  0.10083992888E+03  0.37481735240E+02  0.26378735825E+03  0.28488127721E+03  0.00000000000E+00 0.  1.
         21    1    1    2  502  501  0.43294930017E+02  0.21537712912E+02  0.73310603129E+02  0.87822369438E+02  0.00000000000E+00 0. -1.
<scales pt_clust_5="13000.00000" pt_clust_6="13000.00000" pt_clust_7="13000.00000" pt_clust_8="13000.00000" pt_clust_9="48.35622"></scales>
<clustering>
<clus scale="   48.356">  2  9  1 -1</clus>
<clus scale="   91.970">  7  8 -1 -1</clus>
<clus scale="   92.527">  5  6 -1 -1</clus>
<clus scale="  201.834">  2  7  1 -1</clus>
<clus scale="  202.088">  1  5  2 -1</clus>
</clustering>
</event>
<event>
 9    1  0.1175034E-005  0.9611564E+02  0.7546771E-02  0.1289647E+00
          1   -1    0    0  502    0  0.00000000000E+00  0.00000000000E+00  0.59262089029E+03  0.59262089029E+03  0.00000000000E+00 0. -1.
         -1   -1    0    0    0  501 -0.00000000000E+00 -0.00000000000E+00 -0.20728518399E+02  0.20728518399E+02  0.00000000000E+00 0.  1.
         23    2    1    2    0    0  0.17154136679E+02 -0.10685708973E+02  0.19884060313E+03  0.22039557258E+03  0.92887965745E+02 0.  0.
         23    2    1    2    0    0 -0.73779186711E+01  0.28994492750E+02  0.34487368459E+03  0.35795683010E+03  0.91104992167E+02 0.  0.
        -11    1    3    3    0    0  0.53544332050E+02 -0.94550407071E+01  0.14945576103E+03  0.15903904487E+03  0.00000000000E+00 0. -1.
         11    1    3    3    0    0 -0.36390195370E+02 -0.12306682655E+01  0.49384842102E+02  0.61356527712E+02  0.00000000000E+00 0.  1.
        -11    1    4    4    0    0  0.21628153760E+02 -0.25792078439E+02  0.13371572787E+03  0.13788728812E+03  0.00000000000E+00 0.  1.
         11    1    4    4    0    0 -0.29006072431E+02  0.54786571189E+02  0.21115795672E+03  0.22006954198E+03  0.00000000000E+00 0. -1.
         21    1    1    2  502  501 -0.97762180083E+01 -0.18308783777E+02  0.28178084176E+02  0.34997006011E+02  0.00000000000E+00 0.  1.
<scales pt_clust_5="13000.00000" pt_clust_6="13000.00000" pt_clust_7="13000.00000" pt_clust_8="13000.00000" pt_clust_9="20.75538"></scales>
<clustering>
<clus scale="   20.755">  2  9  1 -1</clus>
<clus scale="   91.105">  7  8 -1 -1</clus>
<clus scale="   92.888">  5  6 -1 -1</clus>
<clus scale="   94.394">  1  7  2 -1</clus>
<clus scale="   94.394">  1  5  2 -1</clus>
</clustering>
</event>
<event>
 9    1  0.1175034E-005  0.1328277E+03  0.7546771E-02  0.1223976E+00
         -2   -1    0    0    0  501 -0.00000000000E+00  0.00000000000E+00  0.51277960852E+02  0.51277960852E+02  0.00000000000E+00 0.  1.
          2   -1    0    0  502    0  0.00000000000E+00 -0.00000000000E+00 -0.56929333900E+03  0.56929333900E+03  0.00000000000E+00 0. -1.
         23    2    1    2    0    0 -0.96912260153E+02  0.13689590478E+01 -0.14907411941E+03  0.19814762274E+03  0.87438704829E+02 0.  0.
         23    2    1    2    0    0  0.94514461747E+02  0.31835380135E+02 -0.36492097677E+03  0.38889100282E+03  0.90124457761E+02 0.  0.
        -11    1    4    4    0    0  0.15715498827E+02  0.37564555547E+02 -0.51433545272E+02  0.65600932280E+02  0.00000000000E+00 0. -1.
         11    1    4    4    0    0  0.78798962920E+02 -0.57291754113E+01 -0.31348743149E+03  0.32329007054E+03  0.00000000000E+00 0.  1.
        -11    1    3    3    0    0 -0.59469139483E+02 -0.35154749984E+02 -0.47316131727E+02  0.83733215147E+02  0.00000000000E+00 0.  1.
         11    1    3    3    0    0 -0.37443120670E+02  0.36523709032E+02 -0.10175798769E+03  0.11441440759E+03  0.00000000000E+00 0. -1.
         21    1    1    2  502  501  0.23977984063E+01 -0.33204339183E+02 -0.40202819701E+01  0.33532674288E+02  0.00000000000E+00 0. -1.
<scales pt_clust_5="13000.00000" pt_clust_6="13000.00000" pt_clust_7="13000.00000" pt_clust_8="13000.00000" pt_clust_9="33.29080"></scales>
<clustering>
<clus scale="   33.291">  1  9  2 -1</clus>
<clus scale="   87.439">  7  8 -1 -1</clus>
<clus scale="   90.124">  5  6 -1 -1</clus>
<clus scale="  131.020">  1  7  2 -1</clus>
<clus scale="  132.828">  2  5  1 -1</clus>
</clustering>
</event>
<event>
 9    1  0.1175034E-005  0.1136387E+03  0.7546771E-02  0.1256319E+00
         -1   -1    0    0    0  501 -0.00000000000E+00  0.00000000000E+00  0.65852802737E+02  0.65852802737E+02  0.00000000000E+00 0.  1.
          1   -1    0    0  502    0  0.00000000000E+00 -0.00000000000E+00 -0.48969418103E+03  0.48969418103E+03  0.00000000000E+00 0. -1.
         23    2    1    2    0    0 -0.41979366127E+02  0.11060467699E+02 -0.10068648056E+03  0.14696342458E+03  0.97856423754E+02 0.  0.
         23    2    1    2    0    0  0.55897268273E+02 -0.30079097401E+02 -0.35318789253E+03  0.37040768916E+03  0.91819998168E+02 0.  0.
        -11    1    3    3    0    0 -0.36314916903E+02 -0.40934346622E+02 -0.49737609758E+02  0.73947439086E+02  0.00000000000E+00 0. -1.
         11    1    3    3    0    0 -0.56644492243E+01  0.51994814321E+02 -0.50948870801E+02  0.73015985490E+02  0.00000000000E+00 0.  1.
        -13    1    4    4    0    0  0.45006241213E+02  0.19517771753E+02 -0.91321681076E+02  0.10366366093E+03  0.00000000000E+00 0.  1.
         13    1    4    4    0    0  0.10891027060E+02 -0.49596869154E+02 -0.26186621145E+03  0.26674402824E+03  0.00000000000E+00 0. -1.
         21    1    1    2  502  501 -0.13917902146E+02  0.19018629702E+02  0.30032994793E+02  0.38175870024E+02  0.00000000000E+00 0.  1.
<scales pt_clust_5="13000.00000" pt_clust_6="13000.00000" pt_clust_7="13000.00000" pt_clust_8="13000.00000" pt_clust_9="23.56727"></scales>
<clustering>
<clus scale="   23.567">  1  9  2 -1</clus>
<clus scale="   91.820">  7  8 -1 -1</clus>
<clus scale="   97.856">  5  6 -1 -1</clus>
<clus scale="  108.484">  2  7  1 -1</clus>
<clus scale="  108.484">  2  5  1 -1</clus>
</clustering>
</event>
<event>
 9    1  0.1175034E-005  0.1052745E+03  0.7546771E-02  0.1275211E+00
          1   -1    0    0  502    0  0.00000000000E+00  0.00000000000E+00  0.71154066318E+02  0.71154066318E+02  0.00000000000E+00 0. -1.
         -1   -1    0    0    0  501 -0.00000000000E+00 -0.00000000000E+00 -0.32561140078E+03  0.32561140078E+03  0.00000000000E+00 0.  1.
         23    2    1    2    0    0 -0.47015148282E+02 -0.18781980668E+01 -0.25745255734E+03  0.27838319510E+03  0.94875878041E+02 0.  0.
         23    2    1    2    0    0  0.38252160063E+02 -0.17375723290E+02  0.15139718749E+02  0.93989809434E+02  0.82702658266E+02 0.  0.
        -11    1    4    4    0    0  0.16460342833E+02 -0.46025956700E+02  0.27309274247E+02  0.55992214067E+02  0.00000000000E+00 0. -1.
         11    1    4    4    0    0  0.21791817230E+02  0.28650233410E+02 -0.12169555497E+02  0.37997595367E+02  0.00000000000E+00 0.  1.
        -13    1    3    3    0    0  0.30746635716E+01 -0.35014936081E+02 -0.42262518658E+02  0.54969262213E+02  0.00000000000E+00 0. -1.
         13    1    3    3    0    0 -0.50089811854E+02  0.33136738014E+02 -0.21519003868E+03  0.22341393288E+03  0.00000000000E+00 0.  1.
         21    1    1    2  502  501  0.87629882187E+01  0.19253921357E+02 -0.12144495864E+02  0.24392462564E+02  0.00000000000E+00 0. -1.
<scales pt_clust_5="13000.00000" pt_clust_6="13000.00000" pt_clust_7="13000.00000" pt_clust_8="13000.00000" pt_clust_9="21.15428"></scales>
<clustering>
<clus scale="   21.154">  1  9  2 -1</clus>
<clus scale="   82.703">  5  6 -1 -1</clus>
<clus scale="   94.451">  1  5  2 -1</clus>
<clus scale="   94.876">  7  8 -1 -1</clus>
<clus scale="   21.154">  1  5  2 -1</clus>
</clustering>
</event>
<event>
 9    1  0.1175034E-005  0.1074374E+03  0.7546771E-02  0.1266097E+00
         -2   -1    0    0    0  501 -0.00000000000E+00  0.00000000000E+00  0.44121985527E+02  0.44121985527E+02  0.00000000000E+00 0.  1.
          2   -1    0    0  502    0  0.00000000000E+00 -0.00000000000E+00 -0.67711337126E+03  0.67711337126E+03  0.00000000000E+00 0. -1.
         23    2    1    2    0    0  0.64915802022E+02 -0.34551441019E+02 -0.64775029207E+02  0.13300416697E+03  0.89924638417E+02 0.  0.
         23    2    1    2    0    0 -0.41807750255E+02  0.33542987069E+02 -0.54576497065E+03  0.55599667782E+03  0.91650873400E+02 0.  0.
        -11    1    3    3    0    0  0.87347065159E+02 -0.24156401144E+02 -0.57113533019E+02  0.10712141318E+03  0.00000000000E+00 0.  1.
         11    1    3    3    0    0 -0.22431263137E+02 -0.10395039875E+02 -0.76614961882E+01  0.25882753790E+02  0.00000000000E+00 0. -1.
        -13    1    4    4    0    0  0.25806273416E+02 -0.27232276962E+01 -0.84524321344E+02  0.88417988076E+02  0.00000000000E+00 0.  1.
         13    1    4    4    0    0 -0.67614023671E+02  0.36266214765E+02 -0.46124064930E+03  0.46757868974E+03  0.00000000000E+00 0. -1.
         21    1    1    2  502  501 -0.23108051767E+02  0.10084539496E+01 -0.22451385873E+02  0.32234511994E+02  0.00000000000E+00 0.  1.
<scales pt_clust_5="13000.00000" pt_clust_6="13000.00000" pt_clust_7="13000.00000" pt_clust_8="13000.00000" pt_clust_9="23.13005"></scales>
<clustering>
<clus scale="   23.130">  1  9  2 -1</clus>
<clus scale="   89.925">  5  6 -1 -1</clus>
<clus scale="   91.651">  7  8 -1 -1</clus>
<clus scale="  105.969">  1  5  2 -1</clus>
<clus scale="  107.437">  2  5  1 -1</clus>
</clustering>
</event>
<event>
 9    1  0.1175034E-005  0.1378614E+03  0.7546771E-02  0.1223238E+00
          2   -1    0    0  502    0  0.00000000000E+00  0.00000000000E+00  0.47801237444E+03  0.47801237444E+03  0.00000000000E+00 0. -1.
         -2   -1    0    0    0  501 -0.00000000000E+00 -0.00000000000E+00 -0.61166390222E+02  0.61166390222E+02  0.00000000000E+00 0.  1.
         23    2    1    2    0    0 -0.32344892791E+02  0.41112769247E+02  0.45919450613E+02  0.13509425442E+03  0.11578173322E+03 0.  0.
         23    2    1    2    0    0  0.43244715278E+02 -0.67605182988E+02  0.34243645396E+03  0.36368229800E+03  0.92528496751E+02 0.  0.
        -11    1    4    4    0    0  0.36810421051E+02 -0.90932078738E+02  0.28233236802E+03  0.29888997319E+03  0.00000000000E+00 0. -1.
         11    1    4    4    0    0  0.64342942273E+01  0.23326895750E+02  0.60104085939E+02  0.64792324808E+02  0.00000000000E+00 0.  1.
        -11    1    3    3    0    0 -0.58263975310E+02  0.60286433021E+02  0.56570431323E+02  0.10114029131E+03  0.00000000000E+00 0.  1.
         11    1    3    3    0    0  0.25919082518E+02 -0.19173663775E+02 -0.10650980709E+02  0.33953963115E+02  0.00000000000E+00 0. -1.
         21    1    1    2  502  501 -0.10899822487E+02  0.26492413741E+02  0.28490079650E+02  0.40402212248E+02  0.00000000000E+00 0. -1.
<scales pt_clust_5="13000.00000" pt_clust_6="13000.00000" pt_clust_7="13000.00000" pt_clust_8="13000.00000" pt_clust_9="28.64706"></scales>
<clustering>
<clus scale="   28.647">  2  9  1 -1</clus>
<clus scale="   92.528">  5  6 -1 -1</clus>
<clus scale="  115.782">  7  8 -1 -1</clus>
<clus scale="  119.004">  1  5  2 -1</clus>
<clus scale="  119.004">  1  5  2 -1</clus>
</clustering>
</event>
<event>
 9    1  0.1175034E-005  0.1065597E+03  0.7546771E-02  0.1267938E+00
          2   -1    0    0  502    0  0.00000000000E+00  0.00000000000E+00  0.60117049546E+03  0.60117049546E+03  0.00000000000E+00 0. -1.
         -2   -1    0    0    0  501 -0.00000000000E+00 -0.00000000000E+00 -0.27931683961E+02  0.27931683961E+02  0.00000000000E+00 0.  1.
         23    2    1    2    0    0 -0.58941779143E+02 -0.35286455602E+02  0.25854285702E+03  0.28179834375E+03  0.88581207661E+02 0.  0.
         23    2    1    2    0    0  0.29382422710E+02  0.38210385399E+02  0.29313793275E+03  0.31060161204E+03  0.90665062005E+02 0.  0.
        -13    1    3    3    0    0  0.63868829352E+01  0.23064721367E+02  0.44539392544E+02  0.50562151196E+02  0.00000000000E+00 0.  1.
         13    1    3    3    0    0 -0.65328662078E+02 -0.58351176969E+02  0.21400346447E+03  0.23123619256E+03  0.00000000000E+00 0. -1.
        -13    1    4    4    0    0 -0.24867297093E+02  0.26458319521E+02  0.19036123410E+03  0.19379325217E+03  0.00000000000E+00 0. -1.
         13    1    4    4    0    0  0.54249719804E+02  0.11752065879E+02  0.10277669864E+03  0.11680835987E+03  0.00000000000E+00 0.  1.
         21    1    1    2  502  501  0.29559356433E+02 -0.29239297974E+01  0.21558021735E+02  0.36702223629E+02  0.00000000000E+00 0.  1.
<scales pt_clust_5="13000.00000" pt_clust_6="13000.00000" pt_clust_7="13000.00000" pt_clust_8="13000.00000" pt_clust_9="29.70362"></scales>
<clustering>
<clus scale="   29.704">  2  9  1 -1</clus>
<clus scale="   88.581">  5  6 -1 -1</clus>
<clus scale="   90.665">  7  8 -1 -1</clus>
<clus scale="  104.792">  2  5  1 -1</clus>
<clus scale="  106.560">  1  5  2 -1</clus>
</clustering>
</event>
<event>
 9    1  0.1175034E-005  0.1225392E+03  0.7546771E-02  0.1239247E+00
          2   -1    0    0  502    0  0.00000000000E+00  0.00000000000E+00  0.15786458966E+03  0.15786458966E+03  0.00000000000E+00 0. -1.
         -2   -1    0    0    0  501 -0.00000000000E+00 -0.00000000000E+00 -0.66112620721E+03  0.66112620721E+03  0.00000000000E+00 0.  1.
         23    2    1    2    0    0  0.13699937355E+03  0.54612034049E+02 -0.45368363136E+03  0.48578003229E+03  0.91662968472E+02 0.  0.
         23    2    1    2    0    0 -0.74558592439E+02 -0.21589930967E+02  0.10770119252E+03  0.16079832160E+03  0.90727308636E+02 0.  0.
        -11    1    3    3    0    0  0.11136355723E+02  0.35006747258E+02 -0.18262020096E+03  0.18627836313E+03  0.00000000000E+00 0. -1.
         11    1    3    3    0    0  0.12586301783E+03  0.19605286792E+02 -0.27106343040E+03  0.29950166916E+03  0.00000000000E+00 0.  1.
        -11    1    4    4    0    0 -0.45789945604E+00 -0.41730266129E+02  0.28847540014E+02  0.50732685203E+02  0.00000000000E+00 0.  1.
         11    1    4    4    0    0 -0.74100692983E+02  0.20140335161E+02  0.78853652511E+02  0.11006563640E+03  0.00000000000E+00 0. -1.
         21    1    1    2  502  501 -0.62440781113E+02 -0.33022103082E+02 -0.15727917872E+03  0.17241244299E+03  0.00000000000E+00 0.  1.
<scales pt_clust_5="13000.00000" pt_clust_6="13000.00000" pt_clust_7="13000.00000" pt_clust_8="13000.00000" pt_clust_9="70.63505"></scales>
<clustering>
<clus scale="   70.635">  2  9  1 -1</clus>
<clus scale="   90.727">  7  8 -1 -1</clus>
<clus scale="   91.663">  5  6 -1 -1</clus>
<clus scale="  121.841">  1  7  2 -1</clus>
<clus scale="  121.841">  1  5  2 -1</clus>
</clustering>
</event>
<event>
 9    1  0.1175034E-005  0.1223175E+03  0.7546771E-02  0.1240265E+00
          2   -1    0    0  502    0  0.00000000000E+00  0.00000000000E+00  0.10710215159E+03  0.10710215159E+03  0.00000000000E+00 0. -1.
         -2   -1    0    0    0  501 -0.00000000000E+00 -0.00000000000E+00 -0.28359843185E+03  0.28359843185E+03  0.00000000000E+00 0.  1.
         23    2    1    2    0    0 -0.69191590739E+02  0.31518741332E+02 -0.20030566431E+03  0.23399012016E+03  0.94064392279E+02 0.  0.
         23    2    1    2    0    0  0.69773158098E+02 -0.57696246579E+02  0.23541474753E+02  0.13052512812E+03  0.91024488891E+02 0.  0.
        -11    1    4    4    0    0  0.28358266252E+02  0.89284880351E+00 -0.29780365441E+02  0.41132208907E+02  0.00000000000E+00 0.  1.
         11    1    4    4    0    0  0.41414891846E+02 -0.58589095382E+02  0.53321840194E+02  0.89392919216E+02  0.00000000000E+00 0. -1.
        -11    1    3    3    0    0  0.20490476463E+02 -0.32888429334E+01 -0.63059485573E+02  0.66386556125E+02  0.00000000000E+00 0. -1.
         11    1    3    3    0    0 -0.89682067201E+02  0.34807584266E+02 -0.13724617874E+03  0.16760356404E+03  0.00000000000E+00 0.  1.
         21    1    1    2  502  501 -0.58156735917E+00  0.26177505246E+02  0.26790930699E+00  0.26185335150E+02  0.00000000000E+00 0. -1.
<scales pt_clust_5="13000.00000" pt_clust_6="13000.00000" pt_clust_7="13000.00000" pt_clust_8="13000.00000" pt_clust_9="26.18396"></scales>
<clustering>
<clus scale="   26.184">  1  9  2 -1</clus>
<clus scale="   91.024">  5  6 -1 -1</clus>
<clus scale="   94.064">  7  8 -1 -1</clus>
<clus scale="  119.996">  1  5  2 -1</clus>
<clus scale="   26.184">  1  5  2 -1</clus>
</clustering>
</event>
<event>
 9    1  0.1175034E-005  0.1964468E+03  0.7546771E-02  0.1178591E+00
          1   -1    0    0  502    0  0.00000000000E+00  0.00000000000E+00  0.80154425123E+02  0.80154425123E+02  0.00000000000E+00 0. -1.
         -1   -1    0    0    0  501 -0.00000000000E+00 -0.00000000000E+00 -0.80074418293E+03  0.80074418293E+03  0.00000000000E+00 0.  1.
         23    2    1    2    0    0  0.45491322976E+02 -0.76602076894E+01 -0.17551795212E+03  0.20626169835E+03  0.98026513973E+02 0.  0.
         23    2    1    2    0    0 -0.19238032635E+03 -0.62903087889E+02 -0.39609244623E+03  0.45384196515E+03  0.90090592971E+02 0.  0.
        -11    1    3    3    0    0  0.51505847138E+02 -0.45955267745E+02 -0.10220699586E+03  0.12333291907E+03  0.00000000000E+00 0.  1.
         11    1    3    3    0    0 -0.60145241614E+01  0.38295060056E+02 -0.73310956260E+02  0.82928779283E+02  0.00000000000E+00 0. -1.
        -11    1    4    4    0    0 -0.11291912646E+03  0.10432729388E+02 -0.20555682767E+03  0.23476196533E+03  0.00000000000E+00 0. -1.
         11    1    4    4    0    0 -0.79461199889E+02 -0.73335817277E+02 -0.19053561856E+03  0.21907999982E+03  0.00000000000E+00 0.  1.
         21    1    1    2  502  501  0.14688900337E+03  0.70563295578E+02 -0.14897935946E+03  0.22079494455E+03  0.00000000000E+00 0.  1.
<scales pt_clust_5="13000.00000" pt_clust_6="13000.00000" pt_clust_7="13000.00000" pt_clust_8="13000.00000" pt_clust_9="174.57099"></scales>
<clustering>
<clus scale="   90.091">  7  8 -1 -1</clus>
<clus scale="   98.027">  5  6 -1 -1</clus>
<clus scale="  108.339">  2  5  1 -1</clus>
<clus scale="  174.571">  1  9  2 -1</clus>
<clus scale="  174.571">  1  5  2 -1</clus>
</clustering>
</event>
<event>
 9    1  0.1175034E-005  0.1281386E+03  0.7546771E-02  0.1230987E+00
          3   -1    0    0  502    0  0.00000000000E+00  0.00000000000E+00  0.43633228245E+02  0.43633228245E+02  0.00000000000E+00 0. -1.
         -3   -1    0    0    0  501 -0.00000000000E+00 -0.00000000000E+00 -0.47332476102E+03  0.47332476102E+03  0.00000000000E+00 0.  1.
         23    2    1    2    0    0 -0.10313700308E+02 -0.76455940917E+02 -0.17966338490E+03  0.21644002723E+03  0.92819557194E+02 0.  0.
         23    2    1    2    0    0  0.23148980965E+02  0.96614711375E+02 -0.16741546938E+03  0.21451810678E+03  0.90109938269E+02 0.  0.
        -11    1    4    4    0    0  0.23510782608E+02 -0.76836805503E+01 -0.59508046259E+02  0.64443800440E+02  0.00000000000E+00 0.  1.
         11    1    4    4    0    0 -0.36180164359E+00  0.10429839192E+03 -0.10790742312E+03  0.15007430634E+03  0.00000000000E+00 0. -1.
        -11    1    3    3    0    0  0.39938942358E+02 -0.46702053842E+02 -0.10485751361E+03  0.12153723344E+03  0.00000000000E+00 0.  1.
         11    1    3    3    0    0 -0.50252642667E+02 -0.29753887075E+02 -0.74805871283E+02  0.94902793791E+02  0.00000000000E+00 0. -1.
         21    1    1    2  502  501 -0.12835280657E+02 -0.20158770458E+02 -0.82612678496E+02  0.85999855256E+02  0.00000000000E+00 0.  1.
<scales pt_clust_5="13000.00000" pt_clust_6="13000.00000" pt_clust_7="13000.00000" pt_clust_8="13000.00000" pt_clust_9="23.89813"></scales>
<clustering>
<clus scale="   23.898">  2  9  1 -1</clus>
<clus scale="   90.110">  5  6 -1 -1</clus>
<clus scale="   92.820">  7  8 -1 -1</clus>
<clus scale="  126.190">  1  5  2 -1</clus>
<clus scale="  126.190">  1  5  2 -1</clus>
</clustering>
</event>
<event>
 9    1  0.1175034E-005  0.2074310E+03  0.7546771E-02  0.1143682E+00
         -1   -1    0    0    0  501 -0.00000000000E+00  0.00000000000E+00  0.15704324121E+03  0.15704324121E+03  0.00000000000E+00 0.  1.
          1   -1    0    0  502    0  0.00000000000E+00 -0.00000000000E+00 -0.44688543023E+03  0.44688543023E+03  0.00000000000E+00 0. -1.
         23    2    1    2    0    0 -0.19857769730E+03  0.17129491332E+01 -0.17315339951E+03  0.27896724290E+03  0.91676533467E+02 0.  0.
         23    2    1    2    0    0  0.17481845801E+03  0.32416498977E+01 -0.17356323475E+03  0.26312493428E+03  0.92404182941E+02 0.  0.
        -11    1    3    3    0    0 -0.10463284140E+03  0.39316445177E+02 -0.12241312084E+03  0.16576726611E+03  0.00000000000E+00 0. -1.
         11    1    3    3    0    0 -0.93944855901E+02 -0.37603496044E+02 -0.50740278673E+02  0.11319997679E+03  0.00000000000E+00 0.  1.
        -11    1    4    4    0    0  0.15810652322E+03  0.18065059813E+02 -0.17962586382E+03  0.23997806154E+03  0.00000000000E+00 0.  1.
         11    1    4    4    0    0  0.16711934794E+02 -0.14823409915E+02  0.60626290673E+01  0.23146872732E+02  0.00000000000E+00 0. -1.
         21    1    1    2  502  501  0.23759239288E+02 -0.49545990309E+01  0.56874445233E+02  0.61836494270E+02  0.00000000000E+00 0.  1.
<scales pt_clust_5="13000.00000" pt_clust_6="13000.00000" pt_clust_7="13000.00000" pt_clust_8="13000.00000" pt_clust_9="24.27034"></scales>
<clustering>
<clus scale="   24.270">  1  9  2 -1</clus>
<clus scale="   91.677">  5  6 -1 -1</clus>
<clus scale="   92.404">  7  8 -1 -1</clus>
<clus scale="  207.108">  1  5  2 -1</clus>
<clus scale="  207.431">  2  5  1 -1</clus>
</clustering>
</event>
<event>
 9    1  0.1175034E-005  0.1101351E+03  0.7546771E-02  0.1263498E+00
         -1   -1    0    0    0  501 -0.00000000000E+00  0.00000000000E+00  0.75958183122E+02  0.75958183122E+02  0.00000000000E+00 0.  1.
          1   -1    0    0  502    0  0.00000000000E+00 -0.00000000000E+00 -0.41131372547E+03  0.41131372547E+03  0.00000000000E+00 0. -1.
         23    2    1    2    0    0 -0.13151184698E+02 -0.66968110030E+02 -0.11957542703E+02  0.11584710220E+03  0.92843345698E+02 0.  0.
         23    2    1    2    0    0  0.32618123628E+01  0.41830687535E+02 -0.32662897512E+03  0.34421949630E+03  0.10020044113E+03 0.  0.
        -11    1    4    4    0    0  0.46957754398E+02  0.43761259728E+02 -0.21307196288E+03  0.22253031235E+03  0.00000000000E+00 0.  1.
         11    1    4    4    0    0 -0.43695942035E+02 -0.19305721931E+01 -0.11355701225E+03  0.12168918395E+03  0.00000000000E+00 0. -1.
        -13    1    3    3    0    0  0.30560345475E+02 -0.28340258208E+02  0.23237223401E+02  0.47718691330E+02  0.00000000000E+00 0. -1.
         13    1    3    3    0    0 -0.43711530174E+02 -0.38627851822E+02 -0.35194766103E+02  0.68128410869E+02  0.00000000000E+00 0.  1.
         21    1    1    2  502  501  0.98893723355E+01  0.25137422495E+02  0.32309754762E+01  0.27205310096E+02  0.00000000000E+00 0.  1.
<scales pt_clust_5="13000.00000" pt_clust_6="13000.00000" pt_clust_7="13000.00000" pt_clust_8="13000.00000" pt_clust_9="27.01277"></scales>
<clustering>
<clus scale="   27.013">  1  9  2 -1</clus>
<clus scale="   92.843">  7  8 -1 -1</clus>
<clus scale="  100.200">  5  6 -1 -1</clus>
<clus scale="  103.487">  1  7  2 -1</clus>
<clus scale="  110.135">  2  5  1 -1</clus>
</clustering>
</event>
<event>
 9    1  0.1175034E-005  0.3357043E+03  0.7546771E-02  0.1068761E+00
          1   -1    0    0  502    0  0.00000000000E+00  0.00000000000E+00  0.59841916646E+03  0.59841916646E+03  0.00000000000E+00 0. -1.
         -1   -1    0    0    0  501 -0.00000000000E+00 -0.00000000000E+00 -0.40925885397E+03  0.40925885397E+03  0.00000000000E+00 0.  1.
         23    2    1    2    0    0 -0.20508040010E+03  0.25584658134E+03 -0.10238242113E+03  0.35485856081E+03  0.89033669687E+02 0.  0.
         23    2    1    2    0    0  0.24865562886E+03 -0.20542673845E+03  0.40204573915E+03  0.52377731399E+03  0.93124280632E+02 0.  0.
        -11    1    3    3    0    0 -0.17715968954E+03  0.25587310142E+03 -0.99755352250E+02  0.32681451915E+03  0.00000000000E+00 0. -1.
         11    1    3    3    0    0 -0.27920710557E+02 -0.26520085280E-01 -0.26270688797E+01  0.28044041653E+02  0.00000000000E+00 0.  1.
        -11    1    4    4    0    0  0.41378187843E+02 -0.22272428874E+02  0.17629817615E+02  0.50189899245E+02  0.00000000000E+00 0. -1.
         11    1    4    4    0    0  0.20727744102E+03 -0.18315430957E+03  0.38441592154E+03  0.47358741474E+03  0.00000000000E+00 0.  1.
         21    1    1    2  502  501 -0.43575228767E+02 -0.50419842888E+02 -0.11050300553E+03  0.12904214564E+03  0.00000000000E+00 0. -1.
<scales pt_clust_5="13000.00000" pt_clust_6="13000.00000" pt_clust_7="13000.00000" pt_clust_8="13000.00000" pt_clust_9="66.64054"></scales>
<clustering>
<clus scale="   66.641">  2  9  1 -1</clus>
<clus scale="   89.034">  5  6 -1 -1</clus>
<clus scale="   93.124">  7  8 -1 -1</clus>
<clus scale="  334.593">  2  5  1 -1</clus>
<clus scale="  335.704">  1  5  2 -1</clus>
</clustering>
</event>
<event>
 9    1  0.1175034E-005  0.2061182E+03  0.7546771E-02  0.1145346E+00
          3   -1    0    0  502    0  0.00000000000E+00  0.00000000000E+00  0.12105099658E+03  0.12105099658E+03  0.00000000000E+00 0. -1.
         -3   -1    0    0    0  501 -0.00000000000E+00 -0.00000000000E+00 -0.49979185626E+03  0.49979185626E+03  0.00000000000E+00 0.  1.
         23    2    1    2    0    0  0.15679205013E+03 -0.68819696470E+02 -0.14300648770E+03  0.24127379528E+03  0.91881941419E+02 0.  0.
         23    2    1    2    0    0 -0.16584894429E+03  0.91065582017E+02 -0.89693146103E+02  0.23156586025E+03  0.98889203797E+02 0.  0.
        -11    1    4    4    0    0 -0.38127962211E+02 -0.14244909379E+02 -0.43781758890E+02  0.59778770120E+02  0.00000000000E+00 0.  1.
         11    1    4    4    0    0 -0.12772098208E+03  0.10531049140E+03 -0.45911387213E+02  0.17178709013E+03  0.00000000000E+00 0. -1.
        -13    1    3    3    0    0  0.56635220462E+02  0.12149969034E+02 -0.15323080159E+02  0.59916331078E+02  0.00000000000E+00 0. -1.
         13    1    3    3    0    0  0.10015682967E+03 -0.80969665504E+02 -0.12768340754E+03  0.18135746420E+03  0.00000000000E+00 0.  1.
         21    1    1    2  502  501  0.90568941579E+01 -0.22245885546E+02 -0.14604122589E+03  0.14800319731E+03  0.00000000000E+00 0.  1.
<scales pt_clust_5="13000.00000" pt_clust_6="13000.00000" pt_clust_7="13000.00000" pt_clust_8="13000.00000" pt_clust_9="24.01888"></scales>
<clustering>
<clus scale="   24.019">  2  9  1 -1</clus>
<clus scale="   91.882">  7  8 -1 -1</clus>
<clus scale="   98.889">  5  6 -1 -1</clus>
<clus scale="  202.850">  2  7  1 -1</clus>
<clus scale="  206.118">  1  5  2 -1</clus>
</clustering>
</event>
<event>
 9    1  0.1175034E-005  0.1713883E+03  0.7546771E-02  0.1176596E+00
         -1   -1    0    0    0  501 -0.00000000000E+00  0.00000000000E+00  0.11694414557E+03  0.11694414557E+03  0.00000000000E+00 0.  1.
          1   -1    0    0  502    0  0.00000000000E+00 -0.00000000000E+00 -0.12564964479E+04  0.12564964479E+04  0.00000000000E+00 0. -1.
         23    2    1    2    0    0  0.13959346730E+03 -0.75971807458E+02 -0.44862331958E+03  0.48444219445E+03  0.90351011395E+02 0.  0.
         23    2    1    2    0    0 -0.12495385128E+03  0.58554978087E+02 -0.77982655482E+03  0.79723542925E+03  0.91720900844E+02 0.  0.
        -11    1    4    4    0    0 -0.22016777187E+02  0.55601027734E+02 -0.21823341551E+03  0.22627866980E+03  0.00000000000E+00 0. -1.
         11    1    4    4    0    0 -0.10293707410E+03  0.29539503524E+01 -0.56159313931E+03  0.57095675945E+03  0.00000000000E+00 0.  1.
        -13    1    3    3    0    0  0.87244328829E+02 -0.52855349509E+02 -0.38754226146E+03  0.40074214316E+03  0.00000000000E+00 0. -1.
         13    1    3    3    0    0  0.52349138471E+02 -0.23116457949E+02 -0.61081058116E+02  0.83700051299E+02  0.00000000000E+00 0.  1.
         21    1    1    2  502  501 -0.14639616015E+02  0.17416829371E+02  0.88897572055E+02  0.91762969762E+02  0.00000000000E+00 0.  1.
<scales pt_clust_5="13000.00000" pt_clust_6="13000.00000" pt_clust_7="13000.00000" pt_clust_8="13000.00000" pt_clust_9="22.75224"></scales>
<clustering>
<clus scale="   22.752">  1  9  2 -1</clus>
<clus scale="   90.351">  7  8 -1 -1</clus>
<clus scale="   91.721">  5  6 -1 -1</clus>
<clus scale="  170.659">  1  7  2 -1</clus>
<clus scale="  171.388">  2  5  1 -1</clus>
</clustering>
</event>
<event>
 9    1  0.1342611E-005  0.1011100E+03  0.7546771E-02  0.1278660E+00
          1   -1    0    0  502    0  0.00000000000E+00  0.00000000000E+00  0.20818626699E+03  0.20818626699E+03  0.00000000000E+00 0. -1.
         -1   -1    0    0    0  501 -0.00000000000E+00 -0.00000000000E+00 -0.10028088872E+03  0.10028088872E+03  0.00000000000E+00 0.  1.
         23    2    1    2    0    0 -0.36402575470E+02  0.42788110163E+01 -0.40331341301E+02  0.10652970242E+03  0.91534172204E+02 0.  0.
         23    2    1    2    0    0  0.36265429044E+02 -0.26920901945E+02  0.14829188486E+03  0.17929487981E+03  0.90090257561E+02 0.  0.
        -13    1    3    3    0    0 -0.41489966706E+02  0.30487531437E+02  0.72253654998E+01  0.51991468694E+02  0.00000000000E+00 0. -1.
         13    1    3    3    0    0  0.50873912363E+01 -0.26208720420E+02 -0.47556706801E+02  0.54538233721E+02  0.00000000000E+00 0.  1.
        -13    1    4    4    0    0  0.58118583342E+02 -0.44114352766E+02  0.10832069351E+03  0.13060328668E+03  0.00000000000E+00 0. -1.
         13    1    4    4    0    0 -0.21853154298E+02  0.17193450821E+02  0.39971191353E+02  0.48691593136E+02  0.00000000000E+00 0.  1.
         21    1    1    2  502  501  0.13714642620E+00  0.22642090929E+02 -0.55165285859E-01  0.22642573484E+02  0.00000000000E+00 0. -1.
<scales pt_clust_5="13000.00000" pt_clust_6="13000.00000" pt_clust_7="13000.00000" pt_clust_8="13000.00000" pt_clust_9="22.64251"></scales>
<clustering>
<clus scale="   22.643">  2  9  1 -1</clus>
<clus scale="   90.090">  7  8 -1 -1</clus>
<clus scale="   91.534">  5  6 -1 -1</clus>
<clus scale="   99.805">  1  7  2 -1</clus>
<clus scale="   99.805">  1  5  2 -1</clus>
</clustering>
</event>
<event>
 9    1  0.1175034E-005  0.1288373E+03  0.7546771E-02  0.1229390E+00
          2   -1    0    0  502    0  0.00000000000E+00  0.00000000000E+00  0.10883186169E+04  0.10883186169E+04  0.00000000000E+00 0.  1.
         -2   -1    0    0    0  501 -0.00000000000E+00 -0.00000000000E+00 -0.28899385423E+02  0.28899385423E+02  0.00000000000E+00 0. -1.
         23    2    1    2    0    0 -0.73991475441E+02 -0.12514469749E+00  0.29316960768E+03  0.31579103363E+03  0.91108747948E+02 0.  0.
         23    2    1    2    0    0  0.83130676710E+02  0.75501094589E+02  0.61876182145E+03  0.63554233812E+03  0.91851767348E+02 0.  0.
        -11    1    3    3    0    0 -0.80000370479E+02 -0.30992621134E+02  0.22093167951E+03  0.23700508192E+03  0.00000000000E+00 0. -1.
         11    1    3    3    0    0  0.60088950384E+01  0.30867476436E+02  0.72237928170E+02  0.78785951714E+02  0.00000000000E+00 0.  1.
        -13    1    4    4    0    0  0.74511049686E+01 -0.20322878396E+02  0.12806277128E+03  0.12987921982E+03  0.00000000000E+00 0. -1.
         13    1    4    4    0    0  0.75679571741E+02  0.95823972985E+02  0.49069905017E+03  0.50566311831E+03  0.00000000000E+00 0.  1.
         21    1    1    2  502  501 -0.91392012690E+01 -0.75375949891E+02  0.14748780238E+03  0.16588463061E+03  0.00000000000E+00 0.  1.
<scales pt_clust_5="13000.00000" pt_clust_6="13000.00000" pt_clust_7="13000.00000" pt_clust_8="13000.00000" pt_clust_9="75.92798"></scales>
<clustering>
<clus scale="   75.928">  2  9  1 -1</clus>
<clus scale="   91.109">  5  6 -1 -1</clus>
<clus scale="   91.852">  7  8 -1 -1</clus>
<clus scale="  128.309">  2  5  1 -1</clus>
<clus scale="  128.837">  1  5  2 -1</clus>
</clustering>
</event>
<event>
 9    1  0.1175034E-005  0.9413315E+02  0.7546771E-02  0.1294830E+00
         -2   -1    0    0    0  501 -0.00000000000E+00  0.00000000000E+00  0.12753102064E+03  0.12753102064E+03  0.00000000000E+00 0.  1.
          2   -1    0    0  502    0  0.00000000000E+00 -0.00000000000E+00 -0.16012512993E+03  0.16012512993E+03  0.00000000000E+00 0. -1.
         23    2    1    2    0    0 -0.56969227493E+01  0.18987204831E+02  0.82672990051E+02  0.12574785531E+03  0.92653823203E+02 0.  0.
         23    2    1    2    0    0 -0.10236899476E+01  0.12540464942E+01 -0.10540654401E+03  0.13841137117E+03  0.89691401897E+02 0.  0.
        -11    1    4    4    0    0  0.37123734301E+02  0.21623252661E+02 -0.33403729170E+02  0.54420086609E+02  0.00000000000E+00 0.  1.
         11    1    4    4    0    0 -0.38147424248E+02 -0.20369206167E+02 -0.72002814841E+02  0.83991284558E+02  0.00000000000E+00 0. -1.
        -13    1    3    3    0    0 -0.36158610807E+02  0.42248819724E+02  0.56894734186E+02  0.79557643766E+02  0.00000000000E+00 0.  1.
         13    1    3    3    0    0  0.30461688057E+02 -0.23261614893E+02  0.25778255865E+02  0.46190211541E+02  0.00000000000E+00 0. -1.
         21    1    1    2  502  501  0.67206126969E+01 -0.20241251325E+02 -0.98605553297E+01  0.23496924089E+02  0.00000000000E+00 0. -1.
<scales pt_clust_5="13000.00000" pt_clust_6="13000.00000" pt_clust_7="13000.00000" pt_clust_8="13000.00000" pt_clust_9="21.32780"></scales>
<clustering>
<clus scale="   21.328">  2  9  1 -1</clus>
<clus scale="   89.691">  5  6 -1 -1</clus>
<clus scale="   91.219">  2  5  1 -1</clus>
<clus scale="   92.654">  7  8 -1 -1</clus>
<clus scale="   21.328">  2  5  1 -1</clus>
</clustering>
</event>
<event>
 9    1  0.1175034E-005  0.9531564E+02  0.7546771E-02  0.1291396E+00
         -1   -1    0    0    0  501 -0.00000000000E+00  0.00000000000E+00  0.43183009658E+02  0.43183009658E+02  0.00000000000E+00 0.  1.
          1   -1    0    0  502    0  0.00000000000E+00 -0.00000000000E+00 -0.40306376508E+03  0.40306376508E+03  0.00000000000E+00 0. -1.
         23    2    1    2    0    0 -0.20292494536E+02 -0.42949190371E+02 -0.15366141649E+03  0.18471023110E+03  0.90827420231E+02 0.  0.
         23    2    1    2    0    0  0.30866528428E+02 -0.12256565382E+02 -0.16963760191E+03  0.19447158152E+03  0.89102828600E+02 0.  0.
        -11    1    4    4    0    0 -0.14592817583E+02  0.28632642479E+02 -0.77424748943E+02  0.83829411838E+02  0.00000000000E+00 0. -1.
         11    1    4    4    0    0  0.45459346011E+02 -0.40889207861E+02 -0.92212852964E+02  0.11064216968E+03  0.00000000000E+00 0.  1.
        -13    1    3    3    0    0 -0.43170557772E+02 -0.59269072280E+02 -0.12232827721E+03  0.14262092200E+03  0.00000000000E+00 0. -1.
         13    1    3    3    0    0  0.22878063236E+02  0.16319881909E+02 -0.31333139279E+02  0.42089309094E+02  0.00000000000E+00 0.  1.
         21    1    1    2  502  501 -0.10574033891E+02  0.55205755753E+02 -0.36581737023E+02  0.67064962123E+02  0.00000000000E+00 0. -1.
<scales pt_clust_5="13000.00000" pt_clust_6="13000.00000" pt_clust_7="13000.00000" pt_clust_8="13000.00000" pt_clust_9="56.20930"></scales>
<clustering>
<clus scale="   56.209">  1  9  2 -1</clus>
<clus scale="   89.103">  5  6 -1 -1</clus>
<clus scale="   90.827">  7  8 -1 -1</clus>
<clus scale="   93.674">  2  5  1 -1</clus>
<clus scale="   93.674">  2  5  1 -1</clus>
</clustering>
</event>
<event>
 9    1  0.1175034E-005  0.9266204E+02  0.7546771E-02  0.1296584E+00
          1   -1    0    0  502    0  0.00000000000E+00  0.00000000000E+00  0.41913997325E+03  0.41913997325E+03  0.00000000000E+00 0. -1.
         -1   -1    0    0    0  501 -0.00000000000E+00 -0.00000000000E+00 -0.78614785737E+02  0.78614785737E+02  0.00000000000E+00 0.  1.
         23    2    1    2    0    0 -0.15270386574E+02 -0.39698644012E+00  0.37781837159E+02  0.99963320483E+02  0.91279000424E+02 0.  0.
         23    2    1    2    0    0 -0.20660261905E+01  0.19058256439E+02  0.34006870462E+03  0.35260320688E+03  0.91185591159E+02 0.  0.
        -11    1    3    3    0    0 -0.35704375765E+02  0.25786402577E+02 -0.65953855489E+01  0.44533584149E+02  0.00000000000E+00 0. -1.
         11    1    3    3    0    0  0.20433989191E+02 -0.26183389017E+02  0.44377222708E+02  0.55429736333E+02  0.00000000000E+00 0.  1.
        -11    1    4    4    0    0 -0.30331759069E+02  0.44563527343E+02  0.22635431250E+03  0.23268476178E+03  0.00000000000E+00 0. -1.
         11    1    4    4    0    0  0.28265732878E+02 -0.25505270905E+02  0.11371439212E+03  0.11991844510E+03  0.00000000000E+00 0.  1.
         21    1    1    2  502  501  0.17336412764E+02 -0.18661269999E+02 -0.37325354272E+02  0.45188231621E+02  0.00000000000E+00 0.  1.
<scales pt_clust_5="13000.00000" pt_clust_6="13000.00000" pt_clust_7="13000.00000" pt_clust_8="13000.00000" pt_clust_9="25.47144"></scales>
<clustering>
<clus scale="   25.471">  2  9  1 -1</clus>
<clus scale="   91.186">  7  8 -1 -1</clus>
<clus scale="   91.279">  5  6 -1 -1</clus>
<clus scale="   92.570">  1  7  2 -1</clus>
<clus scale="   92.570">  1  5  2 -1</clus>
</clustering>
</event>
<event>
 9    1  0.1175034E-005  0.1355476E+03  0.7546771E-02  0.1219915E+00
          1   -1    0    0  502    0  0.00000000000E+00  0.00000000000E+00  0.61461538634E+03  0.61461538634E+03  0.00000000000E+00 0. -1.
         -1   -1    0    0    0  501 -0.00000000000E+00 -0.00000000000E+00 -0.61959878762E+02  0.61959878762E+02  0.00000000000E+00 0.  1.
         23    2    1    2    0    0  0.10207497215E+03  0.49403144385E+02  0.13030715317E+03  0.19549323231E+03  0.91529662402E+02 0.  0.
         23    2    1    2    0    0 -0.98869105072E+02  0.60546701652E+01  0.39912442470E+03  0.42087241820E+03  0.89562978041E+02 0.  0.
        -11    1    3    3    0    0  0.80030518235E+02  0.33633064465E+02  0.30407597345E+02  0.91982002862E+02  0.00000000000E+00 0.  1.
         11    1    3    3    0    0  0.22044453915E+02  0.15770079920E+02  0.99899555822E+02  0.10351122945E+03  0.00000000000E+00 0. -1.
        -11    1    4    4    0    0 -0.23531157980E+02 -0.38886653793E+02  0.15131528212E+03  0.15799430953E+03  0.00000000000E+00 0.  1.
         11    1    4    4    0    0 -0.75337947091E+02  0.44941323958E+02  0.24780914258E+03  0.26287810867E+03  0.00000000000E+00 0. -1.
         21    1    1    2  502  501 -0.32058670773E+01 -0.55457814550E+02  0.23223929707E+02  0.60209614593E+02  0.00000000000E+00 0.  1.
<scales pt_clust_5="13000.00000" pt_clust_6="13000.00000" pt_clust_7="13000.00000" pt_clust_8="13000.00000" pt_clust_9="55.55040"></scales>
<clustering>
<clus scale="   55.550">  2  9  1 -1</clus>
<clus scale="   89.563">  7  8 -1 -1</clus>
<clus scale="   91.530">  5  6 -1 -1</clus>
<clus scale="  134.227">  1  7  2 -1</clus>
<clus scale="  134.227">  1  5  2 -1</clus>
</clustering>
</event>
<event>
 9    1  0.1175034E-005  0.1058364E+03  0.7546771E-02  0.1269037E+00
          1   -1    0    0  502    0  0.00000000000E+00  0.00000000000E+00  0.13209867776E+03  0.13209867776E+03  0.00000000000E+00 0. -1.
         -1   -1    0    0    0  501 -0.00000000000E+00 -0.00000000000E+00 -0.13761065888E+03  0.13761065888E+03  0.00000000000E+00 0.  1.
         23    2    1    2    0    0  0.33445170805E+02  0.42291608696E+01 -0.57506561244E+02  0.11315363740E+03  0.91434543907E+02 0.  0.
         23    2    1    2    0    0 -0.59252482017E+02 -0.11509538748E+02  0.65317302233E+02  0.12661381991E+03  0.90118717882E+02 0.  0.
        -11    1    3    3    0    0 -0.28057899962E+02 -0.42083601644E+01  0.23411446356E+00  0.28372713215E+02  0.00000000000E+00 0. -1.
         11    1    3    3    0    0  0.61503070768E+02  0.84375210340E+01 -0.57740675708E+02  0.84780924188E+02  0.00000000000E+00 0.  1.
        -13    1    4    4    0    0 -0.56902746288E+02  0.24049060668E+02  0.66748981453E+02  0.90948921814E+02  0.00000000000E+00 0. -1.
         13    1    4    4    0    0 -0.23497357290E+01 -0.35558599417E+02 -0.14316792204E+01  0.35664898091E+02  0.00000000000E+00 0.  1.
         21    1    1    2  502  501  0.25807311211E+02  0.72803778788E+01 -0.13322722107E+02  0.29941879339E+02  0.00000000000E+00 0.  1.
<scales pt_clust_5="13000.00000" pt_clust_6="13000.00000" pt_clust_7="13000.00000" pt_clust_8="13000.00000" pt_clust_9="26.81457"></scales>
<clustering>
<clus scale="   26.815">  2  9  1 -1</clus>
<clus scale="   90.119">  7  8 -1 -1</clus>
<clus scale="   91.435">  5  6 -1 -1</clus>
<clus scale="  104.702">  1  7  2 -1</clus>
<clus scale="  104.702">  1  5  2 -1</clus>
</clustering>
</event>
<event>
 9    1  0.1175034E-005  0.9059240E+02  0.7546771E-02  0.1302462E+00
          2   -1    0    0  502    0  0.00000000000E+00  0.00000000000E+00  0.56132470312E+03  0.56132470312E+03  0.00000000000E+00 0. -1.
         -2   -1    0    0    0  501 -0.00000000000E+00 -0.00000000000E+00 -0.37551509693E+02  0.37551509693E+02  0.00000000000E+00 0.  1.
         23    2    1    2    0    0  0.29583082122E+02 -0.10213474416E+02  0.18411009597E+03  0.20751029135E+03  0.90468335734E+02 0.  0.
         23    2    1    2    0    0  0.84668959978E+01 -0.13887651165E+01  0.34008926402E+03  0.35158408622E+03  0.88752719323E+02 0.  0.
        -11    1    3    3    0    0  0.28243439021E+02 -0.49185155785E+02  0.10719710958E+03  0.12127692155E+03  0.00000000000E+00 0. -1.
         11    1    3    3    0    0  0.13396431009E+01  0.38971681368E+02  0.76912986387E+02  0.86233369802E+02  0.00000000000E+00 0.  1.
        -13    1    4    4    0    0 -0.40021071215E+02 -0.16581277845E+01  0.13343342096E+03  0.13931587619E+03  0.00000000000E+00 0.  1.
         13    1    4    4    0    0  0.48487967213E+02  0.26936266800E+00  0.20665584306E+03  0.21226821003E+03  0.00000000000E+00 0. -1.
         21    1    1    2  502  501 -0.38049978120E+02  0.11602239533E+02 -0.42616656411E+00  0.39781835240E+02  0.00000000000E+00 0.  1.
<scales pt_clust_5="13000.00000" pt_clust_6="13000.00000" pt_clust_7="13000.00000" pt_clust_8="13000.00000" pt_clust_9="39.77955"></scales>
<clustering>
<clus scale="   39.780">  2  9  1 -1</clus>
<clus scale="   88.753">  7  8 -1 -1</clus>
<clus scale="   88.879">  1  7  2 -1</clus>
<clus scale="   90.468">  5  6 -1 -1</clus>
<clus scale="   88.879">  1  5  2 -1</clus>
</clustering>
</event>
<event>
 9    1  0.1175034E-005  0.9892867E+02  0.7546771E-02  0.1284065E+00
          2   -1    0    0  502    0  0.00000000000E+00  0.00000000000E+00  0.12152222716E+03  0.12152222716E+03  0.00000000000E+00 0. -1.
         -2   -1    0    0    0  501 -0.00000000000E+00 -0.00000000000E+00 -0.15205936559E+03  0.15205936559E+03  0.00000000000E+00 0.  1.
         23    2    1    2    0    0 -0.38302354573E+02  0.14415168853E+02 -0.25823666018E+02  0.10176378536E+03  0.89521722639E+02 0.  0.
         23    2    1    2    0    0 -0.44694900857E+01 -0.57282557765E+02  0.21207339541E+02  0.10594723567E+03  0.86451129141E+02 0.  0.
        -11    1    4    4    0    0 -0.29623760180E+02 -0.52011776604E+02  0.41806063812E+02  0.73010540638E+02  0.00000000000E+00 0. -1.
         11    1    4    4    0    0  0.25154270094E+02 -0.52707811604E+01 -0.20598724271E+02  0.32936695032E+02  0.00000000000E+00 0.  1.
        -13    1    3    3    0    0 -0.53108491200E+02  0.40468943231E+02 -0.26377941660E+02  0.71791663931E+02  0.00000000000E+00 0. -1.
         13    1    3    3    0    0  0.14806136627E+02 -0.26053774379E+02  0.55427564133E+00  0.29972121424E+02  0.00000000000E+00 0.  1.
         21    1    1    2  502  501  0.42771844658E+02  0.42867388912E+02 -0.25920811944E+02  0.65870571726E+02  0.00000000000E+00 0.  1.
<scales pt_clust_5="13000.00000" pt_clust_6="13000.00000" pt_clust_7="13000.00000" pt_clust_8="13000.00000" pt_clust_9="60.55612"></scales>
<clustering>
<clus scale="   60.556">  2  9  1 -1</clus>
<clus scale="   86.451">  5  6 -1 -1</clus>
<clus scale="   89.522">  7  8 -1 -1</clus>
<clus scale="   96.159">  1  5  2 -1</clus>
<clus scale="   96.159">  1  5  2 -1</clus>
</clustering>
</event>
<event>
 9    1  0.1175034E-005  0.1063669E+03  0.7546771E-02  0.1267800E+00
          3   -1    0    0  502    0  0.00000000000E+00  0.00000000000E+00  0.49223268024E+03  0.49223268024E+03  0.00000000000E+00 0. -1.
         -3   -1    0    0    0  501 -0.00000000000E+00 -0.00000000000E+00 -0.33011858596E+02  0.33011858596E+02  0.00000000000E+00 0.  1.
         23    2    1    2    0    0  0.45379094917E+02 -0.29617222813E+02  0.17995182924E+03  0.20886984766E+03  0.91145544459E+02 0.  0.
         23    2    1    2    0    0 -0.59153742463E+02  0.86019285055E+00  0.25297044759E+03  0.27504284937E+03  0.90302914986E+02 0.  0.
        -11    1    3    3    0    0  0.23180839536E+02 -0.57132859940E+02  0.15124341758E+03  0.16332815546E+03  0.00000000000E+00 0. -1.
         11    1    3    3    0    0  0.22198255382E+02  0.27515637127E+02  0.28708411661E+02  0.45541692201E+02  0.00000000000E+00 0.  1.
        -13    1    4    4    0    0 -0.26735336858E+02  0.31981132051E+02  0.20546177760E+03  0.20964759263E+03  0.00000000000E+00 0. -1.
         13    1    4    4    0    0 -0.32418405605E+02 -0.31120939201E+02  0.47508669997E+02  0.65395256737E+02  0.00000000000E+00 0.  1.
         21    1    1    2  502  501  0.13774647546E+02  0.28757029963E+02  0.26298544810E+02  0.41331841798E+02  0.00000000000E+00 0.  1.
<scales pt_clust_5="13000.00000" pt_clust_6="13000.00000" pt_clust_7="13000.00000" pt_clust_8="13000.00000" pt_clust_9="31.88585"></scales>
<clustering>
<clus scale="   31.886">  2  9  1 -1</clus>
<clus scale="   90.303">  7  8 -1 -1</clus>
<clus scale="   91.146">  5  6 -1 -1</clus>
<clus scale="  105.646">  1  7  2 -1</clus>
<clus scale="  105.646">  1  5  2 -1</clus>
</clustering>
</event>
<event>
 9    1  0.1175034E-005  0.1695185E+03  0.7546771E-02  0.1178468E+00
         -1   -1    0    0    0  501 -0.00000000000E+00  0.00000000000E+00  0.15246415870E+03  0.15246415870E+03  0.00000000000E+00 0.  1.
          1   -1    0    0  502    0  0.00000000000E+00 -0.00000000000E+00 -0.55546525992E+03  0.55546525992E+03  0.00000000000E+00 0. -1.
         23    2    1    2    0    0  0.10104885999E+03  0.80472927899E+02  0.27073494302E+01  0.15805438300E+03  0.91033477430E+02 0.  0.
         23    2    1    2    0    0 -0.12470493334E+03 -0.75606433768E+02 -0.45974740137E+03  0.49068465831E+03  0.90200374755E+02 0.  0.
        -11    1    3    3    0    0  0.11002390948E+03  0.60501779699E+02  0.23634559619E+02  0.12776665611E+03  0.00000000000E+00 0.  1.
         11    1    3    3    0    0 -0.89750494904E+01  0.19971148200E+02 -0.20927210188E+02  0.30287726888E+02  0.00000000000E+00 0. -1.
        -11    1    4    4    0    0 -0.20715666156E+02  0.14504829815E+02 -0.14478211900E+03  0.14697411640E+03  0.00000000000E+00 0.  1.
         11    1    4    4    0    0 -0.10398926718E+03 -0.90111263583E+02 -0.31496528237E+03  0.34371054190E+03  0.00000000000E+00 0. -1.
         21    1    1    2  502  501  0.23656073344E+02 -0.48664941314E+01  0.54038950726E+02  0.59190377316E+02  0.00000000000E+00 0.  1.
<scales pt_clust_5="13000.00000" pt_clust_6="13000.00000" pt_clust_7="13000.00000" pt_clust_8="13000.00000" pt_clust_9="24.15145"></scales>
<clustering>
<clus scale="   24.151">  1  9  2 -1</clus>
<clus scale="   90.200">  7  8 -1 -1</clus>
<clus scale="   91.033">  5  6 -1 -1</clus>
<clus scale="  169.073">  2  7  1 -1</clus>
<clus scale="  169.073">  2  5  1 -1</clus>
</clustering>
</event>
<event>
 9    1  0.1175034E-005  0.2446909E+03  0.7546771E-02  0.1116726E+00
          1   -1    0    0  502    0  0.00000000000E+00  0.00000000000E+00  0.71863754556E+03  0.71863754556E+03  0.00000000000E+00 0. -1.
         -1   -1    0    0    0  501 -0.00000000000E+00 -0.00000000000E+00 -0.14882240077E+03  0.14882240077E+03  0.00000000000E+00 0.  1.
         23    2    1    2    0    0  0.18884758994E+03 -0.16153898203E+03  0.12197742850E+03  0.29153456637E+03  0.91409274052E+02 0.  0.
         23    2    1    2    0    0 -0.18972950750E+03  0.11249453518E+03  0.46605520314E+03  0.52359935992E+03  0.91085294485E+02 0.  0.
        -11    1    3    3    0    0  0.94238483066E+02 -0.69072314638E+02  0.83422252353E+01  0.11713867449E+03  0.00000000000E+00 0.  1.
         11    1    3    3    0    0  0.94609106871E+02 -0.92466667395E+02  0.11363520326E+03  0.17439589188E+03  0.00000000000E+00 0. -1.
        -13    1    4    4    0    0 -0.51162840053E+02  0.77638642935E+02  0.14593252060E+03  0.17303668873E+03  0.00000000000E+00 0.  1.
         13    1    4    4    0    0 -0.13856666745E+03  0.34855892245E+02  0.32012268255E+03  0.35056267119E+03  0.00000000000E+00 0. -1.
         21    1    1    2  502  501  0.88191756412E+00  0.49044446854E+02 -0.18217486860E+02  0.52326020040E+02  0.00000000000E+00 0. -1.
<scales pt_clust_5="13000.00000" pt_clust_6="13000.00000" pt_clust_7="13000.00000" pt_clust_8="13000.00000" pt_clust_9="49.05238"></scales>
<clustering>
<clus scale="   49.052">  2  9  1 -1</clus>
<clus scale="   91.085">  7  8 -1 -1</clus>
<clus scale="   91.409">  5  6 -1 -1</clus>
<clus scale="  244.570">  1  7  2 -1</clus>
<clus scale="  244.570">  1  5  2 -1</clus>
</clustering>
</event>
<event>
 9    1  0.1175034E-005  0.9169723E+02  0.7546771E-02  0.1299508E+00
         -1   -1    0    0    0  501 -0.00000000000E+00  0.00000000000E+00  0.23461823442E+02  0.23461823442E+02  0.00000000000E+00 0.  1.
          1   -1    0    0  502    0  0.00000000000E+00 -0.00000000000E+00 -0.85390368940E+03  0.85390368940E+03  0.00000000000E+00 0. -1.
         23    2    1    2    0    0  0.29088109362E+02 -0.77387350239E+01 -0.17471526527E+03  0.19867162224E+03  0.89660378310E+02 0.  0.
         23    2    1    2    0    0  0.43168314799E+02  0.16178011356E+02 -0.40549866546E+03  0.41810564876E+03  0.90873177462E+02 0.  0.
        -11    1    3    3    0    0  0.85413003548E+01 -0.46378875825E+02 -0.11770630478E+03  0.12680192475E+03  0.00000000000E+00 0. -1.
         11    1    3    3    0    0  0.20546809007E+02  0.38640140801E+02 -0.57008960492E+02  0.71869697494E+02  0.00000000000E+00 0.  1.
        -13    1    4    4    0    0  0.60630649932E+02  0.29160783046E+02 -0.37284196516E+03  0.37886350836E+03  0.00000000000E+00 0. -1.
         13    1    4    4    0    0 -0.17462335133E+02 -0.12982771690E+02 -0.32656700292E+02  0.39242140398E+02  0.00000000000E+00 0.  1.
         21    1    1    2  502  501 -0.72256424161E+02 -0.84392763324E+01 -0.25022793523E+03  0.26058824185E+03  0.00000000000E+00 0.  1.
<scales pt_clust_5="13000.00000" pt_clust_6="13000.00000" pt_clust_7="13000.00000" pt_clust_8="13000.00000" pt_clust_9="72.74759"></scales>
<clustering>
<clus scale="   72.748">  2  9  1 -1</clus>
<clus scale="   89.660">  5  6 -1 -1</clus>
<clus scale="   90.495">  1  5  2 -1</clus>
<clus scale="   90.873">  7  8 -1 -1</clus>
<clus scale="   72.748">  2  5  1 -1</clus>
</clustering>
</event>
<event>
 9    1  0.1175034E-005  0.9671991E+02  0.7546771E-02  0.1287711E+00
         -2   -1    0    0    0  501 -0.00000000000E+00  0.00000000000E+00  0.90353975491E+02  0.90353975491E+02  0.00000000000E+00 0.  1.
          2   -1    0    0  502    0  0.00000000000E+00 -0.00000000000E+00 -0.45216733644E+03  0.45216733644E+03  0.00000000000E+00 0. -1.
         23    2    1    2    0    0 -0.76216763899E+01 -0.80395470603E+01  0.18014862905E+02  0.93514366142E+02  0.91091586448E+02 0.  0.
         23    2    1    2    0    0 -0.11288630905E+02  0.33491638971E+02 -0.39988022456E+03  0.41149039696E+03  0.90393748261E+02 0.  0.
        -13    1    4    4    0    0  0.28652488771E+02 -0.16215918481E+02 -0.11966563819E+03  0.12411199011E+03  0.00000000000E+00 0.  1.
         13    1    4    4    0    0 -0.39941119676E+02  0.49707557452E+02 -0.28021458636E+03  0.28737840684E+03  0.00000000000E+00 0. -1.
        -13    1    3    3    0    0  0.16800023144E+02 -0.31551369174E+02 -0.21293512294E+02  0.41607010710E+02  0.00000000000E+00 0.  1.
         13    1    3    3    0    0 -0.24421699534E+02  0.23511822114E+02  0.39308375199E+02  0.51907355432E+02  0.00000000000E+00 0. -1.
         21    1    1    2  502  501  0.18910307295E+02 -0.25452091911E+02  0.20052000701E+02  0.37516548838E+02  0.00000000000E+00 0.  1.
<scales pt_clust_5="13000.00000" pt_clust_6="13000.00000" pt_clust_7="13000.00000" pt_clust_8="13000.00000" pt_clust_9="31.70818"></scales>
<clustering>
<clus scale="   31.708">  1  9  2 -1</clus>
<clus scale="   90.394">  5  6 -1 -1</clus>
<clus scale="   91.092">  7  8 -1 -1</clus>
<clus scale="   96.063">  2  5  1 -1</clus>
<clus scale="   96.063">  2  5  1 -1</clus>
</clustering>
</event>
<event>
 9    1  0.1175034E-005  0.1158053E+03  0.7546771E-02  0.1250702E+00
          4   -1    0    0  502    0  0.00000000000E+00  0.00000000000E+00  0.40031150755E+02  0.40031150755E+02  0.00000000000E+00 0. -1.
         -4   -1    0    0    0  501 -0.00000000000E+00 -0.00000000000E+00 -0.48023891218E+03  0.48023891218E+03  0.00000000000E+00 0.  1.
         23    2    1    2    0    0 -0.80155842818E+02  0.10589184045E+02 -0.18121008706E+03  0.21909655802E+03  0.92893035945E+02 0.  0.
         23    2    1    2    0    0  0.60607535288E+02  0.95077823395E+01 -0.13572178977E+03  0.17474974090E+03  0.91396917166E+02 0.  0.
        -11    1    4    4    0    0  0.34188130793E+02  0.50584714079E+02 -0.70365205604E+02  0.93160634096E+02  0.00000000000E+00 0. -1.
         11    1    4    4    0    0  0.26419404495E+02 -0.41076931740E+02 -0.65356584166E+02  0.81589106803E+02  0.00000000000E+00 0.  1.
        -11    1    3    3    0    0 -0.64678415718E+02  0.49365353946E+02 -0.12222722300E+03  0.14683231821E+03  0.00000000000E+00 0. -1.
         11    1    3    3    0    0 -0.15477427100E+02 -0.38776169901E+02 -0.58982864062E+02  0.72264239807E+02  0.00000000000E+00 0.  1.
         21    1    1    2  502  501  0.19548307530E+02 -0.20096966385E+02 -0.12327588460E+03  0.12642376402E+03  0.00000000000E+00 0.  1.
<scales pt_clust_5="13000.00000" pt_clust_6="13000.00000" pt_clust_7="13000.00000" pt_clust_8="13000.00000" pt_clust_9="28.03613"></scales>
<clustering>
<clus scale="   28.036">  2  9  1 -1</clus>
<clus scale="   91.397">  5  6 -1 -1</clus>
<clus scale="   92.893">  7  8 -1 -1</clus>
<clus scale="  114.609">  1  5  2 -1</clus>
<clus scale="  114.609">  1  5  2 -1</clus>
</clustering>
</event>
<event>
 9    1  0.1175034E-005  0.1967900E+03  0.7546771E-02  0.1152538E+00
         -3   -1    0    0    0  501 -0.00000000000E+00  0.00000000000E+00  0.59040352433E+03  0.59040352433E+03  0.00000000000E+00 0.  1.
          3   -1    0    0  502    0  0.00000000000E+00 -0.00000000000E+00 -0.25253776668E+03  0.25253776668E+03  0.00000000000E+00 0. -1.
         23    2    1    2    0    0 -0.19367979646E+03  0.73094164218E+02  0.27214577423E+03  0.35388566358E+03  0.91198245944E+02 0.  0.
         23    2    1    2    0    0  0.15473303833E+03 -0.70014209629E+02 -0.16593353602E+03  0.25413076888E+03  0.90577075544E+02 0.  0.
        -11    1    4    4    0    0  0.34220161836E+02 -0.15440011840E+02  0.51180024700E+01  0.37889410011E+02  0.00000000000E+00 0.  1.
         11    1    4    4    0    0  0.12051287650E+03 -0.54574197789E+02 -0.17105153849E+03  0.21624135887E+03  0.00000000000E+00 0. -1.
        -13    1    3    3    0    0 -0.94358337850E+02 -0.12380626001E+02  0.11593220241E+03  0.14999017094E+03  0.00000000000E+00 0. -1.
         13    1    3    3    0    0 -0.99321458610E+02  0.85474790218E+02  0.15621357182E+03  0.20389549265E+03  0.00000000000E+00 0.  1.
         21    1    1    2  502  501  0.38946758128E+02 -0.30799545887E+01  0.23165351945E+03  0.23492485854E+03  0.00000000000E+00 0.  1.
<scales pt_clust_5="13000.00000" pt_clust_6="13000.00000" pt_clust_7="13000.00000" pt_clust_8="13000.00000" pt_clust_9="39.06835"></scales>
<clustering>
<clus scale="   39.068">  1  9  2 -1</clus>
<clus scale="   90.577">  5  6 -1 -1</clus>
<clus scale="   91.198">  7  8 -1 -1</clus>
<clus scale="  196.503">  2  5  1 -1</clus>
<clus scale="  196.503">  2  5  1 -1</clus>
</clustering>
</event>
<event>
 9    1  0.1175034E-005  0.1118652E+03  0.7546771E-02  0.1262042E+00
         -2   -1    0    0    0  501 -0.00000000000E+00  0.00000000000E+00  0.52125355944E+02  0.52125355944E+02  0.00000000000E+00 0.  1.
          2   -1    0    0  502    0  0.00000000000E+00 -0.00000000000E+00 -0.84047477870E+03  0.84047477870E+03  0.00000000000E+00 0. -1.
         23    2    1    2    0    0  0.25407014878E+02 -0.30120108008E+02 -0.21303115491E+03  0.23433475264E+03  0.89318340902E+02 0.  0.
         23    2    1    2    0    0  0.29421994728E+02  0.57406248773E+02 -0.58423981994E+03  0.59637557780E+03  0.10082921910E+03 0.  0.
        -11    1    3    3    0    0 -0.20241720510E+02  0.19213965364E+02 -0.40604699774E+02  0.49271141229E+02  0.00000000000E+00 0. -1.
         11    1    3    3    0    0  0.45648735389E+02 -0.49334073373E+02 -0.17242645513E+03  0.18506361141E+03  0.00000000000E+00 0.  1.
        -11    1    4    4    0    0  0.34970573434E+02 -0.20850021660E+02 -0.17380265260E+03  0.17850777703E+03  0.00000000000E+00 0.  1.
         11    1    4    4    0    0 -0.55485787058E+01  0.78256270434E+02 -0.41043716734E+03  0.41786780077E+03  0.00000000000E+00 0. -1.
         21    1    1    2  502  501 -0.54829009606E+02 -0.27286140765E+02  0.89215520948E+01  0.61889804201E+02  0.00000000000E+00 0.  1.
<scales pt_clust_5="13000.00000" pt_clust_6="13000.00000" pt_clust_7="13000.00000" pt_clust_8="13000.00000" pt_clust_9="61.24340"></scales>
<clustering>
<clus scale="   61.243">  1  9  2 -1</clus>
<clus scale="   89.318">  5  6 -1 -1</clus>
<clus scale="  100.829">  7  8 -1 -1</clus>
<clus scale="  101.612">  1  5  2 -1</clus>
<clus scale="  111.865">  2  5  1 -1</clus>
</clustering>
</event>
<event>
 9    1  0.1175034E-005  0.9708724E+02  0.7546771E-02  0.1288087E+00
         -1   -1    0    0    0  501 -0.00000000000E+00  0.00000000000E+00  0.30040811305E+02  0.30040811305E+02  0.00000000000E+00 0.  1.
          1   -1    0    0  502    0  0.00000000000E+00 -0.00000000000E+00 -0.41811929412E+03  0.41811929412E+03  0.00000000000E+00 0. -1.
         23    2    1    2    0    0 -0.43446027478E+01  0.43196818580E+02 -0.17481234301E+03  0.20046718608E+03  0.87993731125E+02 0.  0.
         23    2    1    2    0    0  0.21682036552E+02 -0.19980403983E+02 -0.17791059881E+03  0.20198074595E+03  0.90965451203E+02 0.  0.
        -13    1    3    3    0    0 -0.32914672326E+02  0.54198051356E+02 -0.14241105957E+03  0.15589007125E+03  0.00000000000E+00 0.  1.
         13    1    3    3    0    0  0.28570069579E+02 -0.11001232776E+02 -0.32401283443E+02  0.44577114835E+02  0.00000000000E+00 0. -1.
        -13    1    4    4    0    0 -0.78480136038E+01 -0.37735370661E+02 -0.26684098783E+02  0.46878466745E+02  0.00000000000E+00 0.  1.
         13    1    4    4    0    0  0.29530050155E+02  0.17754966678E+02 -0.15122650002E+03  0.15510227920E+03  0.00000000000E+00 0. -1.
         21    1    1    2  502  501 -0.17337433804E+02 -0.23216414598E+02 -0.35355540997E+02  0.45712173399E+02  0.00000000000E+00 0. -1.
<scales pt_clust_5="13000.00000" pt_clust_6="13000.00000" pt_clust_7="13000.00000" pt_clust_8="13000.00000" pt_clust_9="28.97565"></scales>
<clustering>
<clus scale="   28.976">  1  9  2 -1</clus>
<clus scale="   87.994">  5  6 -1 -1</clus>
<clus scale="   90.965">  7  8 -1 -1</clus>
<clus scale="   94.309">  1  5  2 -1</clus>
<clus scale="   97.087">  2  5  1 -1</clus>
</clustering>
</event>
<event>
 9    1  0.1175034E-005  0.9966742E+02  0.7546771E-02  0.1281042E+00
          2   -1    0    0  502    0  0.00000000000E+00  0.00000000000E+00  0.10319611903E+04  0.10319611903E+04  0.00000000000E+00 0. -1.
         -2   -1    0    0    0  501 -0.00000000000E+00 -0.00000000000E+00 -0.14318818735E+02  0.14318818735E+02  0.00000000000E+00 0.  1.
         23    2    1    2    0    0  0.22456361805E+02  0.47181881331E+02  0.40506738997E+03  0.41790011632E+03  0.88490105061E+02 0.  0.
         23    2    1    2    0    0  0.66983792280E+01 -0.44148011804E+02  0.55474588752E+03  0.56354620232E+03  0.88585592499E+02 0.  0.
        -11    1    3    3    0    0  0.52090511016E+02  0.47189941497E+02  0.23559457444E+03  0.24585588344E+03  0.00000000000E+00 0. -1.
         11    1    3    3    0    0 -0.29634149211E+02 -0.80601666711E-02  0.16947281553E+03  0.17204423289E+03  0.00000000000E+00 0.  1.
        -13    1    4    4    0    0 -0.12822562229E+02 -0.67473474860E+02  0.39627262210E+03  0.40218040596E+03  0.00000000000E+00 0.  1.
         13    1    4    4    0    0  0.19520941457E+02  0.23325463056E+02  0.15847326541E+03  0.16136579635E+03  0.00000000000E+00 0. -1.
         21    1    1    2  502  501 -0.29154741033E+02 -0.30338695267E+01  0.57829094121E+02  0.64833690439E+02  0.00000000000E+00 0.  1.
<scales pt_clust_5="13000.00000" pt_clust_6="13000.00000" pt_clust_7="13000.00000" pt_clust_8="13000.00000" pt_clust_9="29.31217"></scales>
<clustering>
<clus scale="   29.312">  2  9  1 -1</clus>
<clus scale="   88.490">  5  6 -1 -1</clus>
<clus scale="   88.586">  7  8 -1 -1</clus>
<clus scale="   99.583">  2  5  1 -1</clus>
<clus scale="   99.667">  1  5  2 -1</clus>
</clustering>
</event>
<event>
 9    1  0.1175034E-005  0.1762115E+03  0.7546771E-02  0.1171608E+00
         -1   -1    0    0    0  501 -0.00000000000E+00  0.00000000000E+00  0.82881890418E+03  0.82881890418E+03  0.00000000000E+00 0.  1.
          1   -1    0    0  502    0  0.00000000000E+00 -0.00000000000E+00 -0.49439889093E+02  0.49439889093E+02  0.00000000000E+00 0. -1.
         23    2    1    2    0    0  0.37472282618E+02 -0.15272664155E+03  0.43991936173E+03  0.47592513660E+03  0.90807994231E+02 0.  0.
         23    2    1    2    0    0 -0.55531683612E+02  0.13670414126E+03  0.21894514585E+03  0.27942471070E+03  0.91484435503E+02 0.  0.
        -11    1    4    4    0    0 -0.44920726602E+02  0.35473695128E+02  0.29561526708E+02  0.64421569259E+02  0.00000000000E+00 0.  1.
         11    1    4    4    0    0 -0.10610957010E+02  0.10123044613E+03  0.18938361914E+03  0.21500314145E+03  0.00000000000E+00 0. -1.
        -13    1    3    3    0    0 -0.58541479947E+01 -0.79511159229E+02  0.11418455777E+03  0.13926380982E+03  0.00000000000E+00 0. -1.
         13    1    3    3    0    0  0.43326430613E+02 -0.73215482322E+02  0.32573480396E+03  0.33666132678E+03  0.00000000000E+00 0.  1.
         21    1    1    2  502  501  0.18059400994E+02  0.16022500293E+02  0.12051450751E+03  0.12290894597E+03  0.00000000000E+00 0.  1.
<scales pt_clust_5="13000.00000" pt_clust_6="13000.00000" pt_clust_7="13000.00000" pt_clust_8="13000.00000" pt_clust_9="24.14255"></scales>
<clustering>
<clus scale="   24.143">  1  9  2 -1</clus>
<clus scale="   90.808">  7  8 -1 -1</clus>
<clus scale="   91.484">  5  6 -1 -1</clus>
<clus scale="  175.861">  1  7  2 -1</clus>
<clus scale="  176.212">  2  5  1 -1</clus>
</clustering>
</event>
<event>
 9    1  0.1175034E-005  0.9309815E+02  0.7546771E-02  0.1302463E+00
          2   -1    0    0  502    0  0.00000000000E+00  0.00000000000E+00  0.49500170044E+03  0.49500170044E+03  0.00000000000E+00 0. -1.
         -2   -1    0    0    0  501 -0.00000000000E+00 -0.00000000000E+00 -0.28962829120E+02  0.28962829120E+02  0.00000000000E+00 0.  1.
         23    2    1    2    0    0 -0.48820161369E+00 -0.19532334879E+02  0.15781018222E+03  0.18335469357E+03  0.91286031772E+02 0.  0.
         23    2    1    2    0    0  0.25239650787E+02 -0.10619105540E+01  0.29348732467E+03  0.30519705571E+03  0.79826470872E+02 0.  0.
        -11    1    4    4    0    0  0.52830433163E+02 -0.10041777077E+02  0.16791090965E+03  0.17631212532E+03  0.00000000000E+00 0. -1.
         11    1    4    4    0    0 -0.27590782377E+02  0.89798665234E+01  0.12557641502E+03  0.12888493040E+03  0.00000000000E+00 0.  1.
        -13    1    3    3    0    0 -0.25142693801E+02 -0.37907458371E+02  0.14132599606E+03  0.14846604869E+03  0.00000000000E+00 0. -1.
         13    1    3    3    0    0  0.24654492187E+02  0.18375123492E+02  0.16484186159E+02  0.34888644882E+02  0.00000000000E+00 0.  1.
         21    1    1    2  502  501 -0.24751449173E+02  0.20594245433E+02  0.14741364436E+02  0.35412780271E+02  0.00000000000E+00 0.  1.
<scales pt_clust_5="13000.00000" pt_clust_6="13000.00000" pt_clust_7="13000.00000" pt_clust_8="13000.00000" pt_clust_9="32.19871"></scales>
<clustering>
<clus scale="   32.199">  2  9  1 -1</clus>
<clus scale="   79.826">  5  6 -1 -1</clus>
<clus scale="   81.893">  1  5  2 -1</clus>
<clus scale="   91.286">  7  8 -1 -1</clus>
<clus scale="   81.893">  1  5  2 -1</clus>
</clustering>
</event>
<event>
 9    1  0.1175034E-005  0.1033496E+03  0.7546771E-02  0.1273430E+00
         -2   -1    0    0    0  501 -0.00000000000E+00  0.00000000000E+00  0.61273442299E+02  0.61273442299E+02  0.00000000000E+00 0.  1.
          2   -1    0    0  502    0  0.00000000000E+00 -0.00000000000E+00 -0.22235289215E+03  0.22235289215E+03  0.00000000000E+00 0. -1.
         23    2    1    2    0    0  0.25090262025E+02  0.52916885976E+02 -0.79670390959E+02  0.13365778332E+03  0.89929493359E+02 0.  0.
         23    2    1    2    0    0 -0.60611420434E+01 -0.44671297993E+02 -0.81056631295E+02  0.12922677364E+03  0.89983994360E+02 0.  0.
        -11    1    3    3    0    0 -0.31466513688E+02  0.26754322971E+02 -0.49363694364E+02  0.64363884303E+02  0.00000000000E+00 0. -1.
         11    1    3    3    0    0  0.56556775713E+02  0.26162563005E+02 -0.30306696595E+02  0.69293899014E+02  0.00000000000E+00 0.  1.
        -13    1    4    4    0    0 -0.45296642264E+02 -0.20665341223E+02 -0.22159361518E+02  0.54496600180E+02  0.00000000000E+00 0. -1.
         13    1    4    4    0    0  0.39235500221E+02 -0.24005956770E+02 -0.58897269777E+02  0.74730173459E+02  0.00000000000E+00 0.  1.
         21    1    1    2  502  501 -0.19029119982E+02 -0.82455879827E+01 -0.35242760030E+00  0.20741777495E+02  0.00000000000E+00 0. -1.
<scales pt_clust_5="13000.00000" pt_clust_6="13000.00000" pt_clust_7="13000.00000" pt_clust_8="13000.00000" pt_clust_9="20.73878"></scales>
<clustering>
<clus scale="   20.739">  1  9  2 -1</clus>
<clus scale="   89.929">  5  6 -1 -1</clus>
<clus scale="   89.984">  7  8 -1 -1</clus>
<clus scale="  103.302">  1  5  2 -1</clus>
<clus scale="  103.350">  2  5  1 -1</clus>
</clustering>
</event>
<event>
 9    1  0.1175034E-005  0.1187666E+03  0.7546771E-02  0.1245274E+00
         -1   -1    0    0    0  501 -0.00000000000E+00  0.00000000000E+00  0.15331037183E+03  0.15331037183E+03  0.00000000000E+00 0.  1.
          1   -1    0    0  502    0  0.00000000000E+00 -0.00000000000E+00 -0.13598014957E+03  0.13598014957E+03  0.00000000000E+00 0. -1.
         23    2    1    2    0    0  0.57898273358E+02 -0.59842328843E+02  0.34210952791E+02  0.12794702756E+03  0.90921604652E+02 0.  0.
         23    2    1    2    0    0 -0.62679212805E+02  0.37779271386E+02 -0.44914045198E+02  0.12535040259E+03  0.91320835017E+02 0.  0.
        -11    1    3    3    0    0  0.38664145390E+02 -0.53738971782E+02 -0.20766421038E+02  0.69383265055E+02  0.00000000000E+00 0. -1.
         11    1    3    3    0    0  0.19234127968E+02 -0.61033570603E+01  0.54977373829E+02  0.58563762509E+02  0.00000000000E+00 0.  1.
        -13    1    4    4    0    0  0.18541555921E+02  0.30070238294E+02 -0.16136170760E+02  0.38837926487E+02  0.00000000000E+00 0. -1.
         13    1    4    4    0    0 -0.81220768726E+02  0.77090330922E+01 -0.28777874438E+02  0.86512476099E+02  0.00000000000E+00 0.  1.
         21    1    1    2  502  501  0.47809394477E+01  0.22063057456E+02  0.28033314669E+02  0.35993091249E+02  0.00000000000E+00 0.  1.
<scales pt_clust_5="13000.00000" pt_clust_6="13000.00000" pt_clust_7="13000.00000" pt_clust_8="13000.00000" pt_clust_9="22.57512"></scales>
<clustering>
<clus scale="   22.575">  1  9  2 -1</clus>
<clus scale="   90.922">  5  6 -1 -1</clus>
<clus scale="   91.321">  7  8 -1 -1</clus>
<clus scale="  118.460">  1  5  2 -1</clus>
<clus scale="  118.767">  2  5  1 -1</clus>
</clustering>
</event>
<event>
 9    1  0.1175034E-005  0.2956295E+03  0.7546771E-02  0.1087455E+00
          1   -1    0    0  502    0  0.00000000000E+00  0.00000000000E+00  0.44851362609E+03  0.44851362609E+03  0.00000000000E+00 0. -1.
         -1   -1    0    0    0  501 -0.00000000000E+00 -0.00000000000E+00 -0.52672977065E+03  0.52672977065E+03  0.00000000000E+00 0.  1.
         23    2    1    2    0    0 -0.27695541251E+02  0.23526820925E+03 -0.27811231266E+03  0.37593671035E+03  0.88677947946E+02 0.  0.
         23    2    1    2    0    0  0.83404114414E+02 -0.27842697976E+03  0.33166943491E+03  0.44987336199E+03  0.88902184549E+02 0.  0.
        -11    1    4    4    0    0  0.32899306718E+02 -0.10502253583E+03  0.19298430552E+03  0.22215994146E+03  0.00000000000E+00 0. -1.
         11    1    4    4    0    0  0.50504807695E+02 -0.17340444392E+03  0.13868512939E+03  0.22771342053E+03  0.00000000000E+00 0.  1.
        -11    1    3    3    0    0  0.22003607521E+02  0.50861878682E+02 -0.30595308108E+02  0.63302151032E+02  0.00000000000E+00 0. -1.
         11    1    3    3    0    0 -0.49699148772E+02  0.18440633057E+03 -0.24751700455E+03  0.31263455932E+03  0.00000000000E+00 0.  1.
         21    1    1    2  502  501 -0.55708573162E+02  0.43158770508E+02 -0.13177326680E+03  0.14943332440E+03  0.00000000000E+00 0.  1.
<scales pt_clust_5="13000.00000" pt_clust_6="13000.00000" pt_clust_7="13000.00000" pt_clust_8="13000.00000" pt_clust_9="70.47074"></scales>
<clustering>
<clus scale="   70.471">  2  9  1 -1</clus>
<clus scale="   88.678">  7  8 -1 -1</clus>
<clus scale="   88.902">  5  6 -1 -1</clus>
<clus scale="  295.562">  2  7  1 -1</clus>
<clus scale="  295.630">  1  5  2 -1</clus>
</clustering>
</event>
<event>
 9    1  0.1175034E-005  0.1302976E+03  0.7546771E-02  0.1241133E+00
         -2   -1    0    0    0  501 -0.00000000000E+00  0.00000000000E+00  0.33175542006E+03  0.33175542006E+03  0.00000000000E+00 0.  1.
          2   -1    0    0  502    0  0.00000000000E+00 -0.00000000000E+00 -0.26276057585E+03  0.26276057585E+03  0.00000000000E+00 0. -1.
         23    2    1    2    0    0  0.28702909639E+02 -0.83343395581E+02  0.23832788233E+03  0.27053283649E+03  0.92832416296E+02 0.  0.
         23    2    1    2    0    0  0.30939832597E+02  0.71963486596E-02 -0.19526645919E+03  0.21827260586E+03  0.92502254535E+02 0.  0.
        -13    1    3    3    0    0 -0.24297862539E+01 -0.44026071511E+02  0.23570823359E+02  0.49997825430E+02  0.00000000000E+00 0. -1.
         13    1    3    3    0    0  0.31132695892E+02 -0.39317324070E+02  0.21475705898E+03  0.22053501106E+03  0.00000000000E+00 0.  1.
        -13    1    4    4    0    0  0.54418442926E+02 -0.22178825214E+02 -0.15998938161E+03  0.17044022250E+03  0.00000000000E+00 0.  1.
         13    1    4    4    0    0 -0.23478610328E+02  0.22186021562E+02 -0.35277077575E+02  0.47832383361E+02  0.00000000000E+00 0. -1.
         21    1    1    2  502  501 -0.59642742236E+02  0.83336199232E+02  0.25933421071E+02  0.10571055355E+03  0.00000000000E+00 0. -1.
<scales pt_clust_5="13000.00000" pt_clust_6="13000.00000" pt_clust_7="13000.00000" pt_clust_8="13000.00000" pt_clust_9="91.43087"></scales>
<clustering>
<clus scale="   92.502">  7  8 -1 -1</clus>
<clus scale="   92.832">  5  6 -1 -1</clus>
<clus scale="   97.539">  2  7  1 -1</clus>
<clus scale="   91.431">  2  9  1 -1</clus>
<clus scale="   97.539">  2  5  1 -1</clus>
</clustering>
</event>
<event>
 9    1  0.1175034E-005  0.9201621E+02  0.7546771E-02  0.1299471E+00
          1   -1    0    0  502    0  0.00000000000E+00  0.00000000000E+00  0.54975478059E+02  0.54975478059E+02  0.00000000000E+00 0. -1.
         -1   -1    0    0    0  501 -0.00000000000E+00 -0.00000000000E+00 -0.53026646000E+03  0.53026646000E+03  0.00000000000E+00 0.  1.
         23    2    1    2    0    0  0.46000517054E+02  0.28269693943E+02 -0.71726738497E+02  0.12753839494E+03  0.90587493638E+02 0.  0.
         23    2    1    2    0    0  0.14855757756E+02  0.72011704157E+01 -0.62186714263E+02  0.10913463195E+03  0.88151177342E+02 0.  0.
        -11    1    3    3    0    0  0.35135000933E+02  0.78080775614E+01 -0.90708145326E+02  0.97587919305E+02  0.00000000000E+00 0.  1.
         11    1    3    3    0    0  0.10865516120E+02  0.20461616382E+02  0.18981406830E+02  0.29950475635E+02  0.00000000000E+00 0. -1.
        -13    1    4    4    0    0  0.48130396084E+02  0.22367753916E+02 -0.38447718095E+02  0.65536848178E+02  0.00000000000E+00 0.  1.
         13    1    4    4    0    0 -0.33274638329E+02 -0.15166583500E+02 -0.23738996168E+02  0.43597783774E+02  0.00000000000E+00 0. -1.
         21    1    1    2  502  501 -0.60856274810E+02 -0.35470864359E+02 -0.34137752918E+03  0.34856891117E+03  0.00000000000E+00 0.  1.
<scales pt_clust_5="13000.00000" pt_clust_6="13000.00000" pt_clust_7="13000.00000" pt_clust_8="13000.00000" pt_clust_9="70.43911"></scales>
<clustering>
<clus scale="   70.439">  2  9  1 -1</clus>
<clus scale="   88.151">  7  8 -1 -1</clus>
<clus scale="   89.619">  1  7  2 -1</clus>
<clus scale="   90.587">  5  6 -1 -1</clus>
<clus scale="   89.619">  1  5  2 -1</clus>
</clustering>
</event>
<event>
 9    1  0.1175034E-005  0.1056898E+03  0.7546771E-02  0.1269314E+00
          2   -1    0    0  502    0  0.00000000000E+00  0.00000000000E+00  0.17098880853E+03  0.17098880853E+03  0.00000000000E+00 0. -1.
         -2   -1    0    0    0  501 -0.00000000000E+00 -0.00000000000E+00 -0.10742433861E+03  0.10742433861E+03  0.00000000000E+00 0.  1.
         23    2    1    2    0    0 -0.24431546070E+02  0.69953658231E+02  0.21222049059E+02  0.11755109409E+03  0.88755110350E+02 0.  0.
         23    2    1    2    0    0  0.20162142561E+02 -0.40265515730E+02  0.67904991006E+02  0.12145318851E+03  0.90066450174E+02 0.  0.
        -11    1    3    3    0    0  0.17215483202E+02  0.38393845973E+02 -0.24004874659E+02  0.48442690655E+02  0.00000000000E+00 0.  1.
         11    1    3    3    0    0 -0.41647029272E+02  0.31559812258E+02  0.45226923718E+02  0.69108403439E+02  0.00000000000E+00 0. -1.
        -13    1    4    4    0    0  0.22579935147E+02 -0.66193774346E+02  0.64591325666E+02  0.95202461022E+02  0.00000000000E+00 0.  1.
         13    1    4    4    0    0 -0.24177925858E+01  0.25928258616E+02  0.33136653399E+01  0.26250727491E+02  0.00000000000E+00 0. -1.
         21    1    1    2  502  501  0.42694035085E+01 -0.29688142501E+02 -0.25562570142E+02  0.39408864532E+02  0.00000000000E+00 0.  1.
<scales pt_clust_5="13000.00000" pt_clust_6="13000.00000" pt_clust_7="13000.00000" pt_clust_8="13000.00000" pt_clust_9="29.99356"></scales>
<clustering>
<clus scale="   29.994">  2  9  1 -1</clus>
<clus scale="   88.755">  5  6 -1 -1</clus>
<clus scale="   90.066">  7  8 -1 -1</clus>
<clus scale="  104.575">  2  5  1 -1</clus>
<clus scale="  105.690">  1  5  2 -1</clus>
</clustering>
</event>
<event>
 9    1  0.1175034E-005  0.1352195E+03  0.7546771E-02  0.1221461E+00
         -1   -1    0    0    0  501 -0.00000000000E+00  0.00000000000E+00  0.37445210635E+02  0.37445210635E+02  0.00000000000E+00 0.  1.
          1   -1    0    0  502    0  0.00000000000E+00 -0.00000000000E+00 -0.10561187825E+04  0.10561187825E+04  0.00000000000E+00 0. -1.
         23    2    1    2    0    0 -0.17666319213E+02 -0.14210927410E+03 -0.35853510024E+03  0.39649363606E+03  0.90291974792E+02 0.  0.
         23    2    1    2    0    0 -0.13643963429E+02  0.77536467440E+02 -0.56120091451E+03  0.57484670402E+03  0.96458307871E+02 0.  0.
        -11    1    3    3    0    0 -0.18929687274E+02 -0.72559741499E+02 -0.81035238958E+02  0.11040814780E+03  0.00000000000E+00 0.  1.
         11    1    3    3    0    0  0.12633680610E+01 -0.69549532602E+02 -0.27749986128E+03  0.28608548826E+03  0.00000000000E+00 0. -1.
        -11    1    4    4    0    0 -0.42895694085E+02  0.13710038480E+01 -0.19455925010E+03  0.19923659810E+03  0.00000000000E+00 0.  1.
         11    1    4    4    0    0  0.29251730655E+02  0.76165463592E+02 -0.36664166441E+03  0.37561010593E+03  0.00000000000E+00 0. -1.
         21    1    1    2  502  501  0.31310282642E+02  0.64572806661E+02 -0.98937557154E+02  0.12222365309E+03  0.00000000000E+00 0. -1.
<scales pt_clust_5="13000.00000" pt_clust_6="13000.00000" pt_clust_7="13000.00000" pt_clust_8="13000.00000" pt_clust_9="71.76337"></scales>
<clustering>
<clus scale="   71.763">  1  9  2 -1</clus>
<clus scale="   90.292">  5  6 -1 -1</clus>
<clus scale="   96.458">  7  8 -1 -1</clus>
<clus scale="  130.892">  1  5  2 -1</clus>
<clus scale="  135.220">  2  5  1 -1</clus>
</clustering>
</event>
<event>
 9    1  0.1175034E-005  0.1024172E+03  0.7546771E-02  0.1275486E+00
          1   -1    0    0  502    0  0.00000000000E+00  0.00000000000E+00  0.14352661297E+03  0.14352661297E+03  0.00000000000E+00 0. -1.
         -1   -1    0    0    0  501 -0.00000000000E+00 -0.00000000000E+00 -0.13730696219E+03  0.13730696219E+03  0.00000000000E+00 0.  1.
         23    2    1    2    0    0 -0.25654016449E+02 -0.16390157740E+01  0.55747146405E+00  0.94916170802E+02  0.91367137269E+02 0.  0.
         23    2    1    2    0    0  0.58888347745E+02 -0.92954716270E+01  0.57300805274E+02  0.12354247764E+03  0.91788442652E+02 0.  0.
        -11    1    4    4    0    0  0.59763535237E+02 -0.42777215351E+02  0.51012203435E+02  0.89464044155E+02  0.00000000000E+00 0.  1.
         11    1    4    4    0    0 -0.87518749249E+00  0.33481743724E+02  0.62886018389E+01  0.34078433489E+02  0.00000000000E+00 0. -1.
        -11    1    3    3    0    0 -0.60035122840E+02  0.35693352044E+01  0.31895333147E+00  0.60141980841E+02  0.00000000000E+00 0.  1.
         11    1    3    3    0    0  0.34381106391E+02 -0.52083509784E+01  0.23851813259E+00  0.34774189962E+02  0.00000000000E+00 0. -1.
         21    1    1    2  502  501 -0.33234331296E+02  0.10934487401E+02 -0.51638625963E+02  0.62374926715E+02  0.00000000000E+00 0.  1.
<scales pt_clust_5="13000.00000" pt_clust_6="13000.00000" pt_clust_7="13000.00000" pt_clust_8="13000.00000" pt_clust_9="34.98691"></scales>
<clustering>
<clus scale="   34.987">  2  9  1 -1</clus>
<clus scale="   91.367">  7  8 -1 -1</clus>
<clus scale="   91.788">  5  6 -1 -1</clus>
<clus scale="  102.040">  2  7  1 -1</clus>
<clus scale="  102.417">  1  5  2 -1</clus>
</clustering>
</event>
<event>
 9    1  0.1175034E-005  0.1251287E+03  0.7546771E-02  0.1243720E+00
         -3   -1    0    0    0  501 -0.00000000000E+00  0.00000000000E+00  0.65259681456E+02  0.65259681456E+02  0.00000000000E+00 0.  1.
          3   -1    0    0  502    0  0.00000000000E+00 -0.00000000000E+00 -0.40908461639E+03  0.40908461639E+03  0.00000000000E+00 0. -1.
         23    2    1    2    0    0  0.17819135148E+02 -0.54057254146E+02 -0.13182187073E+03  0.17022014244E+03  0.91423098758E+02 0.  0.
         23    2    1    2    0    0  0.48476860623E+02 -0.27009467287E+02 -0.14869058787E+03  0.18174996679E+03  0.88569984587E+02 0.  0.
        -11    1    4    4    0    0  0.72936737262E+02 -0.99293383172E+01 -0.93352657445E+02  0.11888262301E+03  0.00000000000E+00 0. -1.
         11    1    4    4    0    0 -0.24459876639E+02 -0.17080128970E+02 -0.55337930421E+02  0.62867343781E+02  0.00000000000E+00 0.  1.
        -11    1    3    3    0    0 -0.14661038763E+02 -0.66423111105E+02 -0.61161272049E+02  0.91475007216E+02  0.00000000000E+00 0. -1.
         11    1    3    3    0    0  0.32480173911E+02  0.12365856959E+02 -0.70660598680E+02  0.78745135224E+02  0.00000000000E+00 0.  1.
         21    1    1    2  502  501 -0.66295995770E+02  0.81066721433E+02 -0.63312476340E+02  0.12237418862E+03  0.00000000000E+00 0.  1.
<scales pt_clust_5="13000.00000" pt_clust_6="13000.00000" pt_clust_7="13000.00000" pt_clust_8="13000.00000" pt_clust_9="85.43423"></scales>
<clustering>
<clus scale="   88.570">  5  6 -1 -1</clus>
<clus scale="   91.423">  7  8 -1 -1</clus>
<clus scale="  104.519">  2  5  1 -1</clus>
<clus scale="   85.434">  1  9  2 -1</clus>
<clus scale="  104.519">  2  5  1 -1</clus>
</clustering>
</event>
<event>
 9    1  0.1175034E-005  0.1059262E+03  0.7546771E-02  0.1268950E+00
          1   -1    0    0  502    0  0.00000000000E+00  0.00000000000E+00  0.27288243157E+03  0.27288243157E+03  0.00000000000E+00 0. -1.
         -1   -1    0    0    0  501 -0.00000000000E+00 -0.00000000000E+00 -0.12964701347E+03  0.12964701347E+03  0.00000000000E+00 0.  1.
         23    2    1    2    0    0  0.37542005433E+02 -0.40552193238E+02 -0.30081383370E+02  0.11016011160E+03  0.90423879671E+02 0.  0.
         23    2    1    2    0    0 -0.55374668911E+02 -0.51546389960E+01  0.20674480068E+03  0.23300141676E+03  0.91941956370E+02 0.  0.
        -11    1    4    4    0    0 -0.20314724126E+02 -0.47287747812E+02  0.11735771845E+03  0.12814699836E+03  0.00000000000E+00 0. -1.
         11    1    4    4    0    0 -0.35059944785E+02  0.42133108816E+02  0.89387082232E+02  0.10485441839E+03  0.00000000000E+00 0.  1.
        -11    1    3    3    0    0 -0.19427160739E+02  0.15134677512E+02  0.99901367170E+00  0.24646928126E+02  0.00000000000E+00 0.  1.
         11    1    3    3    0    0  0.56969166172E+02 -0.55686870749E+02 -0.31080397042E+02  0.85513183477E+02  0.00000000000E+00 0. -1.
         21    1    1    2  502  501  0.17832663478E+02  0.45706832234E+02 -0.33427999208E+02  0.59367916677E+02  0.00000000000E+00 0.  1.
<scales pt_clust_5="13000.00000" pt_clust_6="13000.00000" pt_clust_7="13000.00000" pt_clust_8="13000.00000" pt_clust_9="49.06239"></scales>
<clustering>
<clus scale="   49.062">  2  9  1 -1</clus>
<clus scale="   90.424">  7  8 -1 -1</clus>
<clus scale="   91.942">  5  6 -1 -1</clus>
<clus scale="  104.611">  2  7  1 -1</clus>
<clus scale="  105.926">  1  5  2 -1</clus>
</clustering>
</event>
<event>
 9    1  0.1175034E-005  0.1087789E+03  0.7546771E-02  0.1265012E+00
          1   -1    0    0  502    0  0.00000000000E+00  0.00000000000E+00  0.16523316710E+03  0.16523316710E+03  0.00000000000E+00 0. -1.
         -1   -1    0    0    0  501 -0.00000000000E+00 -0.00000000000E+00 -0.26488822338E+03  0.26488822338E+03  0.00000000000E+00 0.  1.
         23    2    1    2    0    0  0.70891534294E+02 -0.41639088044E+01  0.50942564904E+02  0.12250803068E+03  0.85849431511E+02 0.  0.
         23    2    1    2    0    0 -0.47427652172E+02  0.76518141685E+01  0.43599035787E+02  0.11197322889E+03  0.91264426890E+02 0.  0.
        -11    1    4    4    0    0 -0.60833460394E+02  0.24768014556E+02  0.56545511173E+02  0.86669252231E+02  0.00000000000E+00 0.  1.
         11    1    4    4    0    0  0.13405808222E+02 -0.17116200388E+02 -0.12946475385E+02  0.25303976658E+02  0.00000000000E+00 0. -1.
        -13    1    3    3    0    0  0.31768987034E+02  0.24797275898E+01  0.71162217756E+02  0.77971012704E+02  0.00000000000E+00 0.  1.
         13    1    3    3    0    0  0.39122547260E+02 -0.66436363942E+01 -0.20219652852E+02  0.44537017975E+02  0.00000000000E+00 0. -1.
         21    1    1    2  502  501 -0.23463882122E+02 -0.34879053641E+01 -0.19419665696E+03  0.19564013091E+03  0.00000000000E+00 0.  1.
<scales pt_clust_5="13000.00000" pt_clust_6="13000.00000" pt_clust_7="13000.00000" pt_clust_8="13000.00000" pt_clust_9="23.72170"></scales>
<clustering>
<clus scale="   23.722">  2  9  1 -1</clus>
<clus scale="   85.849">  7  8 -1 -1</clus>
<clus scale="   91.264">  5  6 -1 -1</clus>
<clus scale="  104.277">  2  7  1 -1</clus>
<clus scale="  108.779">  1  5  2 -1</clus>
</clustering>
</event>
<event>
 9    1  0.1175034E-005  0.1835423E+03  0.7546771E-02  0.1165239E+00
          1   -1    0    0  502    0  0.00000000000E+00  0.00000000000E+00  0.38159179754E+03  0.38159179754E+03  0.00000000000E+00 0. -1.
         -1   -1    0    0    0  501 -0.00000000000E+00 -0.00000000000E+00 -0.29558598672E+03  0.29558598672E+03  0.00000000000E+00 0.  1.
         23    2    1    2    0    0  0.12245366955E+03  0.18642678648E+00  0.42358128434E+02  0.15875196434E+03  0.91722620950E+02 0.  0.
         23    2    1    2    0    0 -0.17710736373E+03 -0.53948301722E+02  0.23581929893E+03  0.31152657949E+03  0.84620508358E+02 0.  0.
        -13    1    3    3    0    0  0.44210230001E+02 -0.18150919290E+02  0.59766328515E+02  0.76524599522E+02  0.00000000000E+00 0. -1.
         13    1    3    3    0    0  0.78243439553E+02  0.18337346077E+02 -0.17408200082E+02  0.82227364815E+02  0.00000000000E+00 0.  1.
        -13    1    4    4    0    0 -0.17197208745E+02 -0.32690418823E+02  0.19768381341E+02  0.41895063818E+02  0.00000000000E+00 0.  1.
         13    1    4    4    0    0 -0.15991015499E+03 -0.21257882899E+02  0.21605091759E+03  0.26963151567E+03  0.00000000000E+00 0. -1.
         21    1    1    2  502  501  0.54653694177E+02  0.53761874936E+02 -0.19217161655E+03  0.20689924043E+03  0.00000000000E+00 0.  1.
<scales pt_clust_5="13000.00000" pt_clust_6="13000.00000" pt_clust_7="13000.00000" pt_clust_8="13000.00000" pt_clust_9="76.66398"></scales>
<clustering>
<clus scale="   76.664">  2  9  1 -1</clus>
<clus scale="   84.621">  7  8 -1 -1</clus>
<clus scale="   91.723">  5  6 -1 -1</clus>
<clus scale="  180.098">  1  7  2 -1</clus>
<clus scale="  180.098">  1  5  2 -1</clus>
</clustering>
</event>
<event>
 9    1  0.1175034E-005  0.1568099E+03  0.7546771E-02  0.1194354E+00
         -1   -1    0    0    0  501 -0.00000000000E+00  0.00000000000E+00  0.12249461951E+03  0.12249461951E+03  0.00000000000E+00 0.  1.
          1   -1    0    0  502    0  0.00000000000E+00 -0.00000000000E+00 -0.44807254657E+03  0.44807254657E+03  0.00000000000E+00 0. -1.
         23    2    1    2    0    0  0.50288165081E+02 -0.77954360640E+02  0.73438690494E+01  0.13813396339E+03  0.10208465868E+03 0.  0.
         23    2    1    2    0    0 -0.12519821069E+03  0.39057202530E+02 -0.30356030479E+03  0.34306541758E+03  0.91350780317E+02 0.  0.
        -11    1    3    3    0    0  0.80450579320E+02 -0.54763324775E+02 -0.67636164383E+01  0.97555440446E+02  0.00000000000E+00 0.  1.
         11    1    3    3    0    0 -0.30162414239E+02 -0.23191035866E+02  0.14107485488E+02  0.40578522940E+02  0.00000000000E+00 0. -1.
        -11    1    4    4    0    0 -0.52519327293E+02  0.14988665675E+02 -0.37606958550E+02  0.66311561355E+02  0.00000000000E+00 0.  1.
         11    1    4    4    0    0 -0.72678883401E+02  0.24068536855E+02 -0.26595334624E+03  0.27675385623E+03  0.00000000000E+00 0. -1.
         21    1    1    2  502  501  0.74910045612E+02  0.38897158110E+02 -0.29361491318E+02  0.89367785108E+02  0.00000000000E+00 0.  1.
<scales pt_clust_5="13000.00000" pt_clust_6="13000.00000" pt_clust_7="13000.00000" pt_clust_8="13000.00000" pt_clust_9="84.40678"></scales>
<clustering>
<clus scale="   84.407">  1  9  2 -1</clus>
<clus scale="   91.351">  7  8 -1 -1</clus>
<clus scale="  102.085">  5  6 -1 -1</clus>
<clus scale="  150.043">  2  7  1 -1</clus>
<clus scale="  150.043">  2  5  1 -1</clus>
</clustering>
</event>
<event>
 9    1  0.1175034E-005  0.1326296E+03  0.7546771E-02  0.1223779E+00
          2   -1    0    0  502    0  0.00000000000E+00  0.00000000000E+00  0.66108851028E+03  0.66108851028E+03  0.00000000000E+00 0. -1.
         -2   -1    0    0    0  501 -0.00000000000E+00 -0.00000000000E+00 -0.98563044838E+02  0.98563044838E+02  0.00000000000E+00 0.  1.
         23    2    1    2    0    0  0.37597958884E+02 -0.14503946657E+03  0.11032470405E+03  0.20745792709E+03  0.91745287691E+02 0.  0.
         23    2    1    2    0    0  0.17374629851E+02  0.86475505725E+02  0.45449058000E+03  0.47183837748E+03  0.91048757825E+02 0.  0.
        -11    1    3    3    0    0 -0.22319177992E+02 -0.36869677720E+02  0.21313635970E+01  0.43151611235E+02  0.00000000000E+00 0.  1.
         11    1    3    3    0    0  0.59917136876E+02 -0.10816978885E+03  0.10819334046E+03  0.16430631585E+03  0.00000000000E+00 0. -1.
        -13    1    4    4    0    0 -0.27557127240E+02  0.20509046270E+01  0.62263333907E+02  0.68119925284E+02  0.00000000000E+00 0.  1.
         13    1    4    4    0    0  0.44931757091E+02  0.84424601098E+02  0.39222724609E+03  0.40371845220E+03  0.00000000000E+00 0. -1.
         21    1    1    2  502  501 -0.54972588735E+02  0.58563960843E+02 -0.22898186076E+01  0.80355250551E+02  0.00000000000E+00 0.  1.
<scales pt_clust_5="13000.00000" pt_clust_6="13000.00000" pt_clust_7="13000.00000" pt_clust_8="13000.00000" pt_clust_9="80.32262"></scales>
<clustering>
<clus scale="   80.323">  2  9  1 -1</clus>
<clus scale="   91.049">  7  8 -1 -1</clus>
<clus scale="   91.745">  5  6 -1 -1</clus>
<clus scale="  132.149">  1  7  2 -1</clus>
<clus scale="  132.149">  1  5  2 -1</clus>
</clustering>
</event>
<event>
 9    1  0.1175034E-005  0.9587789E+02  0.7546771E-02  0.1290166E+00
         -1   -1    0    0    0  501 -0.00000000000E+00  0.00000000000E+00  0.51547226021E+02  0.51547226021E+02  0.00000000000E+00 0.  1.
          1   -1    0    0  502    0  0.00000000000E+00 -0.00000000000E+00 -0.24634417558E+03  0.24634417558E+03  0.00000000000E+00 0. -1.
         23    2    1    2    0    0  0.16645649238E+02 -0.15224617086E+02 -0.51287544595E+02  0.10789090493E+03  0.92201781605E+02 0.  0.
         23    2    1    2    0    0  0.97392231190E+01  0.22527211937E+02 -0.11418137370E+03  0.14988039201E+03  0.93938373753E+02 0.  0.
        -11    1    4    4    0    0  0.44497979365E+02  0.34334956293E+02 -0.89362976764E+02  0.10556846597E+03  0.00000000000E+00 0.  1.
         11    1    4    4    0    0 -0.34758756246E+02 -0.11807744356E+02 -0.24818396935E+02  0.44311926035E+02  0.00000000000E+00 0. -1.
        -11    1    3    3    0    0  0.42674601790E+02 -0.76267560458E+01 -0.64510641742E+02  0.77723303736E+02  0.00000000000E+00 0.  1.
         11    1    3    3    0    0 -0.26028952552E+02 -0.75978610398E+01  0.13223097148E+02  0.30167601189E+02  0.00000000000E+00 0. -1.
         21    1    1    2  502  501 -0.26384872357E+02 -0.73025948511E+01 -0.29328031267E+02  0.40120104672E+02  0.00000000000E+00 0.  1.
<scales pt_clust_5="13000.00000" pt_clust_6="13000.00000" pt_clust_7="13000.00000" pt_clust_8="13000.00000" pt_clust_9="27.37680"></scales>
<clustering>
<clus scale="   27.377">  2  9  1 -1</clus>
<clus scale="   92.202">  7  8 -1 -1</clus>
<clus scale="   93.938">  5  6 -1 -1</clus>
<clus scale="   94.177">  1  7  2 -1</clus>
<clus scale="   27.377">  2  5  1 -1</clus>
</clustering>
</event>
<event>
 9    1  0.1175034E-005  0.9532960E+02  0.7546771E-02  0.1291005E+00
         -1   -1    0    0    0  501 -0.00000000000E+00  0.00000000000E+00  0.62422245109E+03  0.62422245109E+03  0.00000000000E+00 0.  1.
          1   -1    0    0  502    0  0.00000000000E+00 -0.00000000000E+00 -0.37498873500E+02  0.37498873500E+02  0.00000000000E+00 0. -1.
         23    2    1    2    0    0 -0.42630063193E+01  0.97906164265E+01  0.39524448493E+03  0.40584365491E+03  0.91525078372E+02 0.  0.
         23    2    1    2    0    0 -0.93406776777E-01 -0.29684784220E+02  0.40402518194E+02  0.10343460621E+03  0.90471869365E+02 0.  0.
        -11    1    4    4    0    0  0.25481460247E+02 -0.15258006810E+02  0.60810433953E+02  0.67675848467E+02  0.00000000000E+00 0.  1.
         11    1    4    4    0    0 -0.25574867024E+02 -0.14426777410E+02 -0.20407915759E+02  0.35758757743E+02  0.00000000000E+00 0. -1.
        -11    1    3    3    0    0  0.29744838424E+02  0.37651804584E+02  0.19290727692E+03  0.19878539004E+03  0.00000000000E+00 0.  1.
         11    1    3    3    0    0 -0.34007844743E+02 -0.27861188158E+02  0.20233720801E+03  0.20705826488E+03  0.00000000000E+00 0. -1.
         21    1    1    2  502  501  0.43564130961E+01  0.19894167794E+02  0.15107657446E+03  0.15244306346E+03  0.00000000000E+00 0.  1.
<scales pt_clust_5="13000.00000" pt_clust_6="13000.00000" pt_clust_7="13000.00000" pt_clust_8="13000.00000" pt_clust_9="20.36557"></scales>
<clustering>
<clus scale="   20.366">  1  9  2 -1</clus>
<clus scale="   90.472">  5  6 -1 -1</clus>
<clus scale="   91.525">  7  8 -1 -1</clus>
<clus scale="   94.319">  2  5  1 -1</clus>
<clus scale="   94.319">  2  5  1 -1</clus>
</clustering>
</event>
<event>
 9    1  0.1175034E-005  0.1751383E+03  0.7546771E-02  0.1212519E+00
          2   -1    0    0  502    0  0.00000000000E+00  0.00000000000E+00  0.38110130966E+03  0.38110130966E+03  0.00000000000E+00 0. -1.
         -2   -1    0    0    0  501 -0.00000000000E+00 -0.00000000000E+00 -0.16027553890E+03  0.16027553890E+03  0.00000000000E+00 0.  1.
         23    2    1    2    0    0  0.14948939267E+03  0.22205103007E+02  0.26628280986E+02  0.17872269175E+03  0.91611080549E+02 0.  0.
         23    2    1    2    0    0 -0.91210688018E+00 -0.21079216000E+02  0.20115782938E+03  0.21390966514E+03  0.69625478330E+02 0.  0.
        -11    1    4    4    0    0 -0.28152004153E+02  0.89336712807E+01  0.57478840838E+02  0.64623238580E+02  0.00000000000E+00 0.  1.
         11    1    4    4    0    0  0.27239897273E+02 -0.30012887281E+02  0.14367898855E+03  0.14928642656E+03  0.00000000000E+00 0. -1.
        -11    1    3    3    0    0  0.13019071524E+01  0.26306545208E+02  0.14290898787E+02  0.29965965213E+02  0.00000000000E+00 0. -1.
         11    1    3    3    0    0  0.14818748551E+03 -0.41014422002E+01  0.12337382199E+02  0.14875672654E+03  0.00000000000E+00 0.  1.
         21    1    1    2  502  501 -0.14857728579E+03 -0.11258870071E+01 -0.69603396165E+01  0.14874449167E+03  0.00000000000E+00 0. -1.
<scales pt_clust_5="13000.00000" pt_clust_6="13000.00000" pt_clust_7="13000.00000" pt_clust_8="13000.00000" pt_clust_9="149.26765"></scales>
<clustering>
<clus scale="   69.625">  5  6 -1 -1</clus>
<clus scale="   72.752">  1  5  2 -1</clus>
<clus scale="   91.611">  7  8 -1 -1</clus>
<clus scale="  149.268">  2  9  1 -1</clus>
<clus scale="   72.752">  1  5  2 -1</clus>
</clustering>
</event>
<event>
 9    1  0.1175034E-005  0.1150502E+03  0.7546771E-02  0.1253847E+00
          1   -1    0    0  502    0  0.00000000000E+00  0.00000000000E+00  0.50569624144E+03  0.50569624144E+03  0.00000000000E+00 0. -1.
         -1   -1    0    0    0  501 -0.00000000000E+00 -0.00000000000E+00 -0.74356878812E+02  0.74356878812E+02  0.00000000000E+00 0.  1.
         23    2    1    2    0    0 -0.42997306741E+02  0.32702891870E+01  0.16983159991E+03  0.19983712563E+03  0.96086634194E+02 0.  0.
         23    2    1    2    0    0  0.78220931493E+02  0.13655188661E+02  0.30141919260E+03  0.32435815922E+03  0.89720162081E+02 0.  0.
        -13    1    4    4    0    0  0.27956260414E+02  0.28264999101E+02  0.35380655142E+02  0.53218919838E+02  0.00000000000E+00 0.  1.
         13    1    4    4    0    0  0.50264671079E+02 -0.14609810440E+02  0.26603853745E+03  0.27113923938E+03  0.00000000000E+00 0. -1.
        -13    1    3    3    0    0 -0.39220403628E+02 -0.36313068172E+02  0.14079925492E+03  0.15060315125E+03  0.00000000000E+00 0. -1.
         13    1    3    3    0    0 -0.37769031135E+01  0.39583357359E+02  0.29032344995E+02  0.49233974376E+02  0.00000000000E+00 0.  1.
         21    1    1    2  502  501 -0.35223624752E+02 -0.16925477848E+02 -0.39911429885E+02  0.55857835408E+02  0.00000000000E+00 0.  1.
<scales pt_clust_5="13000.00000" pt_clust_6="13000.00000" pt_clust_7="13000.00000" pt_clust_8="13000.00000" pt_clust_9="39.07909"></scales>
<clustering>
<clus scale="   39.079">  2  9  1 -1</clus>
<clus scale="   89.720">  5  6 -1 -1</clus>
<clus scale="   96.087">  7  8 -1 -1</clus>
<clus scale="  109.789">  1  5  2 -1</clus>
<clus scale="  109.789">  1  5  2 -1</clus>
</clustering>
</event>
<event>
 9    1  0.1175034E-005  0.1018370E+03  0.7546771E-02  0.1278055E+00
         -1   -1    0    0    0  501 -0.00000000000E+00  0.00000000000E+00  0.12015072063E+03  0.12015072063E+03  0.00000000000E+00 0.  1.
          1   -1    0    0  502    0  0.00000000000E+00 -0.00000000000E+00 -0.25750037324E+03  0.25750037324E+03  0.00000000000E+00 0. -1.
         23    2    1    2    0    0 -0.24619300745E+02  0.30387423415E+02  0.66212366112E+02  0.12526079870E+03  0.98877119670E+02 0.  0.
         23    2    1    2    0    0  0.23910835056E+02 -0.11914371406E+01 -0.19991828380E+03  0.22295928529E+03  0.95762075708E+02 0.  0.
        -13    1    3    3    0    0 -0.32897193296E+02 -0.20656833132E+02 -0.28898622080E+01  0.38952296279E+02  0.00000000000E+00 0. -1.
         13    1    3    3    0    0  0.82778925519E+01  0.51044256548E+02  0.69102228320E+02  0.86308502422E+02  0.00000000000E+00 0.  1.
        -13    1    4    4    0    0  0.32600583751E+01  0.28029388554E+02 -0.10370255727E+02  0.30063546151E+02  0.00000000000E+00 0.  1.
         13    1    4    4    0    0  0.20650776681E+02 -0.29220825695E+02 -0.18954802807E+03  0.19289573914E+03  0.00000000000E+00 0. -1.
         21    1    1    2  502  501  0.70846568864E+00 -0.29195986275E+02 -0.36437349246E+01  0.29431009877E+02  0.00000000000E+00 0. -1.
<scales pt_clust_5="13000.00000" pt_clust_6="13000.00000" pt_clust_7="13000.00000" pt_clust_8="13000.00000" pt_clust_9="29.20458"></scales>
<clustering>
<clus scale="   29.205">  1  9  2 -1</clus>
<clus scale="   95.762">  7  8 -1 -1</clus>
<clus scale="   98.815">  2  7  1 -1</clus>
<clus scale="   98.877">  5  6 -1 -1</clus>
<clus scale="   98.815">  2  5  1 -1</clus>
</clustering>
</event>
<event>
 9    1  0.1175034E-005  0.9282578E+02  0.7546771E-02  0.1297086E+00
          1   -1    0    0  502    0  0.00000000000E+00  0.00000000000E+00  0.37667891730E+03  0.37667891730E+03  0.00000000000E+00 0. -1.
         -1   -1    0    0    0  501 -0.00000000000E+00 -0.00000000000E+00 -0.83358784148E+02  0.83358784148E+02  0.00000000000E+00 0.  1.
         23    2    1    2    0    0  0.39097134215E+01  0.28656359885E+02  0.17482290419E+03  0.19976136580E+03  0.92223004801E+02 0.  0.
         23    2    1    2    0    0 -0.91331581861E+01  0.10619854802E+02  0.17127929520E+03  0.19427745740E+03  0.90614224029E+02 0.  0.
        -13    1    4    4    0    0  0.90048266997E+01  0.38825704880E+02  0.14845632693E+03  0.15371338025E+03  0.00000000000E+00 0. -1.
         13    1    4    4    0    0 -0.18137984886E+02 -0.28205850078E+02  0.22822968269E+02  0.40564077149E+02  0.00000000000E+00 0.  1.
        -13    1    3    3    0    0 -0.20849206778E+02 -0.37390392034E+01  0.98381137155E+00  0.21204662748E+02  0.00000000000E+00 0.  1.
         13    1    3    3    0    0  0.24758920200E+02  0.32395399089E+02  0.17383909282E+03  0.17855670305E+03  0.00000000000E+00 0. -1.
         21    1    1    2  502  501  0.52234447646E+01 -0.39276214688E+02 -0.52782066231E+02  0.65998878255E+02  0.00000000000E+00 0.  1.
<scales pt_clust_5="13000.00000" pt_clust_6="13000.00000" pt_clust_7="13000.00000" pt_clust_8="13000.00000" pt_clust_9="39.62203"></scales>
<clustering>
<clus scale="   39.622">  2  9  1 -1</clus>
<clus scale="   90.614">  5  6 -1 -1</clus>
<clus scale="   91.228">  1  5  2 -1</clus>
<clus scale="   92.223">  7  8 -1 -1</clus>
<clus scale="   91.228">  1  5  2 -1</clus>
</clustering>
</event>
<event>
 9    1  0.1175034E-005  0.1211555E+03  0.7546771E-02  0.1241646E+00
         -2   -1    0    0    0  501 -0.00000000000E+00  0.00000000000E+00  0.77915353684E+02  0.77915353684E+02  0.00000000000E+00 0.  1.
          2   -1    0    0  502    0  0.00000000000E+00 -0.00000000000E+00 -0.30417275453E+03  0.30417275453E+03  0.00000000000E+00 0. -1.
         23    2    1    2    0    0 -0.92739127334E+02  0.58284305817E+02 -0.10643771901E+03  0.17653292462E+03  0.88528410147E+02 0.  0.
         23    2    1    2    0    0  0.56289083734E+02 -0.28797416800E+02 -0.11384246315E+03  0.15829199025E+03  0.89991641827E+02 0.  0.
        -11    1    4    4    0    0  0.16361089689E+02 -0.54056065167E+02 -0.87651799328E+02  0.10427167095E+03  0.00000000000E+00 0.  1.
         11    1    4    4    0    0  0.39927994045E+02  0.25258648366E+02 -0.26190663822E+02  0.54020319299E+02  0.00000000000E+00 0. -1.
        -11    1    3    3    0    0 -0.53484651860E+02 -0.94638564159E+01 -0.15402039434E+02  0.56457022430E+02  0.00000000000E+00 0.  1.
         11    1    3    3    0    0 -0.39254475474E+02  0.67748162233E+02 -0.91035679576E+02  0.12007590219E+03  0.00000000000E+00 0. -1.
         21    1    1    2  502  501  0.36450043600E+02 -0.29486889016E+02 -0.59772186880E+01  0.47263193349E+02  0.00000000000E+00 0. -1.
<scales pt_clust_5="13000.00000" pt_clust_6="13000.00000" pt_clust_7="13000.00000" pt_clust_8="13000.00000" pt_clust_9="46.88371"></scales>
<clustering>
<clus scale="   46.884">  1  9  2 -1</clus>
<clus scale="   88.528">  7  8 -1 -1</clus>
<clus scale="   89.992">  5  6 -1 -1</clus>
<clus scale="  120.073">  1  7  2 -1</clus>
<clus scale="  121.155">  2  5  1 -1</clus>
</clustering>
</event>
<event>
 9    1  0.1175034E-005  0.1026520E+03  0.7546771E-02  0.1275316E+00
         -1   -1    0    0    0  501 -0.00000000000E+00  0.00000000000E+00  0.92462860181E+02  0.92462860181E+02  0.00000000000E+00 0.  1.
          1   -1    0    0  502    0  0.00000000000E+00 -0.00000000000E+00 -0.36764642305E+03  0.36764642305E+03  0.00000000000E+00 0. -1.
         23    2    1    2    0    0  0.43396010612E+02 -0.33156679911E+01  0.45094682317E+02  0.11111175201E+03  0.91750115371E+02 0.  0.
         23    2    1    2    0    0 -0.67590918996E+02  0.72612372588E+01 -0.27661717866E+03  0.29892508532E+03  0.90652552112E+02 0.  0.
        -11    1    3    3    0    0 -0.53141102891E+01 -0.39802332065E+02  0.23543904332E+02  0.46548693184E+02  0.00000000000E+00 0. -1.
         11    1    3    3    0    0  0.48710120902E+02  0.36486664073E+02  0.21550777985E+02  0.64563058828E+02  0.00000000000E+00 0.  1.
        -11    1    4    4    0    0 -0.40353202886E+02 -0.13765807647E+02 -0.25444060985E+03  0.25798818264E+03  0.00000000000E+00 0. -1.
         11    1    4    4    0    0 -0.27237716109E+02  0.21027044906E+02 -0.22176568814E+02  0.40936902676E+02  0.00000000000E+00 0.  1.
         21    1    1    2  502  501  0.24194908383E+02 -0.39455692677E+01 -0.43661066524E+02  0.50072445901E+02  0.00000000000E+00 0. -1.
<scales pt_clust_5="13000.00000" pt_clust_6="13000.00000" pt_clust_7="13000.00000" pt_clust_8="13000.00000" pt_clust_9="24.51451"></scales>
<clustering>
<clus scale="   24.515">  2  9  1 -1</clus>
<clus scale="   90.653">  7  8 -1 -1</clus>
<clus scale="   91.750">  5  6 -1 -1</clus>
<clus scale="  101.672">  2  7  1 -1</clus>
<clus scale="   24.515">  2  5  1 -1</clus>
</clustering>
</event>
<event>
 9    1  0.1175034E-005  0.1405748E+03  0.7546771E-02  0.1213772E+00
         -2   -1    0    0    0  501 -0.00000000000E+00  0.00000000000E+00  0.18272704927E+03  0.18272704927E+03  0.00000000000E+00 0.  1.
          2   -1    0    0  502    0  0.00000000000E+00 -0.00000000000E+00 -0.13340653875E+03  0.13340653875E+03  0.00000000000E+00 0. -1.
         23    2    1    2    0    0  0.17515292782E+02  0.10117639897E+03  0.36157228482E+02  0.14152896596E+03  0.90441438761E+02 0.  0.
         23    2    1    2    0    0  0.63228621612E+01 -0.11233251703E+03 -0.76087577594E+01  0.14107561613E+03  0.84769471529E+02 0.  0.
        -11    1    4    4    0    0 -0.38577860105E+02 -0.59385120565E+02 -0.10516153804E+02  0.71592131730E+02  0.00000000000E+00 0. -1.
         11    1    4    4    0    0  0.44900722266E+02 -0.52947396470E+02  0.29073960448E+01  0.69483484402E+02  0.00000000000E+00 0.  1.
        -13    1    3    3    0    0 -0.25055087309E+02  0.45707374828E+02 -0.15743810648E+02  0.54449876836E+02  0.00000000000E+00 0. -1.
         13    1    3    3    0    0  0.42570380091E+02  0.55469024140E+02  0.51901039130E+02  0.87079089125E+02  0.00000000000E+00 0.  1.
         21    1    1    2  502  501 -0.23838154943E+02  0.11156118066E+02  0.20772039794E+02  0.33529005929E+02  0.00000000000E+00 0.  1.
<scales pt_clust_5="13000.00000" pt_clust_6="13000.00000" pt_clust_7="13000.00000" pt_clust_8="13000.00000" pt_clust_9="26.31951"></scales>
<clustering>
<clus scale="   26.320">  1  9  2 -1</clus>
<clus scale="   84.769">  5  6 -1 -1</clus>
<clus scale="   90.441">  7  8 -1 -1</clus>
<clus scale="  136.994">  2  5  1 -1</clus>
<clus scale="  136.994">  2  5  1 -1</clus>
</clustering>
</event>
<event>
 9    1  0.1175034E-005  0.1004185E+03  0.7546771E-02  0.1279943E+00
          3   -1    0    0  502    0  0.00000000000E+00  0.00000000000E+00  0.33095707371E+03  0.33095707371E+03  0.00000000000E+00 0. -1.
         -3   -1    0    0    0  501 -0.00000000000E+00 -0.00000000000E+00 -0.39867243628E+02  0.39867243628E+02  0.00000000000E+00 0.  1.
         23    2    1    2    0    0 -0.26403308595E+02  0.47687243678E+02  0.12451240493E+03  0.16275961457E+03  0.89532928235E+02 0.  0.
         23    2    1    2    0    0  0.11904567220E+02 -0.33307575215E+02  0.15875293292E+03  0.18619666570E+03  0.90639899163E+02 0.  0.
        -11    1    4    4    0    0 -0.20412584504E+02 -0.53336023935E+02  0.75438131207E+02  0.94616682965E+02  0.00000000000E+00 0.  1.
         11    1    4    4    0    0  0.32317151724E+02  0.20028448719E+02  0.83314801709E+02  0.91579982734E+02  0.00000000000E+00 0. -1.
        -11    1    3    3    0    0  0.36537221127E+01 -0.21801420921E+02  0.57681218573E+02  0.61771956547E+02  0.00000000000E+00 0. -1.
         11    1    3    3    0    0 -0.30057030708E+02  0.69488664599E+02  0.66831186360E+02  0.10098765802E+03  0.00000000000E+00 0.  1.
         21    1    1    2  502  501  0.14498741375E+02 -0.14379668462E+02  0.78244922330E+01  0.21868037069E+02  0.00000000000E+00 0. -1.
<scales pt_clust_5="13000.00000" pt_clust_6="13000.00000" pt_clust_7="13000.00000" pt_clust_8="13000.00000" pt_clust_9="20.42029"></scales>
<clustering>
<clus scale="   20.420">  2  9  1 -1</clus>
<clus scale="   89.533">  7  8 -1 -1</clus>
<clus scale="   90.640">  5  6 -1 -1</clus>
<clus scale="   99.420">  2  7  1 -1</clus>
<clus scale="  100.419">  1  5  2 -1</clus>
</clustering>
</event>
<event>
 9    1  0.1175034E-005  0.2283411E+03  0.7546771E-02  0.1127959E+00
          1   -1    0    0  502    0  0.00000000000E+00  0.00000000000E+00  0.69644213773E+03  0.69644213773E+03  0.00000000000E+00 0. -1.
         -1   -1    0    0    0  501 -0.00000000000E+00 -0.00000000000E+00 -0.10197766880E+03  0.10197766880E+03  0.00000000000E+00 0.  1.
         23    2    1    2    0    0 -0.10755535124E+03  0.17731187843E+03  0.19446172877E+03  0.29784348915E+03  0.88812860885E+02 0.  0.
         23    2    1    2    0    0  0.66757080546E+02 -0.20206280308E+03  0.38735349731E+03  0.45120921794E+03  0.90890826165E+02 0.  0.
        -13    1    4    4    0    0 -0.20006478995E+02 -0.14398839538E+02  0.41946460242E+02  0.48652762601E+02  0.00000000000E+00 0.  1.
         13    1    4    4    0    0  0.86763559542E+02 -0.18766396354E+03  0.34540703707E+03  0.40255645534E+03  0.00000000000E+00 0. -1.
        -13    1    3    3    0    0 -0.91372797815E+02  0.12691731160E+03  0.18796759062E+03  0.24451749894E+03  0.00000000000E+00 0.  1.
         13    1    3    3    0    0 -0.16182553425E+02  0.50394566826E+02  0.64941381490E+01  0.53325990204E+02  0.00000000000E+00 0. -1.
         21    1    1    2  502  501  0.40798270693E+02  0.24750924654E+02  0.12649242844E+02  0.49367099442E+02  0.00000000000E+00 0. -1.
<scales pt_clust_5="13000.00000" pt_clust_6="13000.00000" pt_clust_7="13000.00000" pt_clust_8="13000.00000" pt_clust_9="47.71904"></scales>
<clustering>
<clus scale="   47.719">  2  9  1 -1</clus>
<clus scale="   88.813">  7  8 -1 -1</clus>
<clus scale="   90.891">  5  6 -1 -1</clus>
<clus scale="  227.522">  2  7  1 -1</clus>
<clus scale="  228.341">  1  5  2 -1</clus>
</clustering>
</event>
<event>
 9    1  0.1175034E-005  0.1662556E+03  0.7546771E-02  0.1193085E+00
          1   -1    0    0  502    0  0.00000000000E+00  0.00000000000E+00  0.28127720457E+03  0.28127720457E+03  0.00000000000E+00 0. -1.
         -1   -1    0    0    0  501 -0.00000000000E+00 -0.00000000000E+00 -0.19486074790E+03  0.19486074790E+03  0.00000000000E+00 0.  1.
         23    2    1    2    0    0 -0.94442568333E+02 -0.26079779962E+02  0.14976792080E+02  0.13031422885E+03  0.84604611600E+02 0.  0.
         23    2    1    2    0    0 -0.61421390809E+02 -0.91263334919E+02  0.45745866530E+02  0.14904173352E+03  0.89549821190E+02 0.  0.
        -13    1    4    4    0    0 -0.16877141041E+02  0.15580963345E+02  0.19997032613E+02  0.30454648607E+02  0.00000000000E+00 0.  1.
         13    1    4    4    0    0 -0.44544249768E+02 -0.10684429826E+03  0.25748833917E+02  0.11858708491E+03  0.00000000000E+00 0. -1.
        -13    1    3    3    0    0 -0.95702518517E+02  0.50137592067E+01  0.22191968072E+02  0.98369676623E+02  0.00000000000E+00 0. -1.
         13    1    3    3    0    0  0.12599501846E+01 -0.31093539169E+02 -0.72151759920E+01  0.31944552229E+02  0.00000000000E+00 0.  1.
         21    1    1    2  502  501  0.15586395914E+03  0.11734311488E+03  0.25693798056E+02  0.19678199010E+03  0.00000000000E+00 0.  1.
<scales pt_clust_5="13000.00000" pt_clust_6="13000.00000" pt_clust_7="13000.00000" pt_clust_8="13000.00000" pt_clust_9="140.07762"></scales>
<clustering>
<clus scale="   84.605">  7  8 -1 -1</clus>
<clus scale="   89.550">  5  6 -1 -1</clus>
<clus scale="  129.451">  2  7  1 -1</clus>
<clus scale="  140.078">  2  9  1 -1</clus>
<clus scale="  166.256">  1  5  2 -1</clus>
</clustering>
</event>
<event>
 9    1  0.1175034E-005  0.1631501E+03  0.7546771E-02  0.1185469E+00
         -2   -1    0    0    0  501 -0.00000000000E+00  0.00000000000E+00  0.10242703344E+03  0.10242703344E+03  0.00000000000E+00 0.  1.
          2   -1    0    0  502    0  0.00000000000E+00 -0.00000000000E+00 -0.30889857560E+03  0.30889857560E+03  0.00000000000E+00 0. -1.
         23    2    1    2    0    0  0.10986300919E+03  0.65172217831E+02 -0.63652765808E+02  0.16881833581E+03  0.90170156622E+02 0.  0.
         23    2    1    2    0    0 -0.13200903997E+03 -0.49943795318E+02 -0.12958134982E+03  0.21254761714E+03  0.92002141319E+02 0.  0.
        -13    1    3    3    0    0  0.16260893387E+02  0.35040647775E+02 -0.58815383761E+02  0.70366988121E+02  0.00000000000E+00 0. -1.
         13    1    3    3    0    0  0.93602115801E+02  0.30131570056E+02 -0.48373820474E+01  0.98451347688E+02  0.00000000000E+00 0.  1.
        -13    1    4    4    0    0 -0.82090264924E+02 -0.44056037392E+02 -0.13275360769E+03  0.16218281777E+03  0.00000000000E+00 0. -1.
         13    1    4    4    0    0 -0.49918775051E+02 -0.58877579261E+01  0.31722578703E+01  0.50364799374E+02  0.00000000000E+00 0.  1.
         21    1    1    2  502  501  0.22146030786E+02 -0.15228422513E+02 -0.13237426535E+02  0.29959656091E+02  0.00000000000E+00 0. -1.
<scales pt_clust_5="13000.00000" pt_clust_6="13000.00000" pt_clust_7="13000.00000" pt_clust_8="13000.00000" pt_clust_9="26.87660"></scales>
<clustering>
<clus scale="   26.877">  1  9  2 -1</clus>
<clus scale="   90.170">  5  6 -1 -1</clus>
<clus scale="   92.002">  7  8 -1 -1</clus>
<clus scale="  162.124">  1  5  2 -1</clus>
<clus scale="  163.150">  2  5  1 -1</clus>
</clustering>
</event>
<event>
 9    1  0.1175034E-005  0.2228394E+03  0.7546771E-02  0.1132137E+00
          1   -1    0    0  502    0  0.00000000000E+00  0.00000000000E+00  0.14289334730E+03  0.14289334730E+03  0.00000000000E+00 0. -1.
         -1   -1    0    0    0  501 -0.00000000000E+00 -0.00000000000E+00 -0.11328746190E+04  0.11328746190E+04  0.00000000000E+00 0.  1.
         23    2    1    2    0    0  0.11901554484E+03  0.23290233994E+03 -0.34715438966E+03  0.44507164886E+03  0.95730885791E+02 0.  0.
         23    2    1    2    0    0 -0.38533025234E+02 -0.18109357214E+03 -0.27772497259E+02  0.20823870393E+03  0.91172201385E+02 0.  0.
        -11    1    3    3    0    0  0.89800602713E+02  0.98386052989E+02 -0.11905809186E+03  0.17865831329E+03  0.00000000000E+00 0.  1.
         11    1    3    3    0    0  0.29214942131E+02  0.13451628695E+03 -0.22809629780E+03  0.26641333557E+03  0.00000000000E+00 0. -1.
        -13    1    4    4    0    0 -0.29580818939E+02 -0.12855085845E+03 -0.61103245835E+02  0.14537522041E+03  0.00000000000E+00 0.  1.
         13    1    4    4    0    0 -0.89522062948E+01 -0.52542713696E+02  0.33330748577E+02  0.62863483524E+02  0.00000000000E+00 0. -1.
         21    1    1    2  502  501 -0.80482519611E+02 -0.51808767793E+02 -0.61505438481E+03  0.62245761354E+03  0.00000000000E+00 0. -1.
<scales pt_clust_5="13000.00000" pt_clust_6="13000.00000" pt_clust_7="13000.00000" pt_clust_8="13000.00000" pt_clust_9="95.71617"></scales>
<clustering>
<clus scale="   91.172">  7  8 -1 -1</clus>
<clus scale="   95.716">  2  9  1 -1</clus>
<clus scale="   95.731">  5  6 -1 -1</clus>
<clus scale="  220.919">  1  7  2 -1</clus>
<clus scale="  220.919">  1  5  2 -1</clus>
</clustering>
</event>
<event>
 9    1  0.1175034E-005  0.1365590E+03  0.7546771E-02  0.1219837E+00
         -1   -1    0    0    0  501 -0.00000000000E+00  0.00000000000E+00  0.98054815859E+02  0.98054815859E+02  0.00000000000E+00 0.  1.
          1   -1    0    0  502    0  0.00000000000E+00 -0.00000000000E+00 -0.33155279673E+03  0.33155279673E+03  0.00000000000E+00 0. -1.
         23    2    1    2    0    0  0.97479969350E+02 -0.47205688126E+02  0.29681771223E+01  0.14563308339E+03  0.97311168355E+02 0.  0.
         23    2    1    2    0    0 -0.61051142729E+02  0.28422937305E+02 -0.14298002810E+03  0.18189853976E+03  0.90048236729E+02 0.  0.
        -11    1    4    4    0    0 -0.90054288044E+01 -0.28485974030E+02 -0.17526774549E+02  0.34637209623E+02  0.00000000000E+00 0.  1.
         11    1    4    4    0    0 -0.52045713925E+02  0.56908911335E+02 -0.12545325355E+03  0.14726133014E+03  0.00000000000E+00 0. -1.
        -13    1    3    3    0    0  0.72417706618E+02 -0.62412187845E+02  0.35373504574E+02  0.10193571626E+03  0.00000000000E+00 0.  1.
         13    1    3    3    0    0  0.25062262731E+02  0.15206499719E+02 -0.32405327452E+02  0.43697367131E+02  0.00000000000E+00 0. -1.
         21    1    1    2  502  501 -0.36428826620E+02  0.18782750821E+02 -0.93486129890E+02  0.10207598943E+03  0.00000000000E+00 0. -1.
<scales pt_clust_5="13000.00000" pt_clust_6="13000.00000" pt_clust_7="13000.00000" pt_clust_8="13000.00000" pt_clust_9="40.98599"></scales>
<clustering>
<clus scale="   40.986">  2  9  1 -1</clus>
<clus scale="   90.048">  5  6 -1 -1</clus>
<clus scale="   97.311">  7  8 -1 -1</clus>
<clus scale="  131.482">  2  5  1 -1</clus>
<clus scale="   40.986">  2  5  1 -1</clus>
</clustering>
</event>
<event>
 9    1  0.1175034E-005  0.1114454E+03  0.7546771E-02  0.1258168E+00
         -4   -1    0    0    0  501 -0.00000000000E+00  0.00000000000E+00  0.87224405593E+02  0.87224405593E+02  0.00000000000E+00 0.  1.
          4   -1    0    0  502    0  0.00000000000E+00 -0.00000000000E+00 -0.20033874380E+03  0.20033874380E+03  0.00000000000E+00 0. -1.
         23    2    1    2    0    0 -0.69405866275E+02 -0.16993927021E+02 -0.13040052208E+02  0.11656230321E+03  0.91163368404E+02 0.  0.
         23    2    1    2    0    0  0.52828863343E+02 -0.98478148898E+01 -0.69630033086E+02  0.12715875829E+03  0.91832129689E+02 0.  0.
        -13    1    3    3    0    0 -0.34657289769E+02 -0.47937412594E+01 -0.52177357393E+02  0.62821845833E+02  0.00000000000E+00 0. -1.
         13    1    3    3    0    0 -0.34748576505E+02 -0.12200185762E+02  0.39137305185E+02  0.53740457375E+02  0.00000000000E+00 0.  1.
        -13    1    4    4    0    0  0.26728499130E+02 -0.46501765287E+02 -0.13668216533E+02  0.55350221171E+02  0.00000000000E+00 0.  1.
         13    1    4    4    0    0  0.26100364213E+02  0.36653950397E+02 -0.55961816553E+02  0.71808537123E+02  0.00000000000E+00 0. -1.
         21    1    1    2  502  501  0.16577002932E+02  0.26841741911E+02 -0.30444252912E+02  0.43842087888E+02  0.00000000000E+00 0. -1.
<scales pt_clust_5="13000.00000" pt_clust_6="13000.00000" pt_clust_7="13000.00000" pt_clust_8="13000.00000" pt_clust_9="31.54800"></scales>
<clustering>
<clus scale="   31.548">  2  9  1 -1</clus>
<clus scale="   91.163">  5  6 -1 -1</clus>
<clus scale="   91.832">  7  8 -1 -1</clus>
<clus scale="  110.895">  1  5  2 -1</clus>
<clus scale="   31.548">  2  5  1 -1</clus>
</clustering>
</event>
<event>
 9    1  0.1175034E-005  0.1082274E+03  0.7546771E-02  0.1266647E+00
          3   -1    0    0  502    0  0.00000000000E+00  0.00000000000E+00  0.25176386482E+03  0.25176386482E+03  0.00000000000E+00 0. -1.
         -3   -1    0    0    0  501 -0.00000000000E+00 -0.00000000000E+00 -0.15011952479E+03  0.15011952479E+03  0.00000000000E+00 0.  1.
         23    2    1    2    0    0  0.45053498141E+02  0.11939194811E+02 -0.21610221346E+02  0.11030861773E+03  0.97614688503E+02 0.  0.
         23    2    1    2    0    0 -0.45409292159E+02  0.15890940075E+02  0.19168669688E+03  0.21769919969E+03  0.91294172834E+02 0.  0.
        -11    1    4    4    0    0 -0.53354016952E+02 -0.24744531836E+02  0.13712984307E+03  0.14920970759E+03  0.00000000000E+00 0. -1.
         11    1    4    4    0    0  0.79447247922E+01  0.40635471911E+02  0.54556853812E+02  0.68489492094E+02  0.00000000000E+00 0.  1.
        -13    1    3    3    0    0 -0.24563582953E+02 -0.19876453344E+02 -0.51288111324E+01  0.32011680816E+02  0.00000000000E+00 0. -1.
         13    1    3    3    0    0  0.69617081094E+02  0.31815648155E+02 -0.16481410214E+02  0.78296936915E+02  0.00000000000E+00 0.  1.
         21    1    1    2  502  501  0.35579401863E+00 -0.27830134886E+02 -0.68432135500E+02  0.73875572189E+02  0.00000000000E+00 0.  1.
<scales pt_clust_5="13000.00000" pt_clust_6="13000.00000" pt_clust_7="13000.00000" pt_clust_8="13000.00000" pt_clust_9="27.83241"></scales>
<clustering>
<clus scale="   27.832">  2  9  1 -1</clus>
<clus scale="   91.294">  5  6 -1 -1</clus>
<clus scale="   97.615">  7  8 -1 -1</clus>
<clus scale="  102.563">  1  5  2 -1</clus>
<clus scale="  102.563">  1  5  2 -1</clus>
</clustering>
</event>
<event>
 9    1  0.1175034E-005  0.2876803E+03  0.7546771E-02  0.1091959E+00
          1   -1    0    0  502    0  0.00000000000E+00  0.00000000000E+00  0.10110648955E+04  0.10110648955E+04  0.00000000000E+00 0. -1.
         -1   -1    0    0    0  501 -0.00000000000E+00 -0.00000000000E+00 -0.89042447063E+02  0.89042447063E+02  0.00000000000E+00 0.  1.
         23    2    1    2    0    0 -0.49898525174E+02  0.27321989631E+03  0.39237242583E+03  0.48773033484E+03  0.82375872771E+02 0.  0.
         23    2    1    2    0    0  0.65522103581E+02 -0.26068356030E+03  0.51256656827E+03  0.58605020894E+03  0.92093951017E+02 0.  0.
        -11    1    4    4    0    0  0.35075924965E+02 -0.23233608191E+02  0.10877506015E+03  0.11662819030E+03  0.00000000000E+00 0. -1.
         11    1    4    4    0    0  0.30446178616E+02 -0.23744995211E+03  0.40379150813E+03  0.46942201864E+03  0.00000000000E+00 0.  1.
        -13    1    3    3    0    0 -0.35436343465E+02  0.69112233826E+02  0.63148784401E+02  0.10009997140E+03  0.00000000000E+00 0.  1.
         13    1    3    3    0    0 -0.14462181709E+02  0.20410766249E+03  0.32922364143E+03  0.38763036344E+03  0.00000000000E+00 0. -1.
         21    1    1    2  502  501 -0.15623578407E+02 -0.12536336009E+02  0.17083454358E+02  0.26326798810E+02  0.00000000000E+00 0.  1.
<scales pt_clust_5="13000.00000" pt_clust_6="13000.00000" pt_clust_7="13000.00000" pt_clust_8="13000.00000" pt_clust_9="20.03137"></scales>
<clustering>
<clus scale="   20.031">  2  9  1 -1</clus>
<clus scale="   82.376">  7  8 -1 -1</clus>
<clus scale="   92.094">  5  6 -1 -1</clus>
<clus scale="  284.718">  2  7  1 -1</clus>
<clus scale="  287.680">  1  5  2 -1</clus>
</clustering>
</event>
<event>
 9    1  0.1175034E-005  0.1528523E+03  0.7546771E-02  0.1197723E+00
          1   -1    0    0  502    0  0.00000000000E+00  0.00000000000E+00  0.11642155620E+03  0.11642155620E+03  0.00000000000E+00 0. -1.
         -1   -1    0    0    0  501 -0.00000000000E+00 -0.00000000000E+00 -0.74075557293E+03  0.74075557293E+03  0.00000000000E+00 0.  1.
         23    2    1    2    0    0  0.53730212197E+02 -0.38892264930E+02 -0.24483787817E+03  0.27080023976E+03  0.94803160759E+02 0.  0.
         23    2    1    2    0    0 -0.12069200120E+03  0.57407948095E+02  0.35574534419E+02  0.16553205422E+03  0.90956483098E+02 0.  0.
        -11    1    3    3    0    0  0.62797375610E+02 -0.63036969980E+02 -0.17435604750E+03  0.19574780016E+03  0.00000000000E+00 0.  1.
         11    1    3    3    0    0 -0.90671634133E+01  0.24144705050E+02 -0.70481830675E+02  0.75052439598E+02  0.00000000000E+00 0. -1.
        -11    1    4    4    0    0 -0.93516045673E+02 -0.40552606142E+01  0.29074016306E+02  0.98015276162E+02  0.00000000000E+00 0. -1.
         11    1    4    4    0    0 -0.27175955524E+02  0.61463208709E+02  0.65005181132E+01  0.67516778057E+02  0.00000000000E+00 0.  1.
         21    1    1    2  502  501  0.66961789000E+02 -0.18515683165E+02 -0.41507067298E+03  0.42084483516E+03  0.00000000000E+00 0.  1.
<scales pt_clust_5="13000.00000" pt_clust_6="13000.00000" pt_clust_7="13000.00000" pt_clust_8="13000.00000" pt_clust_9="69.47454"></scales>
<clustering>
<clus scale="   69.475">  2  9  1 -1</clus>
<clus scale="   90.956">  7  8 -1 -1</clus>
<clus scale="   94.803">  5  6 -1 -1</clus>
<clus scale="  150.497">  1  7  2 -1</clus>
<clus scale="  150.497">  1  5  2 -1</clus>
</clustering>
</event>
<event>
 9    1  0.1175034E-005  0.1347826E+03  0.7546771E-02  0.1220706E+00
          2   -1    0    0  502    0  0.00000000000E+00  0.00000000000E+00  0.26499660848E+03  0.26499660848E+03  0.00000000000E+00 0. -1.
         -2   -1    0    0    0  501 -0.00000000000E+00 -0.00000000000E+00 -0.15329938154E+03  0.15329938154E+03  0.00000000000E+00 0.  1.
         23    2    1    2    0    0  0.25242598601E+02 -0.13376844053E+03  0.54392245139E+02  0.17244549822E+03  0.90817118764E+02 0.  0.
         23    2    1    2    0    0  0.59618572085E+01  0.82505097463E+02  0.11051023440E+03  0.16564795251E+03  0.91564717094E+02 0.  0.
        -11    1    4    4    0    0  0.21678358974E+02 -0.10181997510E+02  0.52518200445E+01  0.24519501114E+02  0.00000000000E+00 0.  1.
         11    1    4    4    0    0 -0.15716501766E+02  0.92687094972E+02  0.10525841436E+03  0.14112845140E+03  0.00000000000E+00 0. -1.
        -11    1    3    3    0    0  0.52580969701E+02 -0.11881796199E+03  0.31264935631E+02  0.13364117130E+03  0.00000000000E+00 0.  1.
         11    1    3    3    0    0 -0.27338371100E+02 -0.14950478539E+02  0.23127309508E+02  0.38804326924E+02  0.00000000000E+00 0. -1.
         21    1    1    2  502  501 -0.31204455809E+02  0.51263343065E+02 -0.53205252595E+02  0.80202539288E+02  0.00000000000E+00 0. -1.
<scales pt_clust_5="13000.00000" pt_clust_6="13000.00000" pt_clust_7="13000.00000" pt_clust_8="13000.00000" pt_clust_9="60.01374"></scales>
<clustering>
<clus scale="   60.014">  2  9  1 -1</clus>
<clus scale="   90.817">  7  8 -1 -1</clus>
<clus scale="   91.565">  5  6 -1 -1</clus>
<clus scale="  134.276">  2  7  1 -1</clus>
<clus scale="  134.783">  1  5  2 -1</clus>
</clustering>
</event>
<event>
 9    1  0.1277790E-005  0.9595289E+02  0.7546771E-02  0.1292640E+00
         -1   -1    0    0    0  501 -0.00000000000E+00  0.00000000000E+00  0.27520572132E+03  0.27520572132E+03  0.00000000000E+00 0.  1.
          1   -1    0    0  502    0  0.00000000000E+00 -0.00000000000E+00 -0.17310002499E+03  0.17310002499E+03  0.00000000000E+00 0. -1.
         23    2    1    2    0    0  0.30194980294E+02 -0.15035781977E+02  0.91082326717E+02  0.12872175713E+03  0.84471823372E+02 0.  0.
         23    2    1    2    0    0 -0.27370030939E+02 -0.15772270046E+02 -0.13747155133E+03  0.16790057559E+03  0.91073007873E+02 0.  0.
        -11    1    4    4    0    0 -0.15408264677E+02  0.36653584994E+02 -0.38950912929E+02  0.55660340740E+02  0.00000000000E+00 0.  1.
         11    1    4    4    0    0 -0.11961766263E+02 -0.52425855040E+02 -0.98520638403E+02  0.11224023485E+03  0.00000000000E+00 0. -1.
        -13    1    3    3    0    0  0.10648781328E+02 -0.48898621523E+02  0.38216059804E+02  0.62967761256E+02  0.00000000000E+00 0. -1.
         13    1    3    3    0    0  0.19546198966E+02  0.33862839546E+02  0.52866266913E+02  0.65753995874E+02  0.00000000000E+00 0.  1.
         21    1    1    2  502  501 -0.28249493550E+01  0.30808052023E+02  0.14849492095E+03  0.15168341358E+03  0.00000000000E+00 0. -1.
<scales pt_clust_5="13000.00000" pt_clust_6="13000.00000" pt_clust_7="13000.00000" pt_clust_8="13000.00000" pt_clust_9="30.93730"></scales>
<clustering>
<clus scale="   30.937">  1  9  2 -1</clus>
<clus scale="   84.472">  7  8 -1 -1</clus>
<clus scale="   89.711">  1  7  2 -1</clus>
<clus scale="   91.073">  5  6 -1 -1</clus>
<clus scale="   95.953">  2  5  1 -1</clus>
</clustering>
</event>
<event>
 9    1  0.1175034E-005  0.1705953E+03  0.7546771E-02  0.1177529E+00
          1   -1    0    0  502    0  0.00000000000E+00  0.00000000000E+00  0.16117560485E+03  0.16117560485E+03  0.00000000000E+00 0. -1.
         -1   -1    0    0    0  501 -0.00000000000E+00 -0.00000000000E+00 -0.26661876989E+03  0.26661876989E+03  0.00000000000E+00 0.  1.
         23    2    1    2    0    0 -0.95941310286E+02  0.12306139065E+03 -0.64436049293E+02  0.19060056070E+03  0.88474450555E+02 0.  0.
         23    2    1    2    0    0  0.11647197046E+03 -0.78085439837E+02  0.85362604288E+01  0.16720174106E+03  0.90666965614E+02 0.  0.
        -11    1    4    4    0    0  0.42779688642E+02  0.17535790467E+02  0.37034592837E+01  0.46382338431E+02  0.00000000000E+00 0.  1.
         11    1    4    4    0    0  0.73692281814E+02 -0.95621230305E+02  0.48328011451E+01  0.12081940263E+03  0.00000000000E+00 0. -1.
        -13    1    3    3    0    0 -0.82585401852E+02  0.84116709479E+02 -0.46030815243E+01  0.11797100395E+03  0.00000000000E+00 0. -1.
         13    1    3    3    0    0 -0.13355908434E+02  0.38944681172E+02 -0.59832967768E+02  0.72629556750E+02  0.00000000000E+00 0.  1.
         21    1    1    2  502  501 -0.20530660170E+02 -0.44975950814E+02 -0.49543376175E+02  0.69992072990E+02  0.00000000000E+00 0.  1.
<scales pt_clust_5="13000.00000" pt_clust_6="13000.00000" pt_clust_7="13000.00000" pt_clust_8="13000.00000" pt_clust_9="49.44031"></scales>
<clustering>
<clus scale="   49.440">  2  9  1 -1</clus>
<clus scale="   88.474">  7  8 -1 -1</clus>
<clus scale="   90.667">  5  6 -1 -1</clus>
<clus scale="  169.440">  2  7  1 -1</clus>
<clus scale="  170.595">  1  5  2 -1</clus>
</clustering>
</event>
<event>
 9    1  0.1175034E-005  0.1630712E+03  0.7546771E-02  0.1185608E+00
          1   -1    0    0  502    0  0.00000000000E+00  0.00000000000E+00  0.30280560736E+03  0.30280560736E+03  0.00000000000E+00 0. -1.
         -1   -1    0    0    0  501 -0.00000000000E+00 -0.00000000000E+00 -0.13925344788E+03  0.13925344788E+03  0.00000000000E+00 0.  1.
         23    2    1    2    0    0  0.10788403490E+03 -0.33021521612E+01  0.15188863781E+02  0.14592513618E+03  0.97023577507E+02 0.  0.
         23    2    1    2    0    0 -0.14329679746E+03 -0.52361342620E+00  0.17970368429E+03  0.24869005548E+03  0.94968853912E+02 0.  0.
        -13    1    3    3    0    0  0.42853964606E+02 -0.48411072239E+02 -0.29816017429E+01  0.64722362030E+02  0.00000000000E+00 0.  1.
         13    1    3    3    0    0  0.65030070291E+02  0.45108920078E+02  0.18170465524E+02  0.81202774152E+02  0.00000000000E+00 0. -1.
        -13    1    4    4    0    0 -0.52934818926E+02  0.63092185312E+01  0.13990186443E+03  0.14971450486E+03  0.00000000000E+00 0. -1.
         13    1    4    4    0    0 -0.90361978531E+02 -0.68328319574E+01  0.39801819859E+02  0.98975550621E+02  0.00000000000E+00 0.  1.
         21    1    1    2  502  501  0.35412762561E+02  0.38257655874E+01 -0.31340388595E+02  0.47443863584E+02  0.00000000000E+00 0. -1.
<scales pt_clust_5="13000.00000" pt_clust_6="13000.00000" pt_clust_7="13000.00000" pt_clust_8="13000.00000" pt_clust_9="35.61882"></scales>
<clustering>
<clus scale="   35.619">  2  9  1 -1</clus>
<clus scale="   94.969">  7  8 -1 -1</clus>
<clus scale="   97.024">  5  6 -1 -1</clus>
<clus scale="  161.857">  1  7  2 -1</clus>
<clus scale="  161.857">  1  5  2 -1</clus>
</clustering>
</event>
<event>
 9    1  0.1175034E-005  0.1253781E+03  0.7546771E-02  0.1235456E+00
         -1   -1    0    0    0  501 -0.00000000000E+00  0.00000000000E+00  0.35103900167E+03  0.35103900167E+03  0.00000000000E+00 0.  1.
          1   -1    0    0  502    0  0.00000000000E+00 -0.00000000000E+00 -0.59023662743E+02  0.59023662743E+02  0.00000000000E+00 0. -1.
         23    2    1    2    0    0  0.42896321570E+02  0.55215415679E+02  0.13149172104E+03  0.17492340791E+03  0.91756685860E+02 0.  0.
         23    2    1    2    0    0 -0.69562897962E+02 -0.70232881500E+02  0.95849862265E+02  0.16358979639E+03  0.88333294800E+02 0.  0.
        -13    1    4    4    0    0 -0.10491139649E+02 -0.43834143208E+02 -0.33036898407E+01  0.45193035840E+02  0.00000000000E+00 0. -1.
         13    1    4    4    0    0 -0.59071758313E+02 -0.26398738292E+02  0.99153552106E+02  0.11839676055E+03  0.00000000000E+00 0.  1.
        -13    1    3    3    0    0  0.25474323817E+02 -0.22615939156E+02  0.53124253817E+02  0.63107909342E+02  0.00000000000E+00 0.  1.
         13    1    3    3    0    0  0.17421997752E+02  0.77831354835E+02  0.78367467227E+02  0.11181549857E+03  0.00000000000E+00 0. -1.
         21    1    1    2  502  501  0.26666576392E+02  0.15017465820E+02  0.64673755617E+02  0.71549460108E+02  0.00000000000E+00 0. -1.
<scales pt_clust_5="13000.00000" pt_clust_6="13000.00000" pt_clust_7="13000.00000" pt_clust_8="13000.00000" pt_clust_9="30.60442"></scales>
<clustering>
<clus scale="   30.604">  1  9  2 -1</clus>
<clus scale="   88.333">  5  6 -1 -1</clus>
<clus scale="   91.757">  7  8 -1 -1</clus>
<clus scale="  122.895">  2  5  1 -1</clus>
<clus scale="  122.895">  2  5  1 -1</clus>
</clustering>
</event>
<event>
 9    1  0.1175034E-005  0.2628861E+03  0.7546771E-02  0.1106187E+00
         -2   -1    0    0    0  501 -0.00000000000E+00  0.00000000000E+00  0.12603782684E+03  0.12603782684E+03  0.00000000000E+00 0.  1.
          2   -1    0    0  502    0  0.00000000000E+00 -0.00000000000E+00 -0.20400276138E+04  0.20400276138E+04  0.00000000000E+00 0. -1.
         23    2    1    2    0    0 -0.19328107317E+03 -0.36116492043E+01 -0.40767636241E+03  0.45797838074E+03  0.78572027472E+02 0.  0.
         23    2    1    2    0    0  0.22574721090E+03  0.20329278546E+03 -0.14681750213E+04  0.15022202484E+04  0.94010752844E+02 0.  0.
        -11    1    4    4    0    0  0.99395836897E+02  0.13493500323E+03 -0.94173798936E+03  0.95653407053E+03  0.00000000000E+00 0. -1.
         11    1    4    4    0    0  0.12635137400E+03  0.68357782230E+02 -0.52643703197E+03  0.54568617789E+03  0.00000000000E+00 0.  1.
        -13    1    3    3    0    0 -0.88468925510E+02  0.36793382232E+02 -0.20395782675E+03  0.22534262546E+03  0.00000000000E+00 0.  1.
         13    1    3    3    0    0 -0.10481214766E+03 -0.40405031437E+02 -0.20371853566E+03  0.23263575528E+03  0.00000000000E+00 0. -1.
         21    1    1    2  502  501 -0.32466137727E+02 -0.19968113625E+03 -0.38138403240E+02  0.20586681150E+03  0.00000000000E+00 0.  1.
<scales pt_clust_5="13000.00000" pt_clust_6="13000.00000" pt_clust_7="13000.00000" pt_clust_8="13000.00000" pt_clust_9="202.30325"></scales>
<clustering>
<clus scale="   78.572">  7  8 -1 -1</clus>
<clus scale="   94.011">  5  6 -1 -1</clus>
<clus scale="  202.303">  1  9  2 -1</clus>
<clus scale="  257.769">  1  7  2 -1</clus>
<clus scale="  262.886">  2  5  1 -1</clus>
</clustering>
</event>
<event>
 9    1  0.1175034E-005  0.1052884E+03  0.7546771E-02  0.1270332E+00
         -2   -1    0    0    0  501 -0.00000000000E+00  0.00000000000E+00  0.30849097467E+03  0.30849097467E+03  0.00000000000E+00 0.  1.
          2   -1    0    0  502    0  0.00000000000E+00 -0.00000000000E+00 -0.49001892161E+02  0.49001892161E+02  0.00000000000E+00 0. -1.
         23    2    1    2    0    0  0.44840089306E+02  0.34111936947E+02  0.14376881894E+03  0.17891034445E+03  0.90361386661E+02 0.  0.
         23    2    1    2    0    0 -0.22254519545E+02 -0.50675888290E+02  0.72586923917E+02  0.12715337272E+03  0.88520107187E+02 0.  0.
        -11    1    3    3    0    0  0.71469211607E+02  0.32072134850E+02  0.11910479615E+03  0.14255673435E+03  0.00000000000E+00 0. -1.
         11    1    3    3    0    0 -0.26629122301E+02  0.20398020972E+01  0.24664022794E+02  0.36353610103E+02  0.00000000000E+00 0.  1.
        -11    1    4    4    0    0  0.78609874711E+01 -0.68566322211E+02  0.53019274654E+02  0.87029760143E+02  0.00000000000E+00 0.  1.
         11    1    4    4    0    0 -0.30115507016E+02  0.17890433921E+02  0.19567649262E+02  0.40123612578E+02  0.00000000000E+00 0. -1.
         21    1    1    2  502  501 -0.22585569761E+02  0.16563951343E+02  0.43133339651E+02  0.51429149662E+02  0.00000000000E+00 0. -1.
<scales pt_clust_5="13000.00000" pt_clust_6="13000.00000" pt_clust_7="13000.00000" pt_clust_8="13000.00000" pt_clust_9="28.00844"></scales>
<clustering>
<clus scale="   28.008">  1  9  2 -1</clus>
<clus scale="   88.520">  7  8 -1 -1</clus>
<clus scale="   90.361">  5  6 -1 -1</clus>
<clus scale="  103.712">  2  7  1 -1</clus>
<clus scale="  103.712">  2  5  1 -1</clus>
</clustering>
</event>
<event>
 9    1  0.1175034E-005  0.1455266E+03  0.7546771E-02  0.1206272E+00
          1   -1    0    0  502    0  0.00000000000E+00  0.00000000000E+00  0.57724061426E+02  0.57724061426E+02  0.00000000000E+00 0. -1.
         -1   -1    0    0    0  501 -0.00000000000E+00 -0.00000000000E+00 -0.63043398134E+03  0.63043398134E+03  0.00000000000E+00 0.  1.
         23    2    1    2    0    0 -0.91624723335E+02 -0.69409795135E+02 -0.37917366877E+03  0.40646262221E+03  0.90699407833E+02 0.  0.
         23    2    1    2    0    0  0.70707283255E+02  0.88508555035E+02 -0.83231163886E+02  0.16781164557E+03  0.91651718628E+02 0.  0.
        -13    1    4    4    0    0 -0.52569504940E+01  0.58111573220E+02 -0.12535646350E+02  0.59680255529E+02  0.00000000000E+00 0.  1.
         13    1    4    4    0    0  0.75964233749E+02  0.30396981815E+02 -0.70695517536E+02  0.10813139004E+03  0.00000000000E+00 0. -1.
        -13    1    3    3    0    0 -0.14394677664E+02 -0.40420734979E+02 -0.24670749238E+03  0.25041092100E+03  0.00000000000E+00 0.  1.
         13    1    3    3    0    0 -0.77230045671E+02 -0.28989060156E+02 -0.13246617639E+03  0.15605170121E+03  0.00000000000E+00 0. -1.
         21    1    1    2  502  501  0.20917440079E+02 -0.19098759900E+02 -0.11030508727E+03  0.11388377499E+03  0.00000000000E+00 0.  1.
<scales pt_clust_5="13000.00000" pt_clust_6="13000.00000" pt_clust_7="13000.00000" pt_clust_8="13000.00000" pt_clust_9="28.32493"></scales>
<clustering>
<clus scale="   28.325">  2  9  1 -1</clus>
<clus scale="   90.699">  7  8 -1 -1</clus>
<clus scale="   91.652">  5  6 -1 -1</clus>
<clus scale="  144.929">  2  7  1 -1</clus>
<clus scale="  145.527">  1  5  2 -1</clus>
</clustering>
</event>
<event>
 9    1  0.1175034E-005  0.1508015E+03  0.7546771E-02  0.1201229E+00
          2   -1    0    0  502    0  0.00000000000E+00  0.00000000000E+00  0.63543598351E+03  0.63543598351E+03  0.00000000000E+00 0. -1.
         -2   -1    0    0    0  501 -0.00000000000E+00 -0.00000000000E+00 -0.49409600336E+02  0.49409600336E+02  0.00000000000E+00 0.  1.
         23    2    1    2    0    0 -0.69047037212E+02  0.10152552660E+03  0.15574789063E+03  0.21866920402E+03  0.92108031414E+02 0.  0.
         23    2    1    2    0    0  0.89306042333E+02 -0.78822256944E+02  0.38704199755E+03  0.41330615909E+03  0.82655646447E+02 0.  0.
        -11    1    4    4    0    0  0.85593724258E+02 -0.26722888586E+02  0.28339067138E+03  0.29723840774E+03  0.00000000000E+00 0.  1.
         11    1    4    4    0    0  0.37123180752E+01 -0.52099368357E+02  0.10365132616E+03  0.11606775135E+03  0.00000000000E+00 0. -1.
        -13    1    3    3    0    0  0.19477041897E+02  0.16467347438E+02  0.83394041863E+01  0.26834201216E+02  0.00000000000E+00 0.  1.
         13    1    3    3    0    0 -0.88524079109E+02  0.85058179159E+02  0.14740848645E+03  0.19183500280E+03  0.00000000000E+00 0. -1.
         21    1    1    2  502  501 -0.20259005121E+02 -0.22703269654E+02  0.43236494998E+02  0.52870220741E+02  0.00000000000E+00 0.  1.
<scales pt_clust_5="13000.00000" pt_clust_6="13000.00000" pt_clust_7="13000.00000" pt_clust_8="13000.00000" pt_clust_9="30.42804"></scales>
<clustering>
<clus scale="   30.428">  2  9  1 -1</clus>
<clus scale="   82.656">  5  6 -1 -1</clus>
<clus scale="   92.108">  7  8 -1 -1</clus>
<clus scale="  145.221">  1  5  2 -1</clus>
<clus scale="  145.221">  1  5  2 -1</clus>
</clustering>
</event>
<event>
 9    1  0.1175034E-005  0.1468875E+03  0.7546771E-02  0.1205144E+00
          2   -1    0    0  502    0  0.00000000000E+00  0.00000000000E+00  0.63311584766E+03  0.63311584766E+03  0.00000000000E+00 0. -1.
         -2   -1    0    0    0  501 -0.00000000000E+00 -0.00000000000E+00 -0.56101126717E+02  0.56101126717E+02  0.00000000000E+00 0.  1.
         23    2    1    2    0    0  0.32013058569E+02  0.11819216614E+03  0.18180095632E+03  0.23793667142E+03  0.92563750105E+02 0.  0.
         23    2    1    2    0    0 -0.53601798205E+02 -0.97627083870E+02  0.39667989652E+03  0.42142823718E+03  0.88558559797E+02 0.  0.
        -13    1    4    4    0    0 -0.55743535693E+02 -0.12757933154E+02  0.17100285630E+03  0.18031107424E+03  0.00000000000E+00 0. -1.
         13    1    4    4    0    0  0.21417374880E+01 -0.84869150716E+02  0.22567704022E+03  0.24111716294E+03  0.00000000000E+00 0.  1.
        -13    1    3    3    0    0  0.61975215489E+02  0.77240929578E+02  0.94066685192E+02  0.13658561344E+03  0.00000000000E+00 0.  1.
         13    1    3    3    0    0 -0.29962156920E+02  0.40951236565E+02  0.87734271125E+02  0.10135105798E+03  0.00000000000E+00 0. -1.
         21    1    1    2  502  501  0.21588739636E+02 -0.20565082273E+02 -0.14661318988E+01  0.29852065770E+02  0.00000000000E+00 0. -1.
<scales pt_clust_5="13000.00000" pt_clust_6="13000.00000" pt_clust_7="13000.00000" pt_clust_8="13000.00000" pt_clust_9="29.81604"></scales>
<clustering>
<clus scale="   29.816">  2  9  1 -1</clus>
<clus scale="   88.559">  5  6 -1 -1</clus>
<clus scale="   92.564">  7  8 -1 -1</clus>
<clus scale="  144.397">  1  5  2 -1</clus>
<clus scale="  144.397">  1  5  2 -1</clus>
</clustering>
</event>
<event>
 9    1  0.1175034E-005  0.2113609E+03  0.7546771E-02  0.1140760E+00
         -2   -1    0    0    0  501 -0.00000000000E+00  0.00000000000E+00  0.63148000514E+03  0.63148000514E+03  0.00000000000E+00 0.  1.
          2   -1    0    0  502    0  0.00000000000E+00 -0.00000000000E+00 -0.93175461961E+03  0.93175461961E+03  0.00000000000E+00 0. -1.
         23    2    1    2    0    0  0.10946966087E+03 -0.12064977981E+03  0.46122564562E+03  0.49778352992E+03  0.92300435917E+02 0.  0.
         23    2    1    2    0    0 -0.18873436440E+03  0.24614820212E+02 -0.87283197766E+03  0.89841709221E+03  0.95347053771E+02 0.  0.
        -11    1    3    3    0    0 -0.14378136982E+02 -0.14643529408E+02  0.26640607780E+02  0.33628644925E+02  0.00000000000E+00 0. -1.
         11    1    3    3    0    0  0.12384779785E+03 -0.10600625040E+03  0.43458503784E+03  0.46415488500E+03  0.00000000000E+00 0.  1.
        -13    1    4    4    0    0 -0.14763434778E+03  0.42280376408E+02 -0.78464776942E+03  0.79953464773E+03  0.00000000000E+00 0. -1.
         13    1    4    4    0    0 -0.41100016616E+02 -0.17665556196E+02 -0.88184208246E+02  0.98882444476E+02  0.00000000000E+00 0.  1.
         21    1    1    2  502  501  0.79264703528E+02  0.96034959596E+02  0.11133171758E+03  0.16703400261E+03  0.00000000000E+00 0. -1.
<scales pt_clust_5="13000.00000" pt_clust_6="13000.00000" pt_clust_7="13000.00000" pt_clust_8="13000.00000" pt_clust_9="124.52151"></scales>
<clustering>
<clus scale="   92.300">  5  6 -1 -1</clus>
<clus scale="   95.347">  7  8 -1 -1</clus>
<clus scale="  124.522">  1  9  2 -1</clus>
<clus scale="  210.004">  1  5  2 -1</clus>
<clus scale="  211.361">  2  5  1 -1</clus>
</clustering>
</event>
<event>
 9    1  0.1175034E-005  0.9582345E+02  0.7546771E-02  0.1291027E+00
          1   -1    0    0  502    0  0.00000000000E+00  0.00000000000E+00  0.37556610206E+03  0.37556610206E+03  0.00000000000E+00 0. -1.
         -1   -1    0    0    0  501 -0.00000000000E+00 -0.00000000000E+00 -0.59273238890E+02  0.59273238890E+02  0.00000000000E+00 0.  1.
         23    2    1    2    0    0  0.67208337779E+02 -0.60473540964E+01  0.10292027476E+03  0.15341478559E+03  0.91596846689E+02 0.  0.
         23    2    1    2    0    0  0.19536330261E+01 -0.31087467428E+02  0.16329664517E+03  0.18831186413E+03  0.88460819219E+02 0.  0.
        -11    1    4    4    0    0  0.24497638929E+02  0.11286357726E+02  0.12214673899E+03  0.12508933619E+03  0.00000000000E+00 0. -1.
         11    1    4    4    0    0 -0.22544005903E+02 -0.42373825154E+02  0.41149906177E+02  0.63222527937E+02  0.00000000000E+00 0.  1.
        -11    1    3    3    0    0  0.27594035278E+02  0.48280965523E+01 -0.12667398962E+02  0.30744174988E+02  0.00000000000E+00 0.  1.
         11    1    3    3    0    0  0.39614302501E+02 -0.10875450649E+02  0.11558767372E+03  0.12267061061E+03  0.00000000000E+00 0. -1.
         21    1    1    2  502  501 -0.69161970805E+02  0.37134821524E+02  0.50075943238E+02  0.93112691221E+02  0.00000000000E+00 0.  1.
<scales pt_clust_5="13000.00000" pt_clust_6="13000.00000" pt_clust_7="13000.00000" pt_clust_8="13000.00000" pt_clust_9="78.50078"></scales>
<clustering>
<clus scale="   78.501">  2  9  1 -1</clus>
<clus scale="   88.461">  5  6 -1 -1</clus>
<clus scale="   91.597">  7  8 -1 -1</clus>
<clus scale="   92.830">  1  5  2 -1</clus>
<clus scale="   92.830">  1  5  2 -1</clus>
</clustering>
</event>
<event>
 9    1  0.1175034E-005  0.1038835E+03  0.7546771E-02  0.1272616E+00
         -2   -1    0    0    0  501 -0.00000000000E+00  0.00000000000E+00  0.55181505004E+02  0.55181505004E+02  0.00000000000E+00 0.  1.
          2   -1    0    0  502    0  0.00000000000E+00 -0.00000000000E+00 -0.38422239350E+03  0.38422239350E+03  0.00000000000E+00 0. -1.
         23    2    1    2    0    0  0.40994079873E+01 -0.65998994694E+02 -0.39130452508E+02  0.11881082385E+03  0.90620897725E+02 0.  0.
         23    2    1    2    0    0  0.56846581319E+00  0.45918215134E+02 -0.27931874590E+03  0.29741526948E+03  0.91258287711E+02 0.  0.
        -11    1    4    4    0    0 -0.37449261028E+02 -0.49096502069E+01 -0.85583089744E+02  0.93546870962E+02  0.00000000000E+00 0.  1.
         11    1    4    4    0    0  0.38017726841E+02  0.50827865341E+02 -0.19373565615E+03  0.20386839852E+03  0.00000000000E+00 0. -1.
        -11    1    3    3    0    0  0.29292952334E+02 -0.43417333240E+02  0.15440054674E+02  0.54603453832E+02  0.00000000000E+00 0.  1.
         11    1    3    3    0    0 -0.25193544347E+02 -0.22581661455E+02 -0.54570507182E+02  0.64207370020E+02  0.00000000000E+00 0. -1.
         21    1    1    2  502  501 -0.46678738004E+01  0.20080779560E+02 -0.10591690090E+02  0.23177805171E+02  0.00000000000E+00 0.  1.
<scales pt_clust_5="13000.00000" pt_clust_6="13000.00000" pt_clust_7="13000.00000" pt_clust_8="13000.00000" pt_clust_9="20.61618"></scales>
<clustering>
<clus scale="   20.616">  1  9  2 -1</clus>
<clus scale="   90.621">  7  8 -1 -1</clus>
<clus scale="   91.258">  5  6 -1 -1</clus>
<clus scale="  103.324">  1  7  2 -1</clus>
<clus scale="  103.883">  2  5  1 -1</clus>
</clustering>
</event>
<event>
 9    1  0.1175034E-005  0.1257036E+03  0.7546771E-02  0.1234202E+00
          2   -1    0    0  502    0  0.00000000000E+00  0.00000000000E+00  0.15230480823E+03  0.15230480823E+03  0.00000000000E+00 0. -1.
         -2   -1    0    0    0  501 -0.00000000000E+00 -0.00000000000E+00 -0.35978834447E+03  0.35978834447E+03  0.00000000000E+00 0.  1.
         23    2    1    2    0    0 -0.27448202847E+02 -0.98983877084E+02 -0.17695973283E+03  0.22361562125E+03  0.90210793482E+02 0.  0.
         23    2    1    2    0    0  0.38229446217E+02  0.76492654322E+02  0.97835447251E+02  0.15771749345E+03  0.89389128410E+02 0.  0.
        -11    1    3    3    0    0 -0.50616022076E+02 -0.58534443119E+02 -0.60671677537E+02  0.98332676040E+02  0.00000000000E+00 0.  1.
         11    1    3    3    0    0  0.23167819229E+02 -0.40449433964E+02 -0.11628805530E+03  0.12528294521E+03  0.00000000000E+00 0. -1.
        -13    1    4    4    0    0 -0.12800980551E+02  0.27654534883E+02  0.78912306022E+02  0.84591905313E+02  0.00000000000E+00 0. -1.
         13    1    4    4    0    0  0.51030426767E+02  0.48838119439E+02  0.18923141229E+02  0.73125588137E+02  0.00000000000E+00 0.  1.
         21    1    1    2  502  501 -0.10781243370E+02  0.22491222762E+02 -0.12835925065E+03  0.13076003800E+03  0.00000000000E+00 0.  1.
<scales pt_clust_5="13000.00000" pt_clust_6="13000.00000" pt_clust_7="13000.00000" pt_clust_8="13000.00000" pt_clust_9="24.94174"></scales>
<clustering>
<clus scale="   24.942">  2  9  1 -1</clus>
<clus scale="   89.389">  7  8 -1 -1</clus>
<clus scale="   90.211">  5  6 -1 -1</clus>
<clus scale="  125.115">  1  7  2 -1</clus>
<clus scale="  125.115">  1  5  2 -1</clus>
</clustering>
</event>
<event>
 9    1  0.1175034E-005  0.1585264E+03  0.7546771E-02  0.1192469E+00
         -3   -1    0    0    0  501 -0.00000000000E+00  0.00000000000E+00  0.71535254676E+03  0.71535254676E+03  0.00000000000E+00 0.  1.
          3   -1    0    0  502    0  0.00000000000E+00 -0.00000000000E+00 -0.79623119837E+02  0.79623119837E+02  0.00000000000E+00 0. -1.
         23    2    1    2    0    0  0.17344640266E+03 -0.17934726622E+02  0.28643522445E+03  0.34437162497E+03  0.78366888788E+02 0.  0.
         23    2    1    2    0    0 -0.11365963765E+03 -0.77807438949E+01  0.66660445154E+02  0.16057372689E+03  0.91439890704E+02 0.  0.
        -11    1    3    3    0    0  0.88032824981E+02  0.24428794715E+02  0.17731320549E+03  0.19946557880E+03  0.00000000000E+00 0. -1.
         11    1    3    3    0    0  0.85413577683E+02 -0.42363521337E+02  0.10912201896E+03  0.14490604617E+03  0.00000000000E+00 0.  1.
        -11    1    4    4    0    0 -0.84731573806E+02 -0.22950621481E+02  0.16291457026E+01  0.87799913108E+02  0.00000000000E+00 0. -1.
         11    1    4    4    0    0 -0.28928063846E+02  0.15169877587E+02  0.65031299452E+02  0.72773813781E+02  0.00000000000E+00 0.  1.
         21    1    1    2  502  501 -0.59786765012E+02  0.25715470517E+02  0.28263375732E+03  0.29003031474E+03  0.00000000000E+00 0. -1.
<scales pt_clust_5="13000.00000" pt_clust_6="13000.00000" pt_clust_7="13000.00000" pt_clust_8="13000.00000" pt_clust_9="65.08258"></scales>
<clustering>
<clus scale="   65.083">  1  9  2 -1</clus>
<clus scale="   78.367">  5  6 -1 -1</clus>
<clus scale="   91.440">  7  8 -1 -1</clus>
<clus scale="  151.363">  1  5  2 -1</clus>
<clus scale="  158.526">  2  5  1 -1</clus>
</clustering>
</event>
<event>
 9    1  0.1175034E-005  0.1127160E+03  0.7546771E-02  0.1256483E+00
         -2   -1    0    0    0  501 -0.00000000000E+00  0.00000000000E+00  0.13242952846E+03  0.13242952846E+03  0.00000000000E+00 0.  1.
          2   -1    0    0  502    0  0.00000000000E+00 -0.00000000000E+00 -0.38692107412E+03  0.38692107412E+03  0.00000000000E+00 0. -1.
         23    2    1    2    0    0 -0.41302512671E+02 -0.89518059504E+01 -0.42865447818E+02  0.10859803957E+03  0.90388357654E+02 0.  0.
         23    2    1    2    0    0  0.11617329194E+02  0.81591996195E+02 -0.28026956764E+03  0.30649454987E+03  0.92712795084E+02 0.  0.
        -11    1    4    4    0    0 -0.37957366743E+02  0.53674664563E+02 -0.17301981052E+03  0.18508804969E+03  0.00000000000E+00 0. -1.
         11    1    4    4    0    0  0.49574695936E+02  0.27917331633E+02 -0.10724975712E+03  0.12140650017E+03  0.00000000000E+00 0.  1.
        -13    1    3    3    0    0 -0.53977031670E+02  0.26490403306E+02 -0.36737707645E+02  0.70462192545E+02  0.00000000000E+00 0. -1.
         13    1    3    3    0    0  0.12674518999E+02 -0.35442209256E+02 -0.61277401730E+01  0.38135847027E+02  0.00000000000E+00 0.  1.
         21    1    1    2  502  501  0.29685183477E+02 -0.72640190245E+02  0.68643469798E+02  0.10425801313E+03  0.00000000000E+00 0.  1.
<scales pt_clust_5="13000.00000" pt_clust_6="13000.00000" pt_clust_7="13000.00000" pt_clust_8="13000.00000" pt_clust_9="78.47170"></scales>
<clustering>
<clus scale="   78.472">  1  9  2 -1</clus>
<clus scale="   90.388">  7  8 -1 -1</clus>
<clus scale="   92.713">  5  6 -1 -1</clus>
<clus scale="  110.812">  1  7  2 -1</clus>
<clus scale="  112.716">  2  5  1 -1</clus>
</clustering>
</event>
<event>
 9    1  0.1175034E-005  0.1488012E+03  0.7546771E-02  0.1220845E+00
          1   -1    0    0  502    0  0.00000000000E+00  0.00000000000E+00  0.69232030052E+02  0.69232030052E+02  0.00000000000E+00 0. -1.
         -1   -1    0    0    0  501 -0.00000000000E+00 -0.00000000000E+00 -0.91634461481E+03  0.91634461481E+03  0.00000000000E+00 0.  1.
         23    2    1    2    0    0 -0.37800010348E+02 -0.13269497104E+01 -0.16779893567E+03  0.19508056631E+03  0.92029033261E+02 0.  0.
         23    2    1    2    0    0 -0.61277435148E+02 -0.97400633360E+02 -0.64133643157E+02  0.15961580816E+03  0.90123662785E+02 0.  0.
        -11    1    4    4    0    0  0.97826733889E+01 -0.30501310338E+02 -0.52265845926E+02  0.61300483532E+02  0.00000000000E+00 0.  1.
         11    1    4    4    0    0 -0.71060108537E+02 -0.66899323023E+02 -0.11867797231E+02  0.98315324631E+02  0.00000000000E+00 0. -1.
        -11    1    3    3    0    0 -0.18174449717E-01  0.41165461202E+02 -0.54349587267E+02  0.68179712249E+02  0.00000000000E+00 0.  1.
         11    1    3    3    0    0 -0.37781835898E+02 -0.42492410912E+02 -0.11344934841E+03  0.12690085407E+03  0.00000000000E+00 0. -1.
         21    1    1    2  502  501  0.99077445496E+02  0.98727583071E+02 -0.61518000593E+03  0.63088027039E+03  0.00000000000E+00 0.  1.
<scales pt_clust_5="13000.00000" pt_clust_6="13000.00000" pt_clust_7="13000.00000" pt_clust_8="13000.00000" pt_clust_9="118.40409"></scales>
<clustering>
<clus scale="   90.124">  5  6 -1 -1</clus>
<clus scale="   92.029">  7  8 -1 -1</clus>
<clus scale="   99.498">  2  7  1 -1</clus>
<clus scale="  118.404">  2  9  1 -1</clus>
<clus scale="  148.801">  1  5  2 -1</clus>
</clustering>
</event>
<event>
 9    1  0.1175034E-005  0.9137665E+02  0.7546771E-02  0.1299811E+00
         -3   -1    0    0    0  501 -0.00000000000E+00  0.00000000000E+00  0.27140128036E+03  0.27140128036E+03  0.00000000000E+00 0.  1.
          3   -1    0    0  502    0  0.00000000000E+00 -0.00000000000E+00 -0.63133894506E+02  0.63133894506E+02  0.00000000000E+00 0. -1.
         23    2    1    2    0    0 -0.15052996209E+02 -0.25330760097E+02  0.15606349049E+03  0.18296520989E+03  0.90841702230E+02 0.  0.
         23    2    1    2    0    0 -0.62134634483E+01 -0.13563322763E+02  0.14998082055E+02  0.93696961496E+02  0.91277638422E+02 0.  0.
        -11    1    3    3    0    0  0.32819850185E+02 -0.21133450859E+02  0.10867804779E+03  0.11547589958E+03  0.00000000000E+00 0.  1.
         11    1    3    3    0    0 -0.47872846393E+02 -0.41973092384E+01  0.47385442696E+02  0.67489310310E+02  0.00000000000E+00 0. -1.
        -11    1    4    4    0    0 -0.58321019444E+01  0.39153698093E+02  0.35068738171E+01  0.39740705221E+02  0.00000000000E+00 0. -1.
         11    1    4    4    0    0 -0.38136150391E+00 -0.52717020856E+02  0.11491208238E+02  0.53956256276E+02  0.00000000000E+00 0.  1.
         21    1    1    2  502  501  0.21266459657E+02  0.38894082860E+02  0.37205813309E+02  0.57873003480E+02  0.00000000000E+00 0.  1.
<scales pt_clust_5="13000.00000" pt_clust_6="13000.00000" pt_clust_7="13000.00000" pt_clust_8="13000.00000" pt_clust_9="44.32846"></scales>
<clustering>
<clus scale="   44.328">  1  9  2 -1</clus>
<clus scale="   90.842">  5  6 -1 -1</clus>
<clus scale="   90.941">  1  5  2 -1</clus>
<clus scale="   91.278">  7  8 -1 -1</clus>
<clus scale="   91.377">  2  5  1 -1</clus>
</clustering>
</event>
<event>
 9    1  0.1175034E-005  0.1917351E+03  0.7546771E-02  0.1157933E+00
          1   -1    0    0  502    0  0.00000000000E+00  0.00000000000E+00  0.15411792303E+03  0.15411792303E+03  0.00000000000E+00 0. -1.
         -1   -1    0    0    0  501 -0.00000000000E+00 -0.00000000000E+00 -0.33293871633E+03  0.33293871633E+03  0.00000000000E+00 0.  1.
         23    2    1    2    0    0 -0.34046172896E+02  0.17974347184E+03 -0.99165453758E+02  0.23036402461E+03  0.98827825318E+02 0.  0.
         23    2    1    2    0    0  0.28882720281E+02 -0.15110670464E+03 -0.67581482083E+01  0.17820232119E+03  0.89682478740E+02 0.  0.
        -11    1    4    4    0    0 -0.20919608958E+02 -0.36242114704E+02 -0.29177750914E+02  0.51014331962E+02  0.00000000000E+00 0.  1.
         11    1    4    4    0    0  0.49802329239E+02 -0.11486458993E+03  0.22419602705E+02  0.12718798923E+03  0.00000000000E+00 0. -1.
        -13    1    3    3    0    0 -0.26777078519E+02  0.15058401114E+03 -0.31263060294E+02  0.15610872904E+03  0.00000000000E+00 0.  1.
         13    1    3    3    0    0 -0.72690943775E+01  0.29159460702E+02 -0.67902393464E+02  0.74255295567E+02  0.00000000000E+00 0. -1.
         21    1    1    2  502  501  0.51634526156E+01 -0.28636767199E+02 -0.72897191337E+02  0.78490293561E+02  0.00000000000E+00 0. -1.
<scales pt_clust_5="13000.00000" pt_clust_6="13000.00000" pt_clust_7="13000.00000" pt_clust_8="13000.00000" pt_clust_9="29.09855"></scales>
<clustering>
<clus scale="   29.099">  2  9  1 -1</clus>
<clus scale="   89.682">  5  6 -1 -1</clus>
<clus scale="   98.828">  7  8 -1 -1</clus>
<clus scale="  187.185">  1  5  2 -1</clus>
<clus scale="  187.185">  1  5  2 -1</clus>
</clustering>
</event>
<event>
 9    1  0.1175034E-005  0.1070901E+03  0.7546771E-02  0.1267754E+00
          4   -1    0    0  502    0  0.00000000000E+00  0.00000000000E+00  0.15012720835E+03  0.15012720835E+03  0.00000000000E+00 0. -1.
         -4   -1    0    0    0  501 -0.00000000000E+00 -0.00000000000E+00 -0.14488331933E+03  0.14488331933E+03  0.00000000000E+00 0.  1.
         23    2    1    2    0    0 -0.18855524887E+02 -0.70331618046E+01 -0.49031577705E+02  0.10817707592E+03  0.94303700668E+02 0.  0.
         23    2    1    2    0    0  0.60254466637E+02  0.12064182533E+02  0.82131332770E+02  0.13668235186E+03  0.90334734387E+02 0.  0.
        -13    1    3    3    0    0 -0.52655743900E+02 -0.14131214932E+02 -0.49497568565E+02  0.73636457648E+02  0.00000000000E+00 0.  1.
         13    1    3    3    0    0  0.33800219012E+02  0.70980531275E+01  0.46599085969E+00  0.34540618277E+02  0.00000000000E+00 0. -1.
        -13    1    4    4    0    0  0.73313941214E+02  0.30108454441E+02  0.39433485996E+02  0.88523741578E+02  0.00000000000E+00 0. -1.
         13    1    4    4    0    0 -0.13059474577E+02 -0.18044271909E+02  0.42697846773E+02  0.48158610279E+02  0.00000000000E+00 0.  1.
         21    1    1    2  502  501 -0.41398941750E+02 -0.50310207280E+01 -0.27855866044E+02  0.50151099895E+02  0.00000000000E+00 0.  1.
<scales pt_clust_5="13000.00000" pt_clust_6="13000.00000" pt_clust_7="13000.00000" pt_clust_8="13000.00000" pt_clust_9="41.70352"></scales>
<clustering>
<clus scale="   41.704">  2  9  1 -1</clus>
<clus scale="   90.335">  7  8 -1 -1</clus>
<clus scale="   94.304">  5  6 -1 -1</clus>
<clus scale="  103.612">  1  7  2 -1</clus>
<clus scale="  103.612">  1  5  2 -1</clus>
</clustering>
</event>
<event>
 9    1  0.1175034E-005  0.9720116E+02  0.7546771E-02  0.1287506E+00
          2   -1    0    0  502    0  0.00000000000E+00  0.00000000000E+00  0.80654996176E+02  0.80654996176E+02  0.00000000000E+00 0. -1.
         -2   -1    0    0    0  501 -0.00000000000E+00 -0.00000000000E+00 -0.38164680191E+03  0.38164680191E+03  0.00000000000E+00 0.  1.
         23    2    1    2    0    0 -0.75837880322E+01  0.24509560129E+02 -0.76608735328E+02  0.12091323181E+03  0.89960429744E+02 0.  0.
         23    2    1    2    0    0 -0.38938990339E+02  0.55704908851E+02 -0.19165033872E+02  0.11619271272E+03  0.92272239196E+02 0.  0.
        -11    1    4    4    0    0 -0.19395300558E+02 -0.12271095639E+02 -0.36733213554E+02  0.43313813616E+02  0.00000000000E+00 0.  1.
         11    1    4    4    0    0 -0.19543689781E+02  0.67976004491E+02  0.17568179682E+02  0.72878899101E+02  0.00000000000E+00 0. -1.
        -13    1    3    3    0    0  0.39596918457E+02  0.17643379819E+02 -0.50502651542E+02  0.66556161364E+02  0.00000000000E+00 0.  1.
         13    1    3    3    0    0 -0.47180706489E+02  0.68661803099E+01 -0.26106083786E+02  0.54357070447E+02  0.00000000000E+00 0. -1.
         21    1    1    2  502  501  0.46522778371E+02 -0.80214468981E+02 -0.20521803653E+03  0.22519585356E+03  0.00000000000E+00 0.  1.
<scales pt_clust_5="13000.00000" pt_clust_6="13000.00000" pt_clust_7="13000.00000" pt_clust_8="13000.00000" pt_clust_9="92.72934"></scales>
<clustering>
<clus scale="   89.960">  7  8 -1 -1</clus>
<clus scale="   92.272">  5  6 -1 -1</clus>
<clus scale="   92.729">  2  9  1 -1</clus>
<clus scale="   95.009">  2  7  1 -1</clus>
<clus scale="   97.201">  1  5  2 -1</clus>
</clustering>
</event>
<event>
 9    1  0.1175034E-005  0.1074584E+03  0.7546771E-02  0.1267235E+00
          2   -1    0    0  502    0  0.00000000000E+00  0.00000000000E+00  0.17794046737E+03  0.17794046737E+03  0.00000000000E+00 0. -1.
         -2   -1    0    0    0  501 -0.00000000000E+00 -0.00000000000E+00 -0.15961759383E+03  0.15961759383E+03  0.00000000000E+00 0.  1.
         23    2    1    2    0    0  0.68786528224E+02  0.14146662738E+02 -0.54593743395E+02  0.12503108907E+03  0.87866841783E+02 0.  0.
         23    2    1    2    0    0 -0.51635997064E+02  0.67424760725E+01  0.11881214051E+03  0.15926445318E+03  0.92396450896E+02 0.  0.
        -11    1    3    3    0    0  0.85508624612E+02 -0.68974599862E+00 -0.27327037256E+02  0.89771752784E+02  0.00000000000E+00 0. -1.
         11    1    3    3    0    0 -0.16722096388E+02  0.14836408737E+02 -0.27266706138E+02  0.35259336288E+02  0.00000000000E+00 0.  1.
        -13    1    4    4    0    0  0.26293847777E+02 -0.61485893834E+01  0.27812409439E+02  0.38764696582E+02  0.00000000000E+00 0. -1.
         13    1    4    4    0    0 -0.77929844840E+02  0.12891065456E+02  0.90999731074E+02  0.12049975660E+03  0.00000000000E+00 0.  1.
         21    1    1    2  502  501 -0.17150531160E+02 -0.20889138811E+02 -0.45895523585E+02  0.53262518946E+02  0.00000000000E+00 0.  1.
<scales pt_clust_5="13000.00000" pt_clust_6="13000.00000" pt_clust_7="13000.00000" pt_clust_8="13000.00000" pt_clust_9="27.02771"></scales>
<clustering>
<clus scale="   27.028">  2  9  1 -1</clus>
<clus scale="   87.867">  5  6 -1 -1</clus>
<clus scale="   92.396">  7  8 -1 -1</clus>
<clus scale="  103.589">  2  5  1 -1</clus>
<clus scale="  107.458">  1  5  2 -1</clus>
</clustering>
</event>
<event>
 9    1  0.1175034E-005  0.1080604E+03  0.7546771E-02  0.1265068E+00
         -2   -1    0    0    0  501 -0.00000000000E+00  0.00000000000E+00  0.26194636832E+03  0.26194636832E+03  0.00000000000E+00 0.  1.
          2   -1    0    0  502    0  0.00000000000E+00 -0.00000000000E+00 -0.11487431146E+03  0.11487431146E+03  0.00000000000E+00 0. -1.
         23    2    1    2    0    0 -0.67704973853E+02 -0.15570787009E+02  0.14365729931E+03  0.18329307351E+03  0.90180476030E+02 0.  0.
         23    2    1    2    0    0  0.54010197261E+02 -0.41725820692E+01 -0.62107093200E+02  0.12373892199E+03  0.92301234776E+02 0.  0.
        -11    1    3    3    0    0 -0.72879766470E+02 -0.37455070343E+02  0.75130307497E+02  0.11117061554E+03  0.00000000000E+00 0.  1.
         11    1    3    3    0    0  0.51747926164E+01  0.21884283334E+02  0.68526991817E+02  0.72122457967E+02  0.00000000000E+00 0. -1.
        -13    1    4    4    0    0  0.49403212559E+02 -0.30345462605E+02 -0.19933302300E+01  0.58012911298E+02  0.00000000000E+00 0.  1.
         13    1    4    4    0    0  0.46069847023E+01  0.26172880536E+02 -0.60113762970E+02  0.65726010696E+02  0.00000000000E+00 0. -1.
         21    1    1    2  502  501  0.13694776592E+02  0.19743369078E+02  0.65521850743E+02  0.69788684278E+02  0.00000000000E+00 0. -1.
<scales pt_clust_5="13000.00000" pt_clust_6="13000.00000" pt_clust_7="13000.00000" pt_clust_8="13000.00000" pt_clust_9="24.02806"></scales>
<clustering>
<clus scale="   24.028">  1  9  2 -1</clus>
<clus scale="   90.180">  5  6 -1 -1</clus>
<clus scale="   92.301">  7  8 -1 -1</clus>
<clus scale="  106.255">  1  5  2 -1</clus>
<clus scale="  108.060">  2  5  1 -1</clus>
</clustering>
</event>
<event>
 9    1  0.1175034E-005  0.1144180E+03  0.7546771E-02  0.1252973E+00
          1   -1    0    0  502    0  0.00000000000E+00  0.00000000000E+00  0.43072868182E+03  0.43072868182E+03  0.00000000000E+00 0. -1.
         -1   -1    0    0    0  501 -0.00000000000E+00 -0.00000000000E+00 -0.44162717241E+02  0.44162717241E+02  0.00000000000E+00 0.  1.
         23    2    1    2    0    0 -0.23468171495E+02 -0.44591444174E+02  0.10084205389E+03  0.14529114197E+03  0.91658300970E+02 0.  0.
         23    2    1    2    0    0  0.12669038933E+02  0.80086423027E+02  0.25046833408E+03  0.27841949439E+03  0.90601814440E+02 0.  0.
        -11    1    4    4    0    0 -0.31562670819E+02  0.20533035580E+01  0.57575775755E+02  0.65691614369E+02  0.00000000000E+00 0.  1.
         11    1    4    4    0    0  0.44231709752E+02  0.78033119469E+02  0.19289255833E+03  0.21272788002E+03  0.00000000000E+00 0. -1.
        -13    1    3    3    0    0  0.32819877786E+01 -0.68531813532E+02  0.68996103419E+02  0.97302842697E+02  0.00000000000E+00 0.  1.
         13    1    3    3    0    0 -0.26750159274E+02  0.23940369359E+02  0.31845950468E+02  0.47988299276E+02  0.00000000000E+00 0. -1.
         21    1    1    2  502  501  0.10799132562E+02 -0.35494978853E+02  0.35255576610E+02  0.51180762694E+02  0.00000000000E+00 0. -1.
<scales pt_clust_5="13000.00000" pt_clust_6="13000.00000" pt_clust_7="13000.00000" pt_clust_8="13000.00000" pt_clust_9="37.10141"></scales>
<clustering>
<clus scale="   37.101">  2  9  1 -1</clus>
<clus scale="   90.602">  5  6 -1 -1</clus>
<clus scale="   91.658">  7  8 -1 -1</clus>
<clus scale="  113.573">  1  5  2 -1</clus>
<clus scale="  113.573">  1  5  2 -1</clus>
</clustering>
</event>
<event>
 9    1  0.1175034E-005  0.1127209E+03  0.7546771E-02  0.1257212E+00
         -2   -1    0    0    0  501 -0.00000000000E+00  0.00000000000E+00  0.10107512918E+03  0.10107512918E+03  0.00000000000E+00 0.  1.
          2   -1    0    0  502    0  0.00000000000E+00 -0.00000000000E+00 -0.20456253882E+03  0.20456253882E+03  0.00000000000E+00 0. -1.
         23    2    1    2    0    0  0.37994946801E+02 -0.47777253135E+02  0.27339193086E+01  0.11052644826E+03  0.92099617543E+02 0.  0.
         23    2    1    2    0    0 -0.19573605123E+02  0.64810996792E+02 -0.12249670183E+03  0.16520499939E+03  0.87770487878E+02 0.  0.
        -13    1    3    3    0    0  0.25405581459E+02 -0.23511339087E+02 -0.44242356702E+02  0.56174841001E+02  0.00000000000E+00 0. -1.
         13    1    3    3    0    0  0.12589365342E+02 -0.24265914048E+02  0.46976276010E+02  0.54351607263E+02  0.00000000000E+00 0.  1.
        -13    1    4    4    0    0  0.23312685220E+02  0.44325857233E+02 -0.23356434600E+02  0.55261070826E+02  0.00000000000E+00 0.  1.
         13    1    4    4    0    0 -0.42886290343E+02  0.20485139559E+02 -0.99140267233E+02  0.10994392857E+03  0.00000000000E+00 0. -1.
         21    1    1    2  502  501 -0.18421341678E+02 -0.17033743657E+02  0.16275372889E+02  0.29906220338E+02  0.00000000000E+00 0.  1.
<scales pt_clust_5="13000.00000" pt_clust_6="13000.00000" pt_clust_7="13000.00000" pt_clust_8="13000.00000" pt_clust_9="25.08972"></scales>
<clustering>
<clus scale="   25.090">  1  9  2 -1</clus>
<clus scale="   87.770">  7  8 -1 -1</clus>
<clus scale="   92.100">  5  6 -1 -1</clus>
<clus scale="  109.212">  2  7  1 -1</clus>
<clus scale="  109.212">  2  5  1 -1</clus>
</clustering>
</event>
<event>
 9    1  0.1175034E-005  0.9374734E+02  0.7546771E-02  0.1295344E+00
          1   -1    0    0  502    0  0.00000000000E+00  0.00000000000E+00  0.47076718680E+03  0.47076718680E+03  0.00000000000E+00 0. -1.
         -1   -1    0    0    0  501 -0.00000000000E+00 -0.00000000000E+00 -0.57733094078E+02  0.57733094078E+02  0.00000000000E+00 0.  1.
         23    2    1    2    0    0 -0.19293955853E+02 -0.19461440128E+02  0.12707555105E+03  0.15951980330E+03  0.92451974477E+02 0.  0.
         23    2    1    2    0    0 -0.98571474926E+00  0.12943751846E+02  0.31784371404E+03  0.33063455841E+03  0.90144729811E+02 0.  0.
        -13    1    4    4    0    0  0.26104188064E+02  0.43145515039E+02  0.16940527640E+03  0.17675155381E+03  0.00000000000E+00 0.  1.
         13    1    4    4    0    0 -0.27089902813E+02 -0.30201763193E+02  0.14843843765E+03  0.15388300460E+03  0.00000000000E+00 0. -1.
        -13    1    3    3    0    0 -0.29322476977E+02 -0.53458133975E+02  0.79187331724E+02  0.99941048872E+02  0.00000000000E+00 0. -1.
         13    1    3    3    0    0  0.10028521124E+02  0.33996693847E+02  0.47888219328E+02  0.59578754425E+02  0.00000000000E+00 0.  1.
         21    1    1    2  502  501  0.20279670602E+02  0.65176882823E+01 -0.31885172369E+02  0.38345919174E+02  0.00000000000E+00 0.  1.
<scales pt_clust_5="13000.00000" pt_clust_6="13000.00000" pt_clust_7="13000.00000" pt_clust_8="13000.00000" pt_clust_9="21.30130"></scales>
<clustering>
<clus scale="   21.301">  2  9  1 -1</clus>
<clus scale="   90.145">  5  6 -1 -1</clus>
<clus scale="   91.473">  1  5  2 -1</clus>
<clus scale="   92.452">  7  8 -1 -1</clus>
<clus scale="   91.473">  1  5  2 -1</clus>
</clustering>
</event>
<event>
 9    1  0.1175034E-005  0.1152396E+03  0.7546771E-02  0.1251403E+00
          1   -1    0    0  502    0  0.00000000000E+00  0.00000000000E+00  0.92812958855E+02  0.92812958855E+02  0.00000000000E+00 0. -1.
         -1   -1    0    0    0  501 -0.00000000000E+00 -0.00000000000E+00 -0.27368489197E+03  0.27368489197E+03  0.00000000000E+00 0.  1.
         23    2    1    2    0    0  0.43303171486E+01 -0.48298752148E+02 -0.16951829248E+03  0.19780377444E+03  0.89656904881E+02 0.  0.
         23    2    1    2    0    0 -0.59799861033E+01  0.77330880665E+02  0.25467930758E+02  0.12177484777E+03  0.90358578529E+02 0.  0.
        -13    1    3    3    0    0 -0.12550838588E+02 -0.71828880238E+02 -0.12420516188E+03  0.14402719821E+03  0.00000000000E+00 0.  1.
         13    1    3    3    0    0  0.16881155737E+02  0.23530128090E+02 -0.45313130598E+02  0.53776576235E+02  0.00000000000E+00 0. -1.
        -13    1    4    4    0    0  0.22543496409E+02  0.83494969206E+02  0.59949014459E+01  0.86692317747E+02  0.00000000000E+00 0. -1.
         13    1    4    4    0    0 -0.28523482512E+02 -0.61640885406E+01  0.19473029312E+02  0.35082530022E+02  0.00000000000E+00 0.  1.
         21    1    1    2  502  501  0.16496689547E+01 -0.29032128517E+02 -0.36821571394E+02  0.46919228614E+02  0.00000000000E+00 0. -1.
<scales pt_clust_5="13000.00000" pt_clust_6="13000.00000" pt_clust_7="13000.00000" pt_clust_8="13000.00000" pt_clust_9="29.07896"></scales>
<clustering>
<clus scale="   29.079">  2  9  1 -1</clus>
<clus scale="   89.657">  5  6 -1 -1</clus>
<clus scale="   90.359">  7  8 -1 -1</clus>
<clus scale="  114.690">  2  5  1 -1</clus>
<clus scale="  115.240">  1  5  2 -1</clus>
</clustering>
</event>
<event>
 9    1  0.1175034E-005  0.9243517E+02  0.7546771E-02  0.1297283E+00
         -2   -1    0    0    0  501 -0.00000000000E+00  0.00000000000E+00  0.20902107354E+03  0.20902107354E+03  0.00000000000E+00 0.  1.
          2   -1    0    0  502    0  0.00000000000E+00 -0.00000000000E+00 -0.82556444082E+02  0.82556444082E+02  0.00000000000E+00 0. -1.
         23    2    1    2    0    0  0.55382447504E+01 -0.12072698567E+02  0.84631533734E+02  0.12409374349E+03  0.89779387760E+02 0.  0.
         23    2    1    2    0    0  0.13399640547E+02  0.20606979343E+02 -0.25616152936E+02  0.96908434294E+02  0.90171278030E+02 0.  0.
        -11    1    3    3    0    0 -0.35844679826E+02 -0.10303071836E+02  0.97978509251E+01  0.38561538401E+02  0.00000000000E+00 0. -1.
         11    1    3    3    0    0  0.41382924577E+02 -0.17696267315E+01  0.74833682809E+02  0.85532205093E+02  0.00000000000E+00 0.  1.
        -11    1    4    4    0    0  0.32801963990E+02  0.48986450092E+02 -0.18626745973E+02  0.61827152609E+02  0.00000000000E+00 0. -1.
         11    1    4    4    0    0 -0.19402323443E+02 -0.28379470749E+02 -0.69894069633E+01  0.35081281685E+02  0.00000000000E+00 0.  1.
         21    1    1    2  502  501 -0.18937885297E+02 -0.85342807761E+01  0.67449248663E+02  0.70575339837E+02  0.00000000000E+00 0.  1.
<scales pt_clust_5="13000.00000" pt_clust_6="13000.00000" pt_clust_7="13000.00000" pt_clust_8="13000.00000" pt_clust_9="20.77204"></scales>
<clustering>
<clus scale="   20.772">  1  9  2 -1</clus>
<clus scale="   89.779">  5  6 -1 -1</clus>
<clus scale="   90.171">  7  8 -1 -1</clus>
<clus scale="   92.053">  1  5  2 -1</clus>
<clus scale="   92.435">  2  5  1 -1</clus>
</clustering>
</event>
<event>
 9    1  0.1175034E-005  0.1697907E+03  0.7546771E-02  0.1178193E+00
          2   -1    0    0  502    0  0.00000000000E+00  0.00000000000E+00  0.30507606288E+03  0.30507606288E+03  0.00000000000E+00 0. -1.
         -2   -1    0    0    0  501 -0.00000000000E+00 -0.00000000000E+00 -0.12540658467E+03  0.12540658467E+03  0.00000000000E+00 0.  1.
         23    2    1    2    0    0  0.12875631653E+03 -0.10514611006E+02  0.79194776399E+01  0.15809598595E+03  0.90790288878E+02 0.  0.
         23    2    1    2    0    0 -0.14894599299E+03  0.12021503704E+02  0.17930807152E+03  0.25077605778E+03  0.91694172469E+02 0.  0.
        -11    1    3    3    0    0  0.12454892777E+03 -0.34172638973E+02  0.20825574189E+02  0.13082014067E+03  0.00000000000E+00 0.  1.
         11    1    3    3    0    0  0.42073887583E+01  0.23658027968E+02 -0.12906096549E+02  0.27275845278E+02  0.00000000000E+00 0. -1.
        -13    1    4    4    0    0 -0.64232403193E+02  0.89820103592E+01  0.14589278057E+03  0.15965958020E+03  0.00000000000E+00 0. -1.
         13    1    4    4    0    0 -0.84713589798E+02  0.30394933452E+01  0.33415290952E+02  0.91116477575E+02  0.00000000000E+00 0.  1.
         21    1    1    2  502  501  0.20189676458E+02 -0.15068926989E+01 -0.75580709544E+01  0.21610603824E+02  0.00000000000E+00 0. -1.
<scales pt_clust_5="13000.00000" pt_clust_6="13000.00000" pt_clust_7="13000.00000" pt_clust_8="13000.00000" pt_clust_9="20.24583"></scales>
<clustering>
<clus scale="   20.246">  2  9  1 -1</clus>
<clus scale="   90.790">  5  6 -1 -1</clus>
<clus scale="   91.694">  7  8 -1 -1</clus>
<clus scale="  169.304">  2  5  1 -1</clus>
<clus scale="  169.791">  1  5  2 -1</clus>
</clustering>
</event>
<event>
 9    1  0.1175034E-005  0.9840082E+02  0.7546771E-02  0.1288139E+00
         -2   -1    0    0    0  501 -0.00000000000E+00  0.00000000000E+00  0.26928072637E+02  0.26928072637E+02  0.00000000000E+00 0.  1.
          2   -1    0    0  502    0  0.00000000000E+00 -0.00000000000E+00 -0.45257299101E+03  0.45257299101E+03  0.00000000000E+00 0. -1.
         23    2    1    2    0    0 -0.46142612719E+01  0.31674586033E+00 -0.19547703395E+03  0.21876533804E+03  0.98110196159E+02 0.  0.
         23    2    1    2    0    0 -0.17348819743E+02  0.37117085494E+00 -0.21567918916E+03  0.23441515480E+03  0.90176675757E+02 0.  0.
        -13    1    3    3    0    0 -0.44113936029E+02 -0.16257353777E+02 -0.57400096360E+02  0.74196441733E+02  0.00000000000E+00 0.  1.
         13    1    3    3    0    0  0.39499674757E+02  0.16574099637E+02 -0.13807693759E+03  0.14456889631E+03  0.00000000000E+00 0. -1.
        -13    1    4    4    0    0  0.26919073539E+02 -0.15990144770E+02 -0.31999633726E+02  0.44769384724E+02  0.00000000000E+00 0. -1.
         13    1    4    4    0    0 -0.44267893283E+02  0.16361315625E+02 -0.18367955543E+03  0.18964577008E+03  0.00000000000E+00 0.  1.
         21    1    1    2  502  501  0.21963081015E+02 -0.68791671527E+00 -0.14488695267E+02  0.26320570807E+02  0.00000000000E+00 0. -1.
<scales pt_clust_5="13000.00000" pt_clust_6="13000.00000" pt_clust_7="13000.00000" pt_clust_8="13000.00000" pt_clust_9="21.97385"></scales>
<clustering>
<clus scale="   21.974">  1  9  2 -1</clus>
<clus scale="   90.177">  7  8 -1 -1</clus>
<clus scale="   90.493">  2  7  1 -1</clus>
<clus scale="   98.110">  5  6 -1 -1</clus>
<clus scale="   90.493">  2  5  1 -1</clus>
</clustering>
</event>
<event>
 9    1  0.1175034E-005  0.1304723E+03  0.7546771E-02  0.1226936E+00
         -1   -1    0    0    0  501 -0.00000000000E+00  0.00000000000E+00  0.16462553026E+03  0.16462553026E+03  0.00000000000E+00 0.  1.
          1   -1    0    0  502    0  0.00000000000E+00 -0.00000000000E+00 -0.43290937332E+03  0.43290937332E+03  0.00000000000E+00 0. -1.
         23    2    1    2    0    0  0.16542716057E+03 -0.25157774250E+02 -0.11537669499E+02  0.19077559419E+03  0.90901872703E+02 0.  0.
         23    2    1    2    0    0 -0.79622241205E+02  0.21962943533E+02 -0.28964281364E+03  0.31480888765E+03  0.91594781864E+02 0.  0.
        -11    1    3    3    0    0  0.90382887297E+02 -0.77596143913E+01 -0.51161361545E+02  0.10414779329E+03  0.00000000000E+00 0. -1.
         11    1    3    3    0    0  0.75044273270E+02 -0.17398159858E+02  0.39623692045E+02  0.86627800898E+02  0.00000000000E+00 0.  1.
        -11    1    4    4    0    0 -0.25494668238E+02  0.49733848937E+02 -0.19012712467E+03  0.19817103061E+03  0.00000000000E+00 0.  1.
         11    1    4    4    0    0 -0.54127572968E+02 -0.27770905404E+02 -0.99515688969E+02  0.11663785703E+03  0.00000000000E+00 0. -1.
         21    1    1    2  502  501 -0.85804919362E+02  0.31948307170E+01  0.32896640084E+02  0.91950421744E+02  0.00000000000E+00 0.  1.
<scales pt_clust_5="13000.00000" pt_clust_6="13000.00000" pt_clust_7="13000.00000" pt_clust_8="13000.00000" pt_clust_9="85.86438"></scales>
<clustering>
<clus scale="   85.864">  1  9  2 -1</clus>
<clus scale="   90.902">  5  6 -1 -1</clus>
<clus scale="   91.595">  7  8 -1 -1</clus>
<clus scale="  129.987">  1  5  2 -1</clus>
<clus scale="  130.472">  2  5  1 -1</clus>
</clustering>
</event>
<event>
 9    1  0.1175034E-005  0.1445455E+03  0.7546771E-02  0.1207727E+00
         -1   -1    0    0    0  501 -0.00000000000E+00  0.00000000000E+00  0.23159062130E+03  0.23159062130E+03  0.00000000000E+00 0.  1.
          1   -1    0    0  502    0  0.00000000000E+00 -0.00000000000E+00 -0.13514225234E+03  0.13514225234E+03  0.00000000000E+00 0. -1.
         23    2    1    2    0    0 -0.69892196753E+02  0.77605283541E+02  0.63129462071E+02  0.15638136677E+03  0.97787032330E+02 0.  0.
         23    2    1    2    0    0  0.52024564397E+02 -0.92288849900E+02 -0.25109200987E+02  0.14751279908E+03  0.99527718766E+02 0.  0.
        -11    1    3    3    0    0 -0.37928835277E+02  0.97336719246E+02  0.37882109465E+02  0.11112194957E+03  0.00000000000E+00 0. -1.
         11    1    3    3    0    0 -0.31963361476E+02 -0.19731435705E+02  0.25247352606E+02  0.45259417202E+02  0.00000000000E+00 0.  1.
        -13    1    4    4    0    0  0.81692199083E+02 -0.60435957018E+02 -0.21227787575E+02  0.10381107483E+03  0.00000000000E+00 0.  1.
         13    1    4    4    0    0 -0.29667634686E+02 -0.31852892882E+02 -0.38814134115E+01  0.43701724256E+02  0.00000000000E+00 0. -1.
         21    1    1    2  502  501  0.17867632356E+02  0.14683566359E+02  0.58428107871E+02  0.62838707788E+02  0.00000000000E+00 0.  1.
<scales pt_clust_5="13000.00000" pt_clust_6="13000.00000" pt_clust_7="13000.00000" pt_clust_8="13000.00000" pt_clust_9="23.12703"></scales>
<clustering>
<clus scale="   23.127">  1  9  2 -1</clus>
<clus scale="   97.787">  5  6 -1 -1</clus>
<clus scale="   99.528">  7  8 -1 -1</clus>
<clus scale="  143.352">  1  5  2 -1</clus>
<clus scale="  144.545">  2  5  1 -1</clus>
</clustering>
</event>
<event>
 9    1  0.1175034E-005  0.1285249E+03  0.7546771E-02  0.1230278E+00
          2   -1    0    0  502    0  0.00000000000E+00  0.00000000000E+00  0.18992637088E+03  0.18992637088E+03  0.00000000000E+00 0. -1.
         -2   -1    0    0    0  501 -0.00000000000E+00 -0.00000000000E+00 -0.15672942973E+03  0.15672942973E+03  0.00000000000E+00 0.  1.
         23    2    1    2    0    0  0.56768229632E+02  0.62709717469E+02 -0.81552955571E+02  0.14857702476E+03  0.90934631273E+02 0.  0.
         23    2    1    2    0    0 -0.65358192790E+02 -0.81943122771E+02  0.10243652103E+03  0.17367937898E+03  0.93192902662E+02 0.  0.
        -13    1    3    3    0    0  0.81481134721E+02  0.41996968047E+02 -0.64634645036E+02  0.11216308653E+03  0.00000000000E+00 0.  1.
         13    1    3    3    0    0 -0.24712905089E+02  0.20712749422E+02 -0.16918310536E+02  0.36413938237E+02  0.00000000000E+00 0. -1.
        -13    1    4    4    0    0  0.21808423112E+01 -0.24492363915E+02 -0.13241416967E+02  0.27927890837E+02  0.00000000000E+00 0.  1.
         13    1    4    4    0    0 -0.67539035101E+02 -0.57450758856E+02  0.11567793800E+03  0.14575148814E+03  0.00000000000E+00 0. -1.
         21    1    1    2  502  501  0.85899631580E+01  0.19233405302E+02  0.12313375694E+02  0.24399396869E+02  0.00000000000E+00 0. -1.
<scales pt_clust_5="13000.00000" pt_clust_6="13000.00000" pt_clust_7="13000.00000" pt_clust_8="13000.00000" pt_clust_9="21.06446"></scales>
<clustering>
<clus scale="   21.064">  1  9  2 -1</clus>
<clus scale="   90.935">  5  6 -1 -1</clus>
<clus scale="   93.193">  7  8 -1 -1</clus>
<clus scale="  126.897">  2  5  1 -1</clus>
<clus scale="   21.064">  1  5  2 -1</clus>
</clustering>
</event>
<event>
 9    1  0.1175034E-005  0.1207501E+03  0.7546771E-02  0.1245370E+00
          3   -1    0    0  502    0  0.00000000000E+00  0.00000000000E+00  0.11965066024E+03  0.11965066024E+03  0.00000000000E+00 0. -1.
         -3   -1    0    0    0  501 -0.00000000000E+00 -0.00000000000E+00 -0.25105787262E+03  0.25105787262E+03  0.00000000000E+00 0.  1.
         23    2    1    2    0    0 -0.45256293285E+02  0.73168908622E+01 -0.93729469568E+02  0.13861911689E+03  0.91259942626E+02 0.  0.
         23    2    1    2    0    0  0.51096868624E+02  0.67711768459E+02  0.24652204540E+02  0.13437332529E+03  0.10125554696E+03 0.  0.
        -11    1    3    3    0    0 -0.41023499147E+00  0.20394287138E+02 -0.89408383613E+02  0.91705802984E+02  0.00000000000E+00 0.  1.
         11    1    3    3    0    0 -0.44846058293E+02 -0.13077396276E+02 -0.43210859551E+01  0.46913313906E+02  0.00000000000E+00 0. -1.
        -11    1    4    4    0    0 -0.18713325754E+02  0.23056069521E+02  0.40279219438E+02  0.50041846699E+02  0.00000000000E+00 0.  1.
         11    1    4    4    0    0  0.69810194378E+02  0.44655698939E+02 -0.15627014897E+02  0.84331478591E+02  0.00000000000E+00 0. -1.
         21    1    1    2  502  501 -0.58405753394E+01 -0.75028659321E+02 -0.62329947356E+02  0.97716090677E+02  0.00000000000E+00 0.  1.
<scales pt_clust_5="13000.00000" pt_clust_6="13000.00000" pt_clust_7="13000.00000" pt_clust_8="13000.00000" pt_clust_9="75.25564"></scales>
<clustering>
<clus scale="   75.256">  2  9  1 -1</clus>
<clus scale="   91.260">  5  6 -1 -1</clus>
<clus scale="  101.256">  7  8 -1 -1</clus>
<clus scale="  112.500">  2  5  1 -1</clus>
<clus scale="  120.750">  1  5  2 -1</clus>
</clustering>
</event>
<event>
 9    1  0.1175034E-005  0.9237877E+02  0.7546771E-02  0.1300326E+00
         -1   -1    0    0    0  501 -0.00000000000E+00  0.00000000000E+00  0.44008532999E+03  0.44008532999E+03  0.00000000000E+00 0.  1.
          1   -1    0    0  502    0  0.00000000000E+00 -0.00000000000E+00 -0.10442666791E+03  0.10442666791E+03  0.00000000000E+00 0. -1.
         23    2    1    2    0    0  0.23747089185E+02  0.12306425185E+02  0.30499566664E+03  0.31794471756E+03  0.85738640104E+02 0.  0.
         23    2    1    2    0    0 -0.92401857133E+01  0.13796787886E+02 -0.73528757567E+02  0.11818024526E+03  0.91018458519E+02 0.  0.
        -13    1    4    4    0    0  0.18385666551E+02 -0.33182045705E+02 -0.27682152971E+02  0.46961500027E+02  0.00000000000E+00 0. -1.
         13    1    4    4    0    0 -0.27625852264E+02  0.46978833591E+02 -0.45846604596E+02  0.71218745228E+02  0.00000000000E+00 0.  1.
        -13    1    3    3    0    0  0.35430575176E+02  0.43495119877E+02  0.17636833328E+03  0.18507549837E+03  0.00000000000E+00 0. -1.
         13    1    3    3    0    0 -0.11683485991E+02 -0.31188694693E+02  0.12862733336E+03  0.13286921919E+03  0.00000000000E+00 0.  1.
         21    1    1    2  502  501 -0.14506903472E+02 -0.26103213071E+02  0.10419175301E+03  0.10838703509E+03  0.00000000000E+00 0.  1.
<scales pt_clust_5="13000.00000" pt_clust_6="13000.00000" pt_clust_7="13000.00000" pt_clust_8="13000.00000" pt_clust_9="29.86349"></scales>
<clustering>
<clus scale="   29.863">  1  9  2 -1</clus>
<clus scale="   85.739">  7  8 -1 -1</clus>
<clus scale="   87.181">  1  7  2 -1</clus>
<clus scale="   91.018">  5  6 -1 -1</clus>
<clus scale="   92.379">  2  5  1 -1</clus>
</clustering>
</event>
<event>
 9    1  0.1175034E-005  0.2415148E+03  0.7546771E-02  0.1119432E+00
          3   -1    0    0  502    0  0.00000000000E+00  0.00000000000E+00  0.21410341029E+03  0.21410341029E+03  0.00000000000E+00 0. -1.
         -3   -1    0    0    0  501 -0.00000000000E+00 -0.00000000000E+00 -0.33829775070E+03  0.33829775070E+03  0.00000000000E+00 0.  1.
         23    2    1    2    0    0 -0.12951546897E+03  0.15812906431E+03 -0.16415992706E+03  0.28114925655E+03  0.10157443143E+03 0.  0.
         23    2    1    2    0    0  0.14745785968E+03 -0.17100814209E+03  0.46497509385E+02  0.24822005599E+03  0.91997678094E+02 0.  0.
        -13    1    4    4    0    0  0.45580559701E+02 -0.11114518869E+01  0.55369142533E+01  0.45929077581E+02  0.00000000000E+00 0.  1.
         13    1    4    4    0    0  0.10187729998E+03 -0.16989669020E+03  0.40960595132E+02  0.20229097841E+03  0.00000000000E+00 0. -1.
        -13    1    3    3    0    0  0.10357270244E+02  0.37300165952E+02 -0.88123567798E+01  0.39701801710E+02  0.00000000000E+00 0. -1.
         13    1    3    3    0    0 -0.13987273921E+03  0.12082889836E+03 -0.15534757028E+03  0.24144745484E+03  0.00000000000E+00 0.  1.
         21    1    1    2  502  501 -0.17942390713E+02  0.12879077776E+02 -0.65319227338E+01  0.23031848459E+02  0.00000000000E+00 0. -1.
<scales pt_clust_5="13000.00000" pt_clust_6="13000.00000" pt_clust_7="13000.00000" pt_clust_8="13000.00000" pt_clust_9="22.08620"></scales>
<clustering>
<clus scale="   22.086">  2  9  1 -1</clus>
<clus scale="   91.998">  5  6 -1 -1</clus>
<clus scale="  101.574">  7  8 -1 -1</clus>
<clus scale="  237.646">  1  5  2 -1</clus>
<clus scale="  237.646">  1  5  2 -1</clus>
</clustering>
</event>
<event>
 9    1  0.1175034E-005  0.1020084E+03  0.7546771E-02  0.1276272E+00
          1   -1    0    0  502    0  0.00000000000E+00  0.00000000000E+00  0.24725093351E+03  0.24725093351E+03  0.00000000000E+00 0. -1.
         -1   -1    0    0    0  501 -0.00000000000E+00 -0.00000000000E+00 -0.59392687116E+02  0.59392687116E+02  0.00000000000E+00 0.  1.
         23    2    1    2    0    0  0.39373155837E+02 -0.42449041840E+02  0.53401582860E+02  0.12138421837E+03  0.92359259763E+02 0.  0.
         23    2    1    2    0    0 -0.23174202738E+02  0.27733941002E+02  0.12928908859E+03  0.16277287062E+03  0.92049572654E+02 0.  0.
        -11    1    3    3    0    0 -0.29641012138E+02 -0.48213627278E+01  0.10366990012E+02  0.31769633631E+02  0.00000000000E+00 0. -1.
         11    1    3    3    0    0  0.69014167975E+02 -0.37627679112E+02  0.43034592848E+02  0.89614584740E+02  0.00000000000E+00 0.  1.
        -13    1    4    4    0    0 -0.26806093838E+02  0.60369370561E+02  0.86582455825E+02  0.10890155750E+03  0.00000000000E+00 0. -1.
         13    1    4    4    0    0  0.36318910999E+01 -0.32635429559E+02  0.42706632765E+02  0.53871313123E+02  0.00000000000E+00 0.  1.
         21    1    1    2  502  501 -0.16198953099E+02  0.14715100838E+02  0.51675749455E+01  0.22486531635E+02  0.00000000000E+00 0.  1.
<scales pt_clust_5="13000.00000" pt_clust_6="13000.00000" pt_clust_7="13000.00000" pt_clust_8="13000.00000" pt_clust_9="21.88470"></scales>
<clustering>
<clus scale="   21.885">  2  9  1 -1</clus>
<clus scale="   92.050">  7  8 -1 -1</clus>
<clus scale="   92.359">  5  6 -1 -1</clus>
<clus scale="  101.728">  1  7  2 -1</clus>
<clus scale="  101.728">  1  5  2 -1</clus>
</clustering>
</event>
<event>
 9    1  0.1175034E-005  0.1025927E+03  0.7546771E-02  0.1275690E+00
         -2   -1    0    0    0  501 -0.00000000000E+00  0.00000000000E+00  0.41064583296E+03  0.41064583296E+03  0.00000000000E+00 0.  1.
          2   -1    0    0  502    0  0.00000000000E+00 -0.00000000000E+00 -0.28807559919E+03  0.28807559919E+03  0.00000000000E+00 0. -1.
         23    2    1    2    0    0 -0.43765870699E+02  0.16668548372E+01 -0.19554097760E+02  0.10309015476E+03  0.91252328327E+02 0.  0.
         23    2    1    2    0    0  0.12466205013E+02  0.51156126890E+02 -0.21139109577E+03  0.23682339871E+03  0.92880413549E+02 0.  0.
        -13    1    3    3    0    0 -0.15491396234E+02 -0.23325381043E+02 -0.48179125748E+02  0.55725083364E+02  0.00000000000E+00 0.  1.
         13    1    3    3    0    0 -0.28274474465E+02  0.24992235880E+02  0.28625027988E+02  0.47365071391E+02  0.00000000000E+00 0. -1.
        -13    1    4    4    0    0  0.37256833085E+02  0.72514416072E+01 -0.16146787928E+03  0.16586901777E+03  0.00000000000E+00 0. -1.
         13    1    4    4    0    0 -0.24790628073E+02  0.43904685282E+02 -0.49923216485E+02  0.70954380937E+02  0.00000000000E+00 0.  1.
         21    1    1    2  502  501  0.31299665686E+02 -0.52822981727E+02  0.35351542729E+03  0.35880787868E+03  0.00000000000E+00 0.  1.
<scales pt_clust_5="13000.00000" pt_clust_6="13000.00000" pt_clust_7="13000.00000" pt_clust_8="13000.00000" pt_clust_9="61.39981"></scales>
<clustering>
<clus scale="   61.400">  1  9  2 -1</clus>
<clus scale="   91.252">  5  6 -1 -1</clus>
<clus scale="   92.880">  7  8 -1 -1</clus>
<clus scale="  101.121">  1  5  2 -1</clus>
<clus scale="  102.593">  2  5  1 -1</clus>
</clustering>
</event>
<event>
 9    1  0.1175034E-005  0.1357452E+03  0.7546771E-02  0.1222436E+00
          2   -1    0    0  502    0  0.00000000000E+00  0.00000000000E+00  0.51594324892E+03  0.51594324892E+03  0.00000000000E+00 0.  1.
         -2   -1    0    0    0  501 -0.00000000000E+00 -0.00000000000E+00 -0.64425845122E+02  0.64425845122E+02  0.00000000000E+00 0. -1.
         23    2    1    2    0    0  0.25405576394E+02 -0.10713714822E+03  0.15967413246E+03  0.21442348092E+03  0.91420942635E+02 0.  0.
         23    2    1    2    0    0 -0.43941717032E+02  0.65262760182E+02  0.29255450159E+03  0.32014650033E+03  0.10351590658E+03 0.  0.
        -11    1    4    4    0    0 -0.77962091019E+02  0.47490697951E+02  0.21637663551E+03  0.23484527337E+03  0.00000000000E+00 0.  1.
         11    1    4    4    0    0  0.34020373987E+02  0.17772062231E+02  0.76177866072E+02  0.85301226964E+02  0.00000000000E+00 0. -1.
        -11    1    3    3    0    0  0.39278513194E+02 -0.80416384347E+01  0.66766905729E+02  0.77879966924E+02  0.00000000000E+00 0.  1.
         11    1    3    3    0    0 -0.13872936800E+02 -0.99095509790E+02  0.92907226728E+02  0.13654351400E+03  0.00000000000E+00 0. -1.
         21    1    1    2  502  501  0.18536140638E+02  0.41874388043E+02 -0.71123024637E+00  0.45799112788E+02  0.00000000000E+00 0. -1.
<scales pt_clust_5="13000.00000" pt_clust_6="13000.00000" pt_clust_7="13000.00000" pt_clust_8="13000.00000" pt_clust_9="45.79359"></scales>
<clustering>
<clus scale="   45.794">  2  9  1 -1</clus>
<clus scale="   91.421">  7  8 -1 -1</clus>
<clus scale="  103.516">  5  6 -1 -1</clus>
<clus scale="  126.764">  2  7  1 -1</clus>
<clus scale="  135.745">  1  5  2 -1</clus>
</clustering>
</event>
<event>
 9    1  0.1175034E-005  0.1022220E+03  0.7546771E-02  0.1276150E+00
         -1   -1    0    0    0  501 -0.00000000000E+00  0.00000000000E+00  0.43957709761E+02  0.43957709761E+02  0.00000000000E+00 0.  1.
          1   -1    0    0  502    0  0.00000000000E+00 -0.00000000000E+00 -0.50055108012E+03  0.50055108012E+03  0.00000000000E+00 0. -1.
         23    2    1    2    0    0  0.37325785277E+01 -0.61914253974E+02 -0.98785760869E+02  0.14793602836E+03  0.90989751894E+02 0.  0.
         23    2    1    2    0    0 -0.72086051035E+01  0.39162948594E+02 -0.35977218090E+03  0.37347375292E+03  0.91983267170E+02 0.  0.
        -11    1    4    4    0    0 -0.42289485678E+02 -0.45224371786E+01 -0.12238474783E+03  0.12956419080E+03  0.00000000000E+00 0.  1.
         11    1    4    4    0    0  0.35080880574E+02  0.43685385772E+02 -0.23738743307E+03  0.24390956212E+03  0.00000000000E+00 0. -1.
        -13    1    3    3    0    0  0.34465918896E+00 -0.81914895561E+02 -0.97873603758E+02  0.12762997774E+03  0.00000000000E+00 0.  1.
         13    1    3    3    0    0  0.33879193387E+01  0.20000641588E+02 -0.91215711019E+00  0.20306050624E+02  0.00000000000E+00 0. -1.
         21    1    1    2  502  501  0.34760265758E+01  0.22751305380E+02  0.19645714136E+01  0.23099008595E+02  0.00000000000E+00 0. -1.
<scales pt_clust_5="13000.00000" pt_clust_6="13000.00000" pt_clust_7="13000.00000" pt_clust_8="13000.00000" pt_clust_9="23.01531"></scales>
<clustering>
<clus scale="   23.015">  1  9  2 -1</clus>
<clus scale="   90.990">  7  8 -1 -1</clus>
<clus scale="   91.983">  5  6 -1 -1</clus>
<clus scale="  101.329">  1  7  2 -1</clus>
<clus scale="  102.222">  2  5  1 -1</clus>
</clustering>
</event>
<event>
 9    1  0.1175034E-005  0.1067188E+03  0.7546771E-02  0.1266803E+00
          2   -1    0    0  502    0  0.00000000000E+00  0.00000000000E+00  0.42394971388E+03  0.42394971388E+03  0.00000000000E+00 0. -1.
         -2   -1    0    0    0  501 -0.00000000000E+00 -0.00000000000E+00 -0.40005183885E+02  0.40005183885E+02  0.00000000000E+00 0.  1.
         23    2    1    2    0    0 -0.15313296069E+02 -0.46741413291E+02  0.16211212010E+03  0.19174693862E+03  0.89818106366E+02 0.  0.
         23    2    1    2    0    0  0.43423026001E+02  0.51620852041E+02  0.21549412707E+03  0.24298229118E+03  0.89735185233E+02 0.  0.
        -13    1    3    3    0    0  0.16295239581E+02  0.16837851515E+02  0.13495785573E+02  0.27040419836E+02  0.00000000000E+00 0. -1.
         13    1    3    3    0    0 -0.31608535651E+02 -0.63579264806E+02  0.14861633453E+03  0.16470651878E+03  0.00000000000E+00 0.  1.
        -13    1    4    4    0    0  0.40087573177E+02 -0.14971737275E+02  0.59077015601E+02  0.72946968495E+02  0.00000000000E+00 0.  1.
         13    1    4    4    0    0  0.33354528243E+01  0.66592589317E+02  0.15641711147E+03  0.17003532268E+03  0.00000000000E+00 0. -1.
         21    1    1    2  502  501 -0.28109729932E+02 -0.48794387507E+01  0.63382828146E+01  0.29225667972E+02  0.00000000000E+00 0.  1.
<scales pt_clust_5="13000.00000" pt_clust_6="13000.00000" pt_clust_7="13000.00000" pt_clust_8="13000.00000" pt_clust_9="28.53009"></scales>
<clustering>
<clus scale="   28.530">  2  9  1 -1</clus>
<clus scale="   89.735">  7  8 -1 -1</clus>
<clus scale="   89.818">  5  6 -1 -1</clus>
<clus scale="  106.649">  1  7  2 -1</clus>
<clus scale="  106.649">  1  5  2 -1</clus>
</clustering>
</event>
<event>
 9    1  0.1175034E-005  0.2275731E+03  0.7546771E-02  0.1128399E+00
         -3   -1    0    0    0  501 -0.00000000000E+00  0.00000000000E+00  0.15451835655E+03  0.15451835655E+03  0.00000000000E+00 0.  1.
          3   -1    0    0  502    0  0.00000000000E+00 -0.00000000000E+00 -0.55588440067E+03  0.55588440067E+03  0.00000000000E+00 0. -1.
         23    2    1    2    0    0  0.88962896371E+02 -0.23757794027E+03 -0.10814027382E+03  0.29113732177E+03  0.93321737400E+02 0.  0.
         23    2    1    2    0    0 -0.58667858576E+02  0.18068470799E+03 -0.28415173006E+03  0.35417344362E+03  0.92777912978E+02 0.  0.
        -13    1    3    3    0    0  0.21006636427E+02 -0.49878475980E+02  0.15536507401E+02  0.56307408059E+02  0.00000000000E+00 0. -1.
         13    1    3    3    0    0  0.67956259944E+02 -0.18769946429E+03 -0.12367678122E+03  0.23482991371E+03  0.00000000000E+00 0.  1.
        -13    1    4    4    0    0 -0.80386298439E+02  0.12138380470E+03 -0.22262940926E+03  0.26600721585E+03  0.00000000000E+00 0. -1.
         13    1    4    4    0    0  0.21718439863E+02  0.59300903294E+02 -0.61522320808E+02  0.88166227770E+02  0.00000000000E+00 0.  1.
         21    1    1    2  502  501 -0.30295037795E+02  0.56893232282E+02 -0.90740402346E+01  0.65091991832E+02  0.00000000000E+00 0.  1.
<scales pt_clust_5="13000.00000" pt_clust_6="13000.00000" pt_clust_7="13000.00000" pt_clust_8="13000.00000" pt_clust_9="64.45641"></scales>
<clustering>
<clus scale="   64.456">  1  9  2 -1</clus>
<clus scale="   92.778">  7  8 -1 -1</clus>
<clus scale="   93.322">  5  6 -1 -1</clus>
<clus scale="  227.351">  2  7  1 -1</clus>
<clus scale="  227.351">  2  5  1 -1</clus>
</clustering>
</event>
<event>
 9    1  0.1175034E-005  0.1090948E+03  0.7546771E-02  0.1262741E+00
          1   -1    0    0  502    0  0.00000000000E+00  0.00000000000E+00  0.67774776774E+03  0.67774776774E+03  0.00000000000E+00 0. -1.
         -1   -1    0    0    0  501 -0.00000000000E+00 -0.00000000000E+00 -0.78856432030E+02  0.78856432030E+02  0.00000000000E+00 0.  1.
         23    2    1    2    0    0  0.39805791245E+02 -0.43464526188E+02 -0.18963017119E+02  0.10956118161E+03  0.90390212109E+02 0.  0.
         23    2    1    2    0    0 -0.90360083402E+02  0.32321554067E+02  0.52111088060E+03  0.53731972208E+03  0.89142056991E+02 0.  0.
        -11    1    3    3    0    0  0.16023272364E+02 -0.40465953672E+02 -0.52590763137E+02  0.68264390652E+02  0.00000000000E+00 0.  1.
         11    1    3    3    0    0  0.23782518882E+02 -0.29985725164E+01  0.33627746018E+02  0.41296790962E+02  0.00000000000E+00 0. -1.
        -11    1    4    4    0    0 -0.81662915028E+01  0.45973865135E+02  0.15694427553E+03  0.16374306158E+03  0.00000000000E+00 0.  1.
         11    1    4    4    0    0 -0.82193791899E+02 -0.13652311068E+02  0.36416660507E+03  0.37357666050E+03  0.00000000000E+00 0. -1.
         21    1    1    2  502  501  0.50554292157E+02  0.11142972121E+02  0.96743472226E+02  0.10972329607E+03  0.00000000000E+00 0.  1.
<scales pt_clust_5="13000.00000" pt_clust_6="13000.00000" pt_clust_7="13000.00000" pt_clust_8="13000.00000" pt_clust_9="51.76777"></scales>
<clustering>
<clus scale="   51.768">  1  9  2 -1</clus>
<clus scale="   89.142">  7  8 -1 -1</clus>
<clus scale="   90.390">  5  6 -1 -1</clus>
<clus scale="  108.063">  1  7  2 -1</clus>
<clus scale="   51.768">  1  5  2 -1</clus>
</clustering>
</event>
<event>
 9    1  0.1175034E-005  0.2188224E+03  0.7546771E-02  0.1134863E+00
         -1   -1    0    0    0  501 -0.00000000000E+00  0.00000000000E+00  0.10720245958E+04  0.10720245958E+04  0.00000000000E+00 0.  1.
          1   -1    0    0  502    0  0.00000000000E+00 -0.00000000000E+00 -0.62406639116E+02  0.62406639116E+02  0.00000000000E+00 0. -1.
         23    2    1    2    0    0 -0.18513278529E+03  0.96508538960E+02  0.41869516336E+03  0.47706288839E+03  0.93248664233E+02 0.  0.
         23    2    1    2    0    0  0.18567689901E+03 -0.47078771853E+02  0.33499292077E+03  0.39670822759E+03  0.92004561229E+02 0.  0.
        -11    1    4    4    0    0  0.77986817439E+02 -0.42303376593E+01  0.21994954919E+03  0.23340446362E+03  0.00000000000E+00 0.  1.
         11    1    4    4    0    0  0.10769008157E+03 -0.42848434193E+02  0.11504337159E+03  0.16330376397E+03  0.00000000000E+00 0. -1.
        -11    1    3    3    0    0 -0.85033627848E+02  0.64311286580E+02  0.30056355637E+03  0.31891238744E+03  0.00000000000E+00 0.  1.
         11    1    3    3    0    0 -0.10009915744E+03  0.32197252380E+02  0.11813160699E+03  0.15815050095E+03  0.00000000000E+00 0. -1.
         21    1    1    2  502  501 -0.54411371685E+00 -0.49429767107E+02  0.25592987256E+03  0.26066011894E+03  0.00000000000E+00 0.  1.
<scales pt_clust_5="13000.00000" pt_clust_6="13000.00000" pt_clust_7="13000.00000" pt_clust_8="13000.00000" pt_clust_9="49.43276"></scales>
<clustering>
<clus scale="   49.433">  1  9  2 -1</clus>
<clus scale="   92.005">  5  6 -1 -1</clus>
<clus scale="   93.249">  7  8 -1 -1</clus>
<clus scale="  218.295">  2  5  1 -1</clus>
<clus scale="  218.295">  2  5  1 -1</clus>
</clustering>
</event>
<event>
 9    1  0.1175034E-005  0.1893758E+03  0.7546771E-02  0.1159163E+00
         -1   -1    0    0    0  501 -0.00000000000E+00  0.00000000000E+00  0.39536048869E+02  0.39536048869E+02  0.00000000000E+00 0.  1.
          1   -1    0    0  502    0  0.00000000000E+00 -0.00000000000E+00 -0.18254952130E+04  0.18254952130E+04  0.00000000000E+00 0. -1.
         23    2    1    2    0    0  0.15811763794E+03 -0.15504877665E+03 -0.11450384712E+04  0.11698809175E+04  0.92016031789E+02 0.  0.
         23    2    1    2    0    0 -0.93841892425E+02  0.63827978785E+02 -0.45697029879E+03  0.47999841447E+03  0.93254020112E+02 0.  0.
        -13    1    3    3    0    0  0.62282616488E+02 -0.12397504019E+03 -0.69299621706E+03  0.70674796906E+03  0.00000000000E+00 0. -1.
         13    1    3    3    0    0  0.95835021448E+02 -0.31073736458E+02 -0.45204225414E+03  0.46313294847E+03  0.00000000000E+00 0.  1.
        -13    1    4    4    0    0 -0.25117250555E+02  0.33818159542E+02 -0.46540443840E+02  0.62773856844E+02  0.00000000000E+00 0. -1.
         13    1    4    4    0    0 -0.68724641870E+02  0.30009819243E+02 -0.41042985495E+03  0.41722455763E+03  0.00000000000E+00 0.  1.
         21    1    1    2  502  501 -0.64275745511E+02  0.91220797861E+02 -0.18395039415E+03  0.21515192988E+03  0.00000000000E+00 0.  1.
<scales pt_clust_5="13000.00000" pt_clust_6="13000.00000" pt_clust_7="13000.00000" pt_clust_8="13000.00000" pt_clust_9="111.59124"></scales>
<clustering>
<clus scale="   92.016">  5  6 -1 -1</clus>
<clus scale="   93.254">  7  8 -1 -1</clus>
<clus scale="  111.591">  1  9  2 -1</clus>
<clus scale="  188.769">  1  5  2 -1</clus>
<clus scale="  189.376">  2  5  1 -1</clus>
</clustering>
</event>
<event>
 9    1  0.1175034E-005  0.1253380E+03  0.7546771E-02  0.1236183E+00
         -1   -1    0    0    0  501 -0.00000000000E+00  0.00000000000E+00  0.23318367129E+03  0.23318367129E+03  0.00000000000E+00 0.  1.
          1   -1    0    0  502    0  0.00000000000E+00 -0.00000000000E+00 -0.14957245988E+03  0.14957245988E+03  0.00000000000E+00 0. -1.
         23    2    1    2    0    0 -0.66061709402E+02  0.77996817946E+02  0.11405400473E+03  0.18114666880E+03  0.96737513731E+02 0.  0.
         23    2    1    2    0    0  0.48158447475E+02  0.89072209984E+01 -0.42640553176E+02  0.11204594235E+03  0.91309921545E+02 0.  0.
        -11    1    4    4    0    0  0.69930871655E+02 -0.14121473921E+02 -0.34906651852E+02  0.79424285830E+02  0.00000000000E+00 0. -1.
         11    1    4    4    0    0 -0.21772424180E+02  0.23028694919E+02 -0.77339013240E+01  0.32621656519E+02  0.00000000000E+00 0.  1.
        -13    1    3    3    0    0 -0.79524619989E+02  0.58767388159E+02  0.12137692989E+03  0.15655711483E+03  0.00000000000E+00 0.  1.
         13    1    3    3    0    0  0.13462910587E+02  0.19229429787E+02 -0.73229251569E+01  0.24589553967E+02  0.00000000000E+00 0. -1.
         21    1    1    2  502  501  0.17903261927E+02 -0.86904038945E+02  0.12197759857E+02  0.89563520018E+02  0.00000000000E+00 0. -1.
<scales pt_clust_5="13000.00000" pt_clust_6="13000.00000" pt_clust_7="13000.00000" pt_clust_8="13000.00000" pt_clust_9="88.72902"></scales>
<clustering>
<clus scale="   88.729">  2  9  1 -1</clus>
<clus scale="   91.310">  5  6 -1 -1</clus>
<clus scale="   96.738">  7  8 -1 -1</clus>
<clus scale="  121.198">  2  5  1 -1</clus>
<clus scale="   88.729">  2  5  1 -1</clus>
</clustering>
</event>
<event>
 9    1  0.1175034E-005  0.9504927E+02  0.7546771E-02  0.1292433E+00
         -2   -1    0    0    0  501 -0.00000000000E+00  0.00000000000E+00  0.98254987369E+02  0.98254987369E+02  0.00000000000E+00 0.  1.
          2   -1    0    0  502    0  0.00000000000E+00 -0.00000000000E+00 -0.19282234438E+03  0.19282234438E+03  0.00000000000E+00 0. -1.
         23    2    1    2    0    0  0.11972833423E+02 -0.10754104186E+02  0.21343244965E+02  0.97703096816E+02  0.93975324020E+02 0.  0.
         23    2    1    2    0    0 -0.68777159008E+01 -0.17540710448E+02 -0.13098349081E+03  0.16091273873E+03  0.91549195094E+02 0.  0.
        -13    1    3    3    0    0 -0.21675499200E+01  0.30359444393E+02  0.40107978438E+02  0.50349221155E+02  0.00000000000E+00 0.  1.
         13    1    3    3    0    0  0.14140383343E+02 -0.41113548579E+02 -0.18764733473E+02  0.47353875661E+02  0.00000000000E+00 0. -1.
        -13    1    4    4    0    0  0.88575475799E+01 -0.52655973676E+02 -0.90364076684E+02  0.10496082159E+03  0.00000000000E+00 0. -1.
         13    1    4    4    0    0 -0.15735263481E+02  0.35115263229E+02 -0.40619414125E+02  0.55951917146E+02  0.00000000000E+00 0.  1.
         21    1    1    2  502  501 -0.50951175224E+01  0.28294814634E+02  0.15072888835E+02  0.32461496200E+02  0.00000000000E+00 0.  1.
<scales pt_clust_5="13000.00000" pt_clust_6="13000.00000" pt_clust_7="13000.00000" pt_clust_8="13000.00000" pt_clust_9="28.74990"></scales>
<clustering>
<clus scale="   28.750">  1  9  2 -1</clus>
<clus scale="   91.549">  7  8 -1 -1</clus>
<clus scale="   92.651">  2  7  1 -1</clus>
<clus scale="   93.975">  5  6 -1 -1</clus>
<clus scale="   92.651">  2  5  1 -1</clus>
</clustering>
</event>
<event>
 9    1  0.1175034E-005  0.1827923E+03  0.7546771E-02  0.1166685E+00
         -1   -1    0    0    0  501 -0.00000000000E+00  0.00000000000E+00  0.80089893295E+02  0.80089893295E+02  0.00000000000E+00 0.  1.
          1   -1    0    0  502    0  0.00000000000E+00 -0.00000000000E+00 -0.55397921171E+03  0.55397921171E+03  0.00000000000E+00 0. -1.
         23    2    1    2    0    0 -0.10853342595E+03 -0.11196900078E+03 -0.17801877538E+03  0.25819020604E+03  0.10322275148E+03 0.  0.
         23    2    1    2    0    0  0.11632870253E+03  0.92165375342E+02 -0.30612720542E+03  0.35225372085E+03  0.91334519814E+02 0.  0.
        -11    1    3    3    0    0 -0.12236889638E+03 -0.80153398317E+02 -0.16650410907E+03  0.22163558468E+03  0.00000000000E+00 0.  1.
         11    1    3    3    0    0  0.13835470428E+02 -0.31815602463E+02 -0.11514666311E+02  0.36554621353E+02  0.00000000000E+00 0. -1.
        -11    1    4    4    0    0  0.10312767197E+03  0.67338691654E+02 -0.29881093027E+03  0.32319930100E+03  0.00000000000E+00 0. -1.
         11    1    4    4    0    0  0.13201030556E+02  0.24826683688E+02 -0.73162751556E+01  0.29054419850E+02  0.00000000000E+00 0.  1.
         21    1    1    2  502  501 -0.77952765788E+01  0.19803625438E+02  0.10256662390E+02  0.23625178112E+02  0.00000000000E+00 0.  1.
<scales pt_clust_5="13000.00000" pt_clust_6="13000.00000" pt_clust_7="13000.00000" pt_clust_8="13000.00000" pt_clust_9="21.28262"></scales>
<clustering>
<clus scale="   21.283">  1  9  2 -1</clus>
<clus scale="   91.335">  7  8 -1 -1</clus>
<clus scale="  103.223">  5  6 -1 -1</clus>
<clus scale="  176.352">  2  7  1 -1</clus>
<clus scale="  176.352">  2  5  1 -1</clus>
</clustering>
</event>
<event>
 9    1  0.1175034E-005  0.1025759E+03  0.7546771E-02  0.1275873E+00
          1   -1    0    0  502    0  0.00000000000E+00  0.00000000000E+00  0.51744099763E+02  0.51744099763E+02  0.00000000000E+00 0. -1.
         -1   -1    0    0    0  501 -0.00000000000E+00 -0.00000000000E+00 -0.43395600686E+03  0.43395600686E+03  0.00000000000E+00 0.  1.
         23    2    1    2    0    0  0.26332888968E+02  0.63410343738E+01 -0.25510297857E+03  0.27223625815E+03  0.91112133200E+02 0.  0.
         23    2    1    2    0    0 -0.43703098986E+02 -0.17710734725E+02 -0.22376868910E+02  0.10669400913E+03  0.93055125257E+02 0.  0.
        -13    1    4    4    0    0  0.21194111241E+02  0.19086089050E+02 -0.13530351910E+02  0.31568014973E+02  0.00000000000E+00 0.  1.
         13    1    4    4    0    0 -0.64897210227E+02 -0.36796823775E+02 -0.88465169996E+01  0.75125994157E+02  0.00000000000E+00 0. -1.
        -13    1    3    3    0    0  0.39069097377E+02 -0.33505580237E+02 -0.11436614890E+03  0.12541385207E+03  0.00000000000E+00 0.  1.
         13    1    3    3    0    0 -0.12736208409E+02  0.39846614611E+02 -0.14073682967E+03  0.14682240608E+03  0.00000000000E+00 0. -1.
         21    1    1    2  502  501  0.17370210018E+02  0.11369700351E+02 -0.10473205962E+03  0.10676983935E+03  0.00000000000E+00 0.  1.
<scales pt_clust_5="13000.00000" pt_clust_6="13000.00000" pt_clust_7="13000.00000" pt_clust_8="13000.00000" pt_clust_9="20.76040"></scales>
<clustering>
<clus scale="   20.760">  2  9  1 -1</clus>
<clus scale="   91.112">  7  8 -1 -1</clus>
<clus scale="   93.055">  5  6 -1 -1</clus>
<clus scale="  100.817">  2  7  1 -1</clus>
<clus scale="  102.576">  1  5  2 -1</clus>
</clustering>
</event>
<event>
 9    1  0.1175034E-005  0.9644422E+02  0.7546771E-02  0.1289740E+00
          2   -1    0    0  502    0  0.00000000000E+00  0.00000000000E+00  0.20271395447E+02  0.20271395447E+02  0.00000000000E+00 0. -1.
         -2   -1    0    0    0  501 -0.00000000000E+00 -0.00000000000E+00 -0.64573524724E+03  0.64573524724E+03  0.00000000000E+00 0.  1.
         23    2    1    2    0    0  0.20673952036E+02  0.18758737303E+02 -0.32208426647E+03  0.33715694680E+03  0.95693414349E+02 0.  0.
         23    2    1    2    0    0 -0.57422027935E+01  0.41608828286E+01 -0.18026592409E+03  0.20273371869E+03  0.92492548171E+02 0.  0.
        -13    1    3    3    0    0 -0.31784151251E+02 -0.38754429843E+01 -0.51777304673E+02  0.60878079867E+02  0.00000000000E+00 0. -1.
         13    1    3    3    0    0  0.52458103287E+02  0.22634180287E+02 -0.27030696179E+03  0.27627886693E+03  0.00000000000E+00 0.  1.
        -13    1    4    4    0    0  0.41386290321E+02 -0.99306041014E+01 -0.98662574914E+02  0.10745113128E+03  0.00000000000E+00 0.  1.
         13    1    4    4    0    0 -0.47128493115E+02  0.14091486930E+02 -0.81603349177E+02  0.95282587413E+02  0.00000000000E+00 0. -1.
         21    1    1    2  502  501 -0.14931749242E+02 -0.22919620131E+02 -0.12311366124E+03  0.12611597720E+03  0.00000000000E+00 0.  1.
<scales pt_clust_5="13000.00000" pt_clust_6="13000.00000" pt_clust_7="13000.00000" pt_clust_8="13000.00000" pt_clust_9="27.35445"></scales>
<clustering>
<clus scale="   27.354">  2  9  1 -1</clus>
<clus scale="   92.493">  7  8 -1 -1</clus>
<clus scale="   93.269">  1  7  2 -1</clus>
<clus scale="   95.693">  5  6 -1 -1</clus>
<clus scale="   93.269">  1  5  2 -1</clus>
</clustering>
</event>
<event>
 9    1  0.1175034E-005  0.1106329E+03  0.7546771E-02  0.1261591E+00
         -3   -1    0    0    0  501 -0.00000000000E+00  0.00000000000E+00  0.40430808352E+02  0.40430808352E+02  0.00000000000E+00 0.  1.
          3   -1    0    0  502    0  0.00000000000E+00 -0.00000000000E+00 -0.55804967054E+03  0.55804967054E+03  0.00000000000E+00 0. -1.
         23    2    1    2    0    0 -0.54934534001E+02 -0.31417811166E+02 -0.22784475539E+03  0.25225250334E+03  0.87824888240E+02 0.  0.
         23    2    1    2    0    0  0.11708364391E+02  0.66767035555E+02 -0.25640922837E+03  0.28117965109E+03  0.93388334171E+02 0.  0.
        -13    1    4    4    0    0 -0.20891443831E+01  0.24269463377E+02 -0.38054936164E+01  0.24654678228E+02  0.00000000000E+00 0.  1.
         13    1    4    4    0    0  0.13797508774E+02  0.42497572178E+02 -0.25260373475E+03  0.25652497286E+03  0.00000000000E+00 0. -1.
        -13    1    3    3    0    0  0.16366430414E+02 -0.32695905308E+02 -0.67553821809E+02  0.76814068435E+02  0.00000000000E+00 0.  1.
         13    1    3    3    0    0 -0.71300964416E+02  0.12780941423E+01 -0.16029093358E+03  0.17543843490E+03  0.00000000000E+00 0. -1.
         21    1    1    2  502  501  0.43226169610E+02 -0.35349224389E+02 -0.33364878427E+02  0.65048324471E+02  0.00000000000E+00 0.  1.
<scales pt_clust_5="13000.00000" pt_clust_6="13000.00000" pt_clust_7="13000.00000" pt_clust_8="13000.00000" pt_clust_9="55.83968"></scales>
<clustering>
<clus scale="   55.840">  1  9  2 -1</clus>
<clus scale="   87.825">  7  8 -1 -1</clus>
<clus scale="   93.388">  5  6 -1 -1</clus>
<clus scale="  105.979">  1  7  2 -1</clus>
<clus scale="  110.633">  2  5  1 -1</clus>
</clustering>
</event>
<event>
 9    1  0.1175034E-005  0.2396340E+03  0.7546771E-02  0.1120445E+00
         -1   -1    0    0    0  501 -0.00000000000E+00  0.00000000000E+00  0.25263643056E+03  0.25263643056E+03  0.00000000000E+00 0.  1.
          1   -1    0    0  502    0  0.00000000000E+00 -0.00000000000E+00 -0.62500072834E+03  0.62500072834E+03  0.00000000000E+00 0. -1.
         23    2    1    2    0    0 -0.28458421626E+02 -0.21614795013E+03 -0.23164640133E+02  0.23461853392E+03  0.83543029624E+02 0.  0.
         23    2    1    2    0    0  0.74511893757E+01  0.22320796298E+03 -0.46576735361E+03  0.52436292420E+03  0.90221580690E+02 0.  0.
        -11    1    3    3    0    0 -0.38935778374E+02 -0.60584000837E+02 -0.31223342411E+02  0.78494032298E+02  0.00000000000E+00 0. -1.
         11    1    3    3    0    0  0.10477356748E+02 -0.15556394929E+03  0.80587022777E+01  0.15612450162E+03  0.00000000000E+00 0.  1.
        -13    1    4    4    0    0  0.17364188519E+02  0.12201575076E+03 -0.34578871534E+03  0.36709561987E+03  0.00000000000E+00 0. -1.
         13    1    4    4    0    0 -0.99129991429E+01  0.10119221223E+03 -0.11997863827E+03  0.15726730432E+03  0.00000000000E+00 0.  1.
         21    1    1    2  502  501  0.21007232251E+02 -0.70600128563E+01  0.11656769596E+03  0.11865570079E+03  0.00000000000E+00 0. -1.
<scales pt_clust_5="13000.00000" pt_clust_6="13000.00000" pt_clust_7="13000.00000" pt_clust_8="13000.00000" pt_clust_9="22.16185"></scales>
<clustering>
<clus scale="   22.162">  1  9  2 -1</clus>
<clus scale="   83.543">  5  6 -1 -1</clus>
<clus scale="   90.222">  7  8 -1 -1</clus>
<clus scale="  237.200">  1  5  2 -1</clus>
<clus scale="  239.634">  2  5  1 -1</clus>
</clustering>
</event>
<event>
 9    1  0.1175034E-005  0.1188901E+03  0.7546771E-02  0.1245310E+00
          1   -1    0    0  502    0  0.00000000000E+00  0.00000000000E+00  0.44759438746E+03  0.44759438746E+03  0.00000000000E+00 0. -1.
         -1   -1    0    0    0  501 -0.00000000000E+00 -0.00000000000E+00 -0.50355093800E+02  0.50355093800E+02  0.00000000000E+00 0.  1.
         23    2    1    2    0    0 -0.52454581985E+02 -0.68518413549E+02  0.94008854828E+02  0.15740485307E+03  0.92154038530E+02 0.  0.
         23    2    1    2    0    0  0.53234266788E+02  0.47936354514E+02  0.29737088978E+03  0.31913053523E+03  0.91011379398E+02 0.  0.
        -13    1    3    3    0    0 -0.40076316109E+02 -0.86237174929E+02  0.96699731232E+02  0.13562374229E+03  0.00000000000E+00 0. -1.
         13    1    3    3    0    0 -0.12378265877E+02  0.17718761380E+02 -0.26908764047E+01  0.21781110779E+02  0.00000000000E+00 0.  1.
        -13    1    4    4    0    0 -0.44552789385E+01  0.35767214343E+02  0.21402534521E+03  0.21703914745E+03  0.00000000000E+00 0. -1.
         13    1    4    4    0    0  0.57689545727E+02  0.12169140171E+02  0.83345544568E+02  0.10209138778E+03  0.00000000000E+00 0.  1.
         21    1    1    2  502  501 -0.77968480300E+00  0.20582059035E+02  0.58595490567E+01  0.21414092969E+02  0.00000000000E+00 0.  1.
<scales pt_clust_5="13000.00000" pt_clust_6="13000.00000" pt_clust_7="13000.00000" pt_clust_8="13000.00000" pt_clust_9="20.59682"></scales>
<clustering>
<clus scale="   20.597">  2  9  1 -1</clus>
<clus scale="   91.011">  7  8 -1 -1</clus>
<clus scale="   92.154">  5  6 -1 -1</clus>
<clus scale="  118.007">  1  7  2 -1</clus>
<clus scale="  118.007">  1  5  2 -1</clus>
</clustering>
</event>
<event>
 9    1  0.1175034E-005  0.2579946E+03  0.7546771E-02  0.1122639E+00
          1   -1    0    0  502    0  0.00000000000E+00  0.00000000000E+00  0.20525308852E+03  0.20525308852E+03  0.00000000000E+00 0. -1.
         -1   -1    0    0    0  501 -0.00000000000E+00 -0.00000000000E+00 -0.83706360097E+03  0.83706360097E+03  0.00000000000E+00 0.  1.
         23    2    1    2    0    0  0.10893202229E+03 -0.11150663286E+03 -0.34434811733E+03  0.38853513959E+03  0.89911145810E+02 0.  0.
         23    2    1    2    0    0 -0.31587926512E+03  0.40918384150E+02 -0.27838226909E+03  0.43493843060E+03  0.10109760817E+03 0.  0.
        -11    1    4    4    0    0 -0.25252717817E+03  0.15438508393E+02 -0.16330162049E+03  0.30112413140E+03  0.00000000000E+00 0. -1.
         11    1    4    4    0    0 -0.63352086949E+02  0.25479875758E+02 -0.11508064860E+03  0.13381429920E+03  0.00000000000E+00 0.  1.
        -13    1    3    3    0    0  0.82396880488E+02 -0.49263142684E+02 -0.27659378021E+03  0.29278016052E+03  0.00000000000E+00 0. -1.
         13    1    3    3    0    0  0.26535141802E+02 -0.62243490177E+02 -0.67754337113E+02  0.95754979075E+02  0.00000000000E+00 0.  1.
         21    1    1    2  502  501  0.20694724283E+03  0.70588248711E+02 -0.90801260296E+01  0.21884311929E+03  0.00000000000E+00 0.  1.
<scales pt_clust_5="13000.00000" pt_clust_6="13000.00000" pt_clust_7="13000.00000" pt_clust_8="13000.00000" pt_clust_9="237.36150"></scales>
<clustering>
<clus scale="   89.911">  7  8 -1 -1</clus>
<clus scale="  101.098">  5  6 -1 -1</clus>
<clus scale="  179.955">  2  7  1 -1</clus>
<clus scale="  237.361">  1  9  2 -1</clus>
<clus scale="  237.361">  1  5  2 -1</clus>
</clustering>
</event>
<event>
 9    1  0.1175034E-005  0.1455547E+03  0.7546771E-02  0.1208748E+00
          1   -1    0    0  502    0  0.00000000000E+00  0.00000000000E+00  0.81820612249E+03  0.81820612249E+03  0.00000000000E+00 0. -1.
         -1   -1    0    0    0  501 -0.00000000000E+00 -0.00000000000E+00 -0.61426279772E+02  0.61426279772E+02  0.00000000000E+00 0.  1.
         23    2    1    2    0    0 -0.15929008368E+03 -0.30326641130E+02  0.42786042043E+03  0.46663673568E+03  0.91609321544E+02 0.  0.
         23    2    1    2    0    0  0.63106941498E+02 -0.31190947761E+01  0.26843850218E+03  0.29455683939E+03  0.10350018049E+03 0.  0.
        -11    1    4    4    0    0 -0.48117381785E+01 -0.32831121098E+02  0.29558486427E+02  0.44438040649E+02  0.00000000000E+00 0. -1.
         11    1    4    4    0    0  0.67918679676E+02  0.29712026322E+02  0.23888001576E+03  0.25011879874E+03  0.00000000000E+00 0.  1.
        -13    1    3    3    0    0 -0.54431593576E+02 -0.16597019886E+01  0.51721458987E+02  0.75104342815E+02  0.00000000000E+00 0.  1.
         13    1    3    3    0    0 -0.10485849010E+03 -0.28666939142E+02  0.37613896144E+03  0.39153239286E+03  0.00000000000E+00 0. -1.
         21    1    1    2  502  501  0.96183142180E+02  0.33445735906E+02  0.60480920107E+02  0.11843882719E+03  0.00000000000E+00 0.  1.
<scales pt_clust_5="13000.00000" pt_clust_6="13000.00000" pt_clust_7="13000.00000" pt_clust_8="13000.00000" pt_clust_9="101.83228"></scales>
<clustering>
<clus scale="   91.609">  7  8 -1 -1</clus>
<clus scale="  101.832">  2  9  1 -1</clus>
<clus scale="  103.500">  5  6 -1 -1</clus>
<clus scale="  137.354">  2  7  1 -1</clus>
<clus scale="  145.555">  1  5  2 -1</clus>
</clustering>
</event>
<event>
 9    1  0.1175034E-005  0.1202287E+03  0.7546771E-02  0.1249795E+00
          2   -1    0    0  502    0  0.00000000000E+00  0.00000000000E+00  0.25877345883E+03  0.25877345883E+03  0.00000000000E+00 0. -1.
         -2   -1    0    0    0  501 -0.00000000000E+00 -0.00000000000E+00 -0.16342894742E+03  0.16342894742E+03  0.00000000000E+00 0.  1.
         23    2    1    2    0    0  0.63561733979E+01 -0.21018441718E+01 -0.30224911007E+02  0.94264261233E+02  0.89035874855E+02 0.  0.
         23    2    1    2    0    0 -0.64323767907E+02  0.24242703227E+02  0.19619166175E+03  0.23392771825E+03  0.10726487518E+03 0.  0.
        -11    1    4    4    0    0  0.24363477626E+01  0.49372902800E+02  0.45412746031E+02  0.67126275208E+02  0.00000000000E+00 0.  1.
         11    1    4    4    0    0 -0.66760115669E+02 -0.25130199572E+02  0.15077891572E+03  0.16680144304E+03  0.00000000000E+00 0. -1.
        -13    1    3    3    0    0  0.38224084584E+02  0.22573124520E+02 -0.30672587558E+02  0.53957707701E+02  0.00000000000E+00 0.  1.
         13    1    3    3    0    0 -0.31867911186E+02 -0.24674968692E+02  0.44767655056E+00  0.40306553532E+02  0.00000000000E+00 0. -1.
         21    1    1    2  502  501  0.57967594509E+02 -0.22140859056E+02 -0.70622239337E+02  0.94010426772E+02  0.00000000000E+00 0.  1.
<scales pt_clust_5="13000.00000" pt_clust_6="13000.00000" pt_clust_7="13000.00000" pt_clust_8="13000.00000" pt_clust_9="62.05207"></scales>
<clustering>
<clus scale="   62.052">  2  9  1 -1</clus>
<clus scale="   89.036">  7  8 -1 -1</clus>
<clus scale="  104.291">  2  7  1 -1</clus>
<clus scale="  107.265">  5  6 -1 -1</clus>
<clus scale="  120.229">  1  5  2 -1</clus>
</clustering>
</event>
<event>
 9    1  0.1175034E-005  0.1185316E+03  0.7546771E-02  0.1247756E+00
          2   -1    0    0  502    0  0.00000000000E+00  0.00000000000E+00  0.55088245884E+03  0.55088245884E+03  0.00000000000E+00 0. -1.
         -2   -1    0    0    0  501 -0.00000000000E+00 -0.00000000000E+00 -0.31808727755E+02  0.31808727755E+02  0.00000000000E+00 0.  1.
         23    2    1    2    0    0 -0.42804917753E+02 -0.45217987536E+02  0.16735286377E+03  0.19750338131E+03  0.84401879339E+02 0.  0.
         23    2    1    2    0    0  0.70429914852E+02  0.51408916592E+02  0.31067638309E+03  0.33532682102E+03  0.91219582714E+02 0.  0.
        -11    1    4    4    0    0  0.80553767819E+02  0.21208329487E+02  0.27575132552E+03  0.28805814738E+03  0.00000000000E+00 0. -1.
         11    1    4    4    0    0 -0.10123852967E+02  0.30200587105E+02  0.34925057575E+02  0.47268673633E+02  0.00000000000E+00 0.  1.
        -13    1    3    3    0    0  0.94012450815E+00 -0.31530526547E+02  0.14130413625E+03  0.14478230852E+03  0.00000000000E+00 0. -1.
         13    1    3    3    0    0 -0.43745042261E+02 -0.13687460989E+02  0.26048727519E+02  0.52721072790E+02  0.00000000000E+00 0.  1.
         21    1    1    2  502  501 -0.27624997099E+02 -0.61909290562E+01  0.41044484221E+02  0.49860984269E+02  0.00000000000E+00 0.  1.
<scales pt_clust_5="13000.00000" pt_clust_6="13000.00000" pt_clust_7="13000.00000" pt_clust_8="13000.00000" pt_clust_9="28.31021"></scales>
<clustering>
<clus scale="   28.310">  2  9  1 -1</clus>
<clus scale="   84.402">  7  8 -1 -1</clus>
<clus scale="   91.220">  5  6 -1 -1</clus>
<clus scale="  113.368">  2  7  1 -1</clus>
<clus scale="  118.532">  1  5  2 -1</clus>
</clustering>
</event>
<event>
 9    1  0.1175034E-005  0.1501027E+03  0.7546771E-02  0.1203196E+00
         -1   -1    0    0    0  501 -0.00000000000E+00  0.00000000000E+00  0.18651195257E+03  0.18651195257E+03  0.00000000000E+00 0.  1.
          1   -1    0    0  502    0  0.00000000000E+00 -0.00000000000E+00 -0.25438308908E+03  0.25438308908E+03  0.00000000000E+00 0. -1.
         23    2    1    2    0    0 -0.16085645106E+02 -0.11452153808E+03  0.24413633021E+02  0.14897226840E+03  0.90679549024E+02 0.  0.
         23    2    1    2    0    0 -0.84181106556E+02  0.91772181606E+02 -0.14430899640E+02  0.16295696474E+03  0.10410633734E+03 0.  0.
        -11    1    4    4    0    0 -0.76761949871E+02  0.22047987951E+02 -0.38713063648E+02  0.88753659179E+02  0.00000000000E+00 0.  1.
         11    1    4    4    0    0 -0.74191566850E+01  0.69724193655E+02  0.24282164009E+02  0.74203305558E+02  0.00000000000E+00 0. -1.
        -13    1    3    3    0    0 -0.40817419492E+02 -0.11494546148E+03  0.17045496300E+02  0.12316277762E+03  0.00000000000E+00 0.  1.
         13    1    3    3    0    0  0.24731774386E+02  0.42392339257E+00  0.73681367217E+01  0.25809490775E+02  0.00000000000E+00 0. -1.
         21    1    1    2  502  501  0.10026675166E+03  0.22749356477E+02 -0.77853869892E+02  0.12896580852E+03  0.00000000000E+00 0. -1.
<scales pt_clust_5="13000.00000" pt_clust_6="13000.00000" pt_clust_7="13000.00000" pt_clust_8="13000.00000" pt_clust_9="102.81515"></scales>
<clustering>
<clus scale="   90.680">  7  8 -1 -1</clus>
<clus scale="  102.815">  2  9  1 -1</clus>
<clus scale="  104.106">  5  6 -1 -1</clus>
<clus scale="  141.122">  1  7  2 -1</clus>
<clus scale="  102.815">  2  5  1 -1</clus>
</clustering>
</event>
<event>
 9    1  0.1175034E-005  0.1077353E+03  0.7546771E-02  0.1268150E+00
          2   -1    0    0  502    0  0.00000000000E+00  0.00000000000E+00  0.24983429917E+03  0.24983429917E+03  0.00000000000E+00 0. -1.
         -2   -1    0    0    0  501 -0.00000000000E+00 -0.00000000000E+00 -0.19441678405E+03  0.19441678405E+03  0.00000000000E+00 0.  1.
         23    2    1    2    0    0  0.45682497556E+02 -0.36707810140E+01 -0.16090296262E+03  0.19030498974E+03  0.90696529822E+02 0.  0.
         23    2    1    2    0    0 -0.23024600715E+02  0.52181914223E+01  0.20512984307E+03  0.22862801550E+03  0.98158826365E+02 0.  0.
        -13    1    4    4    0    0  0.37903312628E+02 -0.97106005186E+00  0.58377609347E+02  0.69609980168E+02  0.00000000000E+00 0.  1.
         13    1    4    4    0    0 -0.60927913343E+02  0.61892514741E+01  0.14675223372E+03  0.15901803533E+03  0.00000000000E+00 0. -1.
        -13    1    3    3    0    0  0.36148945953E+02  0.24091709613E+02 -0.15419088520E+03  0.16019358865E+03  0.00000000000E+00 0.  1.
         13    1    3    3    0    0  0.95335516029E+01 -0.27762490627E+02 -0.67120774202E+01  0.30111401085E+02  0.00000000000E+00 0. -1.
         21    1    1    2  502  501 -0.22657896842E+02 -0.15474104082E+01  0.11190634670E+02  0.25318077979E+02  0.00000000000E+00 0. -1.
<scales pt_clust_5="13000.00000" pt_clust_6="13000.00000" pt_clust_7="13000.00000" pt_clust_8="13000.00000" pt_clust_9="22.71068"></scales>
<clustering>
<clus scale="   22.711">  1  9  2 -1</clus>
<clus scale="   90.697">  7  8 -1 -1</clus>
<clus scale="   98.159">  5  6 -1 -1</clus>
<clus scale="  100.983">  2  7  1 -1</clus>
<clus scale="   22.711">  1  5  2 -1</clus>
</clustering>
</event>
<event>
 9    1  0.1175034E-005  0.9080416E+02  0.7546771E-02  0.1301960E+00
          1   -1    0    0  502    0  0.00000000000E+00  0.00000000000E+00  0.37904682209E+03  0.37904682209E+03  0.00000000000E+00 0. -1.
         -1   -1    0    0    0  501 -0.00000000000E+00 -0.00000000000E+00 -0.43173507937E+02  0.43173507937E+02  0.00000000000E+00 0.  1.
         23    2    1    2    0    0  0.22128843253E+02 -0.40637770793E+01  0.10724703164E+03  0.14160761216E+03  0.89691638623E+02 0.  0.
         23    2    1    2    0    0 -0.77814142529E+01 -0.12103002741E+02  0.24012697026E+03  0.25612845133E+03  0.87941961853E+02 0.  0.
        -11    1    4    4    0    0  0.33235624221E+02 -0.40855018183E+01  0.17883920588E+03  0.18194713409E+03  0.00000000000E+00 0.  1.
         11    1    4    4    0    0 -0.41017038474E+02 -0.80175009224E+01  0.61287764380E+02  0.74181317250E+02  0.00000000000E+00 0. -1.
        -11    1    3    3    0    0 -0.18870735812E+02  0.22302961952E+02  0.81291844093E+02  0.86382236009E+02  0.00000000000E+00 0.  1.
         11    1    3    3    0    0  0.40999579065E+02 -0.26366739031E+02  0.25955187546E+02  0.55225376153E+02  0.00000000000E+00 0. -1.
         21    1    1    2  502  501 -0.14347429000E+02  0.16166779820E+02 -0.11500687749E+02  0.24484266527E+02  0.00000000000E+00 0.  1.
<scales pt_clust_5="13000.00000" pt_clust_6="13000.00000" pt_clust_7="13000.00000" pt_clust_8="13000.00000" pt_clust_9="21.61512"></scales>
<clustering>
<clus scale="   21.615">  2  9  1 -1</clus>
<clus scale="   87.942">  5  6 -1 -1</clus>
<clus scale="   89.076">  1  5  2 -1</clus>
<clus scale="   89.692">  7  8 -1 -1</clus>
<clus scale="   89.076">  1  5  2 -1</clus>
</clustering>
</event>
<event>
 9    1  0.1175034E-005  0.9997766E+02  0.7546771E-02  0.1282715E+00
          1   -1    0    0  502    0  0.00000000000E+00  0.00000000000E+00  0.75201042130E+02  0.75201042130E+02  0.00000000000E+00 0. -1.
         -1   -1    0    0    0  501 -0.00000000000E+00 -0.00000000000E+00 -0.47761995756E+03  0.47761995756E+03  0.00000000000E+00 0.  1.
         23    2    1    2    0    0  0.28197858187E+02  0.43195674501E+02 -0.36054520362E+03  0.37570649515E+03  0.92203802216E+02 0.  0.
         23    2    1    2    0    0 -0.36740589754E+02 -0.11288542776E+02  0.28267475312E+02  0.99584965340E+02  0.87411744221E+02 0.  0.
        -11    1    4    4    0    0 -0.15701464906E+02 -0.30303809130E+02 -0.22888504290E+02  0.41094287639E+02  0.00000000000E+00 0.  1.
         11    1    4    4    0    0 -0.21039124848E+02  0.19015266354E+02  0.51155979601E+02  0.58490677700E+02  0.00000000000E+00 0. -1.
        -13    1    3    3    0    0  0.50560612496E+02  0.14095420859E+02 -0.30258646502E+03  0.30710523480E+03  0.00000000000E+00 0.  1.
         13    1    3    3    0    0 -0.22362754308E+02  0.29100253642E+02 -0.57958738599E+02  0.68601260355E+02  0.00000000000E+00 0. -1.
         21    1    1    2  502  501  0.85427315664E+01 -0.31907131725E+02 -0.70141187119E+02  0.77529539196E+02  0.00000000000E+00 0.  1.
<scales pt_clust_5="13000.00000" pt_clust_6="13000.00000" pt_clust_7="13000.00000" pt_clust_8="13000.00000" pt_clust_9="33.03094"></scales>
<clustering>
<clus scale="   33.031">  2  9  1 -1</clus>
<clus scale="   87.412">  5  6 -1 -1</clus>
<clus scale="   92.204">  7  8 -1 -1</clus>
<clus scale="   95.576">  1  5  2 -1</clus>
<clus scale="   95.576">  1  5  2 -1</clus>
</clustering>
</event>
<event>
 9    1  0.1175034E-005  0.1233059E+03  0.7546771E-02  0.1237760E+00
          2   -1    0    0  502    0  0.00000000000E+00  0.00000000000E+00  0.22560032068E+03  0.22560032068E+03  0.00000000000E+00 0. -1.
         -2   -1    0    0    0  501 -0.00000000000E+00 -0.00000000000E+00 -0.12412689397E+03  0.12412689397E+03  0.00000000000E+00 0.  1.
         23    2    1    2    0    0 -0.32521315599E+02  0.61875088855E+02  0.17062487761E+02  0.11821388272E+03  0.93793555164E+02 0.  0.
         23    2    1    2    0    0  0.24641902645E+02 -0.81975270826E+02  0.12957448033E+03  0.18145488674E+03  0.93857133862E+02 0.  0.
        -11    1    4    4    0    0 -0.12001151047E+02 -0.77614794053E+02  0.11985549611E+03  0.14329488418E+03  0.00000000000E+00 0.  1.
         11    1    4    4    0    0  0.36643053693E+02 -0.43604767734E+01  0.97189842157E+01  0.38160002565E+02  0.00000000000E+00 0. -1.
        -11    1    3    3    0    0  0.89410378615E+01  0.43094846418E+02 -0.29590307839E+02  0.53034840094E+02  0.00000000000E+00 0.  1.
         11    1    3    3    0    0 -0.41462353461E+02  0.18780242436E+02  0.46652795599E+02  0.65179042626E+02  0.00000000000E+00 0. -1.
         21    1    1    2  502  501  0.78794129538E+01  0.20100181972E+02 -0.45163541384E+02  0.50058445183E+02  0.00000000000E+00 0.  1.
<scales pt_clust_5="13000.00000" pt_clust_6="13000.00000" pt_clust_7="13000.00000" pt_clust_8="13000.00000" pt_clust_9="21.58941"></scales>
<clustering>
<clus scale="   21.589">  2  9  1 -1</clus>
<clus scale="   93.794">  7  8 -1 -1</clus>
<clus scale="   93.857">  5  6 -1 -1</clus>
<clus scale="  123.257">  2  7  1 -1</clus>
<clus scale="  123.306">  1  5  2 -1</clus>
</clustering>
</event>
<event>
 9    1  0.1175034E-005  0.2491173E+03  0.7546771E-02  0.1113881E+00
          2   -1    0    0  502    0  0.00000000000E+00  0.00000000000E+00  0.11081630684E+04  0.11081630684E+04  0.00000000000E+00 0. -1.
         -2   -1    0    0    0  501 -0.00000000000E+00 -0.00000000000E+00 -0.68398749032E+02  0.68398749032E+02  0.00000000000E+00 0.  1.
         23    2    1    2    0    0  0.14921852208E+03 -0.17840612538E+03  0.42265891521E+03  0.49108662148E+03  0.91818289541E+02 0.  0.
         23    2    1    2    0    0 -0.12264151365E+03  0.19644768997E+03  0.59858062654E+03  0.64839416552E+03  0.92106414851E+02 0.  0.
        -13    1    3    3    0    0  0.28526456782E+02  0.13346941968E+01  0.87855808926E+02  0.92380643574E+02  0.00000000000E+00 0. -1.
         13    1    3    3    0    0  0.12069206529E+03 -0.17974081957E+03  0.33480310628E+03  0.39870597791E+03  0.00000000000E+00 0.  1.
        -13    1    4    4    0    0 -0.10900759160E+03  0.17458110376E+03  0.58304079846E+03  0.61830234472E+03  0.00000000000E+00 0. -1.
         13    1    4    4    0    0 -0.13633922045E+02  0.21866586207E+02  0.15539828079E+02  0.30091820806E+02  0.00000000000E+00 0.  1.
         21    1    1    2  502  501 -0.26577008430E+02 -0.18041564597E+02  0.18524777594E+02  0.37081030394E+02  0.00000000000E+00 0.  1.
<scales pt_clust_5="13000.00000" pt_clust_6="13000.00000" pt_clust_7="13000.00000" pt_clust_8="13000.00000" pt_clust_9="32.12220"></scales>
<clustering>
<clus scale="   32.122">  2  9  1 -1</clus>
<clus scale="   91.818">  5  6 -1 -1</clus>
<clus scale="   92.106">  7  8 -1 -1</clus>
<clus scale="  249.011">  2  5  1 -1</clus>
<clus scale="  249.117">  1  5  2 -1</clus>
</clustering>
</event>
<event>
 9    1  0.1175034E-005  0.1008201E+03  0.7546771E-02  0.1281058E+00
         -2   -1    0    0    0  501 -0.00000000000E+00  0.00000000000E+00  0.34064319121E+02  0.34064319121E+02  0.00000000000E+00 0.  1.
          2   -1    0    0  502    0  0.00000000000E+00 -0.00000000000E+00 -0.53935381302E+03  0.53935381302E+03  0.00000000000E+00 0. -1.
         23    2    1    2    0    0 -0.58487508051E+01  0.43682888292E+02 -0.14372167077E+03  0.17611023533E+03  0.91741450416E+02 0.  0.
         23    2    1    2    0    0 -0.26036095718E+02 -0.14929834436E+02 -0.32669018203E+03  0.34199215409E+03  0.96599069300E+02 0.  0.
        -11    1    4    4    0    0  0.14255145187E+02  0.32311662842E+02 -0.77242747548E+02  0.84933472604E+02  0.00000000000E+00 0. -1.
         11    1    4    4    0    0 -0.40291240905E+02 -0.47241497278E+02 -0.24944743448E+03  0.25705868149E+03  0.00000000000E+00 0.  1.
        -13    1    3    3    0    0 -0.40933654964E+02  0.51514181912E+02 -0.90780552113E+02  0.11211772246E+03  0.00000000000E+00 0. -1.
         13    1    3    3    0    0  0.35084904159E+02 -0.78312936202E+01 -0.52941118652E+02  0.63992512873E+02  0.00000000000E+00 0.  1.
         21    1    1    2  502  501  0.31884846523E+02 -0.28753053856E+02 -0.34877641109E+02  0.55315742724E+02  0.00000000000E+00 0.  1.
<scales pt_clust_5="13000.00000" pt_clust_6="13000.00000" pt_clust_7="13000.00000" pt_clust_8="13000.00000" pt_clust_9="42.93462"></scales>
<clustering>
<clus scale="   42.935">  1  9  2 -1</clus>
<clus scale="   91.741">  7  8 -1 -1</clus>
<clus scale="   96.176">  1  7  2 -1</clus>
<clus scale="   96.599">  5  6 -1 -1</clus>
<clus scale="  100.820">  2  5  1 -1</clus>
</clustering>
</event>
<event>
 9    1  0.1175034E-005  0.9735438E+02  0.7546771E-02  0.1288836E+00
          2   -1    0    0  502    0  0.00000000000E+00  0.00000000000E+00  0.14137588442E+03  0.14137588442E+03  0.00000000000E+00 0. -1.
         -2   -1    0    0    0  501 -0.00000000000E+00 -0.00000000000E+00 -0.12132967150E+03  0.12132967150E+03  0.00000000000E+00 0.  1.
         23    2    1    2    0    0 -0.71474700020E+01  0.26062734241E+02 -0.21183876453E+02  0.10238430887E+03  0.96454329288E+02 0.  0.
         23    2    1    2    0    0 -0.20083614497E+02  0.37812712614E+01  0.64573472194E+02  0.11366173410E+03  0.91277636382E+02 0.  0.
        -11    1    4    4    0    0  0.31180176581E+02  0.10587247411E+02  0.27236918143E+01  0.33041061067E+02  0.00000000000E+00 0. -1.
         11    1    4    4    0    0 -0.51263791078E+02 -0.68059761492E+01  0.61849780379E+02  0.80620673031E+02  0.00000000000E+00 0.  1.
        -13    1    3    3    0    0  0.32258780455E+02  0.44246891602E+02 -0.16271165937E+01  0.54781966388E+02  0.00000000000E+00 0.  1.
         13    1    3    3    0    0 -0.39406250457E+02 -0.18184157361E+02 -0.19556759859E+02  0.47602342486E+02  0.00000000000E+00 0. -1.
         21    1    1    2  502  501  0.27231084499E+02 -0.29844005503E+02 -0.23343382820E+02  0.46659512952E+02  0.00000000000E+00 0. -1.
<scales pt_clust_5="13000.00000" pt_clust_6="13000.00000" pt_clust_7="13000.00000" pt_clust_8="13000.00000" pt_clust_9="40.40045"></scales>
<clustering>
<clus scale="   40.400">  2  9  1 -1</clus>
<clus scale="   91.278">  5  6 -1 -1</clus>
<clus scale="   92.228">  1  5  2 -1</clus>
<clus scale="   96.454">  7  8 -1 -1</clus>
<clus scale="   92.228">  1  5  2 -1</clus>
</clustering>
</event>
<event>
 9    1  0.1175034E-005  0.1268682E+03  0.7546771E-02  0.1233005E+00
          1   -1    0    0  502    0  0.00000000000E+00  0.00000000000E+00  0.46381633560E+03  0.46381633560E+03  0.00000000000E+00 0. -1.
         -1   -1    0    0    0  501 -0.00000000000E+00 -0.00000000000E+00 -0.47054758578E+02  0.47054758578E+02  0.00000000000E+00 0.  1.
         23    2    1    2    0    0 -0.31435830200E+02 -0.62596530156E+02  0.96778012404E+02  0.15232365896E+03  0.94498552299E+02 0.  0.
         23    2    1    2    0    0  0.45895435303E+02  0.79270648092E+02  0.30632656968E+03  0.33259324674E+03  0.91608263020E+02 0.  0.
        -11    1    3    3    0    0  0.17039757458E+02 -0.61752813796E+02  0.76476557059E+02  0.99761852055E+02  0.00000000000E+00 0.  1.
         11    1    3    3    0    0 -0.48475587658E+02 -0.84371635960E+00  0.20301455345E+02  0.52561806906E+02  0.00000000000E+00 0. -1.
        -13    1    4    4    0    0  0.19840535903E+02  0.96357784918E+02  0.23432681553E+03  0.25414076032E+03  0.00000000000E+00 0. -1.
         13    1    4    4    0    0  0.26054899400E+02 -0.17087136827E+02  0.71999754157E+02  0.78452486426E+02  0.00000000000E+00 0.  1.
         21    1    1    2  502  501 -0.14459605103E+02 -0.16674117936E+02  0.13656994933E+02  0.25954188472E+02  0.00000000000E+00 0.  1.
<scales pt_clust_5="13000.00000" pt_clust_6="13000.00000" pt_clust_7="13000.00000" pt_clust_8="13000.00000" pt_clust_9="22.07049"></scales>
<clustering>
<clus scale="   22.070">  2  9  1 -1</clus>
<clus scale="   91.608">  7  8 -1 -1</clus>
<clus scale="   94.499">  5  6 -1 -1</clus>
<clus scale="  124.730">  1  7  2 -1</clus>
<clus scale="  124.730">  1  5  2 -1</clus>
</clustering>
</event>
<event>
 9    1  0.1175034E-005  0.1082988E+03  0.7546771E-02  0.1264169E+00
          1   -1    0    0  502    0  0.00000000000E+00  0.00000000000E+00  0.55978901240E+03  0.55978901240E+03  0.00000000000E+00 0. -1.
         -1   -1    0    0    0  501 -0.00000000000E+00 -0.00000000000E+00 -0.35170889413E+02  0.35170889413E+02  0.00000000000E+00 0.  1.
         23    2    1    2    0    0  0.16574507937E+02 -0.32592887444E+02  0.12894543018E+03  0.16297691409E+03  0.92722920229E+02 0.  0.
         23    2    1    2    0    0 -0.18773281656E+02  0.62665841156E+02  0.38309521526E+03  0.39931174514E+03  0.91697775836E+02 0.  0.
        -11    1    4    4    0    0 -0.25042595511E+02 -0.18144795665E+02  0.87447499625E+02  0.92754678536E+02  0.00000000000E+00 0.  1.
         11    1    4    4    0    0  0.62693138550E+01  0.80810636821E+02  0.29564771564E+03  0.30655706660E+03  0.00000000000E+00 0. -1.
        -13    1    3    3    0    0  0.51675681792E+02 -0.89810418724E+00  0.76893017786E+02  0.92648361367E+02  0.00000000000E+00 0. -1.
         13    1    3    3    0    0 -0.35101173855E+02 -0.31694783256E+02  0.52052412396E+02  0.70328552721E+02  0.00000000000E+00 0.  1.
         21    1    1    2  502  501  0.21987737188E+01 -0.30072953713E+02  0.12577477539E+02  0.32671242586E+02  0.00000000000E+00 0.  1.
<scales pt_clust_5="13000.00000" pt_clust_6="13000.00000" pt_clust_7="13000.00000" pt_clust_8="13000.00000" pt_clust_9="30.15323"></scales>
<clustering>
<clus scale="   30.153">  2  9  1 -1</clus>
<clus scale="   91.698">  5  6 -1 -1</clus>
<clus scale="   92.723">  7  8 -1 -1</clus>
<clus scale="  107.422">  1  5  2 -1</clus>
<clus scale="  107.422">  1  5  2 -1</clus>
</clustering>
</event>
<event>
 9    1  0.1175034E-005  0.1016361E+03  0.7546771E-02  0.1283717E+00
          2   -1    0    0  502    0  0.00000000000E+00  0.00000000000E+00  0.14357305328E+03  0.14357305328E+03  0.00000000000E+00 0. -1.
         -2   -1    0    0    0  501 -0.00000000000E+00 -0.00000000000E+00 -0.18224335623E+03  0.18224335623E+03  0.00000000000E+00 0.  1.
         23    2    1    2    0    0  0.31469249297E+02  0.15032893607E+02  0.16545040950E+02  0.10684708149E+03  0.99630612275E+02 0.  0.
         23    2    1    2    0    0 -0.11805134259E+02  0.19074965924E+02  0.52670842371E+02  0.10412398554E+03  0.86973393682E+02 0.  0.
        -11    1    4    4    0    0 -0.41809252913E+02 -0.98697439405E+01  0.44094844380E+02  0.61561195371E+02  0.00000000000E+00 0.  1.
         11    1    4    4    0    0  0.30004118654E+02  0.28944709865E+02  0.85759979911E+01  0.42562790168E+02  0.00000000000E+00 0. -1.
        -13    1    3    3    0    0 -0.94610793436E+01  0.26510847933E+02  0.46840012738E+02  0.54647267761E+02  0.00000000000E+00 0. -1.
         13    1    3    3    0    0  0.40930328641E+02 -0.11477954326E+02 -0.30294971788E+02  0.52199813733E+02  0.00000000000E+00 0.  1.
         21    1    1    2  502  501 -0.19664115038E+02 -0.34107859531E+02 -0.10788618627E+03  0.11484534248E+03  0.00000000000E+00 0.  1.
<scales pt_clust_5="13000.00000" pt_clust_6="13000.00000" pt_clust_7="13000.00000" pt_clust_8="13000.00000" pt_clust_9="39.37034"></scales>
<clustering>
<clus scale="   39.370">  2  9  1 -1</clus>
<clus scale="   86.973">  5  6 -1 -1</clus>
<clus scale="   89.264">  1  5  2 -1</clus>
<clus scale="   99.631">  7  8 -1 -1</clus>
<clus scale="   89.264">  1  5  2 -1</clus>
</clustering>
</event>
<event>
 9    1  0.1175034E-005  0.1199815E+03  0.7546771E-02  0.1247981E+00
         -2   -1    0    0    0  501 -0.00000000000E+00  0.00000000000E+00  0.99246088150E+02  0.99246088150E+02  0.00000000000E+00 0.  1.
          2   -1    0    0  502    0  0.00000000000E+00 -0.00000000000E+00 -0.23348308361E+03  0.23348308361E+03  0.00000000000E+00 0. -1.
         23    2    1    2    0    0 -0.62421119607E+02  0.30221797010E+02 -0.56008841599E+02  0.13068890566E+03  0.95565927697E+02 0.  0.
         23    2    1    2    0    0  0.36677773903E+02 -0.17303254992E+02 -0.10977705742E+03  0.15932092749E+03  0.10810871319E+03 0.  0.
        -11    1    3    3    0    0  0.10340800797E+01  0.51032808006E+02 -0.20027798924E+02  0.54831829664E+02  0.00000000000E+00 0.  1.
         11    1    3    3    0    0 -0.63455199687E+02 -0.20811010996E+02 -0.35981042675E+02  0.75857075991E+02  0.00000000000E+00 0. -1.
        -13    1    4    4    0    0 -0.26025018104E+02 -0.27181034822E+02 -0.66352915359E+01  0.38211743156E+02  0.00000000000E+00 0.  1.
         13    1    4    4    0    0  0.62702792007E+02  0.98777798301E+01 -0.10314176588E+03  0.12110918433E+03  0.00000000000E+00 0. -1.
         21    1    1    2  502  501  0.25743345704E+02 -0.12918542018E+02  0.31548903561E+02  0.42719338616E+02  0.00000000000E+00 0. -1.
<scales pt_clust_5="13000.00000" pt_clust_6="13000.00000" pt_clust_7="13000.00000" pt_clust_8="13000.00000" pt_clust_9="28.80293"></scales>
<clustering>
<clus scale="   28.803">  1  9  2 -1</clus>
<clus scale="   95.566">  5  6 -1 -1</clus>
<clus scale="  108.109">  7  8 -1 -1</clus>
<clus scale="  108.816">  1  5  2 -1</clus>
<clus scale="  119.982">  2  5  1 -1</clus>
</clustering>
</event>
<event>
 9    1  0.1175034E-005  0.1553493E+03  0.7546771E-02  0.1194455E+00
          2   -1    0    0  502    0  0.00000000000E+00  0.00000000000E+00  0.69045700345E+03  0.69045700345E+03  0.00000000000E+00 0. -1.
         -2   -1    0    0    0  501 -0.00000000000E+00 -0.00000000000E+00 -0.45392776080E+02  0.45392776080E+02  0.00000000000E+00 0.  1.
         23    2    1    2    0    0  0.95551225368E+02  0.51393575106E+02  0.18328709136E+03  0.23192757711E+03  0.91787291778E+02 0.  0.
         23    2    1    2    0    0 -0.12706123520E+03 -0.48746173278E+02  0.42657605681E+03  0.45660407236E+03  0.89439363543E+02 0.  0.
        -11    1    3    3    0    0  0.74398972645E+02  0.67521688792E+02  0.17859703476E+03  0.20491775524E+03  0.00000000000E+00 0. -1.
         11    1    3    3    0    0  0.21152252724E+02 -0.16128113686E+02  0.46900566005E+01  0.27009821867E+02  0.00000000000E+00 0.  1.
        -13    1    4    4    0    0 -0.50147327973E+02  0.22847507496E+02  0.18806094519E+03  0.19596857454E+03  0.00000000000E+00 0. -1.
         13    1    4    4    0    0 -0.76913907226E+02 -0.71593680774E+02  0.23851511161E+03  0.26063549781E+03  0.00000000000E+00 0.  1.
         21    1    1    2  502  501  0.31510009830E+02 -0.26474018277E+01  0.35201079194E+02  0.47318130059E+02  0.00000000000E+00 0. -1.
<scales pt_clust_5="13000.00000" pt_clust_6="13000.00000" pt_clust_7="13000.00000" pt_clust_8="13000.00000" pt_clust_9="31.62103"></scales>
<clustering>
<clus scale="   31.621">  2  9  1 -1</clus>
<clus scale="   89.439">  7  8 -1 -1</clus>
<clus scale="   91.787">  5  6 -1 -1</clus>
<clus scale="  153.974">  1  7  2 -1</clus>
<clus scale="  153.974">  1  5  2 -1</clus>
</clustering>
</event>
<event>
 9    1  0.1175034E-005  0.9318212E+02  0.7546771E-02  0.1296781E+00
          2   -1    0    0  502    0  0.00000000000E+00  0.00000000000E+00  0.59420320803E+03  0.59420320803E+03  0.00000000000E+00 0. -1.
         -2   -1    0    0    0  501 -0.00000000000E+00 -0.00000000000E+00 -0.23369194739E+02  0.23369194739E+02  0.00000000000E+00 0.  1.
         23    2    1    2    0    0  0.12185634524E+02  0.35093453791E+01  0.17066129821E+03  0.19341110341E+03  0.90120868958E+02 0.  0.
         23    2    1    2    0    0 -0.12136197767E+02  0.33714384187E+02  0.34403462061E+03  0.35680334409E+03  0.87549181490E+02 0.  0.
        -11    1    3    3    0    0 -0.37333893140E+02 -0.11658484561E+02  0.78085442446E+02  0.87333133239E+02  0.00000000000E+00 0.  1.
         11    1    3    3    0    0  0.49519527665E+02  0.15167829940E+02  0.92575855766E+02  0.10607797017E+03  0.00000000000E+00 0. -1.
        -13    1    4    4    0    0  0.20346308978E+02 -0.16827546773E+02  0.48476600871E+02  0.55200719664E+02  0.00000000000E+00 0. -1.
         13    1    4    4    0    0 -0.32482506745E+02  0.50541930960E+02  0.29555801974E+03  0.30160262443E+03  0.00000000000E+00 0.  1.
         21    1    1    2  502  501 -0.49436757634E-01 -0.37223729566E+02  0.56138094468E+02  0.67357955264E+02  0.00000000000E+00 0. -1.
<scales pt_clust_5="13000.00000" pt_clust_6="13000.00000" pt_clust_7="13000.00000" pt_clust_8="13000.00000" pt_clust_9="37.22376"></scales>
<clustering>
<clus scale="   37.224">  2  9  1 -1</clus>
<clus scale="   87.549">  7  8 -1 -1</clus>
<clus scale="   90.121">  5  6 -1 -1</clus>
<clus scale="   90.697">  1  7  2 -1</clus>
<clus scale="   90.697">  1  5  2 -1</clus>
</clustering>
</event>
<event>
 9    1  0.1175034E-005  0.2732691E+03  0.7546771E-02  0.1099762E+00
         -4   -1    0    0    0  501 -0.00000000000E+00  0.00000000000E+00  0.10451819797E+04  0.10451819797E+04  0.00000000000E+00 0.  1.
          4   -1    0    0  502    0  0.00000000000E+00 -0.00000000000E+00 -0.89345620979E+02  0.89345620979E+02  0.00000000000E+00 0. -1.
         23    2    1    2    0    0 -0.27732732228E+03  0.78983463493E+02  0.50310826096E+03  0.58808211944E+03  0.97845928750E+02 0.  0.
         23    2    1    2    0    0  0.22151215190E+03 -0.65635000879E+02  0.35754891537E+03  0.43530326847E+03  0.90951206060E+02 0.  0.
        -11    1    3    3    0    0 -0.13788699776E+03  0.20930907310E+02  0.33048628999E+03  0.35870895570E+03  0.00000000000E+00 0. -1.
         11    1    3    3    0    0 -0.13944032451E+03  0.58052556182E+02  0.17262197097E+03  0.22937316374E+03  0.00000000000E+00 0.  1.
        -13    1    4    4    0    0  0.15838964639E+03 -0.10706922965E+02  0.18673501291E+03  0.24509566159E+03  0.00000000000E+00 0.  1.
         13    1    4    4    0    0  0.63122505518E+02 -0.54928077914E+02  0.17081390245E+03  0.19020760689E+03  0.00000000000E+00 0. -1.
         21    1    1    2  502  501  0.55815170372E+02 -0.13348462614E+02  0.95179182438E+02  0.11114221281E+03  0.00000000000E+00 0. -1.
<scales pt_clust_5="13000.00000" pt_clust_6="13000.00000" pt_clust_7="13000.00000" pt_clust_8="13000.00000" pt_clust_9="57.38915"></scales>
<clustering>
<clus scale="   57.389">  1  9  2 -1</clus>
<clus scale="   90.951">  7  8 -1 -1</clus>
<clus scale="   97.846">  5  6 -1 -1</clus>
<clus scale="  270.877">  2  7  1 -1</clus>
<clus scale="  270.877">  2  5  1 -1</clus>
</clustering>
</event>
<event>
 9    1  0.1175034E-005  0.1347215E+03  0.7546771E-02  0.1238630E+00
          2   -1    0    0  502    0  0.00000000000E+00  0.00000000000E+00  0.78602640537E+03  0.78602640537E+03  0.00000000000E+00 0. -1.
         -2   -1    0    0    0  501 -0.00000000000E+00 -0.00000000000E+00 -0.53040654953E+02  0.53040654953E+02  0.00000000000E+00 0.  1.
         23    2    1    2    0    0  0.17997728941E+02 -0.17664934504E+01  0.10851702241E+03  0.14281550206E+03  0.91067473503E+02 0.  0.
         23    2    1    2    0    0 -0.17027966786E+02  0.98362037196E+02  0.56891323764E+03  0.58481524452E+03  0.91550839665E+02 0.  0.
        -13    1    4    4    0    0  0.22288212765E+02  0.92593993418E+01  0.37810934145E+02  0.44857191679E+02  0.00000000000E+00 0.  1.
         13    1    4    4    0    0 -0.39316179550E+02  0.89102637855E+02  0.53110230350E+03  0.53995805284E+03  0.00000000000E+00 0. -1.
        -13    1    3    3    0    0  0.48820667963E+02  0.16305181832E+02  0.38736052933E+02  0.64418928676E+02  0.00000000000E+00 0.  1.
         13    1    3    3    0    0 -0.30822939023E+02 -0.18071675282E+02  0.69780969474E+02  0.78396573383E+02  0.00000000000E+00 0. -1.
         21    1    1    2  502  501 -0.96976215496E+00 -0.96595543746E+02  0.55555490362E+02  0.11143631374E+03  0.00000000000E+00 0.  1.
<scales pt_clust_5="13000.00000" pt_clust_6="13000.00000" pt_clust_7="13000.00000" pt_clust_8="13000.00000" pt_clust_9="98.83484"></scales>
<clustering>
<clus scale="   91.067">  7  8 -1 -1</clus>
<clus scale="   91.551">  5  6 -1 -1</clus>
<clus scale="   92.846">  2  7  1 -1</clus>
<clus scale="   98.835">  2  9  1 -1</clus>
<clus scale="  134.721">  1  5  2 -1</clus>
</clustering>
</event>
<event>
 9    1  0.1175034E-005  0.1029248E+03  0.7546771E-02  0.1276745E+00
         -2   -1    0    0    0  501 -0.00000000000E+00  0.00000000000E+00  0.17749386627E+03  0.17749386627E+03  0.00000000000E+00 0.  1.
          2   -1    0    0  502    0  0.00000000000E+00 -0.00000000000E+00 -0.28572558765E+03  0.28572558765E+03  0.00000000000E+00 0. -1.
         23    2    1    2    0    0  0.26636537729E+02 -0.18418486363E+02  0.30352133312E+02  0.10009293900E+03  0.89713982514E+02 0.  0.
         23    2    1    2    0    0  0.34127371257E+01 -0.63020646904E+02 -0.22015675352E+03  0.24400712451E+03  0.84185699383E+02 0.  0.
        -11    1    4    4    0    0 -0.30149677329E+02 -0.64002239352E+02 -0.13381132589E+03  0.15136300942E+03  0.00000000000E+00 0. -1.
         11    1    4    4    0    0  0.33562414455E+02  0.98159244768E+00 -0.86345427635E+02  0.92644115092E+02  0.00000000000E+00 0.  1.
        -13    1    3    3    0    0  0.14521396479E+02  0.27693391862E+02  0.40680859522E+02  0.51310108555E+02  0.00000000000E+00 0.  1.
         13    1    3    3    0    0  0.12115141250E+02 -0.46111878225E+02 -0.10328726210E+02  0.48782830443E+02  0.00000000000E+00 0. -1.
         21    1    1    2  502  501 -0.30049274855E+02  0.81439133267E+02  0.81572898832E+02  0.11911939041E+03  0.00000000000E+00 0.  1.
<scales pt_clust_5="13000.00000" pt_clust_6="13000.00000" pt_clust_7="13000.00000" pt_clust_8="13000.00000" pt_clust_9="86.80606"></scales>
<clustering>
<clus scale="   84.186">  5  6 -1 -1</clus>
<clus scale="   86.806">  1  9  2 -1</clus>
<clus scale="   89.714">  7  8 -1 -1</clus>
<clus scale="   98.144">  2  5  1 -1</clus>
<clus scale="   98.144">  2  5  1 -1</clus>
</clustering>
</event>
<event>
 9    1  0.1175034E-005  0.1087124E+03  0.7546771E-02  0.1263375E+00
          1   -1    0    0  502    0  0.00000000000E+00  0.00000000000E+00  0.42643739966E+03  0.42643739966E+03  0.00000000000E+00 0. -1.
         -1   -1    0    0    0  501 -0.00000000000E+00 -0.00000000000E+00 -0.50155259412E+02  0.50155259412E+02  0.00000000000E+00 0.  1.
         23    2    1    2    0    0  0.10133453928E+02 -0.73897444405E+02  0.10933629307E+03  0.16129872102E+03  0.92191828501E+02 0.  0.
         23    2    1    2    0    0  0.18268561592E+02  0.49795594015E+02  0.25534735072E+03  0.27627985345E+03  0.91186327772E+02 0.  0.
        -11    1    3    3    0    0  0.41770373423E+02 -0.60509059760E+02  0.10270579045E+03  0.12631147929E+03  0.00000000000E+00 0. -1.
         11    1    3    3    0    0 -0.31636919494E+02 -0.13388384645E+02  0.66305026127E+01  0.34987241723E+02  0.00000000000E+00 0.  1.
        -13    1    4    4    0    0 -0.32008636283E+02  0.17803377959E+02  0.47050423269E+02  0.59625962410E+02  0.00000000000E+00 0.  1.
         13    1    4    4    0    0  0.50277197875E+02  0.31992216056E+02  0.20829692746E+03  0.21665389104E+03  0.00000000000E+00 0. -1.
         21    1    1    2  502  501 -0.28402015520E+02  0.24101850390E+02  0.11598496460E+02  0.39014084610E+02  0.00000000000E+00 0.  1.
<scales pt_clust_5="13000.00000" pt_clust_6="13000.00000" pt_clust_7="13000.00000" pt_clust_8="13000.00000" pt_clust_9="37.25015"></scales>
<clustering>
<clus scale="   37.250">  2  9  1 -1</clus>
<clus scale="   91.186">  7  8 -1 -1</clus>
<clus scale="   92.192">  5  6 -1 -1</clus>
<clus scale="  107.861">  1  7  2 -1</clus>
<clus scale="  107.861">  1  5  2 -1</clus>
</clustering>
</event>
<event>
 9    1  0.1175034E-005  0.1341508E+03  0.7546771E-02  0.1224479E+00
         -2   -1    0    0    0  501 -0.00000000000E+00  0.00000000000E+00  0.14301218494E+03  0.14301218494E+03  0.00000000000E+00 0.  1.
          2   -1    0    0  502    0  0.00000000000E+00 -0.00000000000E+00 -0.28228761435E+03  0.28228761435E+03  0.00000000000E+00 0. -1.
         23    2    1    2    0    0  0.43115778976E+02 -0.82828517648E+02  0.84108283554E+02  0.15468289256E+03  0.90183480497E+02 0.  0.
         23    2    1    2    0    0 -0.25646993733E+02  0.51187097352E+02 -0.17508010490E+03  0.21028800415E+03  0.10144020078E+03 0.  0.
        -11    1    4    4    0    0 -0.39546495688E+02  0.21014444817E+02 -0.17106054641E+03  0.17682545843E+03  0.00000000000E+00 0. -1.
         11    1    4    4    0    0  0.13899501955E+02  0.30172652535E+02 -0.40195584965E+01  0.33462545720E+02  0.00000000000E+00 0.  1.
        -13    1    3    3    0    0 -0.66685590389E+00 -0.70086814401E+02  0.83582442951E+02  0.10908084625E+03  0.00000000000E+00 0.  1.
         13    1    3    3    0    0  0.43782634880E+02 -0.12741703247E+02  0.52584060304E+00  0.45602046303E+02  0.00000000000E+00 0. -1.
         21    1    1    2  502  501 -0.17468785244E+02  0.31641420296E+02 -0.48303608056E+02  0.60328902588E+02  0.00000000000E+00 0. -1.
<scales pt_clust_5="13000.00000" pt_clust_6="13000.00000" pt_clust_7="13000.00000" pt_clust_8="13000.00000" pt_clust_9="36.14330"></scales>
<clustering>
<clus scale="   36.143">  2  9  1 -1</clus>
<clus scale="   90.183">  7  8 -1 -1</clus>
<clus scale="  101.440">  5  6 -1 -1</clus>
<clus scale="  125.855">  1  7  2 -1</clus>
<clus scale="   36.143">  2  5  1 -1</clus>
</clustering>
</event>
<event>
 9    1  0.1175034E-005  0.1360288E+03  0.7546771E-02  0.1219286E+00
         -2   -1    0    0    0  501 -0.00000000000E+00  0.00000000000E+00  0.79939011275E+02  0.79939011275E+02  0.00000000000E+00 0.  1.
          2   -1    0    0  502    0  0.00000000000E+00 -0.00000000000E+00 -0.88049315320E+03  0.88049315320E+03  0.00000000000E+00 0. -1.
         23    2    1    2    0    0  0.79117514611E+02 -0.89192593942E+02 -0.10088389589E+03  0.18071231983E+03  0.90909197314E+02 0.  0.
         23    2    1    2    0    0 -0.91471038241E+02  0.40014383941E+02 -0.71451056056E+03  0.72688670335E+03  0.88717735512E+02 0.  0.
        -11    1    4    4    0    0 -0.87296348186E+02  0.63843018975E+02 -0.61789877576E+03  0.62729218118E+03  0.00000000000E+00 0. -1.
         11    1    4    4    0    0 -0.41746900552E+01 -0.23828635034E+02 -0.96611784797E+02  0.99594522170E+02  0.00000000000E+00 0.  1.
        -13    1    3    3    0    0  0.22485873870E+02 -0.41066368479E+02 -0.95305214724E+02  0.10618448614E+03  0.00000000000E+00 0. -1.
         13    1    3    3    0    0  0.56631640742E+02 -0.48126225463E+02 -0.55786811619E+01  0.74527833686E+02  0.00000000000E+00 0.  1.
         21    1    1    2  502  501  0.12353523630E+02  0.49178210001E+02  0.14840314515E+02  0.52833141303E+02  0.00000000000E+00 0.  1.
<scales pt_clust_5="13000.00000" pt_clust_6="13000.00000" pt_clust_7="13000.00000" pt_clust_8="13000.00000" pt_clust_9="50.70607"></scales>
<clustering>
<clus scale="   50.706">  1  9  2 -1</clus>
<clus scale="   88.718">  5  6 -1 -1</clus>
<clus scale="   90.909">  7  8 -1 -1</clus>
<clus scale="  134.574">  2  5  1 -1</clus>
<clus scale="  134.574">  2  5  1 -1</clus>
</clustering>
</event>
<event>
 9    1  0.1175034E-005  0.9144580E+02  0.7546771E-02  0.1299517E+00
         -3   -1    0    0    0  501 -0.00000000000E+00  0.00000000000E+00  0.31040578149E+03  0.31040578149E+03  0.00000000000E+00 0.  1.
          3   -1    0    0  502    0  0.00000000000E+00 -0.00000000000E+00 -0.11347113860E+03  0.11347113860E+03  0.00000000000E+00 0. -1.
         23    2    1    2    0    0 -0.67225681737E+01  0.52248768773E+01 -0.16790778370E+02  0.93147337313E+02  0.91225018219E+02 0.  0.
         23    2    1    2    0    0 -0.14957828046E+02  0.14742119876E+02 -0.19697522571E+02  0.95453168230E+02  0.91006858046E+02 0.  0.
        -13    1    4    4    0    0 -0.53313080988E+02  0.54187389484E+01 -0.15346533566E+02  0.55741935997E+02  0.00000000000E+00 0.  1.
         13    1    4    4    0    0  0.38355252942E+02  0.93233809278E+01 -0.43509890043E+01  0.39711232233E+02  0.00000000000E+00 0. -1.
        -13    1    3    3    0    0 -0.13758386250E+02 -0.26616398429E+02  0.25777207727E+02  0.39524553075E+02  0.00000000000E+00 0.  1.
         13    1    3    3    0    0  0.70358180767E+01  0.31841275307E+02 -0.42567986097E+02  0.53622784238E+02  0.00000000000E+00 0. -1.
         21    1    1    2  502  501  0.21680396220E+02 -0.19966996754E+02  0.23342294383E+03  0.23527641455E+03  0.00000000000E+00 0.  1.
<scales pt_clust_5="13000.00000" pt_clust_6="13000.00000" pt_clust_7="13000.00000" pt_clust_8="13000.00000" pt_clust_9="29.47407"></scales>
<clustering>
<clus scale="   29.474">  1  9  2 -1</clus>
<clus scale="   91.007">  5  6 -1 -1</clus>
<clus scale="   91.225">  7  8 -1 -1</clus>
<clus scale="   91.228">  2  5  1 -1</clus>
<clus scale="   91.228">  2  5  1 -1</clus>
</clustering>
</event>
<event>
 9    1  0.1175034E-005  0.1546528E+03  0.7546771E-02  0.1195287E+00
         -2   -1    0    0    0  501 -0.00000000000E+00  0.00000000000E+00  0.70607332893E+02  0.70607332893E+02  0.00000000000E+00 0.  1.
          2   -1    0    0  502    0  0.00000000000E+00 -0.00000000000E+00 -0.66832718795E+03  0.66832718795E+03  0.00000000000E+00 0. -1.
         23    2    1    2    0    0 -0.48673479183E+02 -0.99632197444E+02 -0.46201710654E+02  0.15013185803E+03  0.90051620669E+02 0.  0.
         23    2    1    2    0    0  0.67226477798E+02  0.10762205210E+03 -0.54562533296E+03  0.56776040148E+03  0.92428156488E+02 0.  0.
        -11    1    4    4    0    0 -0.22794439535E+02  0.13607925825E+02 -0.80415470016E+02  0.84684177606E+02  0.00000000000E+00 0.  1.
         11    1    4    4    0    0  0.90020917333E+02  0.94014126275E+02 -0.46520986294E+03  0.48307622388E+03  0.00000000000E+00 0. -1.
        -13    1    3    3    0    0 -0.66113626776E+02 -0.33278573428E+02 -0.28154378506E+02  0.79190555775E+02  0.00000000000E+00 0.  1.
         13    1    3    3    0    0  0.17440147593E+02 -0.66353624016E+02 -0.18047332148E+02  0.70941302256E+02  0.00000000000E+00 0. -1.
         21    1    1    2  502  501 -0.18552998615E+02 -0.79898546566E+01 -0.58928114444E+01  0.21042261327E+02  0.00000000000E+00 0.  1.
<scales pt_clust_5="13000.00000" pt_clust_6="13000.00000" pt_clust_7="13000.00000" pt_clust_8="13000.00000" pt_clust_9="20.20029"></scales>
<clustering>
<clus scale="   20.200">  1  9  2 -1</clus>
<clus scale="   90.052">  7  8 -1 -1</clus>
<clus scale="   92.428">  5  6 -1 -1</clus>
<clus scale="  153.244">  1  7  2 -1</clus>
<clus scale="  154.653">  2  5  1 -1</clus>
</clustering>
</event>
<event>
 9    1  0.1175034E-005  0.1992468E+03  0.7546771E-02  0.1150435E+00
         -2   -1    0    0    0  501 -0.00000000000E+00  0.00000000000E+00  0.49924661952E+02  0.49924661952E+02  0.00000000000E+00 0.  1.
          2   -1    0    0  502    0  0.00000000000E+00 -0.00000000000E+00 -0.10091821665E+04  0.10091821665E+04  0.00000000000E+00 0. -1.
         23    2    1    2    0    0 -0.14025609770E+02 -0.16770716215E+03 -0.29666559825E+03  0.35278131070E+03  0.90120841239E+02 0.  0.
         23    2    1    2    0    0 -0.11436125964E+02  0.18296329905E+03 -0.62937588161E+03  0.66177942932E+03  0.90728490256E+02 0.  0.
        -11    1    3    3    0    0  0.26144516401E+02 -0.12802941578E+02 -0.64964855086E+02  0.71189068313E+02  0.00000000000E+00 0.  1.
         11    1    3    3    0    0 -0.40170126170E+02 -0.15490422057E+03 -0.23170074316E+03  0.28159224238E+03  0.00000000000E+00 0. -1.
        -11    1    4    4    0    0 -0.81275395143E+01  0.24668924962E+02 -0.21789785605E+02  0.33902913061E+02  0.00000000000E+00 0.  1.
         11    1    4    4    0    0 -0.33085864501E+01  0.15829437409E+03 -0.60758609600E+03  0.62787651626E+03  0.00000000000E+00 0. -1.
         21    1    1    2  502  501  0.25461735734E+02 -0.15256136898E+02 -0.33216024737E+02  0.44546088481E+02  0.00000000000E+00 0. -1.
<scales pt_clust_5="13000.00000" pt_clust_6="13000.00000" pt_clust_7="13000.00000" pt_clust_8="13000.00000" pt_clust_9="29.68248"></scales>
<clustering>
<clus scale="   29.682">  1  9  2 -1</clus>
<clus scale="   90.121">  5  6 -1 -1</clus>
<clus scale="   90.728">  7  8 -1 -1</clus>
<clus scale="  198.971">  1  5  2 -1</clus>
<clus scale="  199.247">  2  5  1 -1</clus>
</clustering>
</event>
<event>
 9    1  0.1175034E-005  0.2229725E+03  0.7546771E-02  0.1131951E+00
         -1   -1    0    0    0  501 -0.00000000000E+00  0.00000000000E+00  0.40920195867E+03  0.40920195867E+03  0.00000000000E+00 0.  1.
          1   -1    0    0  502    0  0.00000000000E+00 -0.00000000000E+00 -0.16296344193E+03  0.16296344193E+03  0.00000000000E+00 0. -1.
         23    2    1    2    0    0 -0.17978268527E+03  0.14070657592E+03  0.12189618014E+03  0.27486254929E+03  0.92577469400E+02 0.  0.
         23    2    1    2    0    0  0.15523881997E+03 -0.97021169259E+02  0.58985254952E+02  0.21494774095E+03  0.95974332664E+02 0.  0.
        -11    1    3    3    0    0 -0.14960179661E+03  0.11803864624E+03  0.13648371933E+03  0.23439629946E+03  0.00000000000E+00 0.  1.
         11    1    3    3    0    0 -0.30180888663E+02  0.22667929672E+02 -0.14587539191E+02  0.40466249836E+02  0.00000000000E+00 0. -1.
        -13    1    4    4    0    0  0.82195788235E+02 -0.10483783405E+03  0.36672882229E+02  0.13817387359E+03  0.00000000000E+00 0.  1.
         13    1    4    4    0    0  0.73043031730E+02  0.78166647950E+01  0.22312372723E+02  0.76773867360E+02  0.00000000000E+00 0. -1.
         21    1    1    2  502  501  0.24543865309E+02 -0.43685406658E+02  0.65357081651E+02  0.82355110352E+02  0.00000000000E+00 0. -1.
<scales pt_clust_5="13000.00000" pt_clust_6="13000.00000" pt_clust_7="13000.00000" pt_clust_8="13000.00000" pt_clust_9="50.10804"></scales>
<clustering>
<clus scale="   50.108">  1  9  2 -1</clus>
<clus scale="   92.577">  5  6 -1 -1</clus>
<clus scale="   95.974">  7  8 -1 -1</clus>
<clus scale="  221.532">  1  5  2 -1</clus>
<clus scale="  222.972">  2  5  1 -1</clus>
</clustering>
</event>
<event>
 9    1  0.1175034E-005  0.1056833E+03  0.7546771E-02  0.1268814E+00
          1   -1    0    0  502    0  0.00000000000E+00  0.00000000000E+00  0.13133608154E+03  0.13133608154E+03  0.00000000000E+00 0. -1.
         -1   -1    0    0    0  501 -0.00000000000E+00 -0.00000000000E+00 -0.26125062523E+03  0.26125062523E+03  0.00000000000E+00 0.  1.
         23    2    1    2    0    0 -0.42197376917E+02 -0.91248685010E+01 -0.17802704791E+03  0.20464660575E+03  0.91228951624E+02 0.  0.
         23    2    1    2    0    0  0.53715517115E+02 -0.11618987565E+02  0.90202084915E+02  0.13962335525E+03  0.91312143537E+02 0.  0.
        -13    1    3    3    0    0 -0.60556702426E+02  0.14465940560E+02 -0.15460477856E+03  0.16667037889E+03  0.00000000000E+00 0.  1.
         13    1    3    3    0    0  0.18359325509E+02 -0.23590809061E+02 -0.23422269347E+02  0.37976226862E+02  0.00000000000E+00 0. -1.
        -13    1    4    4    0    0  0.16083452309E+02  0.18431171680E+02  0.88085406657E+02  0.91418949860E+02  0.00000000000E+00 0.  1.
         13    1    4    4    0    0  0.37632064806E+02 -0.30050159244E+02  0.21166782586E+01  0.48204405390E+02  0.00000000000E+00 0. -1.
         21    1    1    2  502  501 -0.11518140198E+02  0.20743856066E+02 -0.42089580694E+02  0.48316745763E+02  0.00000000000E+00 0.  1.
<scales pt_clust_5="13000.00000" pt_clust_6="13000.00000" pt_clust_7="13000.00000" pt_clust_8="13000.00000" pt_clust_9="23.72710"></scales>
<clustering>
<clus scale="   23.727">  2  9  1 -1</clus>
<clus scale="   91.229">  5  6 -1 -1</clus>
<clus scale="   91.312">  7  8 -1 -1</clus>
<clus scale="  105.611">  2  5  1 -1</clus>
<clus scale="  105.683">  1  5  2 -1</clus>
</clustering>
</event>
<event>
 9    1  0.1175034E-005  0.1135951E+03  0.7546771E-02  0.1254769E+00
          1   -1    0    0  502    0  0.00000000000E+00  0.00000000000E+00  0.32723176584E+03  0.32723176584E+03  0.00000000000E+00 0. -1.
         -1   -1    0    0    0  501 -0.00000000000E+00 -0.00000000000E+00 -0.80648572916E+02  0.80648572916E+02  0.00000000000E+00 0.  1.
         23    2    1    2    0    0  0.45290702971E+02  0.30925974831E+02  0.44384152540E+02  0.11626126440E+03  0.92407060923E+02 0.  0.
         23    2    1    2    0    0 -0.46538028102E+02 -0.53393053966E+02  0.22925904639E+03  0.25642575978E+03  0.90431485985E+02 0.  0.
        -11    1    4    4    0    0  0.16125833835E+02 -0.40743019140E+02  0.52051097192E+02  0.68039347766E+02  0.00000000000E+00 0.  1.
         11    1    4    4    0    0 -0.62663861937E+02 -0.12650034827E+02  0.17720794920E+03  0.18838641202E+03  0.00000000000E+00 0. -1.
        -13    1    3    3    0    0  0.67016789994E+02 -0.25091807224E+01  0.22264903774E+02  0.70663088448E+02  0.00000000000E+00 0.  1.
         13    1    3    3    0    0 -0.21726087023E+02  0.33435155554E+02  0.22119248765E+02  0.45598175952E+02  0.00000000000E+00 0. -1.
         21    1    1    2  502  501  0.12473251314E+01  0.22467079135E+02 -0.27060006011E+02  0.35193314566E+02  0.00000000000E+00 0.  1.
<scales pt_clust_5="13000.00000" pt_clust_6="13000.00000" pt_clust_7="13000.00000" pt_clust_8="13000.00000" pt_clust_9="22.50168"></scales>
<clustering>
<clus scale="   22.502">  2  9  1 -1</clus>
<clus scale="   90.431">  5  6 -1 -1</clus>
<clus scale="   92.407">  7  8 -1 -1</clus>
<clus scale="  111.994">  1  5  2 -1</clus>
<clus scale="  111.994">  1  5  2 -1</clus>
</clustering>
</event>
<event>
 9    1  0.1175034E-005  0.1765468E+03  0.7546771E-02  0.1174285E+00
          1   -1    0    0  502    0  0.00000000000E+00  0.00000000000E+00  0.12194266971E+03  0.12194266971E+03  0.00000000000E+00 0. -1.
         -1   -1    0    0    0  501 -0.00000000000E+00 -0.00000000000E+00 -0.31242449357E+03  0.31242449357E+03  0.00000000000E+00 0.  1.
         23    2    1    2    0    0 -0.28903255310E+01  0.15824601459E+03 -0.81834913624E+02  0.19839909803E+03  0.87264505357E+02 0.  0.
         23    2    1    2    0    0  0.26984799044E+02 -0.12037858354E+03 -0.78685162534E+02  0.18200333312E+03  0.10823435549E+03 0.  0.
        -11    1    3    3    0    0 -0.31967379934E+02  0.79814307529E+02 -0.75652042448E+02  0.11452278635E+03  0.00000000000E+00 0.  1.
         11    1    3    3    0    0  0.29077054403E+02  0.78431707060E+02 -0.61828711753E+01  0.83876311680E+02  0.00000000000E+00 0. -1.
        -11    1    4    4    0    0  0.31868411286E+02  0.94372311230E+01 -0.83160468431E+01  0.34260963271E+02  0.00000000000E+00 0. -1.
         11    1    4    4    0    0 -0.48836122424E+01 -0.12981581466E+03 -0.70369115691E+02  0.14774236985E+03  0.00000000000E+00 0.  1.
         21    1    1    2  502  501 -0.24094473513E+02 -0.37867431051E+02 -0.29961747706E+02  0.53964732130E+02  0.00000000000E+00 0.  1.
<scales pt_clust_5="13000.00000" pt_clust_6="13000.00000" pt_clust_7="13000.00000" pt_clust_8="13000.00000" pt_clust_9="44.88303"></scales>
<clustering>
<clus scale="   44.883">  2  9  1 -1</clus>
<clus scale="   87.265">  5  6 -1 -1</clus>
<clus scale="  108.234">  7  8 -1 -1</clus>
<clus scale="  164.527">  2  5  1 -1</clus>
<clus scale="  176.547">  1  5  2 -1</clus>
</clustering>
</event>
<event>
 9    1  0.1175034E-005  0.1197230E+03  0.7546771E-02  0.1248534E+00
         -1   -1    0    0    0  501 -0.00000000000E+00  0.00000000000E+00  0.55907024368E+03  0.55907024368E+03  0.00000000000E+00 0.  1.
          1   -1    0    0  502    0  0.00000000000E+00 -0.00000000000E+00 -0.38210975397E+02  0.38210975397E+02  0.00000000000E+00 0. -1.
         23    2    1    2    0    0  0.35146144642E+02 -0.71917512115E+02  0.28547536989E+03  0.31423660697E+03  0.10412049903E+03 0.  0.
         23    2    1    2    0    0 -0.63444747461E+01  0.50954331906E+02  0.10542816016E+03  0.14829489962E+03  0.90772705146E+02 0.  0.
        -13    1    3    3    0    0  0.28510511219E+02 -0.97053276172E+02  0.18956325860E+03  0.21486371652E+03  0.00000000000E+00 0.  1.
         13    1    3    3    0    0  0.66356334231E+01  0.25135764057E+02  0.95912111281E+02  0.99372890448E+02  0.00000000000E+00 0. -1.
        -13    1    4    4    0    0  0.22468968014E+02 -0.13098806153E+02  0.57946573596E+02  0.63515656635E+02  0.00000000000E+00 0.  1.
         13    1    4    4    0    0 -0.28813442760E+02  0.64053138059E+02  0.47481586562E+02  0.84779242986E+02  0.00000000000E+00 0. -1.
         21    1    1    2  502  501 -0.28801669896E+02  0.20963180209E+02  0.12995573824E+03  0.13474971249E+03  0.00000000000E+00 0. -1.
<scales pt_clust_5="13000.00000" pt_clust_6="13000.00000" pt_clust_7="13000.00000" pt_clust_8="13000.00000" pt_clust_9="35.62290"></scales>
<clustering>
<clus scale="   35.623">  1  9  2 -1</clus>
<clus scale="   90.773">  7  8 -1 -1</clus>
<clus scale="  104.120">  5  6 -1 -1</clus>
<clus scale="  108.315">  2  7  1 -1</clus>
<clus scale="  108.315">  2  5  1 -1</clus>
</clustering>
</event>
<event>
 9    1  0.1175034E-005  0.1535615E+03  0.7546771E-02  0.1196439E+00
         -2   -1    0    0    0  501 -0.00000000000E+00  0.00000000000E+00  0.16916717206E+03  0.16916717206E+03  0.00000000000E+00 0.  1.
          2   -1    0    0  502    0  0.00000000000E+00 -0.00000000000E+00 -0.18844792034E+03  0.18844792034E+03  0.00000000000E+00 0. -1.
         23    2    1    2    0    0 -0.33507636736E+02 -0.13202266795E+03 -0.28543354686E+02  0.16699360538E+03  0.92300566450E+02 0.  0.
         23    2    1    2    0    0  0.37210506303E+02  0.10244924577E+03 -0.24175211993E+02  0.14582878402E+03  0.93814304005E+02 0.  0.
        -11    1    3    3    0    0 -0.60806092672E+02 -0.71276009290E+02  0.20336146984E+01  0.93711183938E+02  0.00000000000E+00 0.  1.
         11    1    3    3    0    0  0.27298455936E+02 -0.60746658662E+02 -0.30576969384E+02  0.73282421438E+02  0.00000000000E+00 0. -1.
        -11    1    4    4    0    0 -0.93341377070E+01  0.95721825154E+02 -0.99128914094E+01  0.96685362665E+02  0.00000000000E+00 0.  1.
         11    1    4    4    0    0  0.46544644010E+02  0.67274206166E+01 -0.14262320583E+02  0.49143421357E+02  0.00000000000E+00 0. -1.
         21    1    1    2  502  501 -0.37028695672E+01  0.29573422181E+02  0.33437818403E+02  0.44792703000E+02  0.00000000000E+00 0. -1.
<scales pt_clust_5="13000.00000" pt_clust_6="13000.00000" pt_clust_7="13000.00000" pt_clust_8="13000.00000" pt_clust_9="29.80434"></scales>
<clustering>
<clus scale="   29.804">  1  9  2 -1</clus>
<clus scale="   92.301">  5  6 -1 -1</clus>
<clus scale="   93.814">  7  8 -1 -1</clus>
<clus scale="  152.641">  1  5  2 -1</clus>
<clus scale="  153.562">  2  5  1 -1</clus>
</clustering>
</event>
<event>
 9    1  0.1175034E-005  0.2037875E+03  0.7546771E-02  0.1147185E+00
         -1   -1    0    0    0  501 -0.00000000000E+00  0.00000000000E+00  0.20857732362E+03  0.20857732362E+03  0.00000000000E+00 0.  1.
          1   -1    0    0  502    0  0.00000000000E+00 -0.00000000000E+00 -0.63211955881E+03  0.63211955881E+03  0.00000000000E+00 0. -1.
         23    2    1    2    0    0  0.17860386121E+03  0.84784176131E+02  0.17044526329E+02  0.21789444276E+03  0.89998758590E+02 0.  0.
         23    2    1    2    0    0 -0.16888015627E+03 -0.52656489855E+02 -0.50855912138E+03  0.54699359871E+03  0.96314090258E+02 0.  0.
        -11    1    3    3    0    0  0.10286074866E+03  0.81770106565E+02  0.42221982408E+02  0.13801949044E+03  0.00000000000E+00 0.  1.
         11    1    3    3    0    0  0.75743112551E+02  0.30140695665E+01 -0.25177456079E+02  0.79874952325E+02  0.00000000000E+00 0. -1.
        -13    1    4    4    0    0 -0.15111667154E+03 -0.15483674520E+02 -0.32331606373E+03  0.35722439679E+03  0.00000000000E+00 0. -1.
         13    1    4    4    0    0 -0.17763484729E+02 -0.37172815335E+02 -0.18524305765E+03  0.18976920192E+03  0.00000000000E+00 0.  1.
         21    1    1    2  502  501 -0.97237049377E+01 -0.32127686276E+02  0.67972359861E+02  0.75808840963E+02  0.00000000000E+00 0.  1.
<scales pt_clust_5="13000.00000" pt_clust_6="13000.00000" pt_clust_7="13000.00000" pt_clust_8="13000.00000" pt_clust_9="33.56693"></scales>
<clustering>
<clus scale="   33.567">  1  9  2 -1</clus>
<clus scale="   89.999">  5  6 -1 -1</clus>
<clus scale="   96.314">  7  8 -1 -1</clus>
<clus scale="  200.880">  1  5  2 -1</clus>
<clus scale="  203.787">  2  5  1 -1</clus>
</clustering>
</event>
<event>
 9    1  0.1175034E-005  0.9581925E+02  0.7546771E-02  0.1290781E+00
          1   -1    0    0  502    0  0.00000000000E+00  0.00000000000E+00  0.34624009667E+03  0.34624009667E+03  0.00000000000E+00 0. -1.
         -1   -1    0    0    0  501 -0.00000000000E+00 -0.00000000000E+00 -0.13888511420E+03  0.13888511420E+03  0.00000000000E+00 0.  1.
         23    2    1    2    0    0 -0.12455640575E+02 -0.44118313138E+01 -0.93377539963E+02  0.13166405224E+03  0.91877366343E+02 0.  0.
         23    2    1    2    0    0 -0.16523796487E+02  0.64585973062E+01  0.30871620230E+03  0.32333249839E+03  0.94464075839E+02 0.  0.
        -11    1    4    4    0    0 -0.42652747491E+02 -0.25160761131E+02  0.22127291925E+03  0.22674661092E+03  0.00000000000E+00 0.  1.
         11    1    4    4    0    0  0.26128951004E+02  0.31619358437E+02  0.87443283043E+02  0.96585887467E+02  0.00000000000E+00 0. -1.
        -11    1    3    3    0    0 -0.50603634783E+02  0.89476725302E+01 -0.61784178043E+02  0.80362138806E+02  0.00000000000E+00 0.  1.
         11    1    3    3    0    0  0.38147994208E+02 -0.13359503844E+02 -0.31593361920E+02  0.51301913439E+02  0.00000000000E+00 0. -1.
         21    1    1    2  502  501  0.28979437062E+02 -0.20467659924E+01 -0.79836798635E+01  0.30128660236E+02  0.00000000000E+00 0. -1.
<scales pt_clust_5="13000.00000" pt_clust_6="13000.00000" pt_clust_7="13000.00000" pt_clust_8="13000.00000" pt_clust_9="29.05163"></scales>
<clustering>
<clus scale="   29.052">  2  9  1 -1</clus>
<clus scale="   91.877">  7  8 -1 -1</clus>
<clus scale="   93.270">  2  7  1 -1</clus>
<clus scale="   94.464">  5  6 -1 -1</clus>
<clus scale="   95.819">  1  5  2 -1</clus>
</clustering>
</event>
<event>
 9    1  0.1175034E-005  0.2474959E+03  0.7546771E-02  0.1139486E+00
          1   -1    0    0  502    0  0.00000000000E+00  0.00000000000E+00  0.44013777808E+03  0.44013777808E+03  0.00000000000E+00 0. -1.
         -1   -1    0    0    0  501 -0.00000000000E+00 -0.00000000000E+00 -0.34887195874E+03  0.34887195874E+03  0.00000000000E+00 0.  1.
         23    2    1    2    0    0 -0.98377591079E+02  0.71083036518E+01 -0.11018647662E+03  0.17416456645E+03  0.91997598712E+02 0.  0.
         23    2    1    2    0    0  0.25100315071E+03 -0.35079667250E+02  0.32096108499E+03  0.41898984293E+03  0.91122476278E+02 0.  0.
        -11    1    3    3    0    0 -0.14447190412E+02  0.17581517975E+02 -0.81862964011E+02  0.84966910982E+02  0.00000000000E+00 0.  1.
         11    1    3    3    0    0 -0.83930400667E+02 -0.10473214323E+02 -0.28323512614E+02  0.89197655469E+02  0.00000000000E+00 0. -1.
        -11    1    4    4    0    0  0.50753585928E+02  0.22777647631E+02  0.10511616220E+03  0.11892920277E+03  0.00000000000E+00 0.  1.
         11    1    4    4    0    0  0.20024956478E+03 -0.57857314881E+02  0.21584492279E+03  0.30006064016E+03  0.00000000000E+00 0. -1.
         21    1    1    2  502  501 -0.15262555963E+03  0.27971363598E+02 -0.11950878902E+03  0.19585532744E+03  0.00000000000E+00 0.  1.
<scales pt_clust_5="13000.00000" pt_clust_6="13000.00000" pt_clust_7="13000.00000" pt_clust_8="13000.00000" pt_clust_9="230.11065"></scales>
<clustering>
<clus scale="   91.122">  7  8 -1 -1</clus>
<clus scale="   91.998">  5  6 -1 -1</clus>
<clus scale="  134.879">  2  5  1 -1</clus>
<clus scale="  230.111">  2  9  1 -1</clus>
<clus scale="  247.496">  1  5  2 -1</clus>
</clustering>
</event>
<event>
 9    1  0.1175034E-005  0.1145497E+03  0.7546771E-02  0.1257719E+00
          2   -1    0    0  502    0  0.00000000000E+00  0.00000000000E+00  0.40668971865E+03  0.40668971865E+03  0.00000000000E+00 0. -1.
         -2   -1    0    0    0  501 -0.00000000000E+00 -0.00000000000E+00 -0.52447738454E+02  0.52447738454E+02  0.00000000000E+00 0.  1.
         23    2    1    2    0    0 -0.31648506390E+02 -0.34117280947E+02  0.12060075493E+03  0.16609794653E+03  0.10429941964E+03 0.  0.
         23    2    1    2    0    0  0.48877929238E+02  0.11991969534E+02  0.24217312936E+03  0.26372780977E+03  0.91496851110E+02 0.  0.
        -11    1    3    3    0    0 -0.49886423855E+02 -0.58751537367E+02  0.58213068064E+02  0.96587575399E+02  0.00000000000E+00 0.  1.
         11    1    3    3    0    0  0.18237917465E+02  0.24634256420E+02  0.62387686864E+02  0.69510371134E+02  0.00000000000E+00 0. -1.
        -13    1    4    4    0    0  0.17945972928E+02  0.49304932824E+02  0.15934640237E+03  0.16776266060E+03  0.00000000000E+00 0. -1.
         13    1    4    4    0    0  0.30931956310E+02 -0.37312963290E+02  0.82826726987E+02  0.95965149164E+02  0.00000000000E+00 0.  1.
         21    1    1    2  502  501 -0.17229422849E+02  0.22125311413E+02 -0.85319040855E+01  0.29311700806E+02  0.00000000000E+00 0.  1.
<scales pt_clust_5="13000.00000" pt_clust_6="13000.00000" pt_clust_7="13000.00000" pt_clust_8="13000.00000" pt_clust_9="28.04251"></scales>
<clustering>
<clus scale="   28.043">  2  9  1 -1</clus>
<clus scale="   91.497">  7  8 -1 -1</clus>
<clus scale="  103.029">  1  7  2 -1</clus>
<clus scale="  104.299">  5  6 -1 -1</clus>
<clus scale="  103.029">  1  5  2 -1</clus>
</clustering>
</event>
<event>
 9    1  0.1175034E-005  0.9610747E+02  0.7546771E-02  0.1290654E+00
          2   -1    0    0  502    0  0.00000000000E+00  0.00000000000E+00  0.14384348992E+03  0.14384348992E+03  0.00000000000E+00 0. -1.
         -2   -1    0    0    0  501 -0.00000000000E+00 -0.00000000000E+00 -0.18440534268E+03  0.18440534268E+03  0.00000000000E+00 0.  1.
         23    2    1    2    0    0  0.31118818019E+02 -0.37442014405E+02 -0.27028026906E+01  0.10490527312E+03  0.92884476141E+02 0.  0.
         23    2    1    2    0    0 -0.67263558961E+01  0.13107002731E+02  0.67230451102E+02  0.11274976101E+03  0.89305865817E+02 0.  0.
        -11    1    4    4    0    0 -0.20769904663E+02  0.39795465926E+02  0.70554689596E+01  0.45440595179E+02  0.00000000000E+00 0. -1.
         11    1    4    4    0    0  0.14043548767E+02 -0.26688463195E+02  0.60174982142E+02  0.67309165836E+02  0.00000000000E+00 0.  1.
        -13    1    3    3    0    0  0.25627489364E+02  0.10400041304E+02 -0.36702241034E+02  0.45956322385E+02  0.00000000000E+00 0.  1.
         13    1    3    3    0    0  0.54913286548E+01 -0.47842055709E+02  0.33999438344E+02  0.58948950733E+02  0.00000000000E+00 0. -1.
         21    1    1    2  502  501 -0.24392462123E+02  0.24335011674E+02 -0.10508950118E+03  0.11059379847E+03  0.00000000000E+00 0.  1.
<scales pt_clust_5="13000.00000" pt_clust_6="13000.00000" pt_clust_7="13000.00000" pt_clust_8="13000.00000" pt_clust_9="34.45555"></scales>
<clustering>
<clus scale="   34.456">  2  9  1 -1</clus>
<clus scale="   89.306">  5  6 -1 -1</clus>
<clus scale="   92.653">  1  5  2 -1</clus>
<clus scale="   92.884">  7  8 -1 -1</clus>
<clus scale="   92.653">  1  5  2 -1</clus>
</clustering>
</event>
<event>
 9    1  0.1175034E-005  0.9442490E+02  0.7546771E-02  0.1292665E+00
          3   -1    0    0  502    0  0.00000000000E+00  0.00000000000E+00  0.38700202924E+03  0.38700202924E+03  0.00000000000E+00 0. -1.
         -3   -1    0    0    0  501 -0.00000000000E+00 -0.00000000000E+00 -0.34055020389E+02  0.34055020389E+02  0.00000000000E+00 0.  1.
         23    2    1    2    0    0  0.79649457770E+01 -0.60019031745E+01  0.11460142911E+03  0.14690094755E+03  0.91361576358E+02 0.  0.
         23    2    1    2    0    0 -0.42285543332E+02  0.33200748277E+01  0.17624484838E+03  0.20315190181E+03  0.91702554799E+02 0.  0.
        -11    1    4    4    0    0  0.78044690761E+01 -0.22611145016E+02  0.72530496288E+01  0.24995606522E+02  0.00000000000E+00 0.  1.
         11    1    4    4    0    0 -0.50090012408E+02  0.25931219843E+02  0.16899179875E+03  0.17815629529E+03  0.00000000000E+00 0. -1.
        -13    1    3    3    0    0 -0.38670470323E+02 -0.17729195764E+02  0.41715577302E+02  0.59581197094E+02  0.00000000000E+00 0.  1.
         13    1    3    3    0    0  0.46635416100E+02  0.11727292590E+02  0.72885851805E+02  0.87319750456E+02  0.00000000000E+00 0. -1.
         21    1    1    2  502  501  0.34320597555E+02  0.26818283468E+01  0.62100731361E+02  0.71004200266E+02  0.00000000000E+00 0. -1.
<scales pt_clust_5="13000.00000" pt_clust_6="13000.00000" pt_clust_7="13000.00000" pt_clust_8="13000.00000" pt_clust_9="34.42522"></scales>
<clustering>
<clus scale="   34.425">  1  9  2 -1</clus>
<clus scale="   91.362">  7  8 -1 -1</clus>
<clus scale="   91.703">  5  6 -1 -1</clus>
<clus scale="   94.094">  2  7  1 -1</clus>
<clus scale="   34.425">  1  5  2 -1</clus>
</clustering>
</event>
<event>
 9    1  0.1175034E-005  0.1560743E+03  0.7546771E-02  0.1193965E+00
         -1   -1    0    0    0  501 -0.00000000000E+00  0.00000000000E+00  0.64489041919E+03  0.64489041919E+03  0.00000000000E+00 0.  1.
          1   -1    0    0  502    0  0.00000000000E+00 -0.00000000000E+00 -0.49244045273E+02  0.49244045273E+02  0.00000000000E+00 0. -1.
         23    2    1    2    0    0  0.91698505386E+02 -0.88919651736E+02  0.26716007888E+03  0.31033191242E+03  0.92822776123E+02 0.  0.
         23    2    1    2    0    0 -0.61603145460E+02  0.10257149463E+03  0.20785371552E+03  0.25872528494E+03  0.97055380947E+02 0.  0.
        -11    1    4    4    0    0 -0.87105823787E+02  0.71701380403E+02  0.13842917094E+03  0.17858092803E+03  0.00000000000E+00 0. -1.
         11    1    4    4    0    0  0.25502678327E+02  0.30870114229E+02  0.69424544582E+02  0.80144356911E+02  0.00000000000E+00 0.  1.
        -11    1    3    3    0    0  0.65742369861E+02 -0.83218584382E+02  0.26281226405E+03  0.28340373695E+03  0.00000000000E+00 0.  1.
         11    1    3    3    0    0  0.25956135526E+02 -0.57010673547E+01  0.43478148228E+01  0.26928175470E+02  0.00000000000E+00 0. -1.
         21    1    1    2  502  501 -0.30095359926E+02 -0.13651842896E+02  0.12063257952E+03  0.12507726710E+03  0.00000000000E+00 0.  1.
<scales pt_clust_5="13000.00000" pt_clust_6="13000.00000" pt_clust_7="13000.00000" pt_clust_8="13000.00000" pt_clust_9="33.04699"></scales>
<clustering>
<clus scale="   33.047">  1  9  2 -1</clus>
<clus scale="   92.823">  7  8 -1 -1</clus>
<clus scale="   97.055">  5  6 -1 -1</clus>
<clus scale="  153.478">  1  7  2 -1</clus>
<clus scale="  156.074">  2  5  1 -1</clus>
</clustering>
</event>
<event>
 9    1  0.1175034E-005  0.1153205E+03  0.7546771E-02  0.1252037E+00
         -2   -1    0    0    0  501 -0.00000000000E+00  0.00000000000E+00  0.31527104664E+02  0.31527104664E+02  0.00000000000E+00 0.  1.
          2   -1    0    0  502    0  0.00000000000E+00 -0.00000000000E+00 -0.56381961380E+03  0.56381961380E+03  0.00000000000E+00 0. -1.
         23    2    1    2    0    0 -0.70846788113E+02  0.20894567688E+02 -0.17357201006E+03  0.20949906451E+03  0.91141456048E+02 0.  0.
         23    2    1    2    0    0  0.64245559426E+02  0.20110706855E+01 -0.32637308921E+03  0.34566557567E+03  0.93988087202E+02 0.  0.
        -11    1    3    3    0    0  0.21094799902E+02 -0.47817182387E+01 -0.37308763880E+02  0.43125390137E+02  0.00000000000E+00 0. -1.
         11    1    3    3    0    0 -0.91941588015E+02  0.25676285926E+02 -0.13626324618E+03  0.16637367438E+03  0.00000000000E+00 0.  1.
        -13    1    4    4    0    0  0.59161518065E+02 -0.38266662097E+02 -0.24174575490E+03  0.25180435393E+03  0.00000000000E+00 0. -1.
         13    1    4    4    0    0  0.50840413611E+01  0.40277732782E+02 -0.84627334310E+02  0.93861221743E+02  0.00000000000E+00 0.  1.
         21    1    1    2  502  501  0.66012286867E+01 -0.22905638373E+02 -0.32347409864E+02  0.40182078274E+02  0.00000000000E+00 0.  1.
<scales pt_clust_5="13000.00000" pt_clust_6="13000.00000" pt_clust_7="13000.00000" pt_clust_8="13000.00000" pt_clust_9="23.83788"></scales>
<clustering>
<clus scale="   23.838">  1  9  2 -1</clus>
<clus scale="   91.141">  5  6 -1 -1</clus>
<clus scale="   93.988">  7  8 -1 -1</clus>
<clus scale="  113.012">  1  5  2 -1</clus>
<clus scale="  115.320">  2  5  1 -1</clus>
</clustering>
</event>
<event>
 9    1  0.1175034E-005  0.1111493E+03  0.7546771E-02  0.1259124E+00
         -2   -1    0    0    0  501 -0.00000000000E+00  0.00000000000E+00  0.91930093996E+02  0.91930093996E+02  0.00000000000E+00 0.  1.
          2   -1    0    0  502    0  0.00000000000E+00 -0.00000000000E+00 -0.56468310594E+03  0.56468310594E+03  0.00000000000E+00 0. -1.
         23    2    1    2    0    0 -0.24519007219E+02  0.13295454056E+02 -0.10691015845E+03  0.14276285779E+03  0.90407415457E+02 0.  0.
         23    2    1    2    0    0  0.80675702579E+02  0.10450011380E+02 -0.41669941159E+03  0.43445379900E+03  0.92162531003E+02 0.  0.
        -11    1    4    4    0    0 -0.77704859645E+01 -0.24327036022E+02 -0.57915338170E+02  0.63295904521E+02  0.00000000000E+00 0.  1.
         11    1    4    4    0    0  0.88446188543E+02  0.34777047402E+02 -0.35878407342E+03  0.37115789448E+03  0.00000000000E+00 0. -1.
        -11    1    3    3    0    0  0.43709034798E+01  0.48176917665E+02 -0.65240847050E+02  0.81218768254E+02  0.00000000000E+00 0. -1.
         11    1    3    3    0    0 -0.28889910699E+02 -0.34881463609E+02 -0.41669311402E+02  0.61544089533E+02  0.00000000000E+00 0.  1.
         21    1    1    2  502  501 -0.56156695360E+02 -0.23745465436E+02  0.50856558098E+02  0.79396543149E+02  0.00000000000E+00 0.  1.
<scales pt_clust_5="13000.00000" pt_clust_6="13000.00000" pt_clust_7="13000.00000" pt_clust_8="13000.00000" pt_clust_9="60.97066"></scales>
<clustering>
<clus scale="   60.971">  1  9  2 -1</clus>
<clus scale="   90.407">  7  8 -1 -1</clus>
<clus scale="   92.163">  5  6 -1 -1</clus>
<clus scale="  109.698">  1  7  2 -1</clus>
<clus scale="  111.149">  2  5  1 -1</clus>
</clustering>
</event>
<event>
 9    1  0.1175034E-005  0.1086075E+03  0.7546771E-02  0.1263683E+00
          1   -1    0    0  502    0  0.00000000000E+00  0.00000000000E+00  0.90816884122E+02  0.90816884122E+02  0.00000000000E+00 0. -1.
         -1   -1    0    0    0  501 -0.00000000000E+00 -0.00000000000E+00 -0.15879796080E+03  0.15879796080E+03  0.00000000000E+00 0.  1.
         23    2    1    2    0    0 -0.43205871637E+02 -0.49529802327E+02 -0.34289425845E+02  0.11752526382E+03  0.91194705152E+02 0.  0.
         23    2    1    2    0    0  0.21991665395E+02  0.45358848168E+02 -0.22295086550E+02  0.10764942803E+03  0.92467670114E+02 0.  0.
        -11    1    3    3    0    0 -0.16037598952E+02 -0.73490023830E+02 -0.30257563374E+02  0.81077175111E+02  0.00000000000E+00 0.  1.
         11    1    3    3    0    0 -0.27168272685E+02  0.23960221504E+02 -0.40318624709E+01  0.36448088704E+02  0.00000000000E+00 0. -1.
        -13    1    4    4    0    0  0.14019557475E+02  0.64901718691E+02 -0.42170128438E+02  0.78658126175E+02  0.00000000000E+00 0. -1.
         13    1    4    4    0    0  0.79721079203E+01 -0.19542870523E+02  0.19875041889E+02  0.28991301852E+02  0.00000000000E+00 0.  1.
         21    1    1    2  502  501  0.21214206242E+02  0.41709541587E+01 -0.11396564284E+02  0.24440153079E+02  0.00000000000E+00 0.  1.
<scales pt_clust_5="13000.00000" pt_clust_6="13000.00000" pt_clust_7="13000.00000" pt_clust_8="13000.00000" pt_clust_9="21.62035"></scales>
<clustering>
<clus scale="   21.620">  2  9  1 -1</clus>
<clus scale="   91.195">  5  6 -1 -1</clus>
<clus scale="   92.468">  7  8 -1 -1</clus>
<clus scale="  107.526">  2  5  1 -1</clus>
<clus scale="  108.607">  1  5  2 -1</clus>
</clustering>
</event>
<event>
 9    1  0.1175034E-005  0.9250818E+02  0.7546771E-02  0.1297368E+00
         -1   -1    0    0    0  501 -0.00000000000E+00  0.00000000000E+00  0.44960064928E+02  0.44960064928E+02  0.00000000000E+00 0.  1.
          1   -1    0    0  502    0  0.00000000000E+00 -0.00000000000E+00 -0.27864018982E+03  0.27864018982E+03  0.00000000000E+00 0. -1.
         23    2    1    2    0    0 -0.67572756801E+00  0.25628219984E+02 -0.10151081636E+03  0.13868992510E+03  0.90957062498E+02 0.  0.
         23    2    1    2    0    0 -0.31769797700E+01 -0.41175446748E+00 -0.13019453822E+03  0.15932491965E+03  0.91779897027E+02 0.  0.
        -11    1    3    3    0    0  0.27292821863E+02  0.72524825994E+01  0.35182474743E+01  0.28458297461E+02  0.00000000000E+00 0.  1.
         11    1    3    3    0    0 -0.27968549431E+02  0.18375737384E+02 -0.10502906383E+03  0.11023162764E+03  0.00000000000E+00 0. -1.
        -13    1    4    4    0    0 -0.14409146807E+02 -0.24837735419E+02 -0.12927368021E+03  0.13242439733E+03  0.00000000000E+00 0. -1.
         13    1    4    4    0    0  0.11232167037E+02  0.24425980952E+02 -0.92085800641E+00  0.26900522324E+02  0.00000000000E+00 0.  1.
         21    1    1    2  502  501  0.38527073380E+01 -0.25216465516E+02 -0.19747703148E+01  0.25585409998E+02  0.00000000000E+00 0.  1.
<scales pt_clust_5="13000.00000" pt_clust_6="13000.00000" pt_clust_7="13000.00000" pt_clust_8="13000.00000" pt_clust_9="25.50909"></scales>
<clustering>
<clus scale="   25.509">  1  9  2 -1</clus>
<clus scale="   90.957">  5  6 -1 -1</clus>
<clus scale="   91.692">  1  5  2 -1</clus>
<clus scale="   91.780">  7  8 -1 -1</clus>
<clus scale="   92.508">  2  5  1 -1</clus>
</clustering>
</event>
<event>
 9    1  0.1175034E-005  0.1232892E+03  0.7546771E-02  0.1249994E+00
         -1   -1    0    0    0  501 -0.00000000000E+00  0.00000000000E+00  0.51603363235E+02  0.51603363235E+02  0.00000000000E+00 0.  1.
          1   -1    0    0  502    0  0.00000000000E+00 -0.00000000000E+00 -0.76736029036E+03  0.76736029036E+03  0.00000000000E+00 0. -1.
         23    2    1    2    0    0  0.34913226087E+02 -0.37621585667E+01 -0.16592227784E+03  0.19185894950E+03  0.89702658969E+02 0.  0.
         23    2    1    2    0    0  0.53363466305E+02  0.51404496733E+02 -0.50142884973E+03  0.51572387884E+03  0.95132255500E+02 0.  0.
        -11    1    4    4    0    0 -0.22408342587E+02  0.23746025838E+02 -0.76011101571E+02  0.82726628860E+02  0.00000000000E+00 0.  1.
         11    1    4    4    0    0  0.75771808892E+02  0.27658470895E+02 -0.42541774816E+03  0.43299724998E+03  0.00000000000E+00 0. -1.
        -13    1    3    3    0    0  0.45472480518E+02 -0.30407787324E+02 -0.14864890669E+03  0.15839468890E+03  0.00000000000E+00 0. -1.
         13    1    3    3    0    0 -0.10559254431E+02  0.26645628758E+02 -0.17273371153E+02  0.33464260593E+02  0.00000000000E+00 0.  1.
         21    1    1    2  502  501 -0.88276692393E+02 -0.47642338166E+02 -0.48405799553E+02  0.11138082526E+03  0.00000000000E+00 0.  1.
<scales pt_clust_5="13000.00000" pt_clust_6="13000.00000" pt_clust_7="13000.00000" pt_clust_8="13000.00000" pt_clust_9="78.42242"></scales>
<clustering>
<clus scale="   89.703">  7  8 -1 -1</clus>
<clus scale="   95.132">  5  6 -1 -1</clus>
<clus scale="   96.331">  1  7  2 -1</clus>
<clus scale="   78.422">  1  9  2 -1</clus>
<clus scale="  123.289">  2  5  1 -1</clus>
</clustering>
</event>
<event>
 9    1  0.1175034E-005  0.1055782E+03  0.7546771E-02  0.1270041E+00
          1   -1    0    0  502    0  0.00000000000E+00  0.00000000000E+00  0.24995998760E+03  0.24995998760E+03  0.00000000000E+00 0. -1.
         -1   -1    0    0    0  501 -0.00000000000E+00 -0.00000000000E+00 -0.94532252971E+02  0.94532252971E+02  0.00000000000E+00 0.  1.
         23    2    1    2    0    0  0.44844956082E+02  0.82849836352E+02  0.72499453196E+02  0.15023709190E+03  0.91868643180E+02 0.  0.
         23    2    1    2    0    0 -0.15243172239E+02 -0.25823516817E+02  0.89065726300E+02  0.12971109429E+03  0.89403892869E+02 0.  0.
        -11    1    3    3    0    0 -0.28251371576E+02  0.22737513133E+02  0.27100505859E+02  0.45272198060E+02  0.00000000000E+00 0. -1.
         11    1    3    3    0    0  0.73096327658E+02  0.60112323219E+02  0.45398947337E+02  0.10496489384E+03  0.00000000000E+00 0.  1.
        -13    1    4    4    0    0 -0.35498612388E+02 -0.34863831054E+02  0.94567119047E+02  0.10685774751E+03  0.00000000000E+00 0. -1.
         13    1    4    4    0    0  0.20255440149E+02  0.90403142370E+01 -0.55013927470E+01  0.22853346785E+02  0.00000000000E+00 0.  1.
         21    1    1    2  502  501 -0.29601783843E+02 -0.57026319535E+02 -0.61374448653E+01  0.64544054380E+02  0.00000000000E+00 0. -1.
<scales pt_clust_5="13000.00000" pt_clust_6="13000.00000" pt_clust_7="13000.00000" pt_clust_8="13000.00000" pt_clust_9="64.25159"></scales>
<clustering>
<clus scale="   64.252">  2  9  1 -1</clus>
<clus scale="   89.404">  7  8 -1 -1</clus>
<clus scale="   91.869">  5  6 -1 -1</clus>
<clus scale="  103.441">  1  7  2 -1</clus>
<clus scale="  103.441">  1  5  2 -1</clus>
</clustering>
</event>
<event>
 9    1  0.1175034E-005  0.9789488E+02  0.7546771E-02  0.1285375E+00
          1   -1    0    0  502    0  0.00000000000E+00  0.00000000000E+00  0.63347182525E+03  0.63347182525E+03  0.00000000000E+00 0. -1.
         -1   -1    0    0    0  501 -0.00000000000E+00 -0.00000000000E+00 -0.33061022572E+02  0.33061022572E+02  0.00000000000E+00 0.  1.
         23    2    1    2    0    0  0.25431426640E+02 -0.15706884127E+02  0.74381706040E+02  0.12172648466E+03  0.91603685543E+02 0.  0.
         23    2    1    2    0    0 -0.56774659888E+02  0.12779627888E+02  0.44657641322E+03  0.45934469923E+03  0.90445447478E+02 0.  0.
        -11    1    3    3    0    0  0.19657293373E+02  0.27696509638E+02  0.69897002899E+02  0.77711626177E+02  0.00000000000E+00 0. -1.
         11    1    3    3    0    0  0.57741332670E+01 -0.43403393765E+02  0.44847031417E+01  0.44014858486E+02  0.00000000000E+00 0.  1.
        -13    1    4    4    0    0  0.85379376155E+01 -0.28849046024E+02  0.12173738075E+03  0.12539997491E+03  0.00000000000E+00 0.  1.
         13    1    4    4    0    0 -0.65312597503E+02  0.41628673912E+02  0.32483903248E+03  0.33394472432E+03  0.00000000000E+00 0. -1.
         21    1    1    2  502  501  0.31343233248E+02  0.29272562390E+01  0.79452683416E+02  0.85461663929E+02  0.00000000000E+00 0.  1.
<scales pt_clust_5="13000.00000" pt_clust_6="13000.00000" pt_clust_7="13000.00000" pt_clust_8="13000.00000" pt_clust_9="31.47963"></scales>
<clustering>
<clus scale="   31.480">  1  9  2 -1</clus>
<clus scale="   90.445">  7  8 -1 -1</clus>
<clus scale="   91.604">  5  6 -1 -1</clus>
<clus scale="   96.812">  1  7  2 -1</clus>
<clus scale="   31.480">  1  5  2 -1</clus>
</clustering>
</event>
<event>
 9    1  0.1175034E-005  0.1185198E+03  0.7546771E-02  0.1247824E+00
          2   -1    0    0  502    0  0.00000000000E+00  0.00000000000E+00  0.20003467052E+03  0.20003467052E+03  0.00000000000E+00 0. -1.
         -2   -1    0    0    0  501 -0.00000000000E+00 -0.00000000000E+00 -0.14010243893E+03  0.14010243893E+03  0.00000000000E+00 0.  1.
         23    2    1    2    0    0 -0.60782520273E+02 -0.15594840829E+02 -0.66674766860E+02  0.12607478104E+03  0.86669556628E+02 0.  0.
         23    2    1    2    0    0  0.66100501870E+02  0.36663419227E+02  0.14302796958E+03  0.18682606184E+03  0.93453168184E+02 0.  0.
        -11    1    3    3    0    0 -0.12971648749E+02 -0.37579829837E+02 -0.61455141363E+02  0.73193180569E+02  0.00000000000E+00 0.  1.
         11    1    3    3    0    0 -0.47810871524E+02  0.21984989008E+02 -0.52196254967E+01  0.52881600466E+02  0.00000000000E+00 0. -1.
        -13    1    4    4    0    0  0.10287999603E+02  0.56569012425E+02  0.92692068178E+02  0.10907665014E+03  0.00000000000E+00 0. -1.
         13    1    4    4    0    0  0.55812502267E+02 -0.19905593198E+02  0.50335901404E+02  0.77749411702E+02  0.00000000000E+00 0.  1.
         21    1    1    2  502  501 -0.53179815967E+01 -0.21068578398E+02 -0.16420971134E+02  0.27236266576E+02  0.00000000000E+00 0. -1.
<scales pt_clust_5="13000.00000" pt_clust_6="13000.00000" pt_clust_7="13000.00000" pt_clust_8="13000.00000" pt_clust_9="21.72938"></scales>
<clustering>
<clus scale="   21.729">  2  9  1 -1</clus>
<clus scale="   86.670">  5  6 -1 -1</clus>
<clus scale="   93.453">  7  8 -1 -1</clus>
<clus scale="  113.248">  2  5  1 -1</clus>
<clus scale="  118.520">  1  5  2 -1</clus>
</clustering>
</event>
<event>
 9    1  0.1175034E-005  0.1125735E+03  0.7546771E-02  0.1257104E+00
         -2   -1    0    0    0  501 -0.00000000000E+00  0.00000000000E+00  0.42598730676E+03  0.42598730676E+03  0.00000000000E+00 0.  1.
          2   -1    0    0  502    0  0.00000000000E+00 -0.00000000000E+00 -0.49269708467E+02  0.49269708467E+02  0.00000000000E+00 0. -1.
         23    2    1    2    0    0 -0.42879716426E+02  0.70988169797E+02  0.15881517051E+03  0.20183432399E+03  0.92934630931E+02 0.  0.
         23    2    1    2    0    0 -0.59726267529E+01 -0.55692133795E+02  0.10280846344E+03  0.14745785177E+03  0.89649048282E+02 0.  0.
        -11    1    3    3    0    0 -0.65718570442E+02  0.71417477706E+02  0.10297971256E+03  0.14150691793E+03  0.00000000000E+00 0. -1.
         11    1    3    3    0    0  0.22838854016E+02 -0.42930790972E+00  0.55835457951E+02  0.60327406066E+02  0.00000000000E+00 0.  1.
        -13    1    4    4    0    0 -0.45711834889E+02 -0.27685162212E+02  0.34483704924E+02  0.63601619169E+02  0.00000000000E+00 0. -1.
         13    1    4    4    0    0  0.39739208136E+02 -0.28006971583E+02  0.68324758514E+02  0.83856232603E+02  0.00000000000E+00 0.  1.
         21    1    1    2  502  501  0.48852343179E+02 -0.15296036002E+02  0.11509396435E+03  0.12596483946E+03  0.00000000000E+00 0.  1.
<scales pt_clust_5="13000.00000" pt_clust_6="13000.00000" pt_clust_7="13000.00000" pt_clust_8="13000.00000" pt_clust_9="51.19102"></scales>
<clustering>
<clus scale="   51.191">  1  9  2 -1</clus>
<clus scale="   89.649">  7  8 -1 -1</clus>
<clus scale="   92.935">  5  6 -1 -1</clus>
<clus scale="  109.877">  2  7  1 -1</clus>
<clus scale="  109.877">  2  5  1 -1</clus>
</clustering>
</event>
<event>
 9    1  0.1175034E-005  0.2211098E+03  0.7546771E-02  0.1133064E+00
          3   -1    0    0  502    0  0.00000000000E+00  0.00000000000E+00  0.15906522447E+03  0.15906522447E+03  0.00000000000E+00 0. -1.
         -3   -1    0    0    0  501 -0.00000000000E+00 -0.00000000000E+00 -0.73911432292E+03  0.73911432292E+03  0.00000000000E+00 0.  1.
         23    2    1    2    0    0  0.15279976879E+03 -0.46599489499E+02 -0.18673975530E+03  0.26216977158E+03  0.91334391983E+02 0.  0.
         23    2    1    2    0    0 -0.22963077706E+03 -0.11498923358E+02 -0.17489164342E+02  0.24804168921E+03  0.91412743677E+02 0.  0.
        -11    1    4    4    0    0 -0.96380851818E+02 -0.39302151281E+02 -0.37133879913E+02  0.11051177643E+03  0.00000000000E+00 0.  1.
         11    1    4    4    0    0 -0.13324992524E+03  0.27803227923E+02  0.19644715571E+02  0.13752991278E+03  0.00000000000E+00 0. -1.
        -13    1    3    3    0    0  0.95541694238E+02 -0.22260513584E+01 -0.51034490648E+02  0.10834061971E+03  0.00000000000E+00 0. -1.
         13    1    3    3    0    0  0.57258074557E+02 -0.44373438140E+02 -0.13570526465E+03  0.15382915188E+03  0.00000000000E+00 0.  1.
         21    1    1    2  502  501  0.76831008267E+02  0.58098412857E+02 -0.37582017882E+03  0.38796808659E+03  0.00000000000E+00 0.  1.
<scales pt_clust_5="13000.00000" pt_clust_6="13000.00000" pt_clust_7="13000.00000" pt_clust_8="13000.00000" pt_clust_9="96.32460"></scales>
<clustering>
<clus scale="   91.334">  7  8 -1 -1</clus>
<clus scale="   91.413">  5  6 -1 -1</clus>
<clus scale="   96.325">  2  9  1 -1</clus>
<clus scale="  221.077">  2  7  1 -1</clus>
<clus scale="  221.110">  1  5  2 -1</clus>
</clustering>
</event>
<event>
 9    1  0.1175034E-005  0.1132569E+03  0.7546771E-02  0.1254719E+00
          1   -1    0    0  502    0  0.00000000000E+00  0.00000000000E+00  0.13478102847E+03  0.13478102847E+03  0.00000000000E+00 0. -1.
         -1   -1    0    0    0  501 -0.00000000000E+00 -0.00000000000E+00 -0.44990260534E+03  0.44990260534E+03  0.00000000000E+00 0.  1.
         23    2    1    2    0    0  0.76267316717E+02  0.40038253372E+02 -0.34824203361E+03  0.37041408895E+03  0.92273062089E+02 0.  0.
         23    2    1    2    0    0 -0.54333534127E+02 -0.33712563258E+02  0.95718173308E+02  0.14763937681E+03  0.92448618331E+02 0.  0.
        -13    1    3    3    0    0  0.37745766838E+02 -0.19052757835E+02 -0.58320819324E+02  0.72035189053E+02  0.00000000000E+00 0. -1.
         13    1    3    3    0    0  0.38521549879E+02  0.59091011206E+02 -0.28992121428E+03  0.29837889989E+03  0.00000000000E+00 0.  1.
        -13    1    4    4    0    0 -0.77835841216E+02 -0.23599580879E+02  0.90218767208E+02  0.12146927328E+03  0.00000000000E+00 0. -1.
         13    1    4    4    0    0  0.23502307089E+02 -0.10112982378E+02  0.54994060993E+01  0.26170103526E+02  0.00000000000E+00 0.  1.
         21    1    1    2  502  501 -0.21933782590E+02 -0.63256901138E+01 -0.62597716578E+02  0.66630168054E+02  0.00000000000E+00 0. -1.
<scales pt_clust_5="13000.00000" pt_clust_6="13000.00000" pt_clust_7="13000.00000" pt_clust_8="13000.00000" pt_clust_9="22.82773"></scales>
<clustering>
<clus scale="   22.828">  2  9  1 -1</clus>
<clus scale="   92.273">  5  6 -1 -1</clus>
<clus scale="   92.449">  7  8 -1 -1</clus>
<clus scale="  113.114">  2  5  1 -1</clus>
<clus scale="  113.257">  1  5  2 -1</clus>
</clustering>
</event>
<event>
 9    1  0.1175034E-005  0.9728232E+02  0.7546771E-02  0.1287954E+00
          1   -1    0    0  502    0  0.00000000000E+00  0.00000000000E+00  0.48075054773E+03  0.48075054773E+03  0.00000000000E+00 0. -1.
         -1   -1    0    0    0  501 -0.00000000000E+00 -0.00000000000E+00 -0.34087755874E+02  0.34087755874E+02  0.00000000000E+00 0.  1.
         23    2    1    2    0    0 -0.11837357178E+02 -0.11914174124E+01  0.94298516945E+02  0.13199527038E+03  0.91591476707E+02 0.  0.
         23    2    1    2    0    0  0.14968319322E+02 -0.21739858059E+02  0.34461284704E+03  0.35843543291E+03  0.94980383284E+02 0.  0.
        -13    1    4    4    0    0 -0.14432429026E+01 -0.57144777703E+02  0.16466444182E+03  0.17430429417E+03  0.00000000000E+00 0. -1.
         13    1    4    4    0    0  0.16411562225E+02  0.35404919645E+02  0.17994840523E+03  0.18413113874E+03  0.00000000000E+00 0.  1.
        -13    1    3    3    0    0  0.95449484952E+01  0.28615440700E+02  0.90168321251E+02  0.95080364142E+02  0.00000000000E+00 0. -1.
         13    1    3    3    0    0 -0.21382305673E+02 -0.29806858112E+02  0.41301956947E+01  0.36914906242E+02  0.00000000000E+00 0.  1.
         21    1    1    2  502  501 -0.31309621439E+01  0.22931275471E+02  0.77514278651E+01  0.24407600305E+02  0.00000000000E+00 0.  1.
<scales pt_clust_5="13000.00000" pt_clust_6="13000.00000" pt_clust_7="13000.00000" pt_clust_8="13000.00000" pt_clust_9="23.14403"></scales>
<clustering>
<clus scale="   23.144">  2  9  1 -1</clus>
<clus scale="   91.591">  7  8 -1 -1</clus>
<clus scale="   93.976">  2  7  1 -1</clus>
<clus scale="   94.980">  5  6 -1 -1</clus>
<clus scale="   97.282">  1  5  2 -1</clus>
</clustering>
</event>
<event>
 9    1  0.1175034E-005  0.1060820E+03  0.7546771E-02  0.1268223E+00
          1   -1    0    0  502    0  0.00000000000E+00  0.00000000000E+00  0.41081378964E+03  0.41081378964E+03  0.00000000000E+00 0. -1.
         -1   -1    0    0    0  501 -0.00000000000E+00 -0.00000000000E+00 -0.18845764899E+03  0.18845764899E+03  0.00000000000E+00 0.  1.
         23    2    1    2    0    0 -0.28919880688E+02 -0.54141750369E+02  0.14592356714E+03  0.18277040219E+03  0.91343548405E+02 0.  0.
         23    2    1    2    0    0  0.35968805932E+02  0.33549167770E+02  0.23467387368E+03  0.25676985324E+03  0.91867452802E+02 0.  0.
        -11    1    3    3    0    0 -0.50549572008E+02 -0.67672834361E+02  0.11477307547E+03  0.14250519497E+03  0.00000000000E+00 0.  1.
         11    1    3    3    0    0  0.21629691320E+02  0.13531083992E+02  0.31150491673E+02  0.40265207215E+02  0.00000000000E+00 0. -1.
        -13    1    4    4    0    0  0.32096383912E+02 -0.19363042023E+02  0.39256329345E+02  0.54278583716E+02  0.00000000000E+00 0. -1.
         13    1    4    4    0    0  0.38724220206E+01  0.52912209793E+02  0.19541754434E+03  0.20249126952E+03  0.00000000000E+00 0.  1.
         21    1    1    2  502  501 -0.70489252439E+01  0.20592582599E+02 -0.15824130017E+03  0.15973118320E+03  0.00000000000E+00 0.  1.
<scales pt_clust_5="13000.00000" pt_clust_6="13000.00000" pt_clust_7="13000.00000" pt_clust_8="13000.00000" pt_clust_9="21.76561"></scales>
<clustering>
<clus scale="   21.766">  2  9  1 -1</clus>
<clus scale="   91.344">  5  6 -1 -1</clus>
<clus scale="   91.867">  7  8 -1 -1</clus>
<clus scale="  105.629">  2  5  1 -1</clus>
<clus scale="  106.082">  1  5  2 -1</clus>
</clustering>
</event>
<event>
 9    1  0.1175034E-005  0.2081374E+03  0.7546771E-02  0.1143591E+00
         -1   -1    0    0    0  501 -0.00000000000E+00  0.00000000000E+00  0.33789961634E+02  0.33789961634E+02  0.00000000000E+00 0.  1.
          1   -1    0    0  502    0  0.00000000000E+00 -0.00000000000E+00 -0.14283552807E+04  0.14283552807E+04  0.00000000000E+00 0. -1.
         23    2    1    2    0    0  0.70044364780E+02  0.17776843869E+03 -0.64263609344E+03  0.67714790321E+03  0.95080510059E+02 0.  0.
         23    2    1    2    0    0 -0.85161818244E+02 -0.15830508674E+03 -0.65911573301E+03  0.68896763601E+03  0.89049526688E+02 0.  0.
        -11    1    4    4    0    0 -0.29830530624E+02 -0.12788752994E+03 -0.35856143833E+03  0.38185257094E+03  0.00000000000E+00 0.  1.
         11    1    4    4    0    0 -0.55331287620E+02 -0.30417556806E+02 -0.30055429467E+03  0.30711506508E+03  0.00000000000E+00 0. -1.
        -11    1    3    3    0    0  0.27115096013E+01  0.20992644615E+02 -0.13084964266E+02  0.24884929216E+02  0.00000000000E+00 0.  1.
         11    1    3    3    0    0  0.67332855179E+02  0.15677579407E+03 -0.62955112917E+03  0.65226297399E+03  0.00000000000E+00 0. -1.
         21    1    1    2  502  501  0.15117453464E+02 -0.19463351943E+02 -0.92813492612E+02  0.96029703108E+02  0.00000000000E+00 0.  1.
<scales pt_clust_5="13000.00000" pt_clust_6="13000.00000" pt_clust_7="13000.00000" pt_clust_8="13000.00000" pt_clust_9="24.64466"></scales>
<clustering>
<clus scale="   24.645">  2  9  1 -1</clus>
<clus scale="   89.050">  5  6 -1 -1</clus>
<clus scale="   95.081">  7  8 -1 -1</clus>
<clus scale="  205.452">  2  5  1 -1</clus>
<clus scale="   24.645">  2  5  1 -1</clus>
</clustering>
</event>
<event>
 9    1  0.1175034E-005  0.1037004E+03  0.7546771E-02  0.1273036E+00
          2   -1    0    0  502    0  0.00000000000E+00  0.00000000000E+00  0.52640880096E+03  0.52640880096E+03  0.00000000000E+00 0. -1.
         -2   -1    0    0    0  501 -0.00000000000E+00 -0.00000000000E+00 -0.31211536621E+02  0.31211536621E+02  0.00000000000E+00 0.  1.
         23    2    1    2    0    0 -0.13342062211E+02 -0.63850390901E+02  0.21516948419E+03  0.24307037707E+03  0.92360263318E+02 0.  0.
         23    2    1    2    0    0  0.59206454894E+01  0.35118769319E+02  0.26199440875E+03  0.27982553123E+03  0.91612639472E+02 0.  0.
        -11    1    3    3    0    0  0.15174618048E+02  0.13517123871E+02  0.11516953413E+02  0.23358550609E+02  0.00000000000E+00 0. -1.
         11    1    3    3    0    0 -0.28516680259E+02 -0.77367514772E+02  0.20365253078E+03  0.21971182646E+03  0.00000000000E+00 0.  1.
        -13    1    4    4    0    0  0.46880117765E+02  0.20912135287E+02  0.17866530441E+03  0.18589339376E+03  0.00000000000E+00 0. -1.
         13    1    4    4    0    0 -0.40959472276E+02  0.14206634032E+02  0.83329104339E+02  0.93932137470E+02  0.00000000000E+00 0.  1.
         21    1    1    2  502  501  0.74214167215E+01  0.28731621582E+02  0.18033371404E+02  0.34724429284E+02  0.00000000000E+00 0. -1.
<scales pt_clust_5="13000.00000" pt_clust_6="13000.00000" pt_clust_7="13000.00000" pt_clust_8="13000.00000" pt_clust_9="29.67463"></scales>
<clustering>
<clus scale="   29.675">  2  9  1 -1</clus>
<clus scale="   91.613">  7  8 -1 -1</clus>
<clus scale="   92.360">  5  6 -1 -1</clus>
<clus scale="  103.035">  1  7  2 -1</clus>
<clus scale="  103.035">  1  5  2 -1</clus>
</clustering>
</event>
<event>
 9    1  0.1175034E-005  0.1071639E+03  0.7546771E-02  0.1270078E+00
         -1   -1    0    0    0  501 -0.00000000000E+00  0.00000000000E+00  0.49340470810E+02  0.49340470810E+02  0.00000000000E+00 0.  1.
          1   -1    0    0  502    0  0.00000000000E+00 -0.00000000000E+00 -0.27598963655E+03  0.27598963655E+03  0.00000000000E+00 0. -1.
         23    2    1    2    0    0  0.41633975499E+01 -0.69863457947E+02 -0.12534940653E+03  0.16948638977E+03  0.90082883859E+02 0.  0.
         23    2    1    2    0    0 -0.10051249945E+02  0.46528326123E+02 -0.89083789719E+02  0.12885436610E+03  0.80010082587E+02 0.  0.
        -11    1    4    4    0    0  0.16995707950E+02  0.14023308833E+02  0.76158082665E+01  0.23313254061E+02  0.00000000000E+00 0.  1.
         11    1    4    4    0    0 -0.27046957895E+02  0.32505017290E+02 -0.96699597985E+02  0.10554111204E+03  0.00000000000E+00 0. -1.
        -13    1    3    3    0    0  0.30406888408E+02 -0.80272612471E+02 -0.94948220704E+02  0.12799779604E+03  0.00000000000E+00 0.  1.
         13    1    3    3    0    0 -0.26243490858E+02  0.10409154523E+02 -0.30401185828E+02  0.41488593734E+02  0.00000000000E+00 0. -1.
         21    1    1    2  502  501  0.58878523952E+01  0.23335131824E+02 -0.12215969488E+02  0.26989351486E+02  0.00000000000E+00 0. -1.
<scales pt_clust_5="13000.00000" pt_clust_6="13000.00000" pt_clust_7="13000.00000" pt_clust_8="13000.00000" pt_clust_9="24.06647"></scales>
<clustering>
<clus scale="   24.066">  1  9  2 -1</clus>
<clus scale="   80.010">  5  6 -1 -1</clus>
<clus scale="   90.083">  7  8 -1 -1</clus>
<clus scale="   98.847">  2  5  1 -1</clus>
<clus scale="   98.847">  2  5  1 -1</clus>
</clustering>
</event>
<event>
 9    1  0.1175034E-005  0.1547115E+03  0.7546771E-02  0.1194922E+00
         -1   -1    0    0    0  501 -0.00000000000E+00  0.00000000000E+00  0.45516101288E+02  0.45516101288E+02  0.00000000000E+00 0.  1.
          1   -1    0    0  502    0  0.00000000000E+00 -0.00000000000E+00 -0.10748985560E+04  0.10748985560E+04  0.00000000000E+00 0. -1.
         23    2    1    2    0    0 -0.70288778394E+02  0.11751739308E+03 -0.51236941325E+03  0.53787057365E+03  0.89618571272E+02 0.  0.
         23    2    1    2    0    0  0.11485132406E+03 -0.52266537585E+02 -0.45898673400E+03  0.48451068639E+03  0.90328100026E+02 0.  0.
        -11    1    3    3    0    0 -0.40573320268E+02  0.34438955467E+00 -0.17041666704E+03  0.17518034515E+03  0.00000000000E+00 0.  1.
         11    1    3    3    0    0 -0.29715458126E+02  0.11717300353E+03 -0.34195274621E+03  0.36269022850E+03  0.00000000000E+00 0. -1.
        -11    1    4    4    0    0  0.16257197072E+02 -0.45941493515E+02 -0.87986393218E+02  0.10058092600E+03  0.00000000000E+00 0.  1.
         11    1    4    4    0    0  0.98594126985E+02 -0.63250440693E+01 -0.37100034078E+03  0.38392976040E+03  0.00000000000E+00 0. -1.
         21    1    1    2  502  501 -0.44562545663E+02 -0.65250855497E+02 -0.58026307477E+02  0.98033397261E+02  0.00000000000E+00 0.  1.
<scales pt_clust_5="13000.00000" pt_clust_6="13000.00000" pt_clust_7="13000.00000" pt_clust_8="13000.00000" pt_clust_9="79.01579"></scales>
<clustering>
<clus scale="   79.016">  1  9  2 -1</clus>
<clus scale="   89.619">  5  6 -1 -1</clus>
<clus scale="   90.328">  7  8 -1 -1</clus>
<clus scale="  154.298">  1  5  2 -1</clus>
<clus scale="  154.712">  2  5  1 -1</clus>
</clustering>
</event>
<event>
 9    1  0.1175034E-005  0.1861929E+03  0.7546771E-02  0.1162287E+00
          2   -1    0    0  502    0  0.00000000000E+00  0.00000000000E+00  0.54828311537E+03  0.54828311537E+03  0.00000000000E+00 0.  1.
         -2   -1    0    0    0  501 -0.00000000000E+00 -0.00000000000E+00 -0.21157526399E+03  0.21157526399E+03  0.00000000000E+00 0. -1.
         23    2    1    2    0    0  0.29966313498E+02 -0.13122067453E+03 -0.83509876473E+02  0.18291296541E+03  0.91468071346E+02 0.  0.
         23    2    1    2    0    0  0.41534410345E+02  0.16089763749E+03  0.45391479006E+03  0.49251456863E+03  0.94439433969E+02 0.  0.
        -11    1    3    3    0    0  0.21168954856E+02 -0.29950467576E+02 -0.71753714658E+02  0.80583811805E+02  0.00000000000E+00 0. -1.
         11    1    3    3    0    0  0.87973586423E+01 -0.10127020696E+03 -0.11756161815E+02  0.10232915360E+03  0.00000000000E+00 0.  1.
        -13    1    4    4    0    0  0.28220866984E+02  0.10784072894E+03  0.16938410108E+03  0.20277330655E+03  0.00000000000E+00 0.  1.
         13    1    4    4    0    0  0.13313543361E+02  0.53056908556E+02  0.28453068898E+03  0.28974126208E+03  0.00000000000E+00 0. -1.
         21    1    1    2  502  501 -0.71500723843E+02 -0.29676962960E+02 -0.33697062202E+02  0.84430845321E+02  0.00000000000E+00 0.  1.
<scales pt_clust_5="13000.00000" pt_clust_6="13000.00000" pt_clust_7="13000.00000" pt_clust_8="13000.00000" pt_clust_9="77.41496"></scales>
<clustering>
<clus scale="   77.415">  2  9  1 -1</clus>
<clus scale="   91.468">  5  6 -1 -1</clus>
<clus scale="   94.439">  7  8 -1 -1</clus>
<clus scale="  184.704">  2  5  1 -1</clus>
<clus scale="  186.193">  1  5  2 -1</clus>
</clustering>
</event>
<event>
 9    1  0.1175034E-005  0.1144244E+03  0.7546771E-02  0.1253187E+00
          1   -1    0    0  502    0  0.00000000000E+00  0.00000000000E+00  0.36068341235E+03  0.36068341235E+03  0.00000000000E+00 0. -1.
         -1   -1    0    0    0  501 -0.00000000000E+00 -0.00000000000E+00 -0.51598879873E+02  0.51598879873E+02  0.00000000000E+00 0.  1.
         23    2    1    2    0    0  0.57099460228E+01  0.59197417063E+02  0.12475163069E+03  0.16451634663E+03  0.89250889501E+02 0.  0.
         23    2    1    2    0    0  0.15428119965E+01 -0.78240266686E+02  0.19165159997E+03  0.22611424903E+03  0.90958222518E+02 0.  0.
        -11    1    3    3    0    0  0.24357466869E+02 -0.14981910410E+02  0.20365041224E+02  0.35106676514E+02  0.00000000000E+00 0.  1.
         11    1    3    3    0    0 -0.18647520846E+02  0.74179327473E+02  0.10438658947E+03  0.12940967011E+03  0.00000000000E+00 0. -1.
        -13    1    4    4    0    0  0.36049494726E+02 -0.60710697997E+02  0.74092185519E+02  0.10234748105E+03  0.00000000000E+00 0. -1.
         13    1    4    4    0    0 -0.34506682730E+02 -0.17529568689E+02  0.11755941445E+03  0.12376676799E+03  0.00000000000E+00 0.  1.
         21    1    1    2  502  501 -0.72527580193E+01  0.19042849623E+02 -0.73186981911E+01  0.21651696559E+02  0.00000000000E+00 0. -1.
<scales pt_clust_5="13000.00000" pt_clust_6="13000.00000" pt_clust_7="13000.00000" pt_clust_8="13000.00000" pt_clust_9="20.37726"></scales>
<clustering>
<clus scale="   20.377">  2  9  1 -1</clus>
<clus scale="   89.251">  5  6 -1 -1</clus>
<clus scale="   90.958">  7  8 -1 -1</clus>
<clus scale="  113.072">  2  5  1 -1</clus>
<clus scale="  114.424">  1  5  2 -1</clus>
</clustering>
</event>
<event>
 9    1  0.1175034E-005  0.1041259E+03  0.7546771E-02  0.1272669E+00
         -1   -1    0    0    0  501 -0.00000000000E+00  0.00000000000E+00  0.10719684748E+03  0.10719684748E+03  0.00000000000E+00 0.  1.
          1   -1    0    0  502    0  0.00000000000E+00 -0.00000000000E+00 -0.15827273425E+03  0.15827273425E+03  0.00000000000E+00 0. -1.
         23    2    1    2    0    0  0.52739314781E+02 -0.24170294019E+01  0.19608881110E+02  0.10910745438E+03  0.93448654506E+02 0.  0.
         23    2    1    2    0    0 -0.36301897218E+02  0.27970343151E+02 -0.73136802559E+02  0.12587978797E+03  0.91632752299E+02 0.  0.
        -11    1    3    3    0    0  0.19235932768E+02  0.20430054211E+02  0.50741063195E+02  0.57983305517E+02  0.00000000000E+00 0.  1.
         11    1    3    3    0    0  0.33503382012E+02 -0.22847083613E+02 -0.31132182085E+02  0.51124148866E+02  0.00000000000E+00 0. -1.
        -13    1    4    4    0    0 -0.51682116194E+02  0.50878384354E+02 -0.64254383364E+02  0.96893121068E+02  0.00000000000E+00 0.  1.
         13    1    4    4    0    0  0.15380218976E+02 -0.22908041203E+02 -0.88824191954E+01  0.28986666905E+02  0.00000000000E+00 0. -1.
         21    1    1    2  502  501 -0.16437417562E+02 -0.25553313749E+02  0.24520346860E+01  0.30482339375E+02  0.00000000000E+00 0.  1.
<scales pt_clust_5="13000.00000" pt_clust_6="13000.00000" pt_clust_7="13000.00000" pt_clust_8="13000.00000" pt_clust_9="30.38356"></scales>
<clustering>
<clus scale="   30.384">  1  9  2 -1</clus>
<clus scale="   91.633">  7  8 -1 -1</clus>
<clus scale="   93.449">  5  6 -1 -1</clus>
<clus scale="  102.499">  2  7  1 -1</clus>
<clus scale="  102.499">  2  5  1 -1</clus>
</clustering>
</event>
<event>
 9    1  0.1175034E-005  0.1179385E+03  0.7546771E-02  0.1247095E+00
         -2   -1    0    0    0  501 -0.00000000000E+00  0.00000000000E+00  0.15619587416E+03  0.15619587416E+03  0.00000000000E+00 0.  1.
          2   -1    0    0  502    0  0.00000000000E+00 -0.00000000000E+00 -0.33939315033E+03  0.33939315033E+03  0.00000000000E+00 0. -1.
         23    2    1    2    0    0  0.13573415376E+02  0.54456545983E+02  0.36947969312E+02  0.11315050155E+03  0.91039170470E+02 0.  0.
         23    2    1    2    0    0 -0.98681923479E+01 -0.74963838003E+02 -0.28778440537E+03  0.31166187669E+03  0.92716250894E+02 0.  0.
        -11    1    4    4    0    0 -0.44433741442E+02 -0.42891291564E+02 -0.22389354826E+03  0.23225490570E+03  0.00000000000E+00 0. -1.
         11    1    4    4    0    0  0.34565549094E+02 -0.32072546440E+02 -0.63890857110E+02  0.79406970988E+02  0.00000000000E+00 0.  1.
        -13    1    3    3    0    0  0.45108528585E+02  0.22754770778E+02  0.45069082355E+02  0.67703627145E+02  0.00000000000E+00 0.  1.
         13    1    3    3    0    0 -0.31535113209E+02  0.31701775205E+02 -0.81211130433E+01  0.45446874407E+02  0.00000000000E+00 0. -1.
         21    1    1    2  502  501 -0.37052230281E+01  0.20507292020E+02  0.67639159886E+02  0.70776646245E+02  0.00000000000E+00 0.  1.
<scales pt_clust_5="13000.00000" pt_clust_6="13000.00000" pt_clust_7="13000.00000" pt_clust_8="13000.00000" pt_clust_9="20.83933"></scales>
<clustering>
<clus scale="   20.839">  1  9  2 -1</clus>
<clus scale="   91.039">  7  8 -1 -1</clus>
<clus scale="   92.716">  5  6 -1 -1</clus>
<clus scale="  116.625">  1  7  2 -1</clus>
<clus scale="  117.939">  2  5  1 -1</clus>
</clustering>
</event>
<event>
 9    1  0.1175034E-005  0.1937485E+03  0.7546771E-02  0.1155235E+00
         -1   -1    0    0    0  501 -0.00000000000E+00  0.00000000000E+00  0.87310466725E+02  0.87310466725E+02  0.00000000000E+00 0.  1.
          1   -1    0    0  502    0  0.00000000000E+00 -0.00000000000E+00 -0.75927975851E+03  0.75927975851E+03  0.00000000000E+00 0. -1.
         23    2    1    2    0    0  0.39359634822E+02  0.16078175530E+03 -0.76932782469E+02  0.20367805260E+03  0.90366710710E+02 0.  0.
         23    2    1    2    0    0 -0.43274521409E+02 -0.18754550926E+03 -0.55584976199E+03  0.59529677565E+03  0.91451030364E+02 0.  0.
        -11    1    4    4    0    0  0.28086238691E+02 -0.66829398782E+02 -0.17306004320E+03  0.18762937909E+03  0.00000000000E+00 0. -1.
         11    1    4    4    0    0 -0.71360760100E+02 -0.12071611048E+03 -0.38278971878E+03  0.40766739656E+03  0.00000000000E+00 0.  1.
        -13    1    3    3    0    0 -0.19271051421E+02  0.30131254953E+02  0.87197975403E+01  0.36814410454E+02  0.00000000000E+00 0.  1.
         13    1    3    3    0    0  0.58630686243E+02  0.13065050034E+03 -0.85652580010E+02  0.16686364215E+03  0.00000000000E+00 0. -1.
         21    1    1    2  502  501  0.39148865866E+01  0.26763753964E+02 -0.39186747328E+02  0.47615396978E+02  0.00000000000E+00 0. -1.
<scales pt_clust_5="13000.00000" pt_clust_6="13000.00000" pt_clust_7="13000.00000" pt_clust_8="13000.00000" pt_clust_9="27.04856"></scales>
<clustering>
<clus scale="   27.049">  2  9  1 -1</clus>
<clus scale="   90.367">  7  8 -1 -1</clus>
<clus scale="   91.451">  5  6 -1 -1</clus>
<clus scale="  193.239">  1  7  2 -1</clus>
<clus scale="   27.049">  2  5  1 -1</clus>
</clustering>
</event>
<event>
 9    1  0.1175034E-005  0.9826932E+02  0.7546771E-02  0.1284963E+00
         -1   -1    0    0    0  501 -0.00000000000E+00  0.00000000000E+00  0.36754987057E+02  0.36754987057E+02  0.00000000000E+00 0.  1.
          1   -1    0    0  502    0  0.00000000000E+00 -0.00000000000E+00 -0.35204962577E+03  0.35204962577E+03  0.00000000000E+00 0. -1.
         23    2    1    2    0    0 -0.25405475878E+02  0.40211920686E+02 -0.15960526455E+03  0.19023288417E+03  0.91936244093E+02 0.  0.
         23    2    1    2    0    0  0.63217411260E+01 -0.22749254017E+02 -0.14068001574E+03  0.16866496522E+03  0.89997281586E+02 0.  0.
        -11    1    4    4    0    0  0.18121024659E+02 -0.49648309907E+02 -0.12421590799E+03  0.13499228870E+03  0.00000000000E+00 0. -1.
         11    1    4    4    0    0 -0.11799283533E+02  0.26899055889E+02 -0.16464107755E+02  0.33672676517E+02  0.00000000000E+00 0.  1.
        -13    1    3    3    0    0 -0.58854781576E+02  0.13756736335E+02 -0.10193865231E+03  0.11851000778E+03  0.00000000000E+00 0.  1.
         13    1    3    3    0    0  0.33449305698E+02  0.26455184351E+02 -0.57666612246E+02  0.71722876397E+02  0.00000000000E+00 0. -1.
         21    1    1    2  502  501  0.19083734751E+02 -0.17462666669E+02 -0.15009358418E+02  0.29906763439E+02  0.00000000000E+00 0. -1.
<scales pt_clust_5="13000.00000" pt_clust_6="13000.00000" pt_clust_7="13000.00000" pt_clust_8="13000.00000" pt_clust_9="25.86762"></scales>
<clustering>
<clus scale="   25.868">  1  9  2 -1</clus>
<clus scale="   89.997">  5  6 -1 -1</clus>
<clus scale="   91.936">  7  8 -1 -1</clus>
<clus scale="   96.458">  2  5  1 -1</clus>
<clus scale="   96.458">  2  5  1 -1</clus>
</clustering>
</event>
<event>
 9    1  0.1175034E-005  0.1028450E+03  0.7546771E-02  0.1275506E+00
         -1   -1    0    0    0  501 -0.00000000000E+00  0.00000000000E+00  0.22238627618E+03  0.22238627618E+03  0.00000000000E+00 0.  1.
          1   -1    0    0  502    0  0.00000000000E+00 -0.00000000000E+00 -0.11394192992E+03  0.11394192992E+03  0.00000000000E+00 0. -1.
         23    2    1    2    0    0  0.29218796658E+00  0.52247423719E+02  0.44948730265E+02  0.11241513517E+03  0.88808195595E+02 0.  0.
         23    2    1    2    0    0  0.27163822305E+02 -0.39908265214E+02 -0.44078455510E+02  0.11220690192E+03  0.91197235290E+02 0.  0.
        -13    1    3    3    0    0 -0.19468608816E+02  0.18767654153E+02  0.63737290129E+02  0.69236505722E+02  0.00000000000E+00 0.  1.
         13    1    3    3    0    0  0.19760796782E+02  0.33479769565E+02 -0.18788559864E+02  0.43178629452E+02  0.00000000000E+00 0. -1.
        -13    1    4    4    0    0  0.49886993412E+02  0.60869198910E+01 -0.31744444377E+02  0.59443018550E+02  0.00000000000E+00 0. -1.
         13    1    4    4    0    0 -0.22723171108E+02 -0.45995185105E+02 -0.12334011133E+02  0.52763883374E+02  0.00000000000E+00 0.  1.
         21    1    1    2  502  501 -0.27456010271E+02 -0.12339158504E+02  0.10757407150E+03  0.11170616900E+03  0.00000000000E+00 0.  1.
<scales pt_clust_5="13000.00000" pt_clust_6="13000.00000" pt_clust_7="13000.00000" pt_clust_8="13000.00000" pt_clust_9="30.10128"></scales>
<clustering>
<clus scale="   30.101">  1  9  2 -1</clus>
<clus scale="   88.808">  5  6 -1 -1</clus>
<clus scale="   91.197">  7  8 -1 -1</clus>
<clus scale="  100.733">  1  5  2 -1</clus>
<clus scale="  102.845">  2  5  1 -1</clus>
</clustering>
</event>
<event>
 9    1  0.1175034E-005  0.1158088E+03  0.7546771E-02  0.1250529E+00
          2   -1    0    0  502    0  0.00000000000E+00  0.00000000000E+00  0.14814073642E+03  0.14814073642E+03  0.00000000000E+00 0. -1.
         -2   -1    0    0    0  501 -0.00000000000E+00 -0.00000000000E+00 -0.13631131693E+03  0.13631131693E+03  0.00000000000E+00 0.  1.
         23    2    1    2    0    0 -0.10830773662E+02  0.76152771649E+02  0.15996266144E+02  0.12061433035E+03  0.91517134288E+02 0.  0.
         23    2    1    2    0    0  0.41654883113E+02 -0.56189099537E+02  0.24846380105E+02  0.11703557289E+03  0.90485570799E+02 0.  0.
        -11    1    4    4    0    0  0.19829932150E+02 -0.79780657190E+02  0.16852872969E+02  0.83917809779E+02  0.00000000000E+00 0.  1.
         11    1    4    4    0    0  0.21824950963E+02  0.23591557653E+02  0.79935071364E+01  0.33117763109E+02  0.00000000000E+00 0. -1.
        -11    1    3    3    0    0  0.47235880654E+01  0.94024580652E+02  0.44251334846E+01  0.94247099995E+02  0.00000000000E+00 0. -1.
         11    1    3    3    0    0 -0.15554361727E+02 -0.17871809003E+02  0.11571132659E+02  0.26367230359E+02  0.00000000000E+00 0.  1.
         21    1    1    2  502  501 -0.30824109452E+02 -0.19963672111E+02 -0.29013226766E+02  0.46802150111E+02  0.00000000000E+00 0. -1.
<scales pt_clust_5="13000.00000" pt_clust_6="13000.00000" pt_clust_7="13000.00000" pt_clust_8="13000.00000" pt_clust_9="36.72430"></scales>
<clustering>
<clus scale="   36.724">  2  9  1 -1</clus>
<clus scale="   90.486">  5  6 -1 -1</clus>
<clus scale="   91.517">  7  8 -1 -1</clus>
<clus scale="  114.995">  1  5  2 -1</clus>
<clus scale="  114.995">  1  5  2 -1</clus>
</clustering>
</event>
<event>
 9    1  0.1175034E-005  0.1357400E+03  0.7546771E-02  0.1219235E+00
          2   -1    0    0  502    0  0.00000000000E+00  0.00000000000E+00  0.61174389636E+02  0.61174389636E+02  0.00000000000E+00 0.  1.
         -2   -1    0    0    0  501 -0.00000000000E+00 -0.00000000000E+00 -0.66502545814E+03  0.66502545814E+03  0.00000000000E+00 0. -1.
         23    2    1    2    0    0 -0.23978650982E+02  0.11848680680E+03 -0.27973765442E+03  0.31804295232E+03  0.91016839802E+02 0.  0.
         23    2    1    2    0    0  0.17156386538E-01 -0.94219872553E+02 -0.63698188667E+02  0.14551811891E+03  0.90778185779E+02 0.  0.
        -13    1    3    3    0    0  0.26872837990E+02  0.15240735819E+02 -0.99575952341E+02  0.10425833173E+03  0.00000000000E+00 0.  1.
         13    1    3    3    0    0 -0.50851488971E+02  0.10324607098E+03 -0.18016170208E+03  0.21378462059E+03  0.00000000000E+00 0. -1.
        -13    1    4    4    0    0 -0.33759781707E+02 -0.79091134485E+02 -0.66050176525E+02  0.10843318788E+03  0.00000000000E+00 0. -1.
         13    1    4    4    0    0  0.33776938094E+02 -0.15128738068E+02  0.23519878587E+01  0.37084931029E+02  0.00000000000E+00 0.  1.
         21    1    1    2  502  501  0.23961494595E+02 -0.24266934244E+02 -0.26041522541E+03  0.26263877655E+03  0.00000000000E+00 0.  1.
<scales pt_clust_5="13000.00000" pt_clust_6="13000.00000" pt_clust_7="13000.00000" pt_clust_8="13000.00000" pt_clust_9="34.10333"></scales>
<clustering>
<clus scale="   34.103">  2  9  1 -1</clus>
<clus scale="   90.778">  7  8 -1 -1</clus>
<clus scale="   91.017">  5  6 -1 -1</clus>
<clus scale="  135.580">  1  7  2 -1</clus>
<clus scale="  135.580">  1  5  2 -1</clus>
</clustering>
</event>
<event>
 9    1  0.1175034E-005  0.1220040E+03  0.7546771E-02  0.1241002E+00
          3   -1    0    0  502    0  0.00000000000E+00  0.00000000000E+00  0.27618317839E+03  0.27618317839E+03  0.00000000000E+00 0. -1.
         -3   -1    0    0    0  501 -0.00000000000E+00 -0.00000000000E+00 -0.87194173476E+02  0.87194173476E+02  0.00000000000E+00 0.  1.
         23    2    1    2    0    0 -0.38604152890E+02  0.35398892971E+02  0.18781868309E+02  0.10320323260E+03  0.86918274251E+02 0.  0.
         23    2    1    2    0    0  0.79137007678E+02 -0.57275312314E+02  0.16738172998E+03  0.21402790638E+03  0.90819457137E+02 0.  0.
        -11    1    3    3    0    0 -0.17978958919E+02  0.59531306864E+02 -0.66302073992E+01  0.62539420456E+02  0.00000000000E+00 0.  1.
         11    1    3    3    0    0 -0.20625193971E+02 -0.24132413893E+02  0.25412075708E+02  0.40663812148E+02  0.00000000000E+00 0. -1.
        -13    1    4    4    0    0  0.73679794003E+02 -0.27460980831E+02  0.50900745704E+02  0.93668049119E+02  0.00000000000E+00 0.  1.
         13    1    4    4    0    0  0.54572136748E+01 -0.29814331483E+02  0.11648098427E+03  0.12035985726E+03  0.00000000000E+00 0. -1.
         21    1    1    2  502  501 -0.40532854788E+02  0.21876419342E+02  0.28254066256E+01  0.46146212879E+02  0.00000000000E+00 0.  1.
<scales pt_clust_5="13000.00000" pt_clust_6="13000.00000" pt_clust_7="13000.00000" pt_clust_8="13000.00000" pt_clust_9="46.05964"></scales>
<clustering>
<clus scale="   46.060">  2  9  1 -1</clus>
<clus scale="   86.918">  5  6 -1 -1</clus>
<clus scale="   90.819">  7  8 -1 -1</clus>
<clus scale="  119.129">  2  5  1 -1</clus>
<clus scale="  122.004">  1  5  2 -1</clus>
</clustering>
</event>
<event>
 9    1  0.1175034E-005  0.1007744E+03  0.7546771E-02  0.1283085E+00
         -1   -1    0    0    0  501 -0.00000000000E+00  0.00000000000E+00  0.88420831810E+02  0.88420831810E+02  0.00000000000E+00 0.  1.
          1   -1    0    0  502    0  0.00000000000E+00 -0.00000000000E+00 -0.29715244569E+03  0.29715244569E+03  0.00000000000E+00 0. -1.
         23    2    1    2    0    0 -0.28166110422E+02 -0.43428395786E+02  0.24756584980E+02  0.10719847983E+03  0.90549821872E+02 0.  0.
         23    2    1    2    0    0  0.87342443545E+01  0.11408999392E+02 -0.21399939017E+03  0.23615332412E+03  0.98824092250E+02 0.  0.
        -11    1    4    4    0    0 -0.28400735673E+02 -0.14193276673E+01 -0.12853200708E+02  0.31206105912E+02  0.00000000000E+00 0.  1.
         11    1    4    4    0    0  0.37134980027E+02  0.12828327060E+02 -0.20114618946E+03  0.20494721821E+03  0.00000000000E+00 0. -1.
        -13    1    3    3    0    0  0.23778172735E+01 -0.61465176599E+02 -0.38460890040E+01  0.61631277368E+02  0.00000000000E+00 0. -1.
         13    1    3    3    0    0 -0.30543927695E+02  0.18036780813E+02  0.28602673984E+02  0.45567202462E+02  0.00000000000E+00 0.  1.
         21    1    1    2  502  501  0.19431866067E+02  0.32019396394E+02 -0.19488808688E+02  0.42221473546E+02  0.00000000000E+00 0. -1.
<scales pt_clust_5="13000.00000" pt_clust_6="13000.00000" pt_clust_7="13000.00000" pt_clust_8="13000.00000" pt_clust_9="37.45449"></scales>
<clustering>
<clus scale="   37.454">  1  9  2 -1</clus>
<clus scale="   90.550">  7  8 -1 -1</clus>
<clus scale="   92.674">  1  7  2 -1</clus>
<clus scale="   98.824">  5  6 -1 -1</clus>
<clus scale="  100.774">  2  5  1 -1</clus>
</clustering>
</event>
<event>
 9    1  0.1175034E-005  0.1260488E+03  0.7546771E-02  0.1235936E+00
         -1   -1    0    0    0  501 -0.00000000000E+00  0.00000000000E+00  0.16382871875E+03  0.16382871875E+03  0.00000000000E+00 0.  1.
          1   -1    0    0  502    0  0.00000000000E+00 -0.00000000000E+00 -0.14196673630E+03  0.14196673630E+03  0.00000000000E+00 0. -1.
         23    2    1    2    0    0 -0.62607963690E+02  0.46168709178E+01  0.56976525930E+02  0.13059749142E+03  0.99339355962E+02 0.  0.
         23    2    1    2    0    0  0.83452703717E+02 -0.36185689044E+01 -0.64228689863E+02  0.13937711337E+03  0.91231613664E+02 0.  0.
        -11    1    4    4    0    0  0.86269474764E+02  0.19582135783E+02 -0.72714430215E+02  0.11451318998E+03  0.00000000000E+00 0. -1.
         11    1    4    4    0    0 -0.28167710468E+01 -0.23200704687E+02  0.84857403524E+01  0.24863923392E+02  0.00000000000E+00 0.  1.
        -11    1    3    3    0    0  0.93373417405E+01  0.23415888375E+02 -0.13109110543E+02  0.28413703708E+02  0.00000000000E+00 0. -1.
         11    1    3    3    0    0 -0.71945305431E+02 -0.18799017457E+02  0.70085636473E+02  0.10218378771E+03  0.00000000000E+00 0.  1.
         21    1    1    2  502  501 -0.20844740027E+02 -0.99830201347E+00  0.29114146379E+02  0.35820850256E+02  0.00000000000E+00 0. -1.
<scales pt_clust_5="13000.00000" pt_clust_6="13000.00000" pt_clust_7="13000.00000" pt_clust_8="13000.00000" pt_clust_9="20.86863"></scales>
<clustering>
<clus scale="   20.869">  1  9  2 -1</clus>
<clus scale="   91.232">  5  6 -1 -1</clus>
<clus scale="   99.339">  7  8 -1 -1</clus>
<clus scale="  119.763">  2  5  1 -1</clus>
<clus scale="  119.763">  2  5  1 -1</clus>
</clustering>
</event>
<event>
 9    1  0.1175034E-005  0.2620190E+03  0.7546771E-02  0.1106912E+00
         -1   -1    0    0    0  501 -0.00000000000E+00  0.00000000000E+00  0.38093000554E+03  0.38093000554E+03  0.00000000000E+00 0.  1.
          1   -1    0    0  502    0  0.00000000000E+00 -0.00000000000E+00 -0.42889037750E+03  0.42889037750E+03  0.00000000000E+00 0. -1.
         23    2    1    2    0    0 -0.85515185179E+02 -0.22618675337E+03  0.11990998636E+02  0.26513789870E+03  0.10807879986E+03 0.  0.
         23    2    1    2    0    0  0.10896961504E+03  0.21149373026E+03 -0.24742203569E+03  0.35517985776E+03  0.91274819505E+02 0.  0.
        -11    1    3    3    0    0 -0.85695958006E+02 -0.10454649459E+03 -0.26091584890E+02  0.13767547912E+03  0.00000000000E+00 0. -1.
         11    1    3    3    0    0  0.18077282702E+00 -0.12164025878E+03  0.38082583525E+02  0.12746241958E+03  0.00000000000E+00 0.  1.
        -11    1    4    4    0    0  0.86293997929E+02  0.76511446075E+02 -0.88042169489E+02  0.14509334605E+03  0.00000000000E+00 0.  1.
         11    1    4    4    0    0  0.22675617110E+02  0.13498228418E+03 -0.15937986620E+03  0.21008651171E+03  0.00000000000E+00 0. -1.
         21    1    1    2  502  501 -0.23454429860E+02  0.14693023115E+02  0.18747066510E+03  0.18950262658E+03  0.00000000000E+00 0.  1.
<scales pt_clust_5="13000.00000" pt_clust_6="13000.00000" pt_clust_7="13000.00000" pt_clust_8="13000.00000" pt_clust_9="27.67662"></scales>
<clustering>
<clus scale="   27.677">  1  9  2 -1</clus>
<clus scale="   91.275">  7  8 -1 -1</clus>
<clus scale="  108.079">  5  6 -1 -1</clus>
<clus scale="  255.546">  2  7  1 -1</clus>
<clus scale="  255.546">  2  5  1 -1</clus>
</clustering>
</event>
<event>
 9    1  0.1175034E-005  0.1024731E+03  0.7546771E-02  0.1276540E+00
         -2   -1    0    0    0  501 -0.00000000000E+00  0.00000000000E+00  0.62655231211E+02  0.62655231211E+02  0.00000000000E+00 0.  1.
          2   -1    0    0  502    0  0.00000000000E+00 -0.00000000000E+00 -0.36700222890E+03  0.36700222890E+03  0.00000000000E+00 0. -1.
         23    2    1    2    0    0  0.54621572882E+00 -0.23770544327E+01 -0.57586656589E+02  0.10897987025E+03  0.92490217658E+02 0.  0.
         23    2    1    2    0    0  0.50756029579E+02 -0.24199263467E+02 -0.23768741130E+03  0.26219221476E+03  0.95329287712E+02 0.  0.
        -11    1    3    3    0    0  0.40763278784E+02  0.68177192163E+01 -0.42459150987E+01  0.41547009370E+02  0.00000000000E+00 0.  1.
         11    1    3    3    0    0 -0.40217063055E+02 -0.91947736490E+01 -0.53340741491E+02  0.67432860877E+02  0.00000000000E+00 0. -1.
        -13    1    4    4    0    0 -0.16360336865E+02  0.23029686607E+02 -0.52013318291E+02  0.59189630572E+02  0.00000000000E+00 0. -1.
         13    1    4    4    0    0  0.67116366443E+02 -0.47228950074E+02 -0.18567409301E+03  0.20300258418E+03  0.00000000000E+00 0.  1.
         21    1    1    2  502  501 -0.51302245307E+02  0.26576317900E+02 -0.90729297990E+01  0.58485375111E+02  0.00000000000E+00 0. -1.
<scales pt_clust_5="13000.00000" pt_clust_6="13000.00000" pt_clust_7="13000.00000" pt_clust_8="13000.00000" pt_clust_9="57.77734"></scales>
<clustering>
<clus scale="   57.777">  1  9  2 -1</clus>
<clus scale="   92.490">  5  6 -1 -1</clus>
<clus scale="   95.329">  7  8 -1 -1</clus>
<clus scale="   99.837">  1  5  2 -1</clus>
<clus scale="  102.473">  2  5  1 -1</clus>
</clustering>
</event>
<event>
 9    1  0.1175034E-005  0.1121241E+03  0.7546771E-02  0.1257024E+00
          3   -1    0    0  502    0  0.00000000000E+00  0.00000000000E+00  0.83850467412E+02  0.83850467412E+02  0.00000000000E+00 0. -1.
         -3   -1    0    0    0  501 -0.00000000000E+00 -0.00000000000E+00 -0.26798783632E+03  0.26798783632E+03  0.00000000000E+00 0.  1.
         23    2    1    2    0    0  0.60193707699E+02  0.64794171167E+02 -0.61207504799E+02  0.14086432029E+03  0.90966098211E+02 0.  0.
         23    2    1    2    0    0 -0.17121302808E+02 -0.49183676009E+02 -0.31463005384E+02  0.10867488341E+03  0.90045191880E+02 0.  0.
        -11    1    4    4    0    0  0.15081761089E+02 -0.53634723504E+02  0.93530332152E+01  0.56494444976E+02  0.00000000000E+00 0. -1.
         11    1    4    4    0    0 -0.32203063896E+02  0.44510474944E+01 -0.40816038599E+02  0.52180438433E+02  0.00000000000E+00 0.  1.
        -13    1    3    3    0    0  0.91147533407E+01  0.62414776042E+02 -0.63730864090E+02  0.89667753594E+02  0.00000000000E+00 0.  1.
         13    1    3    3    0    0  0.51078954358E+02  0.23793951248E+01  0.25233592918E+01  0.51196566698E+02  0.00000000000E+00 0. -1.
         21    1    1    2  502  501 -0.43072404892E+02 -0.15610495158E+02 -0.91466858729E+02  0.10229910004E+03  0.00000000000E+00 0. -1.
<scales pt_clust_5="13000.00000" pt_clust_6="13000.00000" pt_clust_7="13000.00000" pt_clust_8="13000.00000" pt_clust_9="45.81397"></scales>
<clustering>
<clus scale="   45.814">  2  9  1 -1</clus>
<clus scale="   90.045">  5  6 -1 -1</clus>
<clus scale="   90.966">  7  8 -1 -1</clus>
<clus scale="  111.378">  1  5  2 -1</clus>
<clus scale="  111.378">  1  5  2 -1</clus>
</clustering>
</event>
<event>
 9    1  0.1175034E-005  0.9577693E+02  0.7546771E-02  0.1291409E+00
          2   -1    0    0  502    0  0.00000000000E+00  0.00000000000E+00  0.10653966771E+03  0.10653966771E+03  0.00000000000E+00 0. -1.
         -2   -1    0    0    0  501 -0.00000000000E+00 -0.00000000000E+00 -0.17404030020E+03  0.17404030020E+03  0.00000000000E+00 0.  1.
         23    2    1    2    0    0  0.68638071040E+01  0.74695506573E+00 -0.14044015379E+02  0.92662957863E+02  0.91331919952E+02 0.  0.
         23    2    1    2    0    0  0.64124765942E+02  0.47978073410E+01 -0.36767059716E+02  0.11478245447E+03  0.87682327817E+02 0.  0.
        -11    1    4    4    0    0  0.24027089891E+02  0.45563211804E+02 -0.19045678792E+02  0.54918532384E+02  0.00000000000E+00 0.  1.
         11    1    4    4    0    0  0.40097676051E+02 -0.40765404463E+02 -0.17721380923E+02  0.59863922086E+02  0.00000000000E+00 0. -1.
        -13    1    3    3    0    0 -0.27395404747E+02  0.19788352182E+02 -0.34632763803E+02  0.48389207598E+02  0.00000000000E+00 0.  1.
         13    1    3    3    0    0  0.34259211851E+02 -0.19041397116E+02  0.20588748425E+02  0.44273750264E+02  0.00000000000E+00 0. -1.
         21    1    1    2  502  501 -0.70988573046E+02 -0.55447624067E+01 -0.16689557397E+02  0.73134555577E+02  0.00000000000E+00 0. -1.
<scales pt_clust_5="13000.00000" pt_clust_6="13000.00000" pt_clust_7="13000.00000" pt_clust_8="13000.00000" pt_clust_9="71.20479"></scales>
<clustering>
<clus scale="   71.205">  1  9  2 -1</clus>
<clus scale="   87.682">  5  6 -1 -1</clus>
<clus scale="   91.332">  7  8 -1 -1</clus>
<clus scale="   92.303">  1  5  2 -1</clus>
<clus scale="   71.205">  1  5  2 -1</clus>
</clustering>
</event>
<event>
 9    1  0.1175034E-005  0.1120403E+03  0.7546771E-02  0.1261005E+00
          2   -1    0    0  502    0  0.00000000000E+00  0.00000000000E+00  0.65366530854E+03  0.65366530854E+03  0.00000000000E+00 0. -1.
         -2   -1    0    0    0  501 -0.00000000000E+00 -0.00000000000E+00 -0.24705625465E+02  0.24705625465E+02  0.00000000000E+00 0.  1.
         23    2    1    2    0    0 -0.62861316104E+02  0.20901982318E+02  0.15892703455E+03  0.19025381014E+03  0.80933750904E+02 0.  0.
         23    2    1    2    0    0  0.49082073186E+02 -0.36042200382E+02  0.41504066809E+03  0.42943823797E+03  0.91925806706E+02 0.  0.
        -11    1    3    3    0    0 -0.67553325530E+02 -0.63883618704E+01  0.14306686999E+03  0.15834264190E+03  0.00000000000E+00 0.  1.
         11    1    3    3    0    0  0.46920094266E+01  0.27290344188E+02  0.15860164568E+02  0.31911168241E+02  0.00000000000E+00 0. -1.
        -11    1    4    4    0    0  0.43961711679E+02 -0.62283183974E+02  0.36314093649E+03  0.37105682429E+03  0.00000000000E+00 0.  1.
         11    1    4    4    0    0  0.51203615074E+01  0.26240983592E+02  0.51899731607E+02  0.58381413675E+02  0.00000000000E+00 0. -1.
         21    1    1    2  502  501  0.13779242917E+02  0.15140218064E+02  0.54991980425E+02  0.58678885892E+02  0.00000000000E+00 0.  1.
<scales pt_clust_5="13000.00000" pt_clust_6="13000.00000" pt_clust_7="13000.00000" pt_clust_8="13000.00000" pt_clust_9="20.47178"></scales>
<clustering>
<clus scale="   20.472">  1  9  2 -1</clus>
<clus scale="   80.934">  5  6 -1 -1</clus>
<clus scale="   91.926">  7  8 -1 -1</clus>
<clus scale="  103.213">  2  5  1 -1</clus>
<clus scale="   20.472">  1  5  2 -1</clus>
</clustering>
</event>
<event>
 9    1  0.1175034E-005  0.1036832E+03  0.7546771E-02  0.1276093E+00
         -2   -1    0    0    0  501 -0.00000000000E+00  0.00000000000E+00  0.26801383744E+02  0.26801383744E+02  0.00000000000E+00 0.  1.
          2   -1    0    0  502    0  0.00000000000E+00 -0.00000000000E+00 -0.60348154224E+03  0.60348154224E+03  0.00000000000E+00 0. -1.
         23    2    1    2    0    0 -0.50673724144E+01 -0.19322090673E+02 -0.13342862941E+03  0.16295525599E+03  0.91390343350E+02 0.  0.
         23    2    1    2    0    0 -0.14287454788E+02  0.37880397771E+02 -0.41495330034E+03  0.42834293133E+03  0.98246473006E+02 0.  0.
        -11    1    3    3    0    0 -0.47261671392E+02 -0.19210241505E+02 -0.66106043103E+02  0.83502741848E+02  0.00000000000E+00 0. -1.
         11    1    3    3    0    0  0.42194298978E+02 -0.11184916811E+00 -0.67322586311E+02  0.79452514145E+02  0.00000000000E+00 0.  1.
        -11    1    4    4    0    0  0.17989233398E+02 -0.25549063495E+02 -0.79439474035E+02  0.85363910399E+02  0.00000000000E+00 0.  1.
         11    1    4    4    0    0 -0.32276688186E+02  0.63429461266E+02 -0.33551382631E+03  0.34297902093E+03  0.00000000000E+00 0. -1.
         21    1    1    2  502  501  0.19354827202E+02 -0.18558307098E+02 -0.28298228742E+02  0.38984738659E+02  0.00000000000E+00 0.  1.
<scales pt_clust_5="13000.00000" pt_clust_6="13000.00000" pt_clust_7="13000.00000" pt_clust_8="13000.00000" pt_clust_9="26.81455"></scales>
<clustering>
<clus scale="   26.815">  1  9  2 -1</clus>
<clus scale="   91.390">  5  6 -1 -1</clus>
<clus scale="   97.211">  1  5  2 -1</clus>
<clus scale="   98.246">  7  8 -1 -1</clus>
<clus scale="  103.683">  2  5  1 -1</clus>
</clustering>
</event>
<event>
 9    1  0.1175034E-005  0.9230693E+02  0.7546771E-02  0.1297927E+00
          1   -1    0    0  502    0  0.00000000000E+00  0.00000000000E+00  0.61025728834E+03  0.61025728834E+03  0.00000000000E+00 0. -1.
         -1   -1    0    0    0  501 -0.00000000000E+00 -0.00000000000E+00 -0.22020197323E+02  0.22020197323E+02  0.00000000000E+00 0.  1.
         23    2    1    2    0    0  0.20921947147E+01 -0.81990879243E+01  0.19154206352E+03  0.21205661803E+03  0.90598260639E+02 0.  0.
         23    2    1    2    0    0  0.16190880590E+02  0.18216097298E+02  0.38555789166E+03  0.39658515072E+03  0.89615417979E+02 0.  0.
        -11    1    4    4    0    0 -0.14850449387E+02  0.47760423534E+02  0.20844960530E+03  0.21436611639E+03  0.00000000000E+00 0. -1.
         11    1    4    4    0    0  0.31041329977E+02 -0.29544326236E+02  0.17710828635E+03  0.18221903434E+03  0.00000000000E+00 0.  1.
        -11    1    3    3    0    0 -0.43210917949E+02  0.36356879982E+01  0.10622864349E+03  0.11473851295E+03  0.00000000000E+00 0. -1.
         11    1    3    3    0    0  0.45303112664E+02 -0.11834775922E+02  0.85313420029E+02  0.97318105074E+02  0.00000000000E+00 0.  1.
         21    1    1    2  502  501 -0.18283075305E+02 -0.10017009374E+02  0.11137135846E+02  0.23635716919E+02  0.00000000000E+00 0.  1.
<scales pt_clust_5="13000.00000" pt_clust_6="13000.00000" pt_clust_7="13000.00000" pt_clust_8="13000.00000" pt_clust_9="20.84733"></scales>
<clustering>
<clus scale="   20.847">  2  9  1 -1</clus>
<clus scale="   89.615">  5  6 -1 -1</clus>
<clus scale="   90.598">  7  8 -1 -1</clus>
<clus scale="   91.342">  1  5  2 -1</clus>
<clus scale="   91.342">  1  5  2 -1</clus>
</clustering>
</event>
<event>
 9    1  0.1418690E-005  0.9717566E+02  0.7546771E-02  0.1287301E+00
          1   -1    0    0  502    0  0.00000000000E+00  0.00000000000E+00  0.58758151359E+03  0.58758151359E+03  0.00000000000E+00 0. -1.
         -1   -1    0    0    0  501 -0.00000000000E+00 -0.00000000000E+00 -0.32642306232E+02  0.32642306232E+02  0.00000000000E+00 0.  1.
         23    2    1    2    0    0 -0.57236632807E+01 -0.29077924442E+02  0.71587331887E+02  0.11688490333E+03  0.87515990130E+02 0.  0.
         23    2    1    2    0    0  0.29655833410E+02  0.28494769400E+02  0.45807560944E+03  0.46852543546E+03  0.89394627194E+02 0.  0.
        -11    1    3    3    0    0  0.16036037816E+02  0.27460347344E+02  0.23583969754E+02  0.39590766783E+02  0.00000000000E+00 0.  1.
         11    1    3    3    0    0 -0.21759701097E+02 -0.56538271787E+02  0.48003362134E+02  0.77294136547E+02  0.00000000000E+00 0. -1.
        -13    1    4    4    0    0  0.54949466792E+02 -0.60445010912E+01  0.23954150665E+03  0.24583757504E+03  0.00000000000E+00 0. -1.
         13    1    4    4    0    0 -0.25293633382E+02  0.34539270491E+02  0.21853410280E+03  0.22268786042E+03  0.00000000000E+00 0.  1.
         21    1    1    2  502  501 -0.23932170130E+02  0.58315504270E+00  0.25276266023E+02  0.34813481024E+02  0.00000000000E+00 0.  1.
<scales pt_clust_5="13000.00000" pt_clust_6="13000.00000" pt_clust_7="13000.00000" pt_clust_8="13000.00000" pt_clust_9="23.93927"></scales>
<clustering>
<clus scale="   23.939">  2  9  1 -1</clus>
<clus scale="   87.516">  5  6 -1 -1</clus>
<clus scale="   89.395">  7  8 -1 -1</clus>
<clus scale="   95.450">  2  5  1 -1</clus>
<clus scale="   97.176">  1  5  2 -1</clus>
</clustering>
</event>
<event>
 9    1  0.1175034E-005  0.1137323E+03  0.7546771E-02  0.1253847E+00
          1   -1    0    0  502    0  0.00000000000E+00  0.00000000000E+00  0.40016943485E+03  0.40016943485E+03  0.00000000000E+00 0. -1.
         -1   -1    0    0    0  501 -0.00000000000E+00 -0.00000000000E+00 -0.45066900888E+02  0.45066900888E+02  0.00000000000E+00 0.  1.
         23    2    1    2    0    0  0.19010881910E+02 -0.69133287893E+02  0.15194552793E+03  0.19132520033E+03  0.91526300569E+02 0.  0.
         23    2    1    2    0    0 -0.49510438518E+02  0.47364939067E+02  0.16222204507E+03  0.19841559511E+03  0.91422292154E+02 0.  0.
        -11    1    4    4    0    0  0.15416991913E+01  0.51781190439E+02  0.38629685601E+02  0.64621367436E+02  0.00000000000E+00 0.  1.
         11    1    4    4    0    0 -0.51052137709E+02 -0.44162513722E+01  0.12359235947E+03  0.13379422768E+03  0.00000000000E+00 0. -1.
        -11    1    3    3    0    0 -0.12758492506E+02 -0.75816512785E+02  0.13331247705E+03  0.15389327237E+03  0.00000000000E+00 0. -1.
         11    1    3    3    0    0  0.31769374416E+02  0.66832248918E+01  0.18633050879E+02  0.37431927960E+02  0.00000000000E+00 0.  1.
         21    1    1    2  502  501  0.30499556608E+02  0.21768348827E+02  0.40934960961E+02  0.55495540296E+02  0.00000000000E+00 0. -1.
<scales pt_clust_5="13000.00000" pt_clust_6="13000.00000" pt_clust_7="13000.00000" pt_clust_8="13000.00000" pt_clust_9="37.47111"></scales>
<clustering>
<clus scale="   37.471">  2  9  1 -1</clus>
<clus scale="   91.422">  5  6 -1 -1</clus>
<clus scale="   91.526">  7  8 -1 -1</clus>
<clus scale="  113.649">  1  5  2 -1</clus>
<clus scale="  113.649">  1  5  2 -1</clus>
</clustering>
</event>
<event>
 9    1  0.1175034E-005  0.1524597E+03  0.7546771E-02  0.1198551E+00
          1   -1    0    0  502    0  0.00000000000E+00  0.00000000000E+00  0.19240718737E+03  0.19240718737E+03  0.00000000000E+00 0. -1.
         -1   -1    0    0    0  501 -0.00000000000E+00 -0.00000000000E+00 -0.14939656622E+03  0.14939656622E+03  0.00000000000E+00 0.  1.
         23    2    1    2    0    0 -0.79396379133E+02 -0.82665081331E+02 -0.21443393304E+02  0.14832394881E+03  0.91667191428E+02 0.  0.
         23    2    1    2    0    0  0.10040637847E+03  0.90323544075E+02  0.58734383989E+02  0.17039764075E+03  0.85707903117E+02 0.  0.
        -11    1    3    3    0    0 -0.55435302502E+02 -0.95484154752E+02 -0.37687072490E+02  0.11666452762E+03  0.00000000000E+00 0.  1.
         11    1    3    3    0    0 -0.23961076632E+02  0.12819073422E+02  0.16243679186E+02  0.31659421193E+02  0.00000000000E+00 0. -1.
        -13    1    4    4    0    0  0.77389131807E+02  0.66140629518E+02  0.81147129643E+02  0.13018647105E+03  0.00000000000E+00 0. -1.
         13    1    4    4    0    0  0.23017246666E+02  0.24182914557E+02 -0.22412745654E+02  0.40211169696E+02  0.00000000000E+00 0.  1.
         21    1    1    2  502  501 -0.21009999339E+02 -0.76584627448E+01  0.57196304623E+01  0.23082164033E+02  0.00000000000E+00 0. -1.
<scales pt_clust_5="13000.00000" pt_clust_6="13000.00000" pt_clust_7="13000.00000" pt_clust_8="13000.00000" pt_clust_9="22.36229"></scales>
<clustering>
<clus scale="   22.362">  1  9  2 -1</clus>
<clus scale="   85.708">  7  8 -1 -1</clus>
<clus scale="   91.667">  5  6 -1 -1</clus>
<clus scale="  148.953">  1  7  2 -1</clus>
<clus scale="   22.362">  1  5  2 -1</clus>
</clustering>
</event>
<event>
 9    1  0.1175034E-005  0.1205145E+03  0.7546771E-02  0.1243077E+00
         -1   -1    0    0    0  501 -0.00000000000E+00  0.00000000000E+00  0.88430924040E+02  0.88430924040E+02  0.00000000000E+00 0.  1.
          1   -1    0    0  502    0  0.00000000000E+00 -0.00000000000E+00 -0.48817640258E+03  0.48817640258E+03  0.00000000000E+00 0. -1.
         23    2    1    2    0    0  0.30179750791E+02  0.57705102970E+02 -0.18097422084E+02  0.11348207318E+03  0.91159025774E+02 0.  0.
         23    2    1    2    0    0 -0.73192012928E+01 -0.81835682155E+02 -0.40492284139E+03  0.42254687017E+03  0.88502544770E+02 0.  0.
        -11    1    4    4    0    0 -0.38285837237E+02 -0.20586380032E+02 -0.86462104416E+02  0.96774479465E+02  0.00000000000E+00 0.  1.
         11    1    4    4    0    0  0.30966635944E+02 -0.61249302123E+02 -0.31846073697E+03  0.32577239071E+03  0.00000000000E+00 0. -1.
        -13    1    3    3    0    0 -0.30179836423E+02  0.34539448126E+01 -0.21197184122E+00  0.30377577148E+02  0.00000000000E+00 0.  1.
         13    1    3    3    0    0  0.60359587214E+02  0.54251158157E+02 -0.17885450243E+02  0.83104496031E+02  0.00000000000E+00 0. -1.
         21    1    1    2  502  501 -0.22860549499E+02  0.24130579185E+02  0.23274784934E+02  0.40578383271E+02  0.00000000000E+00 0.  1.
<scales pt_clust_5="13000.00000" pt_clust_6="13000.00000" pt_clust_7="13000.00000" pt_clust_8="13000.00000" pt_clust_9="33.23988"></scales>
<clustering>
<clus scale="   33.240">  1  9  2 -1</clus>
<clus scale="   88.503">  5  6 -1 -1</clus>
<clus scale="   91.159">  7  8 -1 -1</clus>
<clus scale="  118.518">  2  5  1 -1</clus>
<clus scale="  118.518">  2  5  1 -1</clus>
</clustering>
</event>
<event>
 9    1  0.1175034E-005  0.1340515E+03  0.7546771E-02  0.1226739E+00
         -2   -1    0    0    0  501 -0.00000000000E+00  0.00000000000E+00  0.16584113618E+03  0.16584113618E+03  0.00000000000E+00 0.  1.
          2   -1    0    0  502    0  0.00000000000E+00 -0.00000000000E+00 -0.53069711841E+03  0.53069711841E+03  0.00000000000E+00 0. -1.
         23    2    1    2    0    0  0.42491687823E+02  0.96814216800E+01  0.55082137977E+02  0.11999260301E+03  0.97287765891E+02 0.  0.
         23    2    1    2    0    0 -0.57783440451E+02 -0.46544757929E+02 -0.48309554613E+03  0.50183552036E+03  0.11380791857E+03 0.  0.
        -11    1    4    4    0    0  0.25569375546E+02 -0.43889028452E+02 -0.22236706317E+03  0.22809460881E+03  0.00000000000E+00 0.  1.
         11    1    4    4    0    0 -0.83352815996E+02 -0.26557294770E+01 -0.26072848295E+03  0.27374091155E+03  0.00000000000E+00 0. -1.
        -11    1    3    3    0    0  0.14882975415E+02  0.28203758223E+02 -0.20163415962E+02  0.37729541189E+02  0.00000000000E+00 0. -1.
         11    1    3    3    0    0  0.27608712408E+02 -0.18522336543E+02  0.75245553939E+02  0.82263061817E+02  0.00000000000E+00 0.  1.
         21    1    1    2  502  501  0.15291752628E+02  0.36863336249E+02  0.63157425925E+02  0.74710131222E+02  0.00000000000E+00 0. -1.
<scales pt_clust_5="13000.00000" pt_clust_6="13000.00000" pt_clust_7="13000.00000" pt_clust_8="13000.00000" pt_clust_9="39.90919"></scales>
<clustering>
<clus scale="   39.909">  1  9  2 -1</clus>
<clus scale="   97.288">  7  8 -1 -1</clus>
<clus scale="  113.808">  5  6 -1 -1</clus>
<clus scale="  120.343">  1  7  2 -1</clus>
<clus scale="  134.051">  2  5  1 -1</clus>
</clustering>
</event>
<event>
 9    1  0.1175034E-005  0.2556701E+03  0.7546771E-02  0.1110106E+00
          1   -1    0    0  502    0  0.00000000000E+00  0.00000000000E+00  0.23919541288E+04  0.23919541288E+04  0.00000000000E+00 0. -1.
         -1   -1    0    0    0  501 -0.00000000000E+00 -0.00000000000E+00 -0.36746798516E+02  0.36746798516E+02  0.00000000000E+00 0.  1.
         23    2    1    2    0    0  0.18890033004E+03  0.17351839378E+03  0.11615982850E+04  0.11925983004E+04  0.84783033077E+02 0.  0.
         23    2    1    2    0    0 -0.13640450095E+03 -0.17992993271E+03  0.11156090191E+04  0.11418639725E+04  0.91043284296E+02 0.  0.
        -11    1    3    3    0    0  0.16747837202E+03  0.17531745927E+03  0.11179981256E+04  0.11439864621E+04  0.00000000000E+00 0.  1.
         11    1    3    3    0    0  0.21421958017E+02 -0.17990654875E+01  0.43600159400E+02  0.48611838286E+02  0.00000000000E+00 0. -1.
        -11    1    4    4    0    0 -0.35623706687E+02 -0.14384626324E+02  0.86263333554E+02  0.94431608418E+02  0.00000000000E+00 0.  1.
         11    1    4    4    0    0 -0.10078079427E+03 -0.16554530639E+03  0.10293456856E+04  0.10474323641E+04  0.00000000000E+00 0. -1.
         21    1    1    2  502  501 -0.52495829082E+02  0.64115389329E+01  0.78000026088E+02  0.94238654343E+02  0.00000000000E+00 0.  1.
<scales pt_clust_5="13000.00000" pt_clust_6="13000.00000" pt_clust_7="13000.00000" pt_clust_8="13000.00000" pt_clust_9="52.88591"></scales>
<clustering>
<clus scale="   52.886">  2  9  1 -1</clus>
<clus scale="   84.783">  5  6 -1 -1</clus>
<clus scale="   91.043">  7  8 -1 -1</clus>
<clus scale="  253.508">  2  5  1 -1</clus>
<clus scale="  255.670">  1  5  2 -1</clus>
</clustering>
</event>
<event>
 9    1  0.1175034E-005  0.9899682E+02  0.7546771E-02  0.1282779E+00
          1   -1    0    0  502    0  0.00000000000E+00  0.00000000000E+00  0.39415475678E+02  0.39415475678E+02  0.00000000000E+00 0. -1.
         -1   -1    0    0    0  501 -0.00000000000E+00 -0.00000000000E+00 -0.37748143402E+03  0.37748143402E+03  0.00000000000E+00 0.  1.
         23    2    1    2    0    0 -0.33195804059E+02  0.38428262621E+02 -0.11926855911E+03  0.15875029869E+03  0.91640467950E+02 0.  0.
         23    2    1    2    0    0  0.18636408663E+02 -0.12209731592E+02 -0.11028730497E+03  0.14556851402E+03  0.92360756628E+02 0.  0.
        -11    1    4    4    0    0  0.13260916605E+02 -0.44264831876E+02 -0.21396647599E+02  0.50921938088E+02  0.00000000000E+00 0. -1.
         11    1    4    4    0    0  0.53754920573E+01  0.32055100284E+02 -0.88890657366E+02  0.94646575934E+02  0.00000000000E+00 0.  1.
        -13    1    3    3    0    0  0.12351543376E+02  0.49504485403E+02 -0.90093051689E+02  0.10353749399E+03  0.00000000000E+00 0.  1.
         13    1    3    3    0    0 -0.45547347435E+02 -0.11076222782E+02 -0.29175507421E+02  0.55212804699E+02  0.00000000000E+00 0. -1.
         21    1    1    2  502  501  0.14559395396E+02 -0.26218531029E+02 -0.10851009426E+03  0.11257809699E+03  0.00000000000E+00 0.  1.
<scales pt_clust_5="13000.00000" pt_clust_6="13000.00000" pt_clust_7="13000.00000" pt_clust_8="13000.00000" pt_clust_9="29.98979"></scales>
<clustering>
<clus scale="   29.990">  2  9  1 -1</clus>
<clus scale="   91.640">  7  8 -1 -1</clus>
<clus scale="   92.361">  5  6 -1 -1</clus>
<clus scale="   98.325">  2  7  1 -1</clus>
<clus scale="   98.997">  1  5  2 -1</clus>
</clustering>
</event>
<event>
 9    1  0.1540541E-005  0.1857689E+03  0.7546771E-02  0.1163064E+00
          1   -1    0    0  502    0  0.00000000000E+00  0.00000000000E+00  0.10464017137E+04  0.10464017137E+04  0.00000000000E+00 0. -1.
         -1   -1    0    0    0  501 -0.00000000000E+00 -0.00000000000E+00 -0.96942652766E+02  0.96942652766E+02  0.00000000000E+00 0.  1.
         23    2    1    2    0    0  0.11366515884E+03 -0.70593901923E+02  0.12571844085E+02  0.15808245977E+03  0.83239086367E+02 0.  0.
         23    2    1    2    0    0 -0.14980489176E+03  0.72529624932E+02  0.92920760762E+03  0.94826455926E+03  0.89871264528E+02 0.  0.
        -13    1    3    3    0    0  0.42925952834E+02 -0.60266436867E+02 -0.23994377449E+02  0.77784387820E+02  0.00000000000E+00 0.  1.
         13    1    3    3    0    0  0.70739206009E+02 -0.10327465055E+02  0.36566221534E+02  0.80298071948E+02  0.00000000000E+00 0. -1.
        -13    1    4    4    0    0 -0.19156759364E+02 -0.21026978489E+02  0.13531217132E+03  0.13826966031E+03  0.00000000000E+00 0.  1.
         13    1    4    4    0    0 -0.13064813239E+03  0.93556603421E+02  0.79389543630E+03  0.80999489895E+03  0.00000000000E+00 0. -1.
         21    1    1    2  502  501  0.36139732914E+02 -0.19357230091E+01  0.76796092037E+01  0.36997347421E+02  0.00000000000E+00 0.  1.
<scales pt_clust_5="13000.00000" pt_clust_6="13000.00000" pt_clust_7="13000.00000" pt_clust_8="13000.00000" pt_clust_9="36.19154"></scales>
<clustering>
<clus scale="   36.192">  2  9  1 -1</clus>
<clus scale="   83.239">  5  6 -1 -1</clus>
<clus scale="   89.871">  7  8 -1 -1</clus>
<clus scale="  182.653">  2  5  1 -1</clus>
<clus scale="  185.769">  1  5  2 -1</clus>
</clustering>
</event>
<event>
 9    1  0.1175034E-005  0.1153352E+03  0.7546771E-02  0.1251298E+00
          2   -1    0    0  502    0  0.00000000000E+00  0.00000000000E+00  0.42183475552E+03  0.42183475552E+03  0.00000000000E+00 0. -1.
         -2   -1    0    0    0  501 -0.00000000000E+00 -0.00000000000E+00 -0.68454242851E+02  0.68454242851E+02  0.00000000000E+00 0.  1.
         23    2    1    2    0    0  0.60569361203E+02 -0.41349894847E+02  0.46984490547E+02  0.12723704487E+03  0.92753770351E+02 0.  0.
         23    2    1    2    0    0 -0.69785234629E+02  0.13886148644E+01  0.30014956361E+03  0.32156877059E+03  0.91895628090E+02 0.  0.
        -13    1    3    3    0    0 -0.72109452212E+01  0.20636099880E+02 -0.39438596482E+01  0.22212617544E+02  0.00000000000E+00 0. -1.
         13    1    3    3    0    0  0.67780306424E+02 -0.61985994727E+02  0.50928350195E+02  0.10502442732E+03  0.00000000000E+00 0.  1.
        -13    1    4    4    0    0 -0.53817307578E+02 -0.37580141976E+02  0.12230401786E+03  0.13880505196E+03  0.00000000000E+00 0. -1.
         13    1    4    4    0    0 -0.15967927050E+02  0.38968756841E+02  0.17784554575E+03  0.18276371863E+03  0.00000000000E+00 0.  1.
         21    1    1    2  502  501  0.92158734257E+01  0.39961279983E+02  0.62464585197E+01  0.41483182917E+02  0.00000000000E+00 0.  1.
<scales pt_clust_5="13000.00000" pt_clust_6="13000.00000" pt_clust_7="13000.00000" pt_clust_8="13000.00000" pt_clust_9="41.01020"></scales>
<clustering>
<clus scale="   41.010">  2  9  1 -1</clus>
<clus scale="   91.896">  7  8 -1 -1</clus>
<clus scale="   92.754">  5  6 -1 -1</clus>
<clus scale="  114.646">  1  7  2 -1</clus>
<clus scale="  114.646">  1  5  2 -1</clus>
</clustering>
</event>
<event>
 9    1  0.1175034E-005  0.1261564E+03  0.7546771E-02  0.1233784E+00
          1   -1    0    0  502    0  0.00000000000E+00  0.00000000000E+00  0.78306029737E+03  0.78306029737E+03  0.00000000000E+00 0. -1.
         -1   -1    0    0    0  501 -0.00000000000E+00 -0.00000000000E+00 -0.33561396913E+02  0.33561396913E+02  0.00000000000E+00 0.  1.
         23    2    1    2    0    0 -0.14919024830E+02 -0.73439607964E+02  0.18832359610E+03  0.22316102643E+03  0.93376193708E+02 0.  0.
         23    2    1    2    0    0  0.52184335296E+02  0.74911781495E+02  0.52780243373E+03  0.54341449764E+03  0.91591087631E+02 0.  0.
        -11    1    3    3    0    0 -0.22928159149E+02 -0.11006950045E+01  0.12375794771E+03  0.12586874764E+03  0.00000000000E+00 0. -1.
         11    1    3    3    0    0  0.80091343191E+01 -0.72338912959E+02  0.64565648389E+02  0.97292278792E+02  0.00000000000E+00 0.  1.
        -13    1    4    4    0    0  0.58088270834E+02  0.53720144449E+01  0.27744876715E+03  0.28351529789E+03  0.00000000000E+00 0.  1.
         13    1    4    4    0    0 -0.59039355374E+01  0.69539767050E+02  0.25035366659E+03  0.25989919975E+03  0.00000000000E+00 0. -1.
         21    1    1    2  502  501 -0.37265310467E+02 -0.14721735312E+01  0.33372870628E+02  0.50046170214E+02  0.00000000000E+00 0. -1.
<scales pt_clust_5="13000.00000" pt_clust_6="13000.00000" pt_clust_7="13000.00000" pt_clust_8="13000.00000" pt_clust_9="37.29438"></scales>
<clustering>
<clus scale="   37.294">  2  9  1 -1</clus>
<clus scale="   91.591">  7  8 -1 -1</clus>
<clus scale="   93.376">  5  6 -1 -1</clus>
<clus scale="  124.841">  1  7  2 -1</clus>
<clus scale="  124.841">  1  5  2 -1</clus>
</clustering>
</event>
<event>
 9    1  0.1175034E-005  0.1543792E+03  0.7546771E-02  0.1195258E+00
         -1   -1    0    0    0  501 -0.00000000000E+00  0.00000000000E+00  0.88801240467E+02  0.88801240467E+02  0.00000000000E+00 0.  1.
          1   -1    0    0  502    0  0.00000000000E+00 -0.00000000000E+00 -0.10402904248E+04  0.10402904248E+04  0.00000000000E+00 0. -1.
         23    2    1    2    0    0 -0.10766852579E+03 -0.55657501479E+01 -0.19149135898E+03  0.23780261400E+03  0.90871632762E+02 0.  0.
         23    2    1    2    0    0  0.13011154502E+03 -0.33039284475E+01 -0.81545859645E+03  0.83080552102E+03  0.91242321041E+02 0.  0.
        -11    1    4    4    0    0  0.59289532246E+02 -0.45134815054E+02 -0.31963228889E+03  0.32820298638E+03  0.00000000000E+00 0. -1.
         11    1    4    4    0    0  0.70822012775E+02  0.41830886607E+02 -0.49582630756E+03  0.50260253465E+03  0.00000000000E+00 0.  1.
        -13    1    3    3    0    0 -0.40414582193E+02 -0.45039595187E+02 -0.61956213938E+02  0.86605288718E+02  0.00000000000E+00 0. -1.
         13    1    3    3    0    0 -0.67253943598E+02  0.39473845039E+02 -0.12953514504E+03  0.15119732528E+03  0.00000000000E+00 0.  1.
         21    1    1    2  502  501 -0.22443019230E+02  0.88696785954E+01  0.55460771050E+02  0.60483530287E+02  0.00000000000E+00 0.  1.
<scales pt_clust_5="13000.00000" pt_clust_6="13000.00000" pt_clust_7="13000.00000" pt_clust_8="13000.00000" pt_clust_9="24.13214"></scales>
<clustering>
<clus scale="   24.132">  1  9  2 -1</clus>
<clus scale="   90.872">  7  8 -1 -1</clus>
<clus scale="   91.242">  5  6 -1 -1</clus>
<clus scale="  154.160">  1  7  2 -1</clus>
<clus scale="  154.379">  2  5  1 -1</clus>
</clustering>
</event>
<event>
 9    1  0.1175034E-005  0.1232311E+03  0.7546771E-02  0.1238354E+00
          2   -1    0    0  502    0  0.00000000000E+00  0.00000000000E+00  0.35362139978E+03  0.35362139978E+03  0.00000000000E+00 0. -1.
         -2   -1    0    0    0  501 -0.00000000000E+00 -0.00000000000E+00 -0.80480975500E+02  0.80480975500E+02  0.00000000000E+00 0.  1.
         23    2    1    2    0    0 -0.53703972872E+02 -0.67111439633E+02  0.14658124608E+03  0.19288836241E+03  0.91278675603E+02 0.  0.
         23    2    1    2    0    0  0.19985156519E+02  0.81255288345E+02  0.15302190936E+03  0.19607773950E+03  0.89604390618E+02 0.  0.
        -13    1    4    4    0    0 -0.20903872312E+02 -0.51871016328E+01  0.55329485048E+02  0.59373645809E+02  0.00000000000E+00 0. -1.
         13    1    4    4    0    0  0.40889028831E+02  0.86442389978E+02  0.97692424312E+02  0.13670409369E+03  0.00000000000E+00 0.  1.
        -13    1    3    3    0    0 -0.50986186447E+02 -0.25448081799E+02  0.21303147992E+02  0.60836010636E+02  0.00000000000E+00 0.  1.
         13    1    3    3    0    0 -0.27177864243E+01 -0.41663357834E+02  0.12527809809E+03  0.13205235178E+03  0.00000000000E+00 0. -1.
         21    1    1    2  502  501  0.33718816352E+02 -0.14143848712E+02 -0.26462731164E+02  0.45136273365E+02  0.00000000000E+00 0.  1.
<scales pt_clust_5="13000.00000" pt_clust_6="13000.00000" pt_clust_7="13000.00000" pt_clust_8="13000.00000" pt_clust_9="36.56511"></scales>
<clustering>
<clus scale="   36.565">  2  9  1 -1</clus>
<clus scale="   89.604">  5  6 -1 -1</clus>
<clus scale="   91.279">  7  8 -1 -1</clus>
<clus scale="  121.996">  1  5  2 -1</clus>
<clus scale="  121.996">  1  5  2 -1</clus>
</clustering>
</event>
<event>
 9    1  0.1175034E-005  0.1142041E+03  0.7546771E-02  0.1255484E+00
         -1   -1    0    0    0  501 -0.00000000000E+00  0.00000000000E+00  0.10954664845E+03  0.10954664845E+03  0.00000000000E+00 0.  1.
          1   -1    0    0  502    0  0.00000000000E+00 -0.00000000000E+00 -0.19182561362E+03  0.19182561362E+03  0.00000000000E+00 0. -1.
         23    2    1    2    0    0  0.58634581376E+02  0.74752394281E+02  0.20257538941E+02  0.12331858768E+03  0.75968227572E+02 0.  0.
         23    2    1    2    0    0 -0.21963875531E+02 -0.43753939638E+02 -0.60976542753E+02  0.11454875138E+03  0.83704591353E+02 0.  0.
        -11    1    3    3    0    0  0.55628909443E+02  0.98128562333E+01  0.12438210949E+02  0.57840961307E+02  0.00000000000E+00 0. -1.
         11    1    3    3    0    0  0.30056719328E+01  0.64939538048E+02  0.78193279920E+01  0.65477626377E+02  0.00000000000E+00 0.  1.
        -11    1    4    4    0    0 -0.15708695452E+02  0.13861348932E+02  0.97526799025E+01  0.23108761808E+02  0.00000000000E+00 0.  1.
         11    1    4    4    0    0 -0.62551800793E+01 -0.57615288570E+02 -0.70729222656E+02  0.91439989569E+02  0.00000000000E+00 0. -1.
         21    1    1    2  502  501 -0.36670705845E+02 -0.30998454643E+02 -0.41559961364E+02  0.63504923006E+02  0.00000000000E+00 0.  1.
<scales pt_clust_5="13000.00000" pt_clust_6="13000.00000" pt_clust_7="13000.00000" pt_clust_8="13000.00000" pt_clust_9="48.01713"></scales>
<clustering>
<clus scale="   48.017">  2  9  1 -1</clus>
<clus scale="   75.968">  5  6 -1 -1</clus>
<clus scale="   83.705">  7  8 -1 -1</clus>
<clus scale="  108.661">  1  5  2 -1</clus>
<clus scale="   48.017">  2  5  1 -1</clus>
</clustering>
</event>
<event>
 9    1  0.1175034E-005  0.1569693E+03  0.7546771E-02  0.1215185E+00
         -2   -1    0    0    0  501 -0.00000000000E+00  0.00000000000E+00  0.23003048600E+03  0.23003048600E+03  0.00000000000E+00 0.  1.
          2   -1    0    0  502    0  0.00000000000E+00 -0.00000000000E+00 -0.14712591868E+03  0.14712591868E+03  0.00000000000E+00 0. -1.
         23    2    1    2    0    0  0.67822084980E+02  0.37230156218E+02 -0.12927505771E+02  0.14920435443E+03  0.12692083845E+03 0.  0.
         23    2    1    2    0    0  0.21121509480E+01  0.29736696151E+02  0.56949425845E+01  0.95664261827E+02  0.90722027867E+02 0.  0.
        -11    1    4    4    0    0  0.40096611759E+02  0.25111447685E+02 -0.18042487958E+02  0.50634518376E+02  0.00000000000E+00 0. -1.
         11    1    4    4    0    0 -0.37984460811E+02  0.46252484660E+01  0.23737430543E+02  0.45029743451E+02  0.00000000000E+00 0.  1.
        -11    1    3    3    0    0  0.44166616070E+02  0.55336747571E+02 -0.60463219883E+02  0.93105566780E+02  0.00000000000E+00 0. -1.
         11    1    3    3    0    0  0.23655468910E+02 -0.18106591353E+02  0.47535714111E+02  0.56098787650E+02  0.00000000000E+00 0.  1.
         21    1    1    2  502  501 -0.69934235928E+02 -0.66966852369E+02  0.90137130503E+02  0.13228778842E+03  0.00000000000E+00 0.  1.
<scales pt_clust_5="13000.00000" pt_clust_6="13000.00000" pt_clust_7="13000.00000" pt_clust_8="13000.00000" pt_clust_9="92.36047"></scales>
<clustering>
<clus scale="   90.722">  5  6 -1 -1</clus>
<clus scale="   95.495">  2  5  1 -1</clus>
<clus scale="   92.360">  1  9  2 -1</clus>
<clus scale="  126.921">  7  8 -1 -1</clus>
<clus scale="   95.495">  2  5  1 -1</clus>
</clustering>
</event>
<event>
 9    1  0.1175034E-005  0.1122543E+03  0.7546771E-02  0.1257574E+00
         -1   -1    0    0    0  501 -0.00000000000E+00  0.00000000000E+00  0.76976000068E+02  0.76976000068E+02  0.00000000000E+00 0.  1.
          1   -1    0    0  502    0  0.00000000000E+00 -0.00000000000E+00 -0.50627125943E+03  0.50627125943E+03  0.00000000000E+00 0. -1.
         23    2    1    2    0    0  0.35769807291E+02  0.45723440147E+02 -0.10163007136E+03  0.14731630129E+03  0.89461215777E+02 0.  0.
         23    2    1    2    0    0 -0.22634030353E+02 -0.62598066081E+02 -0.37073373428E+03  0.38784560374E+03  0.92465633608E+02 0.  0.
        -11    1    3    3    0    0  0.19202694187E+02 -0.26399493936E+02 -0.30954923747E+02  0.44987598828E+02  0.00000000000E+00 0.  1.
         11    1    3    3    0    0  0.16567113104E+02  0.72122934083E+02 -0.70675147613E+02  0.10232870246E+03  0.00000000000E+00 0. -1.
        -13    1    4    4    0    0  0.31972885693E+02 -0.39600638676E+02 -0.12279342660E+03  0.13292366840E+03  0.00000000000E+00 0. -1.
         13    1    4    4    0    0 -0.54606916046E+02 -0.22997427405E+02 -0.24794030767E+03  0.25492193534E+03  0.00000000000E+00 0.  1.
         21    1    1    2  502  501 -0.13135776939E+02  0.16874625934E+02  0.43068546277E+02  0.48085354471E+02  0.00000000000E+00 0.  1.
<scales pt_clust_5="13000.00000" pt_clust_6="13000.00000" pt_clust_7="13000.00000" pt_clust_8="13000.00000" pt_clust_9="21.38461"></scales>
<clustering>
<clus scale="   21.385">  1  9  2 -1</clus>
<clus scale="   89.461">  5  6 -1 -1</clus>
<clus scale="   92.466">  7  8 -1 -1</clus>
<clus scale="  109.793">  1  5  2 -1</clus>
<clus scale="  112.254">  2  5  1 -1</clus>
</clustering>
</event>
<event>
 9    1  0.1175034E-005  0.2088741E+03  0.7546771E-02  0.1142551E+00
         -2   -1    0    0    0  501 -0.00000000000E+00  0.00000000000E+00  0.46524204627E+03  0.46524204627E+03  0.00000000000E+00 0.  1.
          2   -1    0    0  502    0  0.00000000000E+00 -0.00000000000E+00 -0.12389124175E+03  0.12389124175E+03  0.00000000000E+00 0. -1.
         23    2    1    2    0    0 -0.18346930009E+03  0.76378288863E+02  0.16022311071E+03  0.27160452998E+03  0.92752080370E+02 0.  0.
         23    2    1    2    0    0  0.16902648349E+03 -0.59398561248E+02  0.84380176560E+02  0.21824639207E+03  0.91724218494E+02 0.  0.
        -13    1    3    3    0    0 -0.14674877259E+03  0.81078108472E+02  0.85468200098E+02  0.18818521503E+03  0.00000000000E+00 0. -1.
         13    1    3    3    0    0 -0.36720527498E+02 -0.46998196090E+01  0.74754910617E+02  0.83419314942E+02  0.00000000000E+00 0.  1.
        -13    1    4    4    0    0 -0.67824842716E+00 -0.27637093991E+02  0.44915431157E+01  0.28007908611E+02  0.00000000000E+00 0. -1.
         13    1    4    4    0    0  0.16970473191E+03 -0.31761467257E+02  0.79888633445E+02  0.19023848346E+03  0.00000000000E+00 0.  1.
         21    1    1    2  502  501  0.14442816601E+02 -0.16979727615E+02  0.96747517241E+02  0.99282365974E+02  0.00000000000E+00 0. -1.
<scales pt_clust_5="13000.00000" pt_clust_6="13000.00000" pt_clust_7="13000.00000" pt_clust_8="13000.00000" pt_clust_9="22.29139"></scales>
<clustering>
<clus scale="   22.291">  1  9  2 -1</clus>
<clus scale="   91.724">  7  8 -1 -1</clus>
<clus scale="   92.752">  5  6 -1 -1</clus>
<clus scale="  208.420">  2  7  1 -1</clus>
<clus scale="  208.420">  2  5  1 -1</clus>
</clustering>
</event>
<event>
 9    1  0.1175034E-005  0.1457894E+03  0.7546771E-02  0.1205965E+00
         -2   -1    0    0    0  501 -0.00000000000E+00  0.00000000000E+00  0.29723270136E+03  0.29723270136E+03  0.00000000000E+00 0.  1.
          2   -1    0    0  502    0  0.00000000000E+00 -0.00000000000E+00 -0.27066388110E+03  0.27066388110E+03  0.00000000000E+00 0. -1.
         23    2    1    2    0    0  0.68708707165E+02  0.12882759499E+03  0.13867245943E+03  0.22088864776E+03  0.90798171974E+02 0.  0.
         23    2    1    2    0    0 -0.11355575119E+03 -0.20878376749E+02 -0.16268420248E+03  0.21963963228E+03  0.91894521522E+02 0.  0.
        -11    1    4    4    0    0 -0.47823861316E+02  0.30593105916E+02 -0.33781062961E+02  0.66062243798E+02  0.00000000000E+00 0. -1.
         11    1    4    4    0    0 -0.65731889878E+02 -0.51471482665E+02 -0.12890313952E+03  0.15357738848E+03  0.00000000000E+00 0.  1.
        -13    1    3    3    0    0 -0.13057282081E+02  0.21007443853E+02 -0.30704950747E+01  0.24924551201E+02  0.00000000000E+00 0. -1.
         13    1    3    3    0    0  0.81765989246E+02  0.10782015114E+03  0.14174295450E+03  0.19596409656E+03  0.00000000000E+00 0.  1.
         21    1    1    2  502  501  0.44847044029E+02 -0.10794921824E+03  0.50580563303E+02  0.12736830242E+03  0.00000000000E+00 0.  1.
<scales pt_clust_5="13000.00000" pt_clust_6="13000.00000" pt_clust_7="13000.00000" pt_clust_8="13000.00000" pt_clust_9="116.89436"></scales>
<clustering>
<clus scale="   90.798">  7  8 -1 -1</clus>
<clus scale="   91.895">  5  6 -1 -1</clus>
<clus scale="  116.894">  1  9  2 -1</clus>
<clus scale="  145.101">  1  7  2 -1</clus>
<clus scale="  145.789">  2  5  1 -1</clus>
</clustering>
</event>
<event>
 9    1  0.1175034E-005  0.1153855E+03  0.7546771E-02  0.1252254E+00
          2   -1    0    0  502    0  0.00000000000E+00  0.00000000000E+00  0.50709109839E+03  0.50709109839E+03  0.00000000000E+00 0. -1.
         -2   -1    0    0    0  501 -0.00000000000E+00 -0.00000000000E+00 -0.10377248493E+03  0.10377248493E+03  0.00000000000E+00 0.  1.
         23    2    1    2    0    0 -0.44387551778E+02  0.17047115628E+02  0.82471464158E+01  0.10679043248E+03  0.95264485201E+02 0.  0.
         23    2    1    2    0    0  0.49517323443E+02 -0.46897063472E+02  0.43738470909E+03  0.45203715949E+03  0.91547309765E+02 0.  0.
        -11    1    4    4    0    0 -0.23896691515E+02 -0.30029037935E+02  0.12912079470E+03  0.13470328359E+03  0.00000000000E+00 0.  1.
         11    1    4    4    0    0  0.73414014958E+02 -0.16868025536E+02  0.30826391439E+03  0.31733387590E+03  0.00000000000E+00 0. -1.
        -11    1    3    3    0    0 -0.35666953577E+02 -0.36923349977E+02 -0.98338792030E+00  0.51346201445E+02  0.00000000000E+00 0. -1.
         11    1    3    3    0    0 -0.87205982007E+01  0.53970465606E+02  0.92305343361E+01  0.55444231033E+02  0.00000000000E+00 0.  1.
         21    1    1    2  502  501 -0.51297716658E+01  0.29849947843E+02 -0.42313242055E+02  0.52035991360E+02  0.00000000000E+00 0.  1.
<scales pt_clust_5="13000.00000" pt_clust_6="13000.00000" pt_clust_7="13000.00000" pt_clust_8="13000.00000" pt_clust_9="30.28752"></scales>
<clustering>
<clus scale="   30.288">  2  9  1 -1</clus>
<clus scale="   91.547">  5  6 -1 -1</clus>
<clus scale="   95.264">  7  8 -1 -1</clus>
<clus scale="  112.336">  1  5  2 -1</clus>
<clus scale="  112.336">  1  5  2 -1</clus>
</clustering>
</event>
<event>
 9    1  0.1175034E-005  0.1067358E+03  0.7546771E-02  0.1269422E+00
          1   -1    0    0  502    0  0.00000000000E+00  0.00000000000E+00  0.57288288043E+02  0.57288288043E+02  0.00000000000E+00 0. -1.
         -1   -1    0    0    0  501 -0.00000000000E+00 -0.00000000000E+00 -0.34848866423E+03  0.34848866423E+03  0.00000000000E+00 0.  1.
         23    2    1    2    0    0 -0.80736168164E+01  0.49667185447E+02 -0.10029409074E+03  0.14461041198E+03  0.91220907784E+02 0.  0.
         23    2    1    2    0    0 -0.33567023382E+02 -0.55537927478E+02 -0.57503704968E+02  0.12129282222E+03  0.84817841228E+02 0.  0.
        -11    1    3    3    0    0  0.12601416318E+02 -0.21627622048E+02 -0.46928264971E+02  0.53186575204E+02  0.00000000000E+00 0.  1.
         11    1    3    3    0    0 -0.20675033134E+02  0.71294807496E+02 -0.53365825767E+02  0.91423836775E+02  0.00000000000E+00 0. -1.
        -13    1    4    4    0    0 -0.28277987981E+02  0.17695265952E+02 -0.18856111076E+02  0.38318663420E+02  0.00000000000E+00 0. -1.
         13    1    4    4    0    0 -0.52890354016E+01 -0.73233193431E+02 -0.38647593892E+02  0.82974158804E+02  0.00000000000E+00 0.  1.
         21    1    1    2  502  501  0.41640640199E+02  0.58707420307E+01 -0.13340258048E+03  0.13987371807E+03  0.00000000000E+00 0.  1.
<scales pt_clust_5="13000.00000" pt_clust_6="13000.00000" pt_clust_7="13000.00000" pt_clust_8="13000.00000" pt_clust_9="42.05245"></scales>
<clustering>
<clus scale="   42.052">  2  9  1 -1</clus>
<clus scale="   84.818">  7  8 -1 -1</clus>
<clus scale="   91.221">  5  6 -1 -1</clus>
<clus scale="  101.318">  1  7  2 -1</clus>
<clus scale="  101.318">  1  5  2 -1</clus>
</clustering>
</event>
<event>
 9    1  0.1175034E-005  0.1098002E+03  0.7546771E-02  0.1262684E+00
         -1   -1    0    0    0  501 -0.00000000000E+00  0.00000000000E+00  0.37928568824E+02  0.37928568824E+02  0.00000000000E+00 0.  1.
          1   -1    0    0  502    0  0.00000000000E+00 -0.00000000000E+00 -0.48819404044E+03  0.48819404044E+03  0.00000000000E+00 0. -1.
         23    2    1    2    0    0  0.10007188229E+02  0.58472888013E+02 -0.10054995188E+03  0.14598493926E+03  0.87647516909E+02 0.  0.
         23    2    1    2    0    0 -0.29427960010E+02 -0.53347698877E+02 -0.34065882141E+03  0.35810456480E+03  0.92078580143E+02 0.  0.
        -11    1    3    3    0    0  0.47980147522E+02  0.23125157621E+02 -0.42576004792E+02  0.68187855629E+02  0.00000000000E+00 0.  1.
         11    1    3    3    0    0 -0.37972959293E+02  0.35347730392E+02 -0.57973947085E+02  0.77797083634E+02  0.00000000000E+00 0. -1.
        -13    1    4    4    0    0 -0.15321288447E+02  0.24809687942E+02 -0.12299017845E+03  0.12639955099E+03  0.00000000000E+00 0. -1.
         13    1    4    4    0    0 -0.14106671563E+02 -0.78157386819E+02 -0.21766864296E+03  0.23170501381E+03  0.00000000000E+00 0.  1.
         21    1    1    2  502  501  0.19420771781E+02 -0.51251891358E+01 -0.90566983344E+01  0.22033105205E+02  0.00000000000E+00 0. -1.
<scales pt_clust_5="13000.00000" pt_clust_6="13000.00000" pt_clust_7="13000.00000" pt_clust_8="13000.00000" pt_clust_9="20.08567"></scales>
<clustering>
<clus scale="   20.086">  1  9  2 -1</clus>
<clus scale="   87.648">  5  6 -1 -1</clus>
<clus scale="   92.079">  7  8 -1 -1</clus>
<clus scale="  106.112">  1  5  2 -1</clus>
<clus scale="  109.800">  2  5  1 -1</clus>
</clustering>
</event>
<event>
 9    1  0.1175034E-005  0.9230075E+02  0.7546771E-02  0.1298660E+00
          1   -1    0    0  502    0  0.00000000000E+00  0.00000000000E+00  0.12757358030E+03  0.12757358030E+03  0.00000000000E+00 0. -1.
         -1   -1    0    0    0  501 -0.00000000000E+00 -0.00000000000E+00 -0.10593989348E+03  0.10593989348E+03  0.00000000000E+00 0.  1.
         23    2    1    2    0    0  0.19164553855E+02  0.13792170755E+02  0.21634414658E+02  0.96157156999E+02  0.90667782844E+02 0.  0.
         23    2    1    2    0    0 -0.15233677405E+02  0.17286498981E+02  0.27725858406E+02  0.95522131150E+02  0.88458274575E+02 0.  0.
        -11    1    4    4    0    0  0.18226344749E+02  0.12047832143E+02  0.50286779981E+02  0.54828005099E+02  0.00000000000E+00 0.  1.
         11    1    4    4    0    0 -0.33460022153E+02  0.52386668374E+01 -0.22560921575E+02  0.40694126051E+02  0.00000000000E+00 0. -1.
        -13    1    3    3    0    0  0.25568695292E+02  0.45195277374E+02  0.33709059773E+02  0.61908577649E+02  0.00000000000E+00 0.  1.
         13    1    3    3    0    0 -0.64041414369E+01 -0.31403106618E+02 -0.12074645115E+02  0.34248579350E+02  0.00000000000E+00 0. -1.
         21    1    1    2  502  501 -0.39308764501E+01 -0.31078669736E+02 -0.27726586250E+02  0.41834185629E+02  0.00000000000E+00 0.  1.
<scales pt_clust_5="13000.00000" pt_clust_6="13000.00000" pt_clust_7="13000.00000" pt_clust_8="13000.00000" pt_clust_9="31.32627"></scales>
<clustering>
<clus scale="   31.326">  2  9  1 -1</clus>
<clus scale="   88.458">  5  6 -1 -1</clus>
<clus scale="   90.131">  1  5  2 -1</clus>
<clus scale="   90.668">  7  8 -1 -1</clus>
<clus scale="   90.131">  1  5  2 -1</clus>
</clustering>
</event>
<event>
 9    1  0.1175034E-005  0.1162484E+03  0.7546771E-02  0.1249837E+00
         -3   -1    0    0    0  501 -0.00000000000E+00  0.00000000000E+00  0.50848498100E+02  0.50848498100E+02  0.00000000000E+00 0.  1.
          3   -1    0    0  502    0  0.00000000000E+00 -0.00000000000E+00 -0.43310081352E+03  0.43310081352E+03  0.00000000000E+00 0. -1.
         23    2    1    2    0    0 -0.68442232522E+02 -0.48178249469E+02 -0.18511331190E+03  0.22313168657E+03  0.92278537016E+02 0.  0.
         23    2    1    2    0    0  0.65469486517E+02  0.16446796349E+01 -0.17805514232E+03  0.21043504772E+03  0.91051177725E+02 0.  0.
        -11    1    4    4    0    0  0.35070988478E+02  0.16503518557E+02 -0.11431464477E+02  0.40410626544E+02  0.00000000000E+00 0.  1.
         11    1    4    4    0    0  0.30398498039E+02 -0.14858838922E+02 -0.16662367784E+03  0.17002442117E+03  0.00000000000E+00 0. -1.
        -13    1    3    3    0    0 -0.90441296424E+02 -0.29069384939E+02 -0.13331428661E+03  0.16369898061E+03  0.00000000000E+00 0. -1.
         13    1    3    3    0    0  0.21999063902E+02 -0.19108864530E+02 -0.51799025287E+02  0.59432705953E+02  0.00000000000E+00 0.  1.
         21    1    1    2  502  501  0.29727460047E+01  0.46533569834E+02 -0.19083861196E+02  0.50382577330E+02  0.00000000000E+00 0. -1.
<scales pt_clust_5="13000.00000" pt_clust_6="13000.00000" pt_clust_7="13000.00000" pt_clust_8="13000.00000" pt_clust_9="46.62843"></scales>
<clustering>
<clus scale="   46.628">  1  9  2 -1</clus>
<clus scale="   91.051">  5  6 -1 -1</clus>
<clus scale="   92.279">  7  8 -1 -1</clus>
<clus scale="  115.277">  2  5  1 -1</clus>
<clus scale="  115.277">  2  5  1 -1</clus>
</clustering>
</event>
<event>
 9    1  0.1175034E-005  0.9324968E+02  0.7546771E-02  0.1295516E+00
         -1   -1    0    0    0  501 -0.00000000000E+00  0.00000000000E+00  0.34863247004E+03  0.34863247004E+03  0.00000000000E+00 0.  1.
          1   -1    0    0  502    0  0.00000000000E+00 -0.00000000000E+00 -0.10376586199E+03  0.10376586199E+03  0.00000000000E+00 0. -1.
         23    2    1    2    0    0  0.47735596694E+01  0.37839844263E+02  0.26809222906E+03  0.28585122783E+03  0.91557853211E+02 0.  0.
         23    2    1    2    0    0  0.12901825614E+02 -0.11327378190E+02 -0.65662532847E+02  0.11347901973E+03  0.90945880052E+02 0.  0.
        -11    1    4    4    0    0 -0.21641012663E+02  0.31057609504E+02 -0.28035074419E+02  0.47104924741E+02  0.00000000000E+00 0.  1.
         11    1    4    4    0    0  0.34542838277E+02 -0.42384987693E+02 -0.37627458428E+02  0.66374094990E+02  0.00000000000E+00 0. -1.
        -13    1    3    3    0    0 -0.42951227917E+02  0.10713940546E+02  0.12265597311E+03  0.13039970951E+03  0.00000000000E+00 0.  1.
         13    1    3    3    0    0  0.47724787586E+02  0.27125903717E+02  0.14543625595E+03  0.15545151832E+03  0.00000000000E+00 0. -1.
         21    1    1    2  502  501 -0.17675385283E+02 -0.26512466073E+02  0.42436911832E+02  0.53068084458E+02  0.00000000000E+00 0. -1.
<scales pt_clust_5="13000.00000" pt_clust_6="13000.00000" pt_clust_7="13000.00000" pt_clust_8="13000.00000" pt_clust_9="31.86424"></scales>
<clustering>
<clus scale="   31.864">  1  9  2 -1</clus>
<clus scale="   90.946">  5  6 -1 -1</clus>
<clus scale="   91.558">  7  8 -1 -1</clus>
<clus scale="   92.649">  2  5  1 -1</clus>
<clus scale="   92.649">  2  5  1 -1</clus>
</clustering>
</event>
<event>
 9    1  0.1175034E-005  0.1110075E+03  0.7546771E-02  0.1259182E+00
         -2   -1    0    0    0  501 -0.00000000000E+00  0.00000000000E+00  0.24613141223E+03  0.24613141223E+03  0.00000000000E+00 0.  1.
          2   -1    0    0  502    0  0.00000000000E+00 -0.00000000000E+00 -0.47696994786E+03  0.47696994786E+03  0.00000000000E+00 0. -1.
         23    2    1    2    0    0 -0.77904927334E+02  0.17997258275E+02  0.16849531785E+03  0.20751275764E+03  0.90982379814E+02 0.  0.
         23    2    1    2    0    0  0.60911057940E+02 -0.57714292489E+01 -0.44860617985E+03  0.46205333709E+03  0.92208000388E+02 0.  0.
        -11    1    4    4    0    0 -0.22476382464E+02 -0.93635069494E+01 -0.63545302777E+02  0.68050485201E+02  0.00000000000E+00 0.  1.
         11    1    4    4    0    0  0.83387440404E+02  0.35920777005E+01 -0.38506087708E+03  0.39400285189E+03  0.00000000000E+00 0. -1.
        -11    1    3    3    0    0 -0.95214161886E+02  0.29700223994E+02  0.14594591978E+03  0.17677118382E+03  0.00000000000E+00 0.  1.
         11    1    3    3    0    0  0.17309234552E+02 -0.11702965719E+02  0.22549398065E+02  0.30741573813E+02  0.00000000000E+00 0. -1.
         21    1    1    2  502  501  0.16993869394E+02 -0.12225829026E+02  0.49272326370E+02  0.53535265371E+02  0.00000000000E+00 0. -1.
<scales pt_clust_5="13000.00000" pt_clust_6="13000.00000" pt_clust_7="13000.00000" pt_clust_8="13000.00000" pt_clust_9="20.93472"></scales>
<clustering>
<clus scale="   20.935">  1  9  2 -1</clus>
<clus scale="   90.982">  7  8 -1 -1</clus>
<clus scale="   92.208">  5  6 -1 -1</clus>
<clus scale="  109.992">  1  7  2 -1</clus>
<clus scale="  111.007">  2  5  1 -1</clus>
</clustering>
</event>
<event>
 9    1  0.1175034E-005  0.1110950E+03  0.7546771E-02  0.1259307E+00
         -2   -1    0    0    0  501 -0.00000000000E+00  0.00000000000E+00  0.30668325963E+02  0.30668325963E+02  0.00000000000E+00 0.  1.
          2   -1    0    0  502    0  0.00000000000E+00 -0.00000000000E+00 -0.52098046701E+03  0.52098046701E+03  0.00000000000E+00 0. -1.
         23    2    1    2    0    0 -0.61024829801E+02 -0.41752752488E+02 -0.18287648884E+03  0.21785566208E+03  0.92465978289E+02 0.  0.
         23    2    1    2    0    0  0.36347648061E+02  0.29691426426E+02 -0.22834974771E+03  0.25007324570E+03  0.90500213334E+02 0.  0.
        -11    1    4    4    0    0  0.63026781724E+02  0.49673269556E+01 -0.16930095854E+03  0.18072040315E+03  0.00000000000E+00 0.  1.
         11    1    4    4    0    0 -0.26679133664E+02  0.24724099470E+02 -0.59048789171E+02  0.69352842553E+02  0.00000000000E+00 0. -1.
        -11    1    3    3    0    0 -0.52584318537E+01 -0.59573835850E+02 -0.95395311660E+02  0.11259200021E+03  0.00000000000E+00 0.  1.
         11    1    3    3    0    0 -0.55766397948E+02  0.17821083362E+02 -0.87481177175E+02  0.10526366188E+03  0.00000000000E+00 0. -1.
         21    1    1    2  502  501  0.24677181741E+02  0.12061326062E+02 -0.79085904495E+02  0.83719885182E+02  0.00000000000E+00 0.  1.
<scales pt_clust_5="13000.00000" pt_clust_6="13000.00000" pt_clust_7="13000.00000" pt_clust_8="13000.00000" pt_clust_9="27.46705"></scales>
<clustering>
<clus scale="   27.467">  2  9  1 -1</clus>
<clus scale="   90.500">  5  6 -1 -1</clus>
<clus scale="   92.466">  7  8 -1 -1</clus>
<clus scale="  109.464">  2  5  1 -1</clus>
<clus scale="   27.467">  2  5  1 -1</clus>
</clustering>
</event>
<event>
 9    1  0.1175034E-005  0.9915316E+02  0.7546771E-02  0.1282649E+00
          2   -1    0    0  502    0  0.00000000000E+00  0.00000000000E+00  0.18400195305E+03  0.18400195305E+03  0.00000000000E+00 0. -1.
         -2   -1    0    0    0  501 -0.00000000000E+00 -0.00000000000E+00 -0.91450205020E+02  0.91450205020E+02  0.00000000000E+00 0.  1.
         23    2    1    2    0    0  0.88955152974E+01  0.26205943239E+00  0.12900338265E+02  0.92565877384E+02  0.91229513103E+02 0.  0.
         23    2    1    2    0    0 -0.60510793322E+02 -0.38125048106E+01  0.72712816482E+02  0.13068583371E+03  0.90086303897E+02 0.  0.
        -11    1    4    4    0    0  0.20647997271E+02  0.80821726288E+01  0.32473286881E+02  0.39321440291E+02  0.00000000000E+00 0.  1.
         11    1    4    4    0    0 -0.81158790593E+02 -0.11894677439E+02  0.40239529600E+02  0.91364393416E+02  0.00000000000E+00 0. -1.
        -11    1    3    3    0    0 -0.20200744582E+02  0.15247207381E+02 -0.29586669161E+02  0.38934796861E+02  0.00000000000E+00 0. -1.
         11    1    3    3    0    0  0.29096259879E+02 -0.14985147949E+02  0.42487007426E+02  0.53631080522E+02  0.00000000000E+00 0.  1.
         21    1    1    2  502  501  0.51615278024E+02  0.35504453782E+01  0.69385932828E+01  0.52200446977E+02  0.00000000000E+00 0.  1.
<scales pt_clust_5="13000.00000" pt_clust_6="13000.00000" pt_clust_7="13000.00000" pt_clust_8="13000.00000" pt_clust_9="51.73725"></scales>
<clustering>
<clus scale="   51.737">  2  9  1 -1</clus>
<clus scale="   90.086">  5  6 -1 -1</clus>
<clus scale="   91.230">  7  8 -1 -1</clus>
<clus scale="   98.102">  1  5  2 -1</clus>
<clus scale="   98.102">  1  5  2 -1</clus>
</clustering>
</event>
<event>
 9    1  0.2001466E-005  0.1416755E+03  0.7546771E-02  0.1211933E+00
         -2   -1    0    0    0  501 -0.00000000000E+00  0.00000000000E+00  0.25726773227E+03  0.25726773227E+03  0.00000000000E+00 0.  1.
          2   -1    0    0  502    0  0.00000000000E+00 -0.00000000000E+00 -0.24754360118E+03  0.24754360118E+03  0.00000000000E+00 0. -1.
         23    2    1    2    0    0  0.47393788383E+02 -0.67107857762E+02  0.19207027954E+03  0.22640143914E+03  0.87275332204E+02 0.  0.
         23    2    1    2    0    0 -0.63728245856E+02  0.91273307655E+02 -0.19840595596E+03  0.24511273396E+03  0.91231699430E+02 0.  0.
        -11    1    3    3    0    0  0.51130335047E+02 -0.59459995041E+01  0.12692773703E+03  0.13696830472E+03  0.00000000000E+00 0. -1.
         11    1    3    3    0    0 -0.37365466633E+01 -0.61161858257E+02  0.65142542514E+02  0.89433134417E+02  0.00000000000E+00 0.  1.
        -11    1    4    4    0    0  0.22116771319E+02  0.21647554509E+02 -0.26524565923E+02  0.40759303076E+02  0.00000000000E+00 0.  1.
         11    1    4    4    0    0 -0.85845017176E+02  0.69625753146E+02 -0.17188139004E+03  0.20435343089E+03  0.00000000000E+00 0. -1.
         21    1    1    2  502  501  0.16334457473E+02 -0.24165449893E+02  0.16059807518E+02  0.33297160344E+02  0.00000000000E+00 0.  1.
<scales pt_clust_5="13000.00000" pt_clust_6="13000.00000" pt_clust_7="13000.00000" pt_clust_8="13000.00000" pt_clust_9="29.16819"></scales>
<clustering>
<clus scale="   29.168">  1  9  2 -1</clus>
<clus scale="   87.275">  5  6 -1 -1</clus>
<clus scale="   91.232">  7  8 -1 -1</clus>
<clus scale="  139.161">  1  5  2 -1</clus>
<clus scale="  141.675">  2  5  1 -1</clus>
</clustering>
</event>
<event>
 9    1  0.1175034E-005  0.9271413E+02  0.7546771E-02  0.1296545E+00
         -2   -1    0    0    0  501 -0.00000000000E+00  0.00000000000E+00  0.49998693951E+02  0.49998693951E+02  0.00000000000E+00 0.  1.
          2   -1    0    0  502    0  0.00000000000E+00 -0.00000000000E+00 -0.50424910453E+03  0.50424910453E+03  0.00000000000E+00 0. -1.
         23    2    1    2    0    0  0.16276662982E+02 -0.64905349249E+01 -0.14261357595E+03  0.17018437344E+03  0.91197763775E+02 0.  0.
         23    2    1    2    0    0  0.14778525144E+02 -0.27662480668E+02 -0.32257952684E+03  0.33662298136E+03  0.90960776136E+02 0.  0.
        -11    1    3    3    0    0 -0.36322258562E+02  0.51418827799E+01 -0.76981580693E+02  0.85275489982E+02  0.00000000000E+00 0.  1.
         11    1    3    3    0    0  0.52598921544E+02 -0.11632417705E+02 -0.65631995258E+02  0.84908883462E+02  0.00000000000E+00 0. -1.
        -13    1    4    4    0    0 -0.96425094280E+01 -0.49504064295E+02 -0.27000713372E+03  0.27467705151E+03  0.00000000000E+00 0. -1.
         13    1    4    4    0    0  0.24421034572E+02  0.21841583627E+02 -0.52572393127E+02  0.61945929842E+02  0.00000000000E+00 0.  1.
         21    1    1    2  502  501 -0.31055188125E+02  0.34153015593E+02  0.10942692218E+02  0.47440443680E+02  0.00000000000E+00 0.  1.
<scales pt_clust_5="13000.00000" pt_clust_6="13000.00000" pt_clust_7="13000.00000" pt_clust_8="13000.00000" pt_clust_9="46.16117"></scales>
<clustering>
<clus scale="   46.161">  1  9  2 -1</clus>
<clus scale="   90.961">  7  8 -1 -1</clus>
<clus scale="   91.198">  5  6 -1 -1</clus>
<clus scale="   92.481">  2  7  1 -1</clus>
<clus scale="   92.481">  2  5  1 -1</clus>
</clustering>
</event>
<event>
 9    1  0.1175034E-005  0.9941166E+02  0.7546771E-02  0.1281972E+00
          2   -1    0    0  502    0  0.00000000000E+00  0.00000000000E+00  0.18641662715E+03  0.18641662715E+03  0.00000000000E+00 0. -1.
         -2   -1    0    0    0  501 -0.00000000000E+00 -0.00000000000E+00 -0.27446104077E+03  0.27446104077E+03  0.00000000000E+00 0.  1.
         23    2    1    2    0    0 -0.14480907295E+01 -0.58059256511E+02 -0.72188198925E+02  0.12964076976E+03  0.90678657282E+02 0.  0.
         23    2    1    2    0    0 -0.32373889257E+01  0.38045920460E+02  0.14186778203E+03  0.17217921529E+03  0.89784418746E+02 0.  0.
        -11    1    4    4    0    0 -0.26364760001E+02  0.16212161150E+02  0.46188802792E+01  0.31293270747E+02  0.00000000000E+00 0.  1.
         11    1    4    4    0    0  0.23127371075E+02  0.21833759310E+02  0.13724890175E+03  0.14088594454E+03  0.00000000000E+00 0. -1.
        -13    1    3    3    0    0 -0.16322065622E+02 -0.73634773727E+02 -0.76771912712E+02  0.10762163495E+03  0.00000000000E+00 0.  1.
         13    1    3    3    0    0  0.14873974893E+02  0.15575517216E+02  0.45837137866E+01  0.22019134809E+02  0.00000000000E+00 0. -1.
         21    1    1    2  502  501  0.46854796553E+01  0.20013336050E+02 -0.15772399672E+03  0.15905768287E+03  0.00000000000E+00 0.  1.
<scales pt_clust_5="13000.00000" pt_clust_6="13000.00000" pt_clust_7="13000.00000" pt_clust_8="13000.00000" pt_clust_9="20.55450"></scales>
<clustering>
<clus scale="   20.554">  2  9  1 -1</clus>
<clus scale="   89.784">  5  6 -1 -1</clus>
<clus scale="   90.679">  7  8 -1 -1</clus>
<clus scale="   98.597">  1  5  2 -1</clus>
<clus scale="   98.597">  1  5  2 -1</clus>
</clustering>
</event>
<event>
 9    1  0.1175034E-005  0.1040955E+03  0.7546771E-02  0.1272513E+00
         -1   -1    0    0    0  501 -0.00000000000E+00  0.00000000000E+00  0.42351396893E+03  0.42351396893E+03  0.00000000000E+00 0.  1.
          1   -1    0    0  502    0  0.00000000000E+00 -0.00000000000E+00 -0.43666637988E+02  0.43666637988E+02  0.00000000000E+00 0. -1.
         23    2    1    2    0    0 -0.42825871099E+02  0.44412792509E+02  0.16986269073E+03  0.20205605366E+03  0.90370148534E+02 0.  0.
         23    2    1    2    0    0  0.20843253601E+02 -0.38021549814E+02  0.69971853811E+02  0.12325255527E+03  0.91733595724E+02 0.  0.
        -13    1    3    3    0    0 -0.48673559873E+02 -0.99579785415E+01  0.50902935696E+02  0.71129358424E+02  0.00000000000E+00 0.  1.
         13    1    3    3    0    0  0.58476887738E+01  0.54370771051E+02  0.11895975503E+03  0.13092669524E+03  0.00000000000E+00 0. -1.
        -13    1    4    4    0    0  0.29323550819E+02  0.24136143387E+02  0.19250252810E+02  0.42579294070E+02  0.00000000000E+00 0. -1.
         13    1    4    4    0    0 -0.84802972180E+01 -0.62157693201E+02  0.50721601001E+02  0.80673261202E+02  0.00000000000E+00 0.  1.
         21    1    1    2  502  501  0.21982617498E+02 -0.63912426952E+01  0.14001278640E+03  0.14187199798E+03  0.00000000000E+00 0. -1.
<scales pt_clust_5="13000.00000" pt_clust_6="13000.00000" pt_clust_7="13000.00000" pt_clust_8="13000.00000" pt_clust_9="22.89287"></scales>
<clustering>
<clus scale="   22.893">  1  9  2 -1</clus>
<clus scale="   90.370">  5  6 -1 -1</clus>
<clus scale="   91.734">  7  8 -1 -1</clus>
<clus scale="  102.896">  1  5  2 -1</clus>
<clus scale="  104.096">  2  5  1 -1</clus>
</clustering>
</event>
<event>
 9    1  0.1175034E-005  0.9740690E+02  0.7546771E-02  0.1287974E+00
         -1   -1    0    0    0  501 -0.00000000000E+00  0.00000000000E+00  0.53501258883E+02  0.53501258883E+02  0.00000000000E+00 0.  1.
          1   -1    0    0  502    0  0.00000000000E+00 -0.00000000000E+00 -0.25643168446E+03  0.25643168446E+03  0.00000000000E+00 0. -1.
         23    2    1    2    0    0 -0.57392233308E+01 -0.64055514357E+01 -0.52547829507E+02  0.10644461100E+03  0.92169469189E+02 0.  0.
         23    2    1    2    0    0  0.19505889742E+02 -0.14546547877E+02 -0.14826730079E+03  0.17832911846E+03  0.96052070338E+02 0.  0.
        -13    1    4    4    0    0 -0.90946202186E+01  0.37103123386E+02 -0.75577406662E+02  0.84683518347E+02  0.00000000000E+00 0. -1.
         13    1    4    4    0    0  0.28600509961E+02 -0.51649671263E+02 -0.72689894127E+02  0.93645600109E+02  0.00000000000E+00 0.  1.
        -13    1    3    3    0    0 -0.36918501450E+02 -0.33474794239E+02 -0.19335988131E+02  0.53454822380E+02  0.00000000000E+00 0. -1.
         13    1    3    3    0    0  0.31179278120E+02  0.27069242803E+02 -0.33211841375E+02  0.52989788616E+02  0.00000000000E+00 0.  1.
         21    1    1    2  502  501 -0.13766666412E+02  0.20952099313E+02 -0.21152952847E+01  0.25159213895E+02  0.00000000000E+00 0. -1.
<scales pt_clust_5="13000.00000" pt_clust_6="13000.00000" pt_clust_7="13000.00000" pt_clust_8="13000.00000" pt_clust_9="25.07013"></scales>
<clustering>
<clus scale="   25.070">  1  9  2 -1</clus>
<clus scale="   92.169">  7  8 -1 -1</clus>
<clus scale="   93.581">  1  7  2 -1</clus>
<clus scale="   96.052">  5  6 -1 -1</clus>
<clus scale="   97.407">  2  5  1 -1</clus>
</clustering>
</event>
<event>
 9    1  0.1175034E-005  0.9604424E+02  0.7546771E-02  0.1289605E+00
         -1   -1    0    0    0  501 -0.00000000000E+00  0.00000000000E+00  0.13652392856E+03  0.13652392856E+03  0.00000000000E+00 0.  1.
          1   -1    0    0  502    0  0.00000000000E+00 -0.00000000000E+00 -0.18939432755E+03  0.18939432755E+03  0.00000000000E+00 0. -1.
         23    2    1    2    0    0 -0.44735401998E+01 -0.44987024906E+02  0.93543433589E+01  0.10144135432E+03  0.90327181146E+02 0.  0.
         23    2    1    2    0    0 -0.43052137050E+02 -0.87622949807E+00 -0.10628445099E+03  0.14508303535E+03  0.88873214992E+02 0.  0.
        -13    1    3    3    0    0 -0.19115091702E+02 -0.64804374447E+02  0.25239573113E+02  0.72125097775E+02  0.00000000000E+00 0.  1.
         13    1    3    3    0    0  0.14641551503E+02  0.19817349540E+02 -0.15885229754E+02  0.29316256540E+02  0.00000000000E+00 0. -1.
        -13    1    4    4    0    0 -0.32265009267E+02 -0.20496599593E+02 -0.18438065190E+01  0.38269322445E+02  0.00000000000E+00 0.  1.
         13    1    4    4    0    0 -0.10787127783E+02  0.19620370095E+02 -0.10444064447E+03  0.10681371291E+03  0.00000000000E+00 0. -1.
         21    1    1    2  502  501  0.47525677250E+02  0.45863254405E+02  0.44059708642E+02  0.79393866440E+02  0.00000000000E+00 0. -1.
<scales pt_clust_5="13000.00000" pt_clust_6="13000.00000" pt_clust_7="13000.00000" pt_clust_8="13000.00000" pt_clust_9="66.04641"></scales>
<clustering>
<clus scale="   66.046">  1  9  2 -1</clus>
<clus scale="   88.873">  7  8 -1 -1</clus>
<clus scale="   90.327">  5  6 -1 -1</clus>
<clus scale="   94.678">  2  7  1 -1</clus>
<clus scale="   94.678">  2  5  1 -1</clus>
</clustering>
</event>
<event>
 9    1  0.1175034E-005  0.1621121E+03  0.7546771E-02  0.1186927E+00
          2   -1    0    0  502    0  0.00000000000E+00  0.00000000000E+00  0.28176947409E+03  0.28176947409E+03  0.00000000000E+00 0. -1.
         -2   -1    0    0    0  501 -0.00000000000E+00 -0.00000000000E+00 -0.19444137007E+03  0.19444137007E+03  0.00000000000E+00 0.  1.
         23    2    1    2    0    0  0.90807090778E+02 -0.56379356712E+02 -0.95762225208E+02  0.16700370106E+03  0.85412369071E+02 0.  0.
         23    2    1    2    0    0 -0.11396986857E+03  0.84312086788E+02  0.20656950018E+03  0.26598650969E+03  0.89331998798E+02 0.  0.
        -11    1    4    4    0    0 -0.10930327708E+03  0.32585232999E+02  0.15808756002E+03  0.19493763214E+03  0.00000000000E+00 0. -1.
         11    1    4    4    0    0 -0.46665914888E+01  0.51726853788E+02  0.48481940160E+02  0.71048877547E+02  0.00000000000E+00 0.  1.
        -13    1    3    3    0    0  0.67971540838E+02 -0.17557742263E+02 -0.99540149610E+02  0.12180577187E+03  0.00000000000E+00 0.  1.
         13    1    3    3    0    0  0.22835549941E+02 -0.38821614449E+02  0.37779244020E+01  0.45197929182E+02  0.00000000000E+00 0. -1.
         21    1    1    2  502  501  0.23162777794E+02 -0.27932730076E+02 -0.23479170946E+02  0.43220633417E+02  0.00000000000E+00 0.  1.
<scales pt_clust_5="13000.00000" pt_clust_6="13000.00000" pt_clust_7="13000.00000" pt_clust_8="13000.00000" pt_clust_9="36.28707"></scales>
<clustering>
<clus scale="   36.287">  2  9  1 -1</clus>
<clus scale="   85.412">  7  8 -1 -1</clus>
<clus scale="   89.332">  5  6 -1 -1</clus>
<clus scale="  159.986">  2  7  1 -1</clus>
<clus scale="  162.112">  1  5  2 -1</clus>
</clustering>
</event>
<event>
 9    1  0.1175034E-005  0.1434295E+03  0.7546771E-02  0.1216830E+00
          2   -1    0    0  502    0  0.00000000000E+00  0.00000000000E+00  0.66374424381E+03  0.66374424381E+03  0.00000000000E+00 0. -1.
         -2   -1    0    0    0  501 -0.00000000000E+00 -0.00000000000E+00 -0.35014758963E+02  0.35014758963E+02  0.00000000000E+00 0.  1.
         23    2    1    2    0    0 -0.18221024059E+02 -0.57391757877E+02  0.18183384651E+03  0.21318345086E+03  0.93583205721E+02 0.  0.
         23    2    1    2    0    0  0.22097842471E+02  0.87861784815E+02  0.41278091778E+03  0.43967058027E+03  0.12130179391E+03 0.  0.
        -11    1    4    4    0    0  0.20643562338E+02 -0.23270356922E+02  0.16777678718E+03  0.17063621097E+03  0.00000000000E+00 0. -1.
         11    1    4    4    0    0  0.14542801329E+01  0.11113214174E+03  0.24500413060E+03  0.26903436931E+03  0.00000000000E+00 0.  1.
        -11    1    3    3    0    0  0.32672428716E+02 -0.75655353833E+01  0.95759942552E+02  0.10146275928E+03  0.00000000000E+00 0.  1.
         11    1    3    3    0    0 -0.50893452775E+02 -0.49826222494E+02  0.86073903960E+02  0.11172069158E+03  0.00000000000E+00 0. -1.
         21    1    1    2  502  501 -0.38768184119E+01 -0.30470026938E+02  0.34114720558E+02  0.45904971641E+02  0.00000000000E+00 0. -1.
<scales pt_clust_5="13000.00000" pt_clust_6="13000.00000" pt_clust_7="13000.00000" pt_clust_8="13000.00000" pt_clust_9="30.71567"></scales>
<clustering>
<clus scale="   30.716">  2  9  1 -1</clus>
<clus scale="   93.583">  7  8 -1 -1</clus>
<clus scale="  120.895">  2  7  1 -1</clus>
<clus scale="  121.302">  5  6 -1 -1</clus>
<clus scale="  143.429">  1  5  2 -1</clus>
</clustering>
</event>
<event>
 9    1  0.1175034E-005  0.1252634E+03  0.7546771E-02  0.1234867E+00
         -1   -1    0    0    0  501 -0.00000000000E+00  0.00000000000E+00  0.15191951593E+03  0.15191951593E+03  0.00000000000E+00 0.  1.
          1   -1    0    0  502    0  0.00000000000E+00 -0.00000000000E+00 -0.40678481491E+03  0.40678481491E+03  0.00000000000E+00 0. -1.
         23    2    1    2    0    0  0.37503321509E+02 -0.12393414078E+03  0.42773115711E+02  0.16358737384E+03  0.90361048455E+02 0.  0.
         23    2    1    2    0    0 -0.25797097162E+02  0.77982281081E+02 -0.32027596574E+03  0.34257109307E+03  0.89618821649E+02 0.  0.
        -11    1    4    4    0    0  0.22231316828E+01  0.68686815550E+02 -0.29736263774E+03  0.30520052305E+03  0.00000000000E+00 0.  1.
         11    1    4    4    0    0 -0.28020228845E+02  0.92954655305E+01 -0.22913328001E+02  0.37370570025E+02  0.00000000000E+00 0. -1.
        -11    1    3    3    0    0  0.18852744069E+02 -0.13471683018E+03  0.33256895602E+02  0.14003596465E+03  0.00000000000E+00 0. -1.
         11    1    3    3    0    0  0.18650577440E+02  0.10782689398E+02  0.95162201082E+01  0.23551409186E+02  0.00000000000E+00 0.  1.
         21    1    1    2  502  501 -0.11706224347E+02  0.45951859697E+02  0.22637551057E+02  0.52545863928E+02  0.00000000000E+00 0.  1.
<scales pt_clust_5="13000.00000" pt_clust_6="13000.00000" pt_clust_7="13000.00000" pt_clust_8="13000.00000" pt_clust_9="47.41950"></scales>
<clustering>
<clus scale="   47.420">  1  9  2 -1</clus>
<clus scale="   89.619">  5  6 -1 -1</clus>
<clus scale="   90.361">  7  8 -1 -1</clus>
<clus scale="  124.729">  2  5  1 -1</clus>
<clus scale="  124.729">  2  5  1 -1</clus>
</clustering>
</event>
<event>
 9    1  0.1175034E-005  0.2094331E+03  0.7546771E-02  0.1142150E+00
         -1   -1    0    0    0  501 -0.00000000000E+00  0.00000000000E+00  0.68294551861E+02  0.68294551861E+02  0.00000000000E+00 0.  1.
          1   -1    0    0  502    0  0.00000000000E+00 -0.00000000000E+00 -0.73337975870E+03  0.73337975870E+03  0.00000000000E+00 0. -1.
         23    2    1    2    0    0 -0.17213503203E+03  0.82644735061E+02 -0.32674367637E+03  0.38968974042E+03  0.92930308597E+02 0.  0.
         23    2    1    2    0    0  0.15406947837E+03 -0.10312100736E+03 -0.31031984348E+03  0.37285840373E+03  0.91398236583E+02 0.  0.
        -11    1    3    3    0    0 -0.33165168880E+02  0.63926726561E+02 -0.10479743649E+03  0.12715760886E+03  0.00000000000E+00 0. -1.
         11    1    3    3    0    0 -0.13896986315E+03  0.18718008501E+02 -0.22194623988E+03  0.26253213156E+03  0.00000000000E+00 0.  1.
        -11    1    4    4    0    0  0.55801882559E+02 -0.73826338581E+02 -0.86531467814E+02  0.12669598765E+03  0.00000000000E+00 0.  1.
         11    1    4    4    0    0  0.98267595807E+02 -0.29294668779E+02 -0.22378837567E+03  0.24616241608E+03  0.00000000000E+00 0. -1.
         21    1    1    2  502  501  0.18065553662E+02  0.20476272300E+02 -0.28021686983E+02  0.39126166408E+02  0.00000000000E+00 0. -1.
<scales pt_clust_5="13000.00000" pt_clust_6="13000.00000" pt_clust_7="13000.00000" pt_clust_8="13000.00000" pt_clust_9="27.30645"></scales>
<clustering>
<clus scale="   27.306">  1  9  2 -1</clus>
<clus scale="   91.398">  7  8 -1 -1</clus>
<clus scale="   92.930">  5  6 -1 -1</clus>
<clus scale="  208.758">  2  7  1 -1</clus>
<clus scale="  208.758">  2  5  1 -1</clus>
</clustering>
</event>
<event>
 9    1  0.1175034E-005  0.1240045E+03  0.7546771E-02  0.1236883E+00
         -2   -1    0    0    0  501 -0.00000000000E+00  0.00000000000E+00  0.60536319579E+02  0.60536319579E+02  0.00000000000E+00 0.  1.
          2   -1    0    0  502    0  0.00000000000E+00 -0.00000000000E+00 -0.38141735523E+03  0.38141735523E+03  0.00000000000E+00 0. -1.
         23    2    1    2    0    0  0.78419514173E+01  0.94686102716E+02 -0.10734020966E+03  0.16927385081E+03  0.90026450045E+02 0.  0.
         23    2    1    2    0    0  0.28691831321E+02 -0.76159931724E+02 -0.18891627954E+03  0.22488542495E+03  0.90887498015E+02 0.  0.
        -11    1    4    4    0    0  0.64540411471E+00 -0.87737651269E+02 -0.11252682535E+03  0.14269056879E+03  0.00000000000E+00 0.  1.
         11    1    4    4    0    0  0.28046427207E+02  0.11577719545E+02 -0.76389454188E+02  0.82194856165E+02  0.00000000000E+00 0. -1.
        -13    1    3    3    0    0 -0.27144507721E+02  0.11121995419E+02 -0.69279196934E+00  0.29342853342E+02  0.00000000000E+00 0.  1.
         13    1    3    3    0    0  0.34986459139E+02  0.83564107296E+02 -0.10664741769E+03  0.13993099747E+03  0.00000000000E+00 0. -1.
         21    1    1    2  502  501 -0.36533782739E+02 -0.18526170992E+02 -0.24624546452E+02  0.47794399052E+02  0.00000000000E+00 0. -1.
<scales pt_clust_5="13000.00000" pt_clust_6="13000.00000" pt_clust_7="13000.00000" pt_clust_8="13000.00000" pt_clust_9="40.96262"></scales>
<clustering>
<clus scale="   40.963">  1  9  2 -1</clus>
<clus scale="   90.026">  7  8 -1 -1</clus>
<clus scale="   90.887">  5  6 -1 -1</clus>
<clus scale="  123.375">  1  7  2 -1</clus>
<clus scale="  124.004">  2  5  1 -1</clus>
</clustering>
</event>
<event>
 9    1  0.1175034E-005  0.1070378E+03  0.7546771E-02  0.1269108E+00
         -1   -1    0    0    0  501 -0.00000000000E+00  0.00000000000E+00  0.10857366849E+03  0.10857366849E+03  0.00000000000E+00 0.  1.
          1   -1    0    0  502    0  0.00000000000E+00 -0.00000000000E+00 -0.36094200785E+03  0.36094200785E+03  0.00000000000E+00 0. -1.
         23    2    1    2    0    0  0.19197955598E+02  0.18847525706E+02  0.21249673702E+02  0.90858958613E+02  0.84142801257E+02 0.  0.
         23    2    1    2    0    0 -0.20900501303E+02 -0.57697739000E+02 -0.30782325461E+03  0.32686640702E+03  0.91217497879E+02 0.  0.
        -13    1    3    3    0    0  0.41306229819E+02 -0.12050482267E+01  0.38420155714E+02  0.56424862677E+02  0.00000000000E+00 0.  1.
         13    1    3    3    0    0 -0.22108274221E+02  0.20052573933E+02 -0.17170482012E+02  0.34434095936E+02  0.00000000000E+00 0. -1.
        -13    1    4    4    0    0 -0.30377242897E+02  0.69859873694E+01 -0.18615960752E+03  0.18875110696E+03  0.00000000000E+00 0. -1.
         13    1    4    4    0    0  0.94767415938E+01 -0.64683726369E+02 -0.12166364709E+03  0.13811530006E+03  0.00000000000E+00 0.  1.
         21    1    1    2  502  501  0.17025457053E+01  0.38850213293E+02  0.34205241538E+02  0.51790310710E+02  0.00000000000E+00 0. -1.
<scales pt_clust_5="13000.00000" pt_clust_6="13000.00000" pt_clust_7="13000.00000" pt_clust_8="13000.00000" pt_clust_9="38.88750"></scales>
<clustering>
<clus scale="   38.888">  1  9  2 -1</clus>
<clus scale="   84.143">  5  6 -1 -1</clus>
<clus scale="   91.217">  7  8 -1 -1</clus>
<clus scale="  101.077">  1  5  2 -1</clus>
<clus scale="  107.038">  2  5  1 -1</clus>
</clustering>
</event>
<event>
 9    1  0.1175034E-005  0.9231849E+02  0.7546771E-02  0.1297487E+00
          1   -1    0    0  502    0  0.00000000000E+00  0.00000000000E+00  0.36869894223E+03  0.36869894223E+03  0.00000000000E+00 0. -1.
         -1   -1    0    0    0  501 -0.00000000000E+00 -0.00000000000E+00 -0.35305471608E+02  0.35305471608E+02  0.00000000000E+00 0.  1.
         23    2    1    2    0    0 -0.17537524854E+02  0.18562607460E+02  0.15366934643E+03  0.18033652494E+03  0.90856254716E+02 0.  0.
         23    2    1    2    0    0  0.87676299254E+00 -0.70599664361E+01  0.18163118121E+03  0.20333248620E+03  0.91124102852E+02 0.  0.
        -11    1    3    3    0    0  0.29675007772E+02 -0.14050655520E+02  0.32160622367E+02  0.45960120080E+02  0.00000000000E+00 0.  1.
         11    1    3    3    0    0 -0.47212532625E+02  0.32613262980E+02  0.12150872407E+03  0.13437640486E+03  0.00000000000E+00 0. -1.
        -13    1    4    4    0    0  0.22780898385E+02  0.32162723033E+02  0.12488116939E+03  0.13095310822E+03  0.00000000000E+00 0.  1.
         13    1    4    4    0    0 -0.21904135393E+02 -0.39222689469E+02  0.56750011818E+02  0.72379377987E+02  0.00000000000E+00 0. -1.
         21    1    1    2  502  501  0.16660761861E+02 -0.11502641024E+02 -0.19070570138E+01  0.20335402695E+02  0.00000000000E+00 0.  1.
<scales pt_clust_5="13000.00000" pt_clust_6="13000.00000" pt_clust_7="13000.00000" pt_clust_8="13000.00000" pt_clust_9="20.24578"></scales>
<clustering>
<clus scale="   20.246">  2  9  1 -1</clus>
<clus scale="   90.856">  5  6 -1 -1</clus>
<clus scale="   91.124">  7  8 -1 -1</clus>
<clus scale="   92.054">  2  5  1 -1</clus>
<clus scale="   92.318">  1  5  2 -1</clus>
</clustering>
</event>
<event>
 9    1  0.1175034E-005  0.1007173E+03  0.7546771E-02  0.1279524E+00
         -1   -1    0    0    0  501 -0.00000000000E+00  0.00000000000E+00  0.13348005579E+03  0.13348005579E+03  0.00000000000E+00 0.  1.
          1   -1    0    0  502    0  0.00000000000E+00 -0.00000000000E+00 -0.49094341461E+03  0.49094341461E+03  0.00000000000E+00 0. -1.
         23    2    1    2    0    0 -0.73635475049E+01  0.13698804618E+02 -0.29687131952E+02  0.98182424604E+02  0.92285338044E+02 0.  0.
         23    2    1    2    0    0 -0.12679004860E+01 -0.40873247676E+02 -0.41866536190E+03  0.43098461759E+03  0.93780730404E+02 0.  0.
        -13    1    3    3    0    0  0.18627527076E+02  0.47256283888E+02 -0.11963332246E+02  0.52184887183E+02  0.00000000000E+00 0.  1.
         13    1    3    3    0    0 -0.25991074581E+02 -0.33557479270E+02 -0.17723799705E+02  0.45997537421E+02  0.00000000000E+00 0. -1.
        -13    1    4    4    0    0 -0.13549922428E+02  0.26521703022E+02 -0.77846404712E+02  0.83349048319E+02  0.00000000000E+00 0.  1.
         13    1    4    4    0    0  0.12282021942E+02 -0.67394950697E+02 -0.34081895719E+03  0.34763556927E+03  0.00000000000E+00 0. -1.
         21    1    1    2  502  501  0.86314479909E+01  0.27174443057E+02  0.90889135028E+02  0.95256428214E+02  0.00000000000E+00 0.  1.
<scales pt_clust_5="13000.00000" pt_clust_6="13000.00000" pt_clust_7="13000.00000" pt_clust_8="13000.00000" pt_clust_9="28.51232"></scales>
<clustering>
<clus scale="   28.512">  1  9  2 -1</clus>
<clus scale="   92.285">  5  6 -1 -1</clus>
<clus scale="   93.781">  7  8 -1 -1</clus>
<clus scale="   99.326">  1  5  2 -1</clus>
<clus scale="  100.717">  2  5  1 -1</clus>
</clustering>
</event>
<event>
 9    1  0.1175034E-005  0.1054152E+03  0.7546771E-02  0.1272630E+00
          1   -1    0    0  502    0  0.00000000000E+00  0.00000000000E+00  0.41682345352E+03  0.41682345352E+03  0.00000000000E+00 0. -1.
         -1   -1    0    0    0  501 -0.00000000000E+00 -0.00000000000E+00 -0.53050224569E+02  0.53050224569E+02  0.00000000000E+00 0.  1.
         23    2    1    2    0    0  0.80844638894E+02  0.46101734074E+01  0.10600288042E+03  0.16115903576E+03  0.90435141479E+02 0.  0.
         23    2    1    2    0    0 -0.21455427817E+02 -0.10679445564E+02  0.20800335807E+03  0.23099290922E+03  0.97559936459E+02 0.  0.
        -13    1    4    4    0    0  0.28576387238E+02  0.25691757580E+02  0.86473840440E+02  0.94627698881E+02  0.00000000000E+00 0. -1.
         13    1    4    4    0    0 -0.50031815055E+02 -0.36371203144E+02  0.12152951763E+03  0.13636521034E+03  0.00000000000E+00 0.  1.
        -13    1    3    3    0    0  0.27610572530E+02 -0.42089017607E+02  0.49057898599E+02  0.70288736889E+02  0.00000000000E+00 0.  1.
         13    1    3    3    0    0  0.53234066365E+02  0.46699191014E+02  0.56944981819E+02  0.90870298874E+02  0.00000000000E+00 0. -1.
         21    1    1    2  502  501 -0.59389211077E+02  0.60692721569E+01  0.49766990462E+02  0.77721733103E+02  0.00000000000E+00 0.  1.
<scales pt_clust_5="13000.00000" pt_clust_6="13000.00000" pt_clust_7="13000.00000" pt_clust_8="13000.00000" pt_clust_9="59.69853"></scales>
<clustering>
<clus scale="   59.699">  2  9  1 -1</clus>
<clus scale="   90.435">  7  8 -1 -1</clus>
<clus scale="   97.560">  5  6 -1 -1</clus>
<clus scale="   98.858">  2  7  1 -1</clus>
<clus scale="  105.415">  1  5  2 -1</clus>
</clustering>
</event>
<event>
 9    1  0.1175034E-005  0.9518973E+02  0.7546771E-02  0.1291679E+00
         -2   -1    0    0    0  501 -0.00000000000E+00  0.00000000000E+00  0.38193121566E+02  0.38193121566E+02  0.00000000000E+00 0.  1.
          2   -1    0    0  502    0  0.00000000000E+00 -0.00000000000E+00 -0.36216961420E+03  0.36216961420E+03  0.00000000000E+00 0. -1.
         23    2    1    2    0    0  0.50157028405E+00 -0.21825194345E+02 -0.10830673330E+03  0.14482642900E+03  0.93636293064E+02 0.  0.
         23    2    1    2    0    0  0.27594088466E+02 -0.32053855819E+00 -0.12191045361E+03  0.15518389305E+03  0.91969263897E+02 0.  0.
        -11    1    3    3    0    0  0.28917823921E+02 -0.95195930957E+01  0.17515104428E+01  0.30494769746E+02  0.00000000000E+00 0.  1.
         11    1    3    3    0    0 -0.28416253637E+02 -0.12305601249E+02 -0.11005824374E+03  0.11433165926E+03  0.00000000000E+00 0. -1.
        -13    1    4    4    0    0 -0.20583017288E+02  0.30227006375E+02 -0.31421431613E+02  0.48214509016E+02  0.00000000000E+00 0. -1.
         13    1    4    4    0    0  0.48177105754E+02 -0.30547544933E+02 -0.90489021993E+02  0.10696938404E+03  0.00000000000E+00 0.  1.
         21    1    1    2  502  501 -0.28095658750E+02  0.22145732903E+02 -0.93759305725E+02  0.10035241371E+03  0.00000000000E+00 0. -1.
<scales pt_clust_5="13000.00000" pt_clust_6="13000.00000" pt_clust_7="13000.00000" pt_clust_8="13000.00000" pt_clust_9="35.77429"></scales>
<clustering>
<clus scale="   35.774">  2  9  1 -1</clus>
<clus scale="   91.969">  7  8 -1 -1</clus>
<clus scale="   93.550">  2  7  1 -1</clus>
<clus scale="   93.636">  5  6 -1 -1</clus>
<clus scale="   35.774">  2  5  1 -1</clus>
</clustering>
</event>
<event>
 9    1  0.1175034E-005  0.1495330E+03  0.7546771E-02  0.1201362E+00
          1   -1    0    0  502    0  0.00000000000E+00  0.00000000000E+00  0.61760001735E+03  0.61760001735E+03  0.00000000000E+00 0. -1.
         -1   -1    0    0    0  501 -0.00000000000E+00 -0.00000000000E+00 -0.49242713160E+02  0.49242713160E+02  0.00000000000E+00 0.  1.
         23    2    1    2    0    0  0.78676695135E+01  0.13206532637E+03  0.19075656146E+03  0.25013969543E+03  0.93159276702E+02 0.  0.
         23    2    1    2    0    0 -0.19974703866E+02 -0.10819040276E+03  0.35059136047E+03  0.37867542684E+03  0.91523902959E+02 0.  0.
        -11    1    4    4    0    0 -0.35440374841E+02 -0.56511750138E+02  0.28990364725E+03  0.29747894507E+03  0.00000000000E+00 0. -1.
         11    1    4    4    0    0  0.15465670975E+02 -0.51678652626E+02  0.60687713222E+02  0.81196481771E+02  0.00000000000E+00 0.  1.
        -13    1    3    3    0    0 -0.30209593699E+02  0.92395761204E+02  0.77794343717E+02  0.12450524549E+03  0.00000000000E+00 0.  1.
         13    1    3    3    0    0  0.38077263213E+02  0.39669565170E+02  0.11296221774E+03  0.12563444994E+03  0.00000000000E+00 0. -1.
         21    1    1    2  502  501  0.12107034353E+02 -0.23874923610E+02  0.27009382256E+02  0.38027608235E+02  0.00000000000E+00 0.  1.
<scales pt_clust_5="13000.00000" pt_clust_6="13000.00000" pt_clust_7="13000.00000" pt_clust_8="13000.00000" pt_clust_9="26.76924"></scales>
<clustering>
<clus scale="   26.769">  2  9  1 -1</clus>
<clus scale="   91.524">  5  6 -1 -1</clus>
<clus scale="   93.159">  7  8 -1 -1</clus>
<clus scale="  148.520">  1  5  2 -1</clus>
<clus scale="  148.520">  1  5  2 -1</clus>
</clustering>
</event>
<event>
 9    1  0.1175034E-005  0.9747657E+02  0.7546771E-02  0.1286484E+00
          1   -1    0    0  502    0  0.00000000000E+00  0.00000000000E+00  0.30262952572E+03  0.30262952572E+03  0.00000000000E+00 0. -1.
         -1   -1    0    0    0  501 -0.00000000000E+00 -0.00000000000E+00 -0.23947134264E+03  0.23947134264E+03  0.00000000000E+00 0.  1.
         23    2    1    2    0    0  0.33665472014E+02 -0.37420677956E+02 -0.81243802126E+02  0.13196315078E+03  0.90994761580E+02 0.  0.
         23    2    1    2    0    0 -0.25443169750E+02  0.14553100683E+02  0.26755413454E+03  0.28461089084E+03  0.92514845566E+02 0.  0.
        -11    1    4    4    0    0 -0.59640485810E+02  0.14907116648E+02  0.14795593042E+03  0.16021912189E+03  0.00000000000E+00 0. -1.
         11    1    4    4    0    0  0.34197316060E+02 -0.35401596495E+00  0.11959820412E+03  0.12439176895E+03  0.00000000000E+00 0.  1.
        -11    1    3    3    0    0  0.63485711782E+02 -0.15106873841E+02 -0.40704363514E+02  0.76912277608E+02  0.00000000000E+00 0.  1.
         11    1    3    3    0    0 -0.29820239768E+02 -0.22313804115E+02 -0.40539438612E+02  0.55050873171E+02  0.00000000000E+00 0. -1.
         21    1    1    2  502  501 -0.82223022632E+01  0.22867577273E+02 -0.12315214934E+03  0.12552682674E+03  0.00000000000E+00 0.  1.
<scales pt_clust_5="13000.00000" pt_clust_6="13000.00000" pt_clust_7="13000.00000" pt_clust_8="13000.00000" pt_clust_9="24.30087"></scales>
<clustering>
<clus scale="   24.301">  2  9  1 -1</clus>
<clus scale="   90.995">  7  8 -1 -1</clus>
<clus scale="   92.515">  5  6 -1 -1</clus>
<clus scale="   96.035">  2  7  1 -1</clus>
<clus scale="   97.477">  1  5  2 -1</clus>
</clustering>
</event>
<event>
 9    1  0.1175034E-005  0.1518039E+03  0.7546771E-02  0.1198445E+00
          3   -1    0    0  502    0  0.00000000000E+00  0.00000000000E+00  0.66397829396E+02  0.66397829396E+02  0.00000000000E+00 0. -1.
         -3   -1    0    0    0  501 -0.00000000000E+00 -0.00000000000E+00 -0.47690356707E+03  0.47690356707E+03  0.00000000000E+00 0.  1.
         23    2    1    2    0    0  0.82502550905E+02 -0.89938058840E+02 -0.25155504823E+03  0.29337307294E+03  0.88838574400E+02 0.  0.
         23    2    1    2    0    0 -0.10919400697E+03  0.64052656697E+02 -0.12102508341E+03  0.19681674792E+03  0.89798037055E+02 0.  0.
        -11    1    3    3    0    0  0.40282639297E+02  0.44294447577E+01 -0.35572295167E+02  0.53923085901E+02  0.00000000000E+00 0. -1.
         11    1    3    3    0    0  0.42219911607E+02 -0.94367503598E+02 -0.21598275306E+03  0.23944998704E+03  0.00000000000E+00 0.  1.
        -13    1    4    4    0    0 -0.54245297061E+02  0.35135539361E+02 -0.11813232065E+03  0.13465624220E+03  0.00000000000E+00 0.  1.
         13    1    4    4    0    0 -0.54948709905E+02  0.28917117336E+02 -0.28927627591E+01  0.62160505722E+02  0.00000000000E+00 0. -1.
         21    1    1    2  502  501  0.26691456062E+02  0.25885402143E+02 -0.37925606029E+02  0.53111575607E+02  0.00000000000E+00 0. -1.
<scales pt_clust_5="13000.00000" pt_clust_6="13000.00000" pt_clust_7="13000.00000" pt_clust_8="13000.00000" pt_clust_9="37.18182"></scales>
<clustering>
<clus scale="   37.182">  1  9  2 -1</clus>
<clus scale="   88.839">  5  6 -1 -1</clus>
<clus scale="   89.798">  7  8 -1 -1</clus>
<clus scale="  151.238">  2  5  1 -1</clus>
<clus scale="   37.182">  1  5  2 -1</clus>
</clustering>
</event>
<event>
 9    1  0.1175034E-005  0.1419145E+03  0.7546771E-02  0.1220295E+00
          1   -1    0    0  502    0  0.00000000000E+00  0.00000000000E+00  0.62428777271E+03  0.62428777271E+03  0.00000000000E+00 0. -1.
         -1   -1    0    0    0  501 -0.00000000000E+00 -0.00000000000E+00 -0.93282603702E+02  0.93282603702E+02  0.00000000000E+00 0.  1.
         23    2    1    2    0    0  0.59696145651E+02 -0.56571721601E+02  0.94381589663E+02  0.15542349806E+03  0.92111833076E+02 0.  0.
         23    2    1    2    0    0 -0.26554377972E+02 -0.68140672396E+02  0.41548968635E+03  0.43138679494E+03  0.90081081012E+02 0.  0.
        -11    1    3    3    0    0  0.50273029928E+02 -0.12348659460E+02  0.11207115641E+01  0.51779560861E+02  0.00000000000E+00 0.  1.
         11    1    3    3    0    0  0.94231157234E+01 -0.44223062141E+02  0.93260878099E+02  0.10364393720E+03  0.00000000000E+00 0. -1.
        -13    1    4    4    0    0  0.28184853287E+02 -0.35921526875E+02  0.10549789519E+03  0.11495454726E+03  0.00000000000E+00 0.  1.
         13    1    4    4    0    0 -0.54739231259E+02 -0.32219145521E+02  0.30999179117E+03  0.31643224767E+03  0.00000000000E+00 0. -1.
         21    1    1    2  502  501 -0.33141767679E+02  0.12471239400E+03  0.21133892996E+02  0.13076008341E+03  0.00000000000E+00 0. -1.
<scales pt_clust_5="13000.00000" pt_clust_6="13000.00000" pt_clust_7="13000.00000" pt_clust_8="13000.00000" pt_clust_9="107.95901"></scales>
<clustering>
<clus scale="   90.081">  7  8 -1 -1</clus>
<clus scale="   92.112">  5  6 -1 -1</clus>
<clus scale="  116.030">  1  7  2 -1</clus>
<clus scale="  107.959">  2  9  1 -1</clus>
<clus scale="  116.030">  1  5  2 -1</clus>
</clustering>
</event>
<event>
 9    1  0.1175034E-005  0.1010838E+03  0.7546771E-02  0.1280416E+00
         -1   -1    0    0    0  501 -0.00000000000E+00  0.00000000000E+00  0.60709033631E+02  0.60709033631E+02  0.00000000000E+00 0.  1.
          1   -1    0    0  502    0  0.00000000000E+00 -0.00000000000E+00 -0.27459475338E+03  0.27459475338E+03  0.00000000000E+00 0. -1.
         23    2    1    2    0    0 -0.18119245595E+02 -0.28123347742E+02 -0.53872137490E+02  0.10690523078E+03  0.86065622758E+02 0.  0.
         23    2    1    2    0    0 -0.26185222297E+02  0.56013058675E+02 -0.11698833439E+03  0.16063504241E+03  0.91072596641E+02 0.  0.
        -11    1    4    4    0    0  0.18125361970E+02 -0.16167138031E+02 -0.17267168361E+02  0.29800338955E+02  0.00000000000E+00 0.  1.
         11    1    4    4    0    0 -0.44310584267E+02  0.72180196707E+02 -0.99721166030E+02  0.13083470346E+03  0.00000000000E+00 0. -1.
        -13    1    3    3    0    0 -0.46751082799E+02 -0.87264110121E+01 -0.54477898901E+02  0.72316356799E+02  0.00000000000E+00 0. -1.
         13    1    3    3    0    0  0.28631837204E+02 -0.19396936730E+02  0.60576141078E+00  0.34588873978E+02  0.00000000000E+00 0.  1.
         21    1    1    2  502  501  0.44304467892E+02 -0.27889710933E+02 -0.43025247869E+02  0.67763513820E+02  0.00000000000E+00 0.  1.
<scales pt_clust_5="13000.00000" pt_clust_6="13000.00000" pt_clust_7="13000.00000" pt_clust_8="13000.00000" pt_clust_9="52.35190"></scales>
<clustering>
<clus scale="   52.352">  1  9  2 -1</clus>
<clus scale="   86.066">  7  8 -1 -1</clus>
<clus scale="   91.073">  5  6 -1 -1</clus>
<clus scale="   96.597">  1  7  2 -1</clus>
<clus scale="  101.084">  2  5  1 -1</clus>
</clustering>
</event>
<event>
 9    1  0.1175034E-005  0.9482818E+02  0.7546771E-02  0.1293438E+00
          3   -1    0    0  502    0  0.00000000000E+00  0.00000000000E+00  0.22362858724E+03  0.22362858724E+03  0.00000000000E+00 0. -1.
         -3   -1    0    0    0  501 -0.00000000000E+00 -0.00000000000E+00 -0.20818512508E+03  0.20818512508E+03  0.00000000000E+00 0.  1.
         23    2    1    2    0    0 -0.24569449976E+02  0.15660839838E+02 -0.16124233276E+03  0.18651376606E+03  0.89103172094E+02 0.  0.
         23    2    1    2    0    0  0.20488911685E+02  0.51974417535E+01  0.19526117524E+03  0.21707294753E+03  0.92449602973E+02 0.  0.
        -11    1    4    4    0    0 -0.26215992650E+01  0.41371431132E+02  0.46749029335E+02  0.62481515989E+02  0.00000000000E+00 0.  1.
         11    1    4    4    0    0  0.23110510950E+02 -0.36173989378E+02  0.14851214591E+03  0.15459143154E+03  0.00000000000E+00 0. -1.
        -13    1    3    3    0    0 -0.41810471088E+02  0.43545350818E+02 -0.11420756775E+03  0.12918080972E+03  0.00000000000E+00 0.  1.
         13    1    3    3    0    0  0.17241021112E+02 -0.27884510981E+02 -0.47034765018E+02  0.57332956334E+02  0.00000000000E+00 0. -1.
         21    1    1    2  502  501  0.40805382907E+01 -0.20858281591E+02 -0.18575380317E+02  0.28226998735E+02  0.00000000000E+00 0.  1.
<scales pt_clust_5="13000.00000" pt_clust_6="13000.00000" pt_clust_7="13000.00000" pt_clust_8="13000.00000" pt_clust_9="21.25368"></scales>
<clustering>
<clus scale="   21.254">  2  9  1 -1</clus>
<clus scale="   89.103">  7  8 -1 -1</clus>
<clus scale="   91.569">  2  7  1 -1</clus>
<clus scale="   92.450">  5  6 -1 -1</clus>
<clus scale="   94.828">  1  5  2 -1</clus>
</clustering>
</event>
<event>
 9    1  0.1175034E-005  0.1185220E+03  0.7546771E-02  0.1245901E+00
         -4   -1    0    0    0  501 -0.00000000000E+00  0.00000000000E+00  0.67371525182E+02  0.67371525182E+02  0.00000000000E+00 0.  1.
          4   -1    0    0  502    0  0.00000000000E+00 -0.00000000000E+00 -0.57687776975E+03  0.57687776975E+03  0.00000000000E+00 0. -1.
         23    2    1    2    0    0 -0.29844090593E+02 -0.92290074376E+02 -0.10467622060E+03  0.16972889641E+03  0.91883946071E+02 0.  0.
         23    2    1    2    0    0  0.57515042139E+01  0.69875433551E+02 -0.42205889720E+03  0.43737604613E+03  0.90820906206E+02 0.  0.
        -11    1    4    4    0    0  0.39294732202E+02  0.63769790251E+02 -0.21852121764E+03  0.23100256424E+03  0.00000000000E+00 0. -1.
         11    1    4    4    0    0 -0.33543227988E+02  0.61056432995E+01 -0.20353767956E+03  0.20637348189E+03  0.00000000000E+00 0.  1.
        -13    1    3    3    0    0 -0.43148262201E+02 -0.81792607356E+01 -0.15881881883E+02  0.46700182112E+02  0.00000000000E+00 0.  1.
         13    1    3    3    0    0  0.13304171608E+02 -0.84110813640E+02 -0.88794338721E+02  0.12302871430E+03  0.00000000000E+00 0. -1.
         21    1    1    2  502  501  0.24092586379E+02  0.22414640825E+02  0.17228873237E+02  0.37144352394E+02  0.00000000000E+00 0.  1.
<scales pt_clust_5="13000.00000" pt_clust_6="13000.00000" pt_clust_7="13000.00000" pt_clust_8="13000.00000" pt_clust_9="32.90697"></scales>
<clustering>
<clus scale="   32.907">  1  9  2 -1</clus>
<clus scale="   90.821">  5  6 -1 -1</clus>
<clus scale="   91.884">  7  8 -1 -1</clus>
<clus scale="  117.700">  2  5  1 -1</clus>
<clus scale="  117.700">  2  5  1 -1</clus>
</clustering>
</event>
<event>
 9    1  0.1175034E-005  0.1160162E+03  0.7546771E-02  0.1257348E+00
         -1   -1    0    0    0  501 -0.00000000000E+00  0.00000000000E+00  0.90932831172E+02  0.90932831172E+02  0.00000000000E+00 0.  1.
          1   -1    0    0  502    0  0.00000000000E+00 -0.00000000000E+00 -0.37894533573E+03  0.37894533573E+03  0.00000000000E+00 0. -1.
         23    2    1    2    0    0 -0.36076665022E+02  0.46285963145E+02 -0.60714876074E+02  0.12424652009E+03  0.91142665285E+02 0.  0.
         23    2    1    2    0    0  0.40613020738E+01 -0.36169839502E+02 -0.26884455623E+03  0.29221379747E+03  0.10856682991E+03 0.  0.
        -11    1    4    4    0    0  0.29109081149E+02 -0.62177567212E+02 -0.11283345966E+03  0.13207868143E+03  0.00000000000E+00 0.  1.
         11    1    4    4    0    0 -0.25047779075E+02  0.26007727710E+02 -0.15601109657E+03  0.16013511605E+03  0.00000000000E+00 0. -1.
        -13    1    3    3    0    0 -0.45086513234E+02  0.13694942419E+01  0.36372534259E+01  0.45253715898E+02  0.00000000000E+00 0.  1.
         13    1    3    3    0    0  0.90098482119E+01  0.44916468903E+02 -0.64352129500E+02  0.78992804196E+02  0.00000000000E+00 0. -1.
         21    1    1    2  502  501  0.32015362948E+02 -0.10116123643E+02  0.41546927747E+02  0.53417849334E+02  0.00000000000E+00 0. -1.
<scales pt_clust_5="13000.00000" pt_clust_6="13000.00000" pt_clust_7="13000.00000" pt_clust_8="13000.00000" pt_clust_9="33.57558"></scales>
<clustering>
<clus scale="   33.576">  1  9  2 -1</clus>
<clus scale="   91.143">  7  8 -1 -1</clus>
<clus scale="   99.900">  1  7  2 -1</clus>
<clus scale="  108.567">  5  6 -1 -1</clus>
<clus scale="  116.016">  2  5  1 -1</clus>
</clustering>
</event>
<event>
 9    1  0.1175034E-005  0.1353987E+03  0.7546771E-02  0.1220634E+00
         -1   -1    0    0    0  501 -0.00000000000E+00  0.00000000000E+00  0.41761089582E+02  0.41761089582E+02  0.00000000000E+00 0.  1.
          1   -1    0    0  502    0  0.00000000000E+00 -0.00000000000E+00 -0.60704538464E+03  0.60704538464E+03  0.00000000000E+00 0. -1.
         23    2    1    2    0    0  0.41622098971E+02 -0.83745784986E+02 -0.16660817937E+03  0.21193780098E+03  0.91725625776E+02 0.  0.
         23    2    1    2    0    0 -0.64739178742E+02  0.73746793549E+02 -0.38399537472E+03  0.40771557114E+03  0.95654525882E+02 0.  0.
        -11    1    4    4    0    0 -0.42998422082E+01 -0.22400185797E+02 -0.80473516826E+02  0.83643552514E+02  0.00000000000E+00 0.  1.
         11    1    4    4    0    0 -0.60439336534E+02  0.96146979346E+02 -0.30352185789E+03  0.32407201863E+03  0.00000000000E+00 0. -1.
        -11    1    3    3    0    0 -0.21528514723E+02  0.49462448094E+01 -0.29732847779E+02  0.37040309407E+02  0.00000000000E+00 0. -1.
         11    1    3    3    0    0  0.63150613694E+02 -0.88692029795E+02 -0.13687533159E+03  0.17489749157E+03  0.00000000000E+00 0.  1.
         21    1    1    2  502  501  0.23117079771E+02  0.99989914373E+01 -0.14680740967E+02  0.29153102103E+02  0.00000000000E+00 0.  1.
<scales pt_clust_5="13000.00000" pt_clust_6="13000.00000" pt_clust_7="13000.00000" pt_clust_8="13000.00000" pt_clust_9="25.18689"></scales>
<clustering>
<clus scale="   25.187">  1  9  2 -1</clus>
<clus scale="   91.726">  7  8 -1 -1</clus>
<clus scale="   95.655">  5  6 -1 -1</clus>
<clus scale="  132.652">  1  7  2 -1</clus>
<clus scale="  135.399">  2  5  1 -1</clus>
</clustering>
</event>
<event>
 9    1  0.1175034E-005  0.1131452E+03  0.7546771E-02  0.1263509E+00
          1   -1    0    0  502    0  0.00000000000E+00  0.00000000000E+00  0.19977846736E+03  0.19977846736E+03  0.00000000000E+00 0. -1.
         -1   -1    0    0    0  501 -0.00000000000E+00 -0.00000000000E+00 -0.22797072244E+03  0.22797072244E+03  0.00000000000E+00 0.  1.
         23    2    1    2    0    0  0.13063236552E+02 -0.12212764888E+02  0.12939612345E+01  0.92055516709E+02  0.90292547009E+02 0.  0.
         23    2    1    2    0    0 -0.17799153675E+02  0.32960940602E+02  0.13066104779E+03  0.17413853729E+03  0.10885167561E+03 0.  0.
        -11    1    4    4    0    0 -0.24671515104E+02 -0.35239466812E+02  0.30357467511E+02  0.52650541425E+02  0.00000000000E+00 0.  1.
         11    1    4    4    0    0  0.68723614287E+01  0.68200407414E+02  0.10030358028E+03  0.12148799587E+03  0.00000000000E+00 0. -1.
        -13    1    3    3    0    0 -0.15110932493E+02 -0.34908891046E+02 -0.26562145617E+02  0.46395242587E+02  0.00000000000E+00 0. -1.
         13    1    3    3    0    0  0.28174169045E+02  0.22696126158E+02  0.27856106852E+02  0.45660274122E+02  0.00000000000E+00 0.  1.
         21    1    1    2  502  501  0.47359171226E+01 -0.20748175714E+02 -0.16014726409E+03  0.16155513580E+03  0.00000000000E+00 0.  1.
<scales pt_clust_5="13000.00000" pt_clust_6="13000.00000" pt_clust_7="13000.00000" pt_clust_8="13000.00000" pt_clust_9="21.28182"></scales>
<clustering>
<clus scale="   21.282">  2  9  1 -1</clus>
<clus scale="   90.293">  7  8 -1 -1</clus>
<clus scale="   95.425">  2  7  1 -1</clus>
<clus scale="  108.852">  5  6 -1 -1</clus>
<clus scale="  113.145">  1  5  2 -1</clus>
</clustering>
</event>
<event>
 9    1  0.1175034E-005  0.2187209E+03  0.7546771E-02  0.1135153E+00
          2   -1    0    0  502    0  0.00000000000E+00  0.00000000000E+00  0.11265231763E+04  0.11265231763E+04  0.00000000000E+00 0. -1.
         -2   -1    0    0    0  501 -0.00000000000E+00 -0.00000000000E+00 -0.87206098395E+02  0.87206098395E+02  0.00000000000E+00 0.  1.
         23    2    1    2    0    0 -0.14968065121E+03 -0.14590266387E+03  0.12744642620E+03  0.26170290452E+03  0.92487480295E+02 0.  0.
         23    2    1    2    0    0  0.11932068386E+03  0.15608589106E+03  0.88299892955E+03  0.90891022384E+03  0.88489854997E+02 0.  0.
        -13    1    3    3    0    0 -0.26508513596E+02  0.10268421166E+02  0.25549108758E+02  0.38221704890E+02  0.00000000000E+00 0. -1.
         13    1    3    3    0    0 -0.12317213761E+03 -0.15617108504E+03  0.10189731744E+03  0.22348119963E+03  0.00000000000E+00 0.  1.
        -13    1    4    4    0    0  0.37506096742E+02  0.87517696144E+02  0.26117298874E+03  0.27798810132E+03  0.00000000000E+00 0.  1.
         13    1    4    4    0    0  0.81814587114E+02  0.68568194918E+02  0.62182594081E+03  0.63092212252E+03  0.00000000000E+00 0. -1.
         21    1    1    2  502  501  0.30359967351E+02 -0.10183227191E+02  0.28871722126E+02  0.43116146304E+02  0.00000000000E+00 0.  1.
<scales pt_clust_5="13000.00000" pt_clust_6="13000.00000" pt_clust_7="13000.00000" pt_clust_8="13000.00000" pt_clust_9="32.02227"></scales>
<clustering>
<clus scale="   32.022">  2  9  1 -1</clus>
<clus scale="   88.490">  7  8 -1 -1</clus>
<clus scale="   92.487">  5  6 -1 -1</clus>
<clus scale="  217.061">  1  7  2 -1</clus>
<clus scale="  217.061">  1  5  2 -1</clus>
</clustering>
</event>
<event>
 9    1  0.1175034E-005  0.9472014E+02  0.7546771E-02  0.1293270E+00
         -2   -1    0    0    0  501 -0.00000000000E+00  0.00000000000E+00  0.43528673845E+02  0.43528673845E+02  0.00000000000E+00 0.  1.
          2   -1    0    0  502    0  0.00000000000E+00 -0.00000000000E+00 -0.49538222369E+03  0.49538222369E+03  0.00000000000E+00 0. -1.
         23    2    1    2    0    0 -0.18411291402E+02  0.23042812534E+02 -0.14493323822E+03  0.17348263992E+03  0.90667722756E+02 0.  0.
         23    2    1    2    0    0 -0.49401598355E+01 -0.29256431664E+02 -0.32320918026E+03  0.33628676521E+03  0.88001535654E+02 0.  0.
        -13    1    4    4    0    0 -0.21266117897E+02  0.25040659549E+02 -0.16464144962E+03  0.16788713273E+03  0.00000000000E+00 0.  1.
         13    1    4    4    0    0  0.16325958062E+02 -0.54297091214E+02 -0.15856773064E+03  0.16839963248E+03  0.00000000000E+00 0. -1.
        -13    1    3    3    0    0 -0.13477654788E+02  0.57786146408E+02 -0.10231533723E+03  0.11827643099E+03  0.00000000000E+00 0.  1.
         13    1    3    3    0    0 -0.49336366136E+01 -0.34743333874E+02 -0.42617900999E+02  0.55206208931E+02  0.00000000000E+00 0. -1.
         21    1    1    2  502  501  0.23351451237E+02  0.62136191307E+01  0.16288868647E+02  0.29141492402E+02  0.00000000000E+00 0.  1.
<scales pt_clust_5="13000.00000" pt_clust_6="13000.00000" pt_clust_7="13000.00000" pt_clust_8="13000.00000" pt_clust_9="24.16401"></scales>
<clustering>
<clus scale="   24.164">  1  9  2 -1</clus>
<clus scale="   88.002">  5  6 -1 -1</clus>
<clus scale="   90.668">  7  8 -1 -1</clus>
<clus scale="   92.171">  2  5  1 -1</clus>
<clus scale="   92.171">  2  5  1 -1</clus>
</clustering>
</event>
<event>
 9    1  0.1175034E-005  0.1075088E+03  0.7546771E-02  0.1269687E+00
         -1   -1    0    0    0  501 -0.00000000000E+00  0.00000000000E+00  0.80669280908E+02  0.80669280908E+02  0.00000000000E+00 0.  1.
          1   -1    0    0  502    0  0.00000000000E+00 -0.00000000000E+00 -0.25384070988E+03  0.25384070988E+03  0.00000000000E+00 0. -1.
         23    2    1    2    0    0 -0.22131429761E+01  0.16595890553E+02 -0.28345171329E+02  0.98361254536E+02  0.92688543365E+02 0.  0.
         23    2    1    2    0    0  0.12065931529E+02 -0.40043000314E+02 -0.16850406741E+03  0.20139987910E+03  0.10207478627E+03 0.  0.
        -11    1    4    4    0    0 -0.36271251097E+02 -0.47450110492E+02 -0.10983278521E+03  0.12502142756E+03  0.00000000000E+00 0. -1.
         11    1    4    4    0    0  0.48337182626E+02  0.74071101777E+01 -0.58671282194E+02  0.76378451540E+02  0.00000000000E+00 0.  1.
        -13    1    3    3    0    0 -0.21041944745E+02 -0.32903994370E+02 -0.17436849107E+01  0.39095737891E+02  0.00000000000E+00 0. -1.
         13    1    3    3    0    0  0.18828801769E+02  0.49499884923E+02 -0.26601486419E+02  0.59265516645E+02  0.00000000000E+00 0.  1.
         21    1    1    2  502  501 -0.98527885528E+01  0.23447109760E+02  0.23677809762E+02  0.34748857154E+02  0.00000000000E+00 0.  1.
<scales pt_clust_5="13000.00000" pt_clust_6="13000.00000" pt_clust_7="13000.00000" pt_clust_8="13000.00000" pt_clust_9="25.43314"></scales>
<clustering>
<clus scale="   25.433">  1  9  2 -1</clus>
<clus scale="   92.689">  7  8 -1 -1</clus>
<clus scale="   98.641">  1  7  2 -1</clus>
<clus scale="  102.075">  5  6 -1 -1</clus>
<clus scale="  107.509">  2  5  1 -1</clus>
</clustering>
</event>
<event>
 9    1  0.1175034E-005  0.1128436E+03  0.7546771E-02  0.1256944E+00
         -1   -1    0    0    0  501 -0.00000000000E+00  0.00000000000E+00  0.80490963863E+02  0.80490963863E+02  0.00000000000E+00 0.  1.
          1   -1    0    0  502    0  0.00000000000E+00 -0.00000000000E+00 -0.20762962650E+03  0.20762962650E+03  0.00000000000E+00 0. -1.
         23    2    1    2    0    0 -0.34637892495E+02  0.64045310402E+02 -0.41749062582E+02  0.12749161354E+03  0.95966358254E+02 0.  0.
         23    2    1    2    0    0  0.19417084575E+02 -0.48054479331E+02 -0.89253009257E+02  0.13821680149E+03  0.91932194559E+02 0.  0.
        -13    1    3    3    0    0  0.23821809259E+02  0.29743902830E+02 -0.45812495911E+02  0.59589958328E+02  0.00000000000E+00 0. -1.
         13    1    3    3    0    0 -0.58459701754E+02  0.34301407572E+02  0.40634333291E+01  0.67901655215E+02  0.00000000000E+00 0.  1.
        -13    1    4    4    0    0  0.52858931685E+02 -0.10699769712E+02 -0.34730834235E+02  0.64146571049E+02  0.00000000000E+00 0. -1.
         13    1    4    4    0    0 -0.33441847110E+02 -0.37354709619E+02 -0.54522175022E+02  0.74070230444E+02  0.00000000000E+00 0.  1.
         21    1    1    2  502  501  0.15220807921E+02 -0.15990831071E+02  0.38634092034E+01  0.22412175324E+02  0.00000000000E+00 0.  1.
<scales pt_clust_5="13000.00000" pt_clust_6="13000.00000" pt_clust_7="13000.00000" pt_clust_8="13000.00000" pt_clust_9="22.07668"></scales>
<clustering>
<clus scale="   22.077">  1  9  2 -1</clus>
<clus scale="   91.932">  7  8 -1 -1</clus>
<clus scale="   95.966">  5  6 -1 -1</clus>
<clus scale="  109.433">  2  7  1 -1</clus>
<clus scale="  109.433">  2  5  1 -1</clus>
</clustering>
</event>
<event>
 9    1  0.1175034E-005  0.1102702E+03  0.7546771E-02  0.1261956E+00
          1   -1    0    0  502    0  0.00000000000E+00  0.00000000000E+00  0.74673858669E+02  0.74673858669E+02  0.00000000000E+00 0. -1.
         -1   -1    0    0    0  501 -0.00000000000E+00 -0.00000000000E+00 -0.26241272344E+03  0.26241272344E+03  0.00000000000E+00 0.  1.
         23    2    1    2    0    0 -0.23421039797E+02 -0.27641789374E+02 -0.11483657453E+03  0.15349266533E+03  0.95183747753E+02 0.  0.
         23    2    1    2    0    0  0.36391557933E+02  0.52952086796E+02 -0.63058428151E+01  0.11117891621E+03  0.90513638598E+02 0.  0.
        -11    1    4    4    0    0 -0.21953232685E+02 -0.30852103231E+00  0.18144778320E+02  0.28482847309E+02  0.00000000000E+00 0. -1.
         11    1    4    4    0    0  0.58344790618E+02  0.53260607828E+02 -0.24450621136E+02  0.82696068906E+02  0.00000000000E+00 0.  1.
        -13    1    3    3    0    0  0.27297716677E+02 -0.39463226546E+02 -0.69437240376E+02  0.84404039810E+02  0.00000000000E+00 0.  1.
         13    1    3    3    0    0 -0.50718756474E+02  0.11821437172E+02 -0.45399334152E+02  0.69088625522E+02  0.00000000000E+00 0. -1.
         21    1    1    2  502  501 -0.12970518137E+02 -0.25310297422E+02 -0.66596447425E+02  0.72415000558E+02  0.00000000000E+00 0.  1.
<scales pt_clust_5="13000.00000" pt_clust_6="13000.00000" pt_clust_7="13000.00000" pt_clust_8="13000.00000" pt_clust_9="28.44021"></scales>
<clustering>
<clus scale="   28.440">  2  9  1 -1</clus>
<clus scale="   90.514">  5  6 -1 -1</clus>
<clus scale="   95.184">  7  8 -1 -1</clus>
<clus scale="  106.265">  1  5  2 -1</clus>
<clus scale="  106.265">  1  5  2 -1</clus>
</clustering>
</event>
<event>
 9    1  0.1175034E-005  0.1276844E+03  0.7546771E-02  0.1231071E+00
         -2   -1    0    0    0  501 -0.00000000000E+00  0.00000000000E+00  0.41769403146E+03  0.41769403146E+03  0.00000000000E+00 0.  1.
          2   -1    0    0  502    0  0.00000000000E+00 -0.00000000000E+00 -0.70931231277E+02  0.70931231277E+02  0.00000000000E+00 0. -1.
         23    2    1    2    0    0  0.10277812193E+03 -0.46797665726E+01  0.21247468108E+03  0.25339149833E+03  0.92068011605E+02 0.  0.
         23    2    1    2    0    0 -0.83695389061E+02 -0.18873836886E+01  0.28183014829E+02  0.12722649008E+03  0.91563186298E+02 0.  0.
        -11    1    3    3    0    0  0.64454021954E+02 -0.39582901509E+02  0.75213478948E+02  0.10666861982E+03  0.00000000000E+00 0. -1.
         11    1    3    3    0    0  0.38324099976E+02  0.34903134936E+02  0.13726120213E+03  0.14672287851E+03  0.00000000000E+00 0.  1.
        -13    1    4    4    0    0 -0.11065762600E+02  0.33376316768E+02 -0.11853464212E+02  0.37107064513E+02  0.00000000000E+00 0.  1.
         13    1    4    4    0    0 -0.72629626462E+02 -0.35263700457E+02  0.40036479041E+02  0.90119425564E+02  0.00000000000E+00 0. -1.
         21    1    1    2  502  501 -0.19082732869E+02  0.65671502612E+01  0.10610510428E+03  0.10800727434E+03  0.00000000000E+00 0. -1.
<scales pt_clust_5="13000.00000" pt_clust_6="13000.00000" pt_clust_7="13000.00000" pt_clust_8="13000.00000" pt_clust_9="20.18113"></scales>
<clustering>
<clus scale="   20.181">  1  9  2 -1</clus>
<clus scale="   91.563">  7  8 -1 -1</clus>
<clus scale="   92.068">  5  6 -1 -1</clus>
<clus scale="  127.321">  2  7  1 -1</clus>
<clus scale="  127.321">  2  5  1 -1</clus>
</clustering>
</event>
<event>
 9    1  0.1175034E-005  0.1425306E+03  0.7546771E-02  0.1210707E+00
          3   -1    0    0  502    0  0.00000000000E+00  0.00000000000E+00  0.15017241736E+03  0.15017241736E+03  0.00000000000E+00 0. -1.
         -3   -1    0    0    0  501 -0.00000000000E+00 -0.00000000000E+00 -0.24640967250E+03  0.24640967250E+03  0.00000000000E+00 0.  1.
         23    2    1    2    0    0  0.10869345273E+03 -0.53429488149E+02 -0.47124641580E+02  0.15860850534E+03  0.90922765320E+02 0.  0.
         23    2    1    2    0    0 -0.10146222917E+03  0.94196873870E+01  0.34605511084E+02  0.14311644165E+03  0.94347549069E+02 0.  0.
        -11    1    4    4    0    0 -0.79739417973E+02 -0.13074706609E+02 -0.17190608300E+02  0.82612588298E+02  0.00000000000E+00 0.  1.
         11    1    4    4    0    0 -0.21722811198E+02  0.22494393996E+02  0.51796119384E+02  0.60503853355E+02  0.00000000000E+00 0. -1.
        -11    1    3    3    0    0  0.36533084448E+01 -0.44124836808E+02 -0.25051441150E+02  0.50871628533E+02  0.00000000000E+00 0. -1.
         11    1    3    3    0    0  0.10504014428E+03 -0.93046513411E+01 -0.22073200430E+02  0.10773687681E+03  0.00000000000E+00 0.  1.
         21    1    1    2  502  501 -0.72312235564E+01  0.44009800762E+02 -0.83718124648E+02  0.94857142861E+02  0.00000000000E+00 0. -1.
<scales pt_clust_5="13000.00000" pt_clust_6="13000.00000" pt_clust_7="13000.00000" pt_clust_8="13000.00000" pt_clust_9="44.59992"></scales>
<clustering>
<clus scale="   44.600">  2  9  1 -1</clus>
<clus scale="   90.923">  7  8 -1 -1</clus>
<clus scale="   94.348">  5  6 -1 -1</clus>
<clus scale="  140.287">  2  7  1 -1</clus>
<clus scale="  142.531">  1  5  2 -1</clus>
</clustering>
</event>
<event>
 9    1  0.1175034E-005  0.9725717E+02  0.7546771E-02  0.1286778E+00
          2   -1    0    0  502    0  0.00000000000E+00  0.00000000000E+00  0.20179499711E+03  0.20179499711E+03  0.00000000000E+00 0. -1.
         -2   -1    0    0    0  501 -0.00000000000E+00 -0.00000000000E+00 -0.89444347229E+02  0.89444347229E+02  0.00000000000E+00 0.  1.
         23    2    1    2    0    0 -0.49927067300E+02 -0.36816064522E+01  0.20795818910E+02  0.10650424417E+03  0.91675632891E+02 0.  0.
         23    2    1    2    0    0  0.25382402101E+02  0.39463461751E+01  0.11649700616E+03  0.14974048944E+03  0.90503158774E+02 0.  0.
        -11    1    4    4    0    0  0.56130111894E+02 -0.84828578036E+01  0.93495639843E+02  0.10937999363E+03  0.00000000000E+00 0. -1.
         11    1    4    4    0    0 -0.30747709793E+02  0.12429203979E+02  0.23001366319E+02  0.40360495805E+02  0.00000000000E+00 0.  1.
        -11    1    3    3    0    0 -0.17641233729E+02  0.12884915628E+02 -0.34219977285E+02  0.40598534746E+02  0.00000000000E+00 0.  1.
         11    1    3    3    0    0 -0.32285833571E+02 -0.16566522080E+02  0.55015796194E+02  0.65905709420E+02  0.00000000000E+00 0. -1.
         21    1    1    2  502  501  0.24544665199E+02 -0.26473972292E+00 -0.24942175194E+02  0.34994610731E+02  0.00000000000E+00 0. -1.
<scales pt_clust_5="13000.00000" pt_clust_6="13000.00000" pt_clust_7="13000.00000" pt_clust_8="13000.00000" pt_clust_9="24.54609"></scales>
<clustering>
<clus scale="   24.546">  2  9  1 -1</clus>
<clus scale="   90.503">  5  6 -1 -1</clus>
<clus scale="   91.676">  7  8 -1 -1</clus>
<clus scale="   96.153">  1  5  2 -1</clus>
<clus scale="   96.153">  1  5  2 -1</clus>
</clustering>
</event>
<event>
 9    1  0.1175034E-005  0.1127223E+03  0.7546771E-02  0.1256298E+00
          2   -1    0    0  502    0  0.00000000000E+00  0.00000000000E+00  0.41692286737E+03  0.41692286737E+03  0.00000000000E+00 0. -1.
         -2   -1    0    0    0  501 -0.00000000000E+00 -0.00000000000E+00 -0.51568375598E+02  0.51568375598E+02  0.00000000000E+00 0.  1.
         23    2    1    2    0    0 -0.36806456863E+02 -0.35859873884E+02  0.88623237070E+02  0.13753349598E+03  0.91764582201E+02 0.  0.
         23    2    1    2    0    0  0.74012954702E+02  0.16183683401E+02  0.26059255859E+03  0.28588077431E+03  0.89886074883E+02 0.  0.
        -11    1    4    4    0    0  0.40325923597E+02  0.53683485431E+02  0.15007616207E+03  0.16441092161E+03  0.00000000000E+00 0.  1.
         11    1    4    4    0    0  0.33687031105E+02 -0.37499802030E+02  0.11051639651E+03  0.12146985270E+03  0.00000000000E+00 0. -1.
        -13    1    3    3    0    0  0.10846849928E+02  0.24803354764E+02  0.15256838602E+02  0.31074614801E+02  0.00000000000E+00 0.  1.
         13    1    3    3    0    0 -0.47653306791E+02 -0.60663228648E+02  0.73366398468E+02  0.10645888118E+03  0.00000000000E+00 0. -1.
         21    1    1    2  502  501 -0.37206497839E+02  0.19676190483E+02  0.16138696119E+02  0.45076972678E+02  0.00000000000E+00 0.  1.
<scales pt_clust_5="13000.00000" pt_clust_6="13000.00000" pt_clust_7="13000.00000" pt_clust_8="13000.00000" pt_clust_9="42.08891"></scales>
<clustering>
<clus scale="   42.089">  2  9  1 -1</clus>
<clus scale="   89.886">  5  6 -1 -1</clus>
<clus scale="   91.765">  7  8 -1 -1</clus>
<clus scale="  111.198">  1  5  2 -1</clus>
<clus scale="  111.198">  1  5  2 -1</clus>
</clustering>
</event>
<event>
 9    1  0.1175034E-005  0.1168107E+03  0.7546771E-02  0.1249424E+00
         -1   -1    0    0    0  501 -0.00000000000E+00  0.00000000000E+00  0.27612402267E+03  0.27612402267E+03  0.00000000000E+00 0.  1.
          1   -1    0    0  502    0  0.00000000000E+00 -0.00000000000E+00 -0.14202716821E+03  0.14202716821E+03  0.00000000000E+00 0. -1.
         23    2    1    2    0    0 -0.97329229765E+02 -0.15691062773E+02  0.51258371380E+02  0.14203522329E+03  0.88472569760E+02 0.  0.
         23    2    1    2    0    0  0.63847681409E+02 -0.13704078022E+02 -0.59412852689E+02  0.12705044203E+03  0.91365198958E+02 0.  0.
        -11    1    4    4    0    0  0.56728679109E+02  0.95027292148E+01 -0.77689606583E+02  0.96664987803E+02  0.00000000000E+00 0. -1.
         11    1    4    4    0    0  0.71190023000E+01 -0.23206807237E+02  0.18276753894E+02  0.30385454230E+02  0.00000000000E+00 0.  1.
        -11    1    3    3    0    0 -0.10206100416E+03 -0.37846980336E+02  0.35720822513E+02  0.11456360526E+03  0.00000000000E+00 0.  1.
         11    1    3    3    0    0  0.47317743922E+01  0.22155917563E+02  0.15537548867E+02  0.27471618022E+02  0.00000000000E+00 0. -1.
         21    1    1    2  502  501  0.33481548356E+02  0.29395140795E+02  0.14225133577E+03  0.14906552556E+03  0.00000000000E+00 0. -1.
<scales pt_clust_5="13000.00000" pt_clust_6="13000.00000" pt_clust_7="13000.00000" pt_clust_8="13000.00000" pt_clust_9="44.55433"></scales>
<clustering>
<clus scale="   44.554">  1  9  2 -1</clus>
<clus scale="   88.473">  7  8 -1 -1</clus>
<clus scale="   91.365">  5  6 -1 -1</clus>
<clus scale="  114.562">  1  7  2 -1</clus>
<clus scale="  116.811">  2  5  1 -1</clus>
</clustering>
</event>
<event>
 9    1  0.1175034E-005  0.1059526E+03  0.7546771E-02  0.1270030E+00
         -1   -1    0    0    0  501 -0.00000000000E+00  0.00000000000E+00  0.14887900556E+03  0.14887900556E+03  0.00000000000E+00 0.  1.
          1   -1    0    0  502    0  0.00000000000E+00 -0.00000000000E+00 -0.19777173577E+03  0.19777173577E+03  0.00000000000E+00 0. -1.
         23    2    1    2    0    0  0.20815279232E+02 -0.33454007910E+02  0.12463510473E+02  0.10031193620E+03  0.91404042335E+02 0.  0.
         23    2    1    2    0    0 -0.64568910416E+01  0.48853398528E+02 -0.13342075889E+03  0.17126151610E+03  0.95399486406E+02 0.  0.
        -13    1    3    3    0    0 -0.20422367558E+02 -0.50162888056E+02  0.20940607598E+00  0.54161169538E+02  0.00000000000E+00 0.  1.
         13    1    3    3    0    0  0.41237646790E+02  0.16708880146E+02  0.12254104397E+02  0.46150766657E+02  0.00000000000E+00 0. -1.
        -13    1    4    4    0    0  0.30801095077E+02  0.52649801060E+02 -0.46771984887E+02  0.76865646292E+02  0.00000000000E+00 0.  1.
         13    1    4    4    0    0 -0.37257986119E+02 -0.37964025318E+01 -0.86648774001E+02  0.94395869812E+02  0.00000000000E+00 0. -1.
         21    1    1    2  502  501 -0.14358388190E+02 -0.15399390618E+02  0.72064518208E+02  0.75077289025E+02  0.00000000000E+00 0.  1.
<scales pt_clust_5="13000.00000" pt_clust_6="13000.00000" pt_clust_7="13000.00000" pt_clust_8="13000.00000" pt_clust_9="21.05480"></scales>
<clustering>
<clus scale="   21.055">  1  9  2 -1</clus>
<clus scale="   91.404">  5  6 -1 -1</clus>
<clus scale="   95.399">  7  8 -1 -1</clus>
<clus scale="  102.370">  1  5  2 -1</clus>
<clus scale="  105.953">  2  5  1 -1</clus>
</clustering>
</event>
<event>
 9    1  0.1175034E-005  0.1056778E+03  0.7546771E-02  0.1271967E+00
          1   -1    0    0  502    0  0.00000000000E+00  0.00000000000E+00  0.44955725183E+02  0.44955725183E+02  0.00000000000E+00 0. -1.
         -1   -1    0    0    0  501 -0.00000000000E+00 -0.00000000000E+00 -0.37199157449E+03  0.37199157449E+03  0.00000000000E+00 0.  1.
         23    2    1    2    0    0  0.16504314679E+02  0.23990230738E+02 -0.12440027296E+03  0.15664375277E+03  0.90630644903E+02 0.  0.
         23    2    1    2    0    0 -0.29775269502E+02 -0.39757496107E+02 -0.78982726833E+02  0.13494505261E+03  0.97491901792E+02 0.  0.
        -13    1    4    4    0    0  0.30247557967E+02 -0.29778530181E+02 -0.55160025412E+02  0.69601034663E+02  0.00000000000E+00 0.  1.
         13    1    4    4    0    0 -0.60022827469E+02 -0.99789659253E+01 -0.23822701421E+02  0.65344017946E+02  0.00000000000E+00 0. -1.
        -13    1    3    3    0    0  0.38602087751E+02  0.78032850671E+01 -0.12307171444E+03  0.12921942320E+03  0.00000000000E+00 0.  1.
         13    1    3    3    0    0 -0.22097773072E+02  0.16186945671E+02 -0.13285585243E+01  0.27424329575E+02  0.00000000000E+00 0. -1.
         21    1    1    2  502  501  0.13270954823E+02  0.15767265368E+02 -0.12365284952E+03  0.12535849430E+03  0.00000000000E+00 0.  1.
<scales pt_clust_5="13000.00000" pt_clust_6="13000.00000" pt_clust_7="13000.00000" pt_clust_8="13000.00000" pt_clust_9="20.60885"></scales>
<clustering>
<clus scale="   20.609">  2  9  1 -1</clus>
<clus scale="   90.631">  7  8 -1 -1</clus>
<clus scale="   97.492">  5  6 -1 -1</clus>
<clus scale="   99.383">  2  7  1 -1</clus>
<clus scale="  105.678">  1  5  2 -1</clus>
</clustering>
</event>
<event>
 9    1  0.1175034E-005  0.9351394E+02  0.7546771E-02  0.1296033E+00
          2   -1    0    0  502    0  0.00000000000E+00  0.00000000000E+00  0.17698119283E+03  0.17698119283E+03  0.00000000000E+00 0. -1.
         -2   -1    0    0    0  501 -0.00000000000E+00 -0.00000000000E+00 -0.12565773488E+03  0.12565773488E+03  0.00000000000E+00 0.  1.
         23    2    1    2    0    0 -0.40018545568E+02 -0.17906404675E+01 -0.51618838651E+02  0.11038328413E+03  0.88967828617E+02 0.  0.
         23    2    1    2    0    0 -0.35028916538E+01  0.22232265379E+02  0.10863341903E+03  0.14383700665E+03  0.91549554226E+02 0.  0.
        -11    1    4    4    0    0  0.17677149519E+02 -0.31699781737E+02  0.39858201506E+02  0.53907643286E+02  0.00000000000E+00 0.  1.
         11    1    4    4    0    0 -0.21180041173E+02  0.53932047116E+02  0.68775217526E+02  0.89929363369E+02  0.00000000000E+00 0. -1.
        -13    1    3    3    0    0 -0.30444761526E+02  0.40640324837E+02 -0.13491285177E+02  0.52540786851E+02  0.00000000000E+00 0. -1.
         13    1    3    3    0    0 -0.95737840424E+01 -0.42430965304E+02 -0.38127553473E+02  0.57842497278E+02  0.00000000000E+00 0.  1.
         21    1    1    2  502  501  0.43521437222E+02 -0.20441624911E+02 -0.56911224348E+01  0.48418636923E+02  0.00000000000E+00 0.  1.
<scales pt_clust_5="13000.00000" pt_clust_6="13000.00000" pt_clust_7="13000.00000" pt_clust_8="13000.00000" pt_clust_9="48.08301"></scales>
<clustering>
<clus scale="   48.083">  2  9  1 -1</clus>
<clus scale="   88.968">  7  8 -1 -1</clus>
<clus scale="   90.988">  2  7  1 -1</clus>
<clus scale="   91.550">  5  6 -1 -1</clus>
<clus scale="   93.514">  1  5  2 -1</clus>
</clustering>
</event>
<event>
 9    1  0.1175034E-005  0.2118636E+03  0.7546771E-02  0.1140478E+00
          2   -1    0    0  502    0  0.00000000000E+00  0.00000000000E+00  0.10170094024E+04  0.10170094024E+04  0.00000000000E+00 0. -1.
         -2   -1    0    0    0  501 -0.00000000000E+00 -0.00000000000E+00 -0.61973189003E+02  0.61973189003E+02  0.00000000000E+00 0.  1.
         23    2    1    2    0    0 -0.17695583819E+02 -0.20142166174E+03  0.40947599307E+03  0.46553985477E+03  0.90404358119E+02 0.  0.
         23    2    1    2    0    0  0.51415564509E+02  0.17488190247E+03  0.52890978795E+03  0.56741412797E+03  0.94794455275E+02 0.  0.
        -11    1    4    4    0    0 -0.21737088605E+02  0.83550076336E+02  0.26547323792E+03  0.27915794154E+03  0.00000000000E+00 0. -1.
         11    1    4    4    0    0  0.73152653114E+02  0.91331826133E+02  0.26343655003E+03  0.28825618643E+03  0.00000000000E+00 0.  1.
        -11    1    3    3    0    0  0.19549197348E+02 -0.13040703073E+03  0.31582889472E+03  0.34225145072E+03  0.00000000000E+00 0. -1.
         11    1    3    3    0    0 -0.37244781167E+02 -0.71014631012E+02  0.93647098352E+02  0.12328840404E+03  0.00000000000E+00 0.  1.
         21    1    1    2  502  501 -0.33719980690E+02  0.26539759273E+02  0.16650432424E+02  0.46028608711E+02  0.00000000000E+00 0. -1.
<scales pt_clust_5="13000.00000" pt_clust_6="13000.00000" pt_clust_7="13000.00000" pt_clust_8="13000.00000" pt_clust_9="42.91149"></scales>
<clustering>
<clus scale="   42.911">  2  9  1 -1</clus>
<clus scale="   90.404">  7  8 -1 -1</clus>
<clus scale="   94.794">  5  6 -1 -1</clus>
<clus scale="  209.936">  2  7  1 -1</clus>
<clus scale="  211.864">  1  5  2 -1</clus>
</clustering>
</event>
<event>
 9    1  0.1175034E-005  0.1339926E+03  0.7546771E-02  0.1224842E+00
          2   -1    0    0  502    0  0.00000000000E+00  0.00000000000E+00  0.23434455084E+03  0.23434455084E+03  0.00000000000E+00 0. -1.
         -2   -1    0    0    0  501 -0.00000000000E+00 -0.00000000000E+00 -0.16884535295E+03  0.16884535295E+03  0.00000000000E+00 0.  1.
         23    2    1    2    0    0 -0.75633519670E+02  0.16815496534E+02 -0.87904664797E+02  0.14904514264E+03  0.92108817332E+02 0.  0.
         23    2    1    2    0    0  0.91216297480E+02 -0.43725818072E+02  0.17445994963E+03  0.21659017199E+03  0.79010559348E+02 0.  0.
        -11    1    3    3    0    0 -0.24458258589E+02  0.52257397027E+02 -0.36115318469E+02  0.68068775407E+02  0.00000000000E+00 0.  1.
         11    1    3    3    0    0 -0.51175261081E+02 -0.35441900493E+02 -0.51789346328E+02  0.80976367234E+02  0.00000000000E+00 0. -1.
        -13    1    4    4    0    0  0.31097452284E+02 -0.28224859992E+02  0.13565893346E+02  0.44133068355E+02  0.00000000000E+00 0.  1.
         13    1    4    4    0    0  0.60118845196E+02 -0.15500958079E+02  0.16089405628E+03  0.17245710364E+03  0.00000000000E+00 0. -1.
         21    1    1    2  502  501 -0.15582777810E+02  0.26910321538E+02 -0.21056086934E+02  0.37554589154E+02  0.00000000000E+00 0.  1.
<scales pt_clust_5="13000.00000" pt_clust_6="13000.00000" pt_clust_7="13000.00000" pt_clust_8="13000.00000" pt_clust_9="31.09644"></scales>
<clustering>
<clus scale="   31.096">  2  9  1 -1</clus>
<clus scale="   79.011">  7  8 -1 -1</clus>
<clus scale="   92.109">  5  6 -1 -1</clus>
<clus scale="  125.350">  1  7  2 -1</clus>
<clus scale="  125.350">  1  5  2 -1</clus>
</clustering>
</event>
<event>
 9    1  0.1175034E-005  0.1971843E+03  0.7546771E-02  0.1156129E+00
         -1   -1    0    0    0  501 -0.00000000000E+00  0.00000000000E+00  0.33751315968E+02  0.33751315968E+02  0.00000000000E+00 0.  1.
          1   -1    0    0  502    0  0.00000000000E+00 -0.00000000000E+00 -0.14668524187E+04  0.14668524187E+04  0.00000000000E+00 0. -1.
         23    2    1    2    0    0  0.31779163621E+02  0.16001781789E+03 -0.59480551446E+03  0.62874601328E+03  0.12211605914E+03 0.  0.
         23    2    1    2    0    0 -0.57829345647E+02 -0.13975725797E+03 -0.80806448708E+03  0.82710259039E+03  0.90852382335E+02 0.  0.
        -13    1    3    3    0    0 -0.23128389306E+02 -0.40125672895E+01 -0.30274684194E+02  0.38309001438E+02  0.00000000000E+00 0. -1.
         13    1    3    3    0    0  0.54907552927E+02  0.16403038518E+03 -0.56453083026E+03  0.59043701184E+03  0.00000000000E+00 0.  1.
        -13    1    4    4    0    0  0.24255862644E+02 -0.22046915769E+02 -0.16419081119E+03  0.16743068968E+03  0.00000000000E+00 0.  1.
         13    1    4    4    0    0 -0.82085208291E+02 -0.11771034220E+03 -0.64387367589E+03  0.65967190071E+03  0.00000000000E+00 0. -1.
         21    1    1    2  502  501  0.26050182026E+02 -0.20260559925E+02 -0.30231101215E+02  0.44755131021E+02  0.00000000000E+00 0. -1.
<scales pt_clust_5="13000.00000" pt_clust_6="13000.00000" pt_clust_7="13000.00000" pt_clust_8="13000.00000" pt_clust_9="33.00155"></scales>
<clustering>
<clus scale="   33.002">  1  9  2 -1</clus>
<clus scale="   90.852">  7  8 -1 -1</clus>
<clus scale="  122.116">  5  6 -1 -1</clus>
<clus scale="  179.509">  2  7  1 -1</clus>
<clus scale="  179.509">  2  5  1 -1</clus>
</clustering>
</event>
<event>
 9    1  0.1175034E-005  0.1211176E+03  0.7546771E-02  0.1242919E+00
         -2   -1    0    0    0  501 -0.00000000000E+00  0.00000000000E+00  0.68889661103E+02  0.68889661103E+02  0.00000000000E+00 0.  1.
          2   -1    0    0  502    0  0.00000000000E+00 -0.00000000000E+00 -0.42982688012E+03  0.42982688012E+03  0.00000000000E+00 0. -1.
         23    2    1    2    0    0 -0.73988031253E+02  0.93150607064E+01 -0.10039321851E+02  0.12358147672E+03  0.98033638514E+02 0.  0.
         23    2    1    2    0    0  0.52804266782E+02 -0.17985200870E+02 -0.30734073677E+03  0.32592988765E+03  0.93060223209E+02 0.  0.
        -11    1    4    4    0    0  0.72867115816E+01  0.29484703697E+02 -0.37843029446E+02  0.48523590092E+02  0.00000000000E+00 0.  1.
         11    1    4    4    0    0  0.45517555201E+02 -0.47469904567E+02 -0.26949770733E+03  0.27740629756E+03  0.00000000000E+00 0. -1.
        -13    1    3    3    0    0  0.49865218394E+00 -0.31866823780E+02 -0.20399633834E+02  0.37840298260E+02  0.00000000000E+00 0. -1.
         13    1    3    3    0    0 -0.74486683437E+02  0.41181884486E+02  0.10360311983E+02  0.85741178459E+02  0.00000000000E+00 0.  1.
         21    1    1    2  502  501  0.21183764471E+02  0.86701401638E+01 -0.43557160388E+02  0.49205176848E+02  0.00000000000E+00 0.  1.
<scales pt_clust_5="13000.00000" pt_clust_6="13000.00000" pt_clust_7="13000.00000" pt_clust_8="13000.00000" pt_clust_9="22.88937"></scales>
<clustering>
<clus scale="   22.889">  2  9  1 -1</clus>
<clus scale="   93.060">  5  6 -1 -1</clus>
<clus scale="   98.034">  7  8 -1 -1</clus>
<clus scale="  117.128">  2  5  1 -1</clus>
<clus scale="   22.889">  2  5  1 -1</clus>
</clustering>
</event>
<event>
 9    1  0.1175034E-005  0.1084937E+03  0.7546771E-02  0.1263810E+00
          2   -1    0    0  502    0  0.00000000000E+00  0.00000000000E+00  0.69618348604E+03  0.69618348604E+03  0.00000000000E+00 0. -1.
         -2   -1    0    0    0  501 -0.00000000000E+00 -0.00000000000E+00 -0.27694071120E+02  0.27694071120E+02  0.00000000000E+00 0.  1.
         23    2    1    2    0    0 -0.29086603315E+01 -0.68355513443E+02  0.23839856293E+03  0.26422122058E+03  0.91093589655E+02 0.  0.
         23    2    1    2    0    0  0.21069597915E+02  0.51235620253E+02  0.41938129628E+03  0.43249745258E+03  0.90024208282E+02 0.  0.
        -13    1    3    3    0    0  0.93336421881E+01 -0.88337152019E+02  0.16820861396E+03  0.19022278285E+03  0.00000000000E+00 0. -1.
         13    1    3    3    0    0 -0.12242302520E+02  0.19981638576E+02  0.70189948962E+02  0.73998437730E+02  0.00000000000E+00 0.  1.
        -13    1    4    4    0    0  0.37626396978E+01 -0.25953735622E+02  0.12088194767E+03  0.12369397367E+03  0.00000000000E+00 0. -1.
         13    1    4    4    0    0  0.17306958217E+02  0.77189355875E+02  0.29849934861E+03  0.30880347891E+03  0.00000000000E+00 0.  1.
         21    1    1    2  502  501 -0.18160937583E+02  0.17119893190E+02  0.10709555713E+02  0.27158884004E+02  0.00000000000E+00 0. -1.
<scales pt_clust_5="13000.00000" pt_clust_6="13000.00000" pt_clust_7="13000.00000" pt_clust_8="13000.00000" pt_clust_9="24.95817"></scales>
<clustering>
<clus scale="   24.958">  2  9  1 -1</clus>
<clus scale="   90.024">  7  8 -1 -1</clus>
<clus scale="   91.094">  5  6 -1 -1</clus>
<clus scale="  107.597">  1  7  2 -1</clus>
<clus scale="  107.597">  1  5  2 -1</clus>
</clustering>
</event>
<event>
 9    1  0.1175034E-005  0.1275051E+03  0.7546771E-02  0.1240550E+00
         -2   -1    0    0    0  501 -0.00000000000E+00  0.00000000000E+00  0.63296384080E+02  0.63296384080E+02  0.00000000000E+00 0.  1.
          2   -1    0    0  502    0  0.00000000000E+00 -0.00000000000E+00 -0.27906050977E+03  0.27906050977E+03  0.00000000000E+00 0. -1.
         23    2    1    2    0    0 -0.28191636711E+02  0.39922597516E+02 -0.60211942360E+02  0.11510841943E+03  0.85064023236E+02 0.  0.
         23    2    1    2    0    0  0.33951055997E+02 -0.67021877012E+02 -0.14484891103E+03  0.19754827412E+03  0.11135307529E+03 0.  0.
        -11    1    3    3    0    0  0.28734546777E+02  0.21969753784E+02 -0.34934414419E+02  0.50286753431E+02  0.00000000000E+00 0.  1.
         11    1    3    3    0    0 -0.56926183489E+02  0.17952843732E+02 -0.25277527941E+02  0.64821666003E+02  0.00000000000E+00 0. -1.
        -13    1    4    4    0    0 -0.29698720820E+01  0.26531783019E+02 -0.83009356944E+01  0.27958204229E+02  0.00000000000E+00 0.  1.
         13    1    4    4    0    0  0.36920928079E+02 -0.93553660030E+02 -0.13654797534E+03  0.16959006989E+03  0.00000000000E+00 0. -1.
         21    1    1    2  502  501 -0.57594192855E+01  0.27099279496E+02 -0.10703272291E+02  0.29700200293E+02  0.00000000000E+00 0.  1.
<scales pt_clust_5="13000.00000" pt_clust_6="13000.00000" pt_clust_7="13000.00000" pt_clust_8="13000.00000" pt_clust_9="27.70455"></scales>
<clustering>
<clus scale="   27.705">  1  9  2 -1</clus>
<clus scale="   85.064">  5  6 -1 -1</clus>
<clus scale="  105.328">  1  5  2 -1</clus>
<clus scale="  111.353">  7  8 -1 -1</clus>
<clus scale="  127.505">  2  5  1 -1</clus>
</clustering>
</event>
<event>
 9    1  0.1175034E-005  0.9864553E+02  0.7546771E-02  0.1288512E+00
         -1   -1    0    0    0  501 -0.00000000000E+00  0.00000000000E+00  0.36898086754E+03  0.36898086754E+03  0.00000000000E+00 0.  1.
          1   -1    0    0  502    0  0.00000000000E+00 -0.00000000000E+00 -0.50180920059E+02  0.50180920059E+02  0.00000000000E+00 0. -1.
         23    2    1    2    0    0 -0.27700615515E+02 -0.52852878047E+02  0.70585030617E+02  0.12190501062E+03  0.79484805146E+02 0.  0.
         23    2    1    2    0    0  0.40058445118E+01  0.21683708043E+02  0.73598573074E+02  0.11830475310E+03  0.89961295361E+02 0.  0.
        -13    1    4    4    0    0  0.55706079476E+01 -0.24413229038E+02  0.67232118710E+02  0.71743955921E+02  0.00000000000E+00 0.  1.
         13    1    4    4    0    0 -0.15647634358E+01  0.46096937081E+02  0.63664543638E+01  0.46560797180E+02  0.00000000000E+00 0. -1.
        -13    1    3    3    0    0 -0.27960977983E+02  0.14853667201E+02  0.23706572766E+02  0.39553120122E+02  0.00000000000E+00 0.  1.
         13    1    3    3    0    0  0.26036246828E+00 -0.67706545248E+02  0.46878457851E+02  0.82351890498E+02  0.00000000000E+00 0. -1.
         21    1    1    2  502  501  0.23694771003E+02  0.31169170004E+02  0.17461634379E+03  0.17895202388E+03  0.00000000000E+00 0.  1.
<scales pt_clust_5="13000.00000" pt_clust_6="13000.00000" pt_clust_7="13000.00000" pt_clust_8="13000.00000" pt_clust_9="39.15302"></scales>
<clustering>
<clus scale="   39.153">  1  9  2 -1</clus>
<clus scale="   79.485">  7  8 -1 -1</clus>
<clus scale="   89.195">  1  7  2 -1</clus>
<clus scale="   89.961">  5  6 -1 -1</clus>
<clus scale="   98.646">  2  5  1 -1</clus>
</clustering>
</event>
<event>
 9    1  0.1175034E-005  0.3152148E+03  0.7546771E-02  0.1077917E+00
          1   -1    0    0  502    0  0.00000000000E+00  0.00000000000E+00  0.10209673086E+04  0.10209673086E+04  0.00000000000E+00 0. -1.
         -1   -1    0    0    0  501 -0.00000000000E+00 -0.00000000000E+00 -0.12428903411E+03  0.12428903411E+03  0.00000000000E+00 0.  1.
         23    2    1    2    0    0 -0.22126501075E+03  0.17900736168E+03  0.26337249758E+03  0.39826836433E+03  0.90833787894E+02 0.  0.
         23    2    1    2    0    0  0.27740563004E+03 -0.14931442427E+03  0.56953901176E+03  0.65698997839E+03  0.89512372992E+02 0.  0.
        -13    1    4    4    0    0  0.19808765128E+02  0.10810809596E+02  0.25013026321E+02  0.33688458940E+02  0.00000000000E+00 0.  1.
         13    1    4    4    0    0  0.25759686491E+03 -0.16012523386E+03  0.54452598544E+03  0.62330151945E+03  0.00000000000E+00 0. -1.
        -13    1    3    3    0    0 -0.13231941915E+03  0.80193779908E+02  0.19451213199E+03  0.24854464491E+03  0.00000000000E+00 0.  1.
         13    1    3    3    0    0 -0.88945591599E+02  0.98813581771E+02  0.68860365590E+02  0.14972371942E+03  0.00000000000E+00 0. -1.
         21    1    1    2  502  501 -0.56140619283E+02 -0.29692937410E+02  0.63766765171E+02  0.89998000011E+02  0.00000000000E+00 0. -1.
<scales pt_clust_5="13000.00000" pt_clust_6="13000.00000" pt_clust_7="13000.00000" pt_clust_8="13000.00000" pt_clust_9="63.50937"></scales>
<clustering>
<clus scale="   63.509">  2  9  1 -1</clus>
<clus scale="   89.512">  5  6 -1 -1</clus>
<clus scale="   90.834">  7  8 -1 -1</clus>
<clus scale="  314.837">  1  5  2 -1</clus>
<clus scale="  314.837">  1  5  2 -1</clus>
</clustering>
</event>
<event>
 9    1  0.1175034E-005  0.9869305E+02  0.7546771E-02  0.1284322E+00
         -1   -1    0    0    0  501 -0.00000000000E+00  0.00000000000E+00  0.62199864621E+02  0.62199864621E+02  0.00000000000E+00 0.  1.
          1   -1    0    0  502    0  0.00000000000E+00 -0.00000000000E+00 -0.37257314903E+03  0.37257314903E+03  0.00000000000E+00 0. -1.
         23    2    1    2    0    0  0.68677391338E+01 -0.39029595169E+02 -0.14018978230E+03  0.17057976948E+03  0.88734477815E+02 0.  0.
         23    2    1    2    0    0  0.38661846496E+02  0.28336678007E+02 -0.18779504262E+03  0.21421877065E+03  0.91241426830E+02 0.  0.
        -13    1    4    4    0    0  0.63367294713E+02  0.62218207324E+01 -0.84966034548E+02  0.10617604306E+03  0.00000000000E+00 0. -1.
         13    1    4    4    0    0 -0.24705448217E+02  0.22114857275E+02 -0.10282900807E+03  0.10804272759E+03  0.00000000000E+00 0.  1.
        -13    1    3    3    0    0 -0.25106385284E+02 -0.17012208249E+02 -0.60364464527E+01  0.30922233058E+02  0.00000000000E+00 0.  1.
         13    1    3    3    0    0  0.31974124418E+02 -0.22017386920E+02 -0.13415333585E+03  0.13965753642E+03  0.00000000000E+00 0. -1.
         21    1    1    2  502  501 -0.45529585630E+02  0.10692917161E+02  0.17611540514E+02  0.49974473527E+02  0.00000000000E+00 0.  1.
<scales pt_clust_5="13000.00000" pt_clust_6="13000.00000" pt_clust_7="13000.00000" pt_clust_8="13000.00000" pt_clust_9="46.76838"></scales>
<clustering>
<clus scale="   46.768">  1  9  2 -1</clus>
<clus scale="   88.734">  7  8 -1 -1</clus>
<clus scale="   91.241">  5  6 -1 -1</clus>
<clus scale="   96.380">  1  7  2 -1</clus>
<clus scale="   98.693">  2  5  1 -1</clus>
</clustering>
</event>
<event>
 9    1  0.1175034E-005  0.1003621E+03  0.7546771E-02  0.1280336E+00
          1   -1    0    0  502    0  0.00000000000E+00  0.00000000000E+00  0.19718831855E+03  0.19718831855E+03  0.00000000000E+00 0. -1.
         -1   -1    0    0    0  501 -0.00000000000E+00 -0.00000000000E+00 -0.11222987734E+03  0.11222987734E+03  0.00000000000E+00 0.  1.
         23    2    1    2    0    0 -0.17575915385E+02  0.18986110719E+02 -0.39932400064E+02  0.10385579135E+03  0.92314915476E+02 0.  0.
         23    2    1    2    0    0  0.36878596693E+02 -0.10009984663E+02  0.14455701833E+03  0.17658098180E+03  0.93935514579E+02 0.  0.
        -11    1    3    3    0    0  0.35129824426E+02 -0.43700016127E+01 -0.27634892812E+02  0.44909784891E+02  0.00000000000E+00 0. -1.
         11    1    3    3    0    0 -0.52705739811E+02  0.23356112331E+02 -0.12297507252E+02  0.58946006454E+02  0.00000000000E+00 0.  1.
        -13    1    4    4    0    0 -0.21805497474E+02  0.77453894672E+01  0.94907218652E+02  0.97687516758E+02  0.00000000000E+00 0.  1.
         13    1    4    4    0    0  0.58684094167E+02 -0.17755374131E+02  0.49649799676E+02  0.78893465044E+02  0.00000000000E+00 0. -1.
         21    1    1    2  502  501 -0.19302681308E+02 -0.89761260554E+01 -0.19666177047E+02  0.28981422744E+02  0.00000000000E+00 0.  1.
<scales pt_clust_5="13000.00000" pt_clust_6="13000.00000" pt_clust_7="13000.00000" pt_clust_8="13000.00000" pt_clust_9="21.28766"></scales>
<clustering>
<clus scale="   21.288">  2  9  1 -1</clus>
<clus scale="   92.315">  5  6 -1 -1</clus>
<clus scale="   93.936">  7  8 -1 -1</clus>
<clus scale="   98.847">  2  5  1 -1</clus>
<clus scale="  100.362">  1  5  2 -1</clus>
</clustering>
</event>
<event>
 9    1  0.1175034E-005  0.9491523E+02  0.7546771E-02  0.1292527E+00
         -2   -1    0    0    0  501 -0.00000000000E+00  0.00000000000E+00  0.98592681333E+02  0.98592681333E+02  0.00000000000E+00 0.  1.
          2   -1    0    0  502    0  0.00000000000E+00 -0.00000000000E+00 -0.12676418081E+03  0.12676418081E+03  0.00000000000E+00 0. -1.
         23    2    1    2    0    0 -0.15325991066E+02  0.10096285322E+02 -0.52096716105E+00  0.92415901328E+02  0.90573762382E+02 0.  0.
         23    2    1    2    0    0  0.23556513508E+02  0.14180359617E+02 -0.39860312252E+02  0.10454772720E+03  0.92657384177E+02 0.  0.
        -11    1    3    3    0    0 -0.35747625950E+02 -0.24859059049E+02  0.18958192209E+02  0.47489773949E+02  0.00000000000E+00 0.  1.
         11    1    3    3    0    0  0.20421634884E+02  0.34955344372E+02 -0.19479159370E+02  0.44926127379E+02  0.00000000000E+00 0. -1.
        -13    1    4    4    0    0  0.94802021988E+01 -0.21997143882E+02 -0.57214141627E+02  0.62025854083E+02  0.00000000000E+00 0. -1.
         13    1    4    4    0    0  0.14076311310E+02  0.36177503499E+02  0.17353829374E+02  0.42521873118E+02  0.00000000000E+00 0.  1.
         21    1    1    2  502  501 -0.82305224425E+01 -0.24276644939E+02  0.12209779934E+02  0.28393233617E+02  0.00000000000E+00 0.  1.
<scales pt_clust_5="13000.00000" pt_clust_6="13000.00000" pt_clust_7="13000.00000" pt_clust_8="13000.00000" pt_clust_9="25.63390"></scales>
<clustering>
<clus scale="   25.634">  1  9  2 -1</clus>
<clus scale="   90.574">  5  6 -1 -1</clus>
<clus scale="   92.657">  7  8 -1 -1</clus>
<clus scale="   92.882">  1  5  2 -1</clus>
<clus scale="   94.915">  2  5  1 -1</clus>
</clustering>
</event>
<event>
 9    1  0.1175034E-005  0.1990406E+03  0.7546771E-02  0.1151504E+00
          4   -1    0    0  502    0  0.00000000000E+00  0.00000000000E+00  0.16159653439E+04  0.16159653439E+04  0.00000000000E+00 0. -1.
         -4   -1    0    0    0  501 -0.00000000000E+00 -0.00000000000E+00 -0.16051500502E+03  0.16051500502E+03  0.00000000000E+00 0.  1.
         23    2    1    2    0    0  0.10453940825E+03  0.16349368404E+03  0.62118546105E+03  0.65760777766E+03  0.94434843241E+02 0.  0.
         23    2    1    2    0    0 -0.15377267506E+03 -0.67766752341E+02  0.94445388627E+03  0.96482979278E+03  0.10327157122E+03 0.  0.
        -11    1    3    3    0    0  0.78513899392E+02  0.17034419089E+03  0.51597183261E+03  0.54900683768E+03  0.00000000000E+00 0. -1.
         11    1    3    3    0    0  0.26025508857E+02 -0.68505068512E+01  0.10521362844E+03  0.10860093998E+03  0.00000000000E+00 0.  1.
        -13    1    4    4    0    0 -0.81139360380E+02 -0.90095019129E+02  0.58396062962E+03  0.59641489353E+03  0.00000000000E+00 0.  1.
         13    1    4    4    0    0 -0.72633314680E+02  0.22328266788E+02  0.36049325665E+03  0.36841489925E+03  0.00000000000E+00 0. -1.
         21    1    1    2  502  501  0.49233266811E+02 -0.95726931700E+02 -0.11018900845E+03  0.15404277847E+03  0.00000000000E+00 0.  1.
<scales pt_clust_5="13000.00000" pt_clust_6="13000.00000" pt_clust_7="13000.00000" pt_clust_8="13000.00000" pt_clust_9="107.64553"></scales>
<clustering>
<clus scale="   94.435">  5  6 -1 -1</clus>
<clus scale="  103.272">  7  8 -1 -1</clus>
<clus scale="  107.646">  2  9  1 -1</clus>
<clus scale="  194.602">  2  5  1 -1</clus>
<clus scale="  199.041">  1  5  2 -1</clus>
</clustering>
</event>
<event>
 9    1  0.1721490E-005  0.9811184E+02  0.7546771E-02  0.1289015E+00
         -1   -1    0    0    0  501 -0.00000000000E+00  0.00000000000E+00  0.22305241027E+03  0.22305241027E+03  0.00000000000E+00 0.  1.
          1   -1    0    0  502    0  0.00000000000E+00 -0.00000000000E+00 -0.37415287070E+03  0.37415287070E+03  0.00000000000E+00 0. -1.
         23    2    1    2    0    0 -0.12825579490E+01 -0.10471162694E+02  0.11933016072E+03  0.14810976848E+03  0.87094925568E+02 0.  0.
         23    2    1    2    0    0  0.21138397114E+02 -0.94755116776E+01 -0.35059064558E+03  0.36413814857E+03  0.95635627860E+02 0.  0.
        -13    1    3    3    0    0  0.41691652937E+02 -0.15461722779E+02  0.59970208848E+02  0.74657114498E+02  0.00000000000E+00 0. -1.
         13    1    3    3    0    0 -0.42974210886E+02  0.49905600849E+01  0.59359951873E+02  0.73452653986E+02  0.00000000000E+00 0.  1.
        -13    1    4    4    0    0  0.27062674958E+02 -0.48671637441E+02 -0.15846949635E+03  0.16796993166E+03  0.00000000000E+00 0. -1.
         13    1    4    4    0    0 -0.59242778430E+01  0.39196125764E+02 -0.19212114923E+03  0.19616821691E+03  0.00000000000E+00 0.  1.
         21    1    1    2  502  501 -0.19855839166E+02  0.19946674371E+02  0.80160024430E+02  0.84957363919E+02  0.00000000000E+00 0.  1.
<scales pt_clust_5="13000.00000" pt_clust_6="13000.00000" pt_clust_7="13000.00000" pt_clust_8="13000.00000" pt_clust_9="28.14470"></scales>
<clustering>
<clus scale="   28.145">  1  9  2 -1</clus>
<clus scale="   87.095">  5  6 -1 -1</clus>
<clus scale="   89.807">  1  5  2 -1</clus>
<clus scale="   95.636">  7  8 -1 -1</clus>
<clus scale="   98.112">  2  5  1 -1</clus>
</clustering>
</event>
<event>
 9    1  0.1175034E-005  0.1080956E+03  0.7546771E-02  0.1264569E+00
         -1   -1    0    0    0  501 -0.00000000000E+00  0.00000000000E+00  0.70363610263E+02  0.70363610263E+02  0.00000000000E+00 0.  1.
          1   -1    0    0  502    0  0.00000000000E+00 -0.00000000000E+00 -0.40845234087E+03  0.40845234087E+03  0.00000000000E+00 0. -1.
         23    2    1    2    0    0 -0.77928118278E+02  0.50381121694E+02 -0.58937097240E+02  0.14347729980E+03  0.92201437543E+02 0.  0.
         23    2    1    2    0    0  0.26802215920E+02 -0.41271533717E+02 -0.26020107832E+03  0.28005785881E+03  0.91137834357E+02 0.  0.
        -13    1    3    3    0    0 -0.46476300455E+02  0.70438006925E+02 -0.14781540841E+02  0.85674110869E+02  0.00000000000E+00 0.  1.
         13    1    3    3    0    0 -0.31451817823E+02 -0.20056885231E+02 -0.44155556399E+02  0.57803188929E+02  0.00000000000E+00 0. -1.
        -13    1    4    4    0    0  0.41754747439E+02 -0.60743616301E+02 -0.22765282333E+03  0.23928864123E+03  0.00000000000E+00 0. -1.
         13    1    4    4    0    0 -0.14952531519E+02  0.19472082584E+02 -0.32548254991E+02  0.40769217578E+02  0.00000000000E+00 0.  1.
         21    1    1    2  502  501  0.51125902358E+02 -0.91095879768E+01 -0.18950555047E+02  0.55280792519E+02  0.00000000000E+00 0. -1.
<scales pt_clust_5="13000.00000" pt_clust_6="13000.00000" pt_clust_7="13000.00000" pt_clust_8="13000.00000" pt_clust_9="51.93113"></scales>
<clustering>
<clus scale="   51.931">  1  9  2 -1</clus>
<clus scale="   91.138">  7  8 -1 -1</clus>
<clus scale="   92.201">  5  6 -1 -1</clus>
<clus scale="  107.190">  2  7  1 -1</clus>
<clus scale="  107.190">  2  5  1 -1</clus>
</clustering>
</event>
<event>
 9    1  0.1175034E-005  0.2000353E+03  0.7546771E-02  0.1149979E+00
         -2   -1    0    0    0  501 -0.00000000000E+00  0.00000000000E+00  0.46707736114E+03  0.46707736114E+03  0.00000000000E+00 0.  1.
          2   -1    0    0  502    0  0.00000000000E+00 -0.00000000000E+00 -0.17576486976E+03  0.17576486976E+03  0.00000000000E+00 0. -1.
         23    2    1    2    0    0  0.17229689032E+03  0.22177373824E+02  0.53367271268E+02  0.20293135103E+03  0.90305112061E+02 0.  0.
         23    2    1    2    0    0 -0.17564699702E+03 -0.52760931438E+02  0.32493243231E+01  0.20320697049E+03  0.87446734055E+02 0.  0.
        -13    1    4    4    0    0 -0.58095709214E+02 -0.30689648135E+00 -0.36348740157E+02  0.68530551767E+02  0.00000000000E+00 0. -1.
         13    1    4    4    0    0 -0.11755128781E+03 -0.52454034957E+02  0.39598064480E+02  0.13467641872E+03  0.00000000000E+00 0.  1.
        -13    1    3    3    0    0  0.50969303609E+02 -0.32055301826E+02  0.13776456280E+01  0.60227154947E+02  0.00000000000E+00 0.  1.
         13    1    3    3    0    0  0.12132758671E+03  0.54232675650E+02  0.51989625640E+02  0.14270419608E+03  0.00000000000E+00 0. -1.
         21    1    1    2  502  501  0.33501067007E+01  0.30583557614E+02  0.23469589579E+03  0.23670390937E+03  0.00000000000E+00 0.  1.
<scales pt_clust_5="13000.00000" pt_clust_6="13000.00000" pt_clust_7="13000.00000" pt_clust_8="13000.00000" pt_clust_9="30.76649"></scales>
<clustering>
<clus scale="   30.766">  1  9  2 -1</clus>
<clus scale="   87.447">  5  6 -1 -1</clus>
<clus scale="   90.305">  7  8 -1 -1</clus>
<clus scale="  198.761">  2  5  1 -1</clus>
<clus scale="  198.761">  2  5  1 -1</clus>
</clustering>
</event>
<event>
 9    1  0.1175034E-005  0.1532241E+03  0.7546771E-02  0.1197113E+00
         -1   -1    0    0    0  501 -0.00000000000E+00  0.00000000000E+00  0.49995216340E+03  0.49995216340E+03  0.00000000000E+00 0.  1.
          1   -1    0    0  502    0  0.00000000000E+00 -0.00000000000E+00 -0.11437208809E+03  0.11437208809E+03  0.00000000000E+00 0. -1.
         23    2    1    2    0    0  0.55007058275E+02  0.13650778551E+03  0.26322295002E+03  0.31613538815E+03  0.94842555112E+02 0.  0.
         23    2    1    2    0    0 -0.24203861794E+02 -0.11225830080E+03 -0.21908720341E+02  0.14869134284E+03  0.91876930638E+02 0.  0.
        -11    1    3    3    0    0 -0.34021682405E+01  0.78552667079E+02  0.66789285197E+02  0.10316445546E+03  0.00000000000E+00 0. -1.
         11    1    3    3    0    0  0.58409226516E+02  0.57955118430E+02  0.19643366482E+03  0.21297093269E+03  0.00000000000E+00 0.  1.
        -13    1    4    4    0    0 -0.25321147863E+02  0.55997927759E+01  0.79137247307E+01  0.27113562056E+02  0.00000000000E+00 0.  1.
         13    1    4    4    0    0  0.11172860697E+01 -0.11785809358E+03 -0.29822445072E+02  0.12157778078E+03  0.00000000000E+00 0. -1.
         21    1    1    2  502  501 -0.30803196481E+02 -0.24249484706E+02  0.14426584563E+03  0.14949752050E+03  0.00000000000E+00 0. -1.
<scales pt_clust_5="13000.00000" pt_clust_6="13000.00000" pt_clust_7="13000.00000" pt_clust_8="13000.00000" pt_clust_9="39.20299"></scales>
<clustering>
<clus scale="   39.203">  1  9  2 -1</clus>
<clus scale="   91.877">  7  8 -1 -1</clus>
<clus scale="   94.843">  5  6 -1 -1</clus>
<clus scale="  151.406">  2  7  1 -1</clus>
<clus scale="  151.406">  2  5  1 -1</clus>
</clustering>
</event>
<event>
 9    1  0.1175034E-005  0.9745785E+02  0.7546771E-02  0.1286005E+00
         -1   -1    0    0    0  501 -0.00000000000E+00  0.00000000000E+00  0.84011787722E+02  0.84011787722E+02  0.00000000000E+00 0.  1.
          1   -1    0    0  502    0  0.00000000000E+00 -0.00000000000E+00 -0.33342786256E+03  0.33342786256E+03  0.00000000000E+00 0. -1.
         23    2    1    2    0    0 -0.25839259303E+01  0.10605299763E+02  0.20812777174E+02  0.94807599321E+02  0.91848571785E+02 0.  0.
         23    2    1    2    0    0  0.33645999330E+02 -0.13966449900E+02 -0.27405234692E+03  0.29115557010E+03  0.91322298220E+02 0.  0.
        -11    1    3    3    0    0  0.22262357482E+02  0.19840419324E+02  0.48209316006E+02  0.56686796959E+02  0.00000000000E+00 0.  1.
         11    1    3    3    0    0 -0.24846283413E+02 -0.92351195613E+01 -0.27396538832E+02  0.38120802362E+02  0.00000000000E+00 0. -1.
        -11    1    4    4    0    0  0.51367925878E+02 -0.38450125215E+02 -0.22068539006E+03  0.22982410084E+03  0.00000000000E+00 0. -1.
         11    1    4    4    0    0 -0.17721926548E+02  0.24483675314E+02 -0.53366956861E+02  0.61331469264E+02  0.00000000000E+00 0.  1.
         21    1    1    2  502  501 -0.31062073400E+02  0.33611501377E+01  0.38234949097E+01  0.31476480862E+02  0.00000000000E+00 0. -1.
<scales pt_clust_5="13000.00000" pt_clust_6="13000.00000" pt_clust_7="13000.00000" pt_clust_8="13000.00000" pt_clust_9="31.24340"></scales>
<clustering>
<clus scale="   31.243">  1  9  2 -1</clus>
<clus scale="   91.322">  7  8 -1 -1</clus>
<clus scale="   91.849">  5  6 -1 -1</clus>
<clus scale="   96.962">  2  7  1 -1</clus>
<clus scale="   96.962">  2  5  1 -1</clus>
</clustering>
</event>
<event>
 9    1  0.1175034E-005  0.9501972E+02  0.7546771E-02  0.1292649E+00
         -2   -1    0    0    0  501 -0.00000000000E+00  0.00000000000E+00  0.42484358167E+02  0.42484358167E+02  0.00000000000E+00 0.  1.
          2   -1    0    0  502    0  0.00000000000E+00 -0.00000000000E+00 -0.72802277204E+03  0.72802277204E+03  0.00000000000E+00 0. -1.
         23    2    1    2    0    0  0.20103493381E+02  0.41573235553E+02 -0.26804736195E+03  0.28761826252E+03  0.93500761099E+02 0.  0.
         23    2    1    2    0    0  0.36384919860E+02  0.12073640705E+02 -0.38679635412E+03  0.39915660009E+03  0.90801633495E+02 0.  0.
        -13    1    4    4    0    0  0.61013416428E+02 -0.13371167933E+02 -0.22344636354E+03  0.23201228954E+03  0.00000000000E+00 0.  1.
         13    1    4    4    0    0 -0.24628496568E+02  0.25444808638E+02 -0.16334999058E+03  0.16714431056E+03  0.00000000000E+00 0. -1.
        -13    1    3    3    0    0 -0.29027386448E+01  0.61901444614E+02 -0.23265169189E+03  0.24076342014E+03  0.00000000000E+00 0. -1.
         13    1    3    3    0    0  0.23006232025E+02 -0.20328209061E+02 -0.35395670058E+02  0.46854842380E+02  0.00000000000E+00 0.  1.
         21    1    1    2  502  501 -0.56488413240E+02 -0.53646876258E+02 -0.30694697799E+02  0.83732267589E+02  0.00000000000E+00 0.  1.
<scales pt_clust_5="13000.00000" pt_clust_6="13000.00000" pt_clust_7="13000.00000" pt_clust_8="13000.00000" pt_clust_9="77.90333"></scales>
<clustering>
<clus scale="   77.903">  1  9  2 -1</clus>
<clus scale="   90.802">  5  6 -1 -1</clus>
<clus scale="   92.365">  2  5  1 -1</clus>
<clus scale="   93.501">  7  8 -1 -1</clus>
<clus scale="   92.365">  2  5  1 -1</clus>
</clustering>
</event>
<event>
 9    1  0.1175034E-005  0.9881473E+02  0.7546771E-02  0.1285069E+00
          1   -1    0    0  502    0  0.00000000000E+00  0.00000000000E+00  0.26884122572E+03  0.26884122572E+03  0.00000000000E+00 0. -1.
         -1   -1    0    0    0  501 -0.00000000000E+00 -0.00000000000E+00 -0.14239411413E+03  0.14239411413E+03  0.00000000000E+00 0.  1.
         23    2    1    2    0    0  0.21422817401E+02  0.12173005957E+01  0.13040816742E+02  0.91684348678E+02  0.88179010910E+02 0.  0.
         23    2    1    2    0    0 -0.61099705571E+01  0.43981606430E+02  0.19764405337E+03  0.22273454405E+03  0.92605571300E+02 0.  0.
        -11    1    4    4    0    0  0.35420793111E+02  0.11433005901E+02  0.32659464680E+02  0.49517540749E+02  0.00000000000E+00 0.  1.
         11    1    4    4    0    0 -0.41530763669E+02  0.32548600529E+02  0.16498458869E+03  0.17321700330E+03  0.00000000000E+00 0. -1.
        -11    1    3    3    0    0  0.18762352253E+02 -0.35889344550E+02 -0.16947273085E+02  0.43900808413E+02  0.00000000000E+00 0.  1.
         11    1    3    3    0    0  0.26604651477E+01  0.37106645146E+02  0.29988089827E+02  0.47783540265E+02  0.00000000000E+00 0. -1.
         21    1    1    2  502  501 -0.15312846844E+02 -0.45198907026E+02 -0.84237758522E+02  0.96816447133E+02  0.00000000000E+00 0.  1.
<scales pt_clust_5="13000.00000" pt_clust_6="13000.00000" pt_clust_7="13000.00000" pt_clust_8="13000.00000" pt_clust_9="47.72237"></scales>
<clustering>
<clus scale="   47.722">  2  9  1 -1</clus>
<clus scale="   88.179">  7  8 -1 -1</clus>
<clus scale="   92.606">  5  6 -1 -1</clus>
<clus scale="   94.679">  2  7  1 -1</clus>
<clus scale="   98.815">  1  5  2 -1</clus>
</clustering>
</event>
<event>
 9    1  0.1175034E-005  0.2331471E+03  0.7546771E-02  0.1149221E+00
         -1   -1    0    0    0  501 -0.00000000000E+00  0.00000000000E+00  0.59716178822E+02  0.59716178822E+02  0.00000000000E+00 0.  1.
          1   -1    0    0  502    0  0.00000000000E+00 -0.00000000000E+00 -0.15045090520E+04  0.15045090520E+04  0.00000000000E+00 0. -1.
         23    2    1    2    0    0 -0.88917980083E+02  0.10972968799E+02 -0.20150393939E+03  0.23861935230E+03  0.91151217631E+02 0.  0.
         23    2    1    2    0    0  0.23698747988E+03 -0.94448101093E+02 -0.93758800464E+03  0.97582633000E+03  0.89901337362E+02 0.  0.
        -13    1    3    3    0    0 -0.98024551282E+02 -0.15958433967E+02 -0.15342705232E+03  0.18276581916E+03  0.00000000000E+00 0.  1.
         13    1    3    3    0    0  0.91065711996E+01  0.26931402767E+02 -0.48076887064E+02  0.55853533136E+02  0.00000000000E+00 0. -1.
        -13    1    4    4    0    0  0.16427548096E+03 -0.10743002772E+03 -0.65871931245E+03  0.68734181969E+03  0.00000000000E+00 0. -1.
         13    1    4    4    0    0  0.72711998924E+02  0.12981926626E+02 -0.27886869219E+03  0.28848451031E+03  0.00000000000E+00 0.  1.
         21    1    1    2  502  501 -0.14806949980E+03  0.83475132293E+02 -0.30570092918E+03  0.34977954855E+03  0.00000000000E+00 0.  1.
<scales pt_clust_5="13000.00000" pt_clust_6="13000.00000" pt_clust_7="13000.00000" pt_clust_8="13000.00000" pt_clust_9="215.11704"></scales>
<clustering>
<clus scale="   89.901">  7  8 -1 -1</clus>
<clus scale="   91.151">  5  6 -1 -1</clus>
<clus scale="  127.810">  1  5  2 -1</clus>
<clus scale="  215.117">  1  9  2 -1</clus>
<clus scale="  233.147">  2  5  1 -1</clus>
</clustering>
</event>
<event>
 9    1  0.1175034E-005  0.1443524E+03  0.7546771E-02  0.1210482E+00
          2   -1    0    0  502    0  0.00000000000E+00  0.00000000000E+00  0.60747569129E+03  0.60747569129E+03  0.00000000000E+00 0. -1.
         -2   -1    0    0    0  501 -0.00000000000E+00 -0.00000000000E+00 -0.58745273336E+02  0.58745273336E+02  0.00000000000E+00 0.  1.
         23    2    1    2    0    0 -0.68473608310E+02  0.39218311204E+02  0.61312009010E+02  0.14334598606E+03  0.10277255617E+03 0.  0.
         23    2    1    2    0    0  0.78107950820E+02 -0.74264455315E+02  0.44672833067E+03  0.46831551337E+03  0.90206193443E+02 0.  0.
        -13    1    4    4    0    0  0.77217331976E+01 -0.47178096939E+02  0.74467472364E+02  0.88491821287E+02  0.00000000000E+00 0.  1.
         13    1    4    4    0    0  0.70386217622E+02 -0.27086358376E+02  0.37226085830E+03  0.37982369208E+03  0.00000000000E+00 0. -1.
        -13    1    3    3    0    0 -0.46682854614E+02  0.72469588912E+02  0.25649372764E+02  0.89938982400E+02  0.00000000000E+00 0.  1.
         13    1    3    3    0    0 -0.21790753695E+02 -0.33251277708E+02  0.35662636246E+02  0.53407003659E+02  0.00000000000E+00 0. -1.
         21    1    1    2  502  501 -0.96343425101E+01  0.35046144111E+02  0.40690078277E+02  0.54559465199E+02  0.00000000000E+00 0.  1.
<scales pt_clust_5="13000.00000" pt_clust_6="13000.00000" pt_clust_7="13000.00000" pt_clust_8="13000.00000" pt_clust_9="36.34629"></scales>
<clustering>
<clus scale="   36.346">  2  9  1 -1</clus>
<clus scale="   90.206">  5  6 -1 -1</clus>
<clus scale="  102.773">  7  8 -1 -1</clus>
<clus scale="  135.693">  1  5  2 -1</clus>
<clus scale="  135.693">  1  5  2 -1</clus>
</clustering>
</event>
<event>
 9    1  0.1175034E-005  0.1329822E+03  0.7546771E-02  0.1224208E+00
         -2   -1    0    0    0  501 -0.00000000000E+00  0.00000000000E+00  0.79978913866E+02  0.79978913866E+02  0.00000000000E+00 0.  1.
          2   -1    0    0  502    0  0.00000000000E+00 -0.00000000000E+00 -0.27148123036E+03  0.27148123036E+03  0.00000000000E+00 0. -1.
         23    2    1    2    0    0 -0.20811490568E+01  0.99685211212E+02 -0.98949767713E+02  0.16651650295E+03  0.89415975682E+02 0.  0.
         23    2    1    2    0    0 -0.20645057238E+02 -0.87950369411E+02 -0.91849958666E+02  0.15935691431E+03  0.93790859694E+02 0.  0.
        -11    1    4    4    0    0 -0.38732780279E+02 -0.78235322304E+02 -0.10377718069E+03  0.13561230459E+03  0.00000000000E+00 0. -1.
         11    1    4    4    0    0  0.18087723041E+02 -0.97150471069E+01  0.11927222028E+02  0.23744609713E+02  0.00000000000E+00 0.  1.
        -13    1    3    3    0    0  0.37612552252E+02  0.42950239771E+02 -0.17716402416E+02  0.59777070001E+02  0.00000000000E+00 0.  1.
         13    1    3    3    0    0 -0.39693701309E+02  0.56734971441E+02 -0.81233365297E+02  0.10673943295E+03  0.00000000000E+00 0. -1.
         21    1    1    2  502  501  0.22726206295E+02 -0.11734841801E+02 -0.70259012033E+00  0.25586726979E+02  0.00000000000E+00 0.  1.
<scales pt_clust_5="13000.00000" pt_clust_6="13000.00000" pt_clust_7="13000.00000" pt_clust_8="13000.00000" pt_clust_9="25.57708"></scales>
<clustering>
<clus scale="   25.577">  1  9  2 -1</clus>
<clus scale="   89.416">  7  8 -1 -1</clus>
<clus scale="   93.791">  5  6 -1 -1</clus>
<clus scale="  129.934">  1  7  2 -1</clus>
<clus scale="  132.982">  2  5  1 -1</clus>
</clustering>
</event>
<event>
 9    1  0.1175034E-005  0.9807285E+02  0.7546771E-02  0.1286446E+00
         -1   -1    0    0    0  501 -0.00000000000E+00  0.00000000000E+00  0.14477686463E+03  0.14477686463E+03  0.00000000000E+00 0.  1.
          1   -1    0    0  502    0  0.00000000000E+00 -0.00000000000E+00 -0.10299504272E+03  0.10299504272E+03  0.00000000000E+00 0. -1.
         23    2    1    2    0    0 -0.11376733146E+02 -0.35794722819E+02 -0.25677627108E+01  0.98879928580E+02  0.91432787510E+02 0.  0.
         23    2    1    2    0    0 -0.73750674101E+01  0.10420900722E+02  0.20638362451E+01  0.96132663131E+02  0.95258819588E+02 0.  0.
        -11    1    4    4    0    0  0.75521274832E+01 -0.35828003264E+02  0.22975021596E+02  0.43226520386E+02  0.00000000000E+00 0.  1.
         11    1    4    4    0    0 -0.14927194893E+02  0.46248903986E+02 -0.20911185351E+02  0.52906142744E+02  0.00000000000E+00 0. -1.
        -11    1    3    3    0    0 -0.17009790819E+02  0.14915412904E+02  0.30577792735E+02  0.38036875980E+02  0.00000000000E+00 0. -1.
         11    1    3    3    0    0  0.56330576728E+01 -0.50710135723E+02 -0.33145555446E+02  0.60843052600E+02  0.00000000000E+00 0.  1.
         21    1    1    2  502  501  0.18751800556E+02  0.25373822097E+02  0.42285748367E+02  0.52759315641E+02  0.00000000000E+00 0. -1.
<scales pt_clust_5="13000.00000" pt_clust_6="13000.00000" pt_clust_7="13000.00000" pt_clust_8="13000.00000" pt_clust_9="31.55093"></scales>
<clustering>
<clus scale="   31.551">  1  9  2 -1</clus>
<clus scale="   91.433">  7  8 -1 -1</clus>
<clus scale="   94.361">  1  7  2 -1</clus>
<clus scale="   95.259">  5  6 -1 -1</clus>
<clus scale="   98.073">  2  5  1 -1</clus>
</clustering>
</event>
<event>
 9    1  0.1175034E-005  0.3759651E+03  0.7546771E-02  0.1052470E+00
          2   -1    0    0  502    0  0.00000000000E+00  0.00000000000E+00  0.52437915134E+03  0.52437915134E+03  0.00000000000E+00 0. -1.
         -2   -1    0    0    0  501 -0.00000000000E+00 -0.00000000000E+00 -0.47156021138E+03  0.47156021138E+03  0.00000000000E+00 0.  1.
         23    2    1    2    0    0 -0.24144578507E+03  0.27609970376E+03 -0.27632408154E+03  0.46838375135E+03  0.92202098366E+02 0.  0.
         23    2    1    2    0    0  0.25944883283E+03 -0.24394426395E+03  0.32480632725E+03  0.49044915701E+03  0.90657181815E+02 0.  0.
        -13    1    4    4    0    0  0.53166356875E+02 -0.80785402753E+02  0.45757469061E+02  0.10698919934E+03  0.00000000000E+00 0.  1.
         13    1    4    4    0    0  0.20628247596E+03 -0.16315886120E+03  0.27904885819E+03  0.38345995767E+03  0.00000000000E+00 0. -1.
        -13    1    3    3    0    0 -0.57544941214E+02  0.16720420890E+02 -0.50884568670E+02  0.78614451997E+02  0.00000000000E+00 0. -1.
         13    1    3    3    0    0 -0.18390084386E+03  0.25937928287E+03 -0.22543951287E+03  0.38976929936E+03  0.00000000000E+00 0.  1.
         21    1    1    2  502  501 -0.18003047761E+02 -0.32155439812E+02  0.43366942502E+01  0.37106454361E+02  0.00000000000E+00 0.  1.
<scales pt_clust_5="13000.00000" pt_clust_6="13000.00000" pt_clust_7="13000.00000" pt_clust_8="13000.00000" pt_clust_9="36.85216"></scales>
<clustering>
<clus scale="   36.852">  1  9  2 -1</clus>
<clus scale="   90.657">  5  6 -1 -1</clus>
<clus scale="   92.202">  7  8 -1 -1</clus>
<clus scale="  375.589">  1  5  2 -1</clus>
<clus scale="   36.852">  1  5  2 -1</clus>
</clustering>
</event>
<event>
 9    1  0.1175034E-005  0.2941167E+03  0.7546771E-02  0.1088510E+00
         -2   -1    0    0    0  501 -0.00000000000E+00  0.00000000000E+00  0.34043049153E+03  0.34043049153E+03  0.00000000000E+00 0.  1.
          2   -1    0    0  502    0  0.00000000000E+00 -0.00000000000E+00 -0.79813152767E+03  0.79813152767E+03  0.00000000000E+00 0. -1.
         23    2    1    2    0    0 -0.23228760221E+03  0.98760592870E+02 -0.22683366640E+02  0.27209218400E+03  0.99037551601E+02 0.  0.
         23    2    1    2    0    0  0.26664534588E+03 -0.97062434176E+02 -0.61483309859E+03  0.68339354828E+03  0.92120280560E+02 0.  0.
        -13    1    3    3    0    0 -0.12451267849E+03  0.95950951719E+02  0.14944548699E+02  0.15790291883E+03  0.00000000000E+00 0.  1.
         13    1    3    3    0    0 -0.10777492372E+03  0.28096411511E+01 -0.37627915339E+02  0.11418926517E+03  0.00000000000E+00 0. -1.
        -13    1    4    4    0    0  0.78702684305E+02 -0.53044455121E+02 -0.12537068050E+03  0.15724386876E+03  0.00000000000E+00 0. -1.
         13    1    4    4    0    0  0.18794266158E+03 -0.44017979055E+02 -0.48946241810E+03  0.52614967951E+03  0.00000000000E+00 0.  1.
         21    1    1    2  502  501 -0.34357743676E+02 -0.16981586940E+01  0.17981542909E+03  0.18307628692E+03  0.00000000000E+00 0.  1.
<scales pt_clust_5="13000.00000" pt_clust_6="13000.00000" pt_clust_7="13000.00000" pt_clust_8="13000.00000" pt_clust_9="34.39968"></scales>
<clustering>
<clus scale="   34.400">  1  9  2 -1</clus>
<clus scale="   92.120">  7  8 -1 -1</clus>
<clus scale="   99.038">  5  6 -1 -1</clus>
<clus scale="  291.860">  2  7  1 -1</clus>
<clus scale="  291.860">  2  5  1 -1</clus>
</clustering>
</event>
<event>
 9    1  0.1175034E-005  0.9519869E+02  0.7546771E-02  0.1290943E+00
         -1   -1    0    0    0  501 -0.00000000000E+00  0.00000000000E+00  0.12331267634E+03  0.12331267634E+03  0.00000000000E+00 0.  1.
          1   -1    0    0  502    0  0.00000000000E+00 -0.00000000000E+00 -0.39885149249E+03  0.39885149249E+03  0.00000000000E+00 0. -1.
         23    2    1    2    0    0  0.32642055365E+02 -0.47115237522E+02 -0.65082110180E+02  0.12464734958E+03  0.89531733518E+02 0.  0.
         23    2    1    2    0    0  0.61704512481E+01  0.28657740882E+02 -0.29125754717E+03  0.30599706296E+03  0.89128576670E+02 0.  0.
        -13    1    3    3    0    0 -0.17954505354E+02 -0.39311679658E+02 -0.18071061552E+01  0.43255497370E+02  0.00000000000E+00 0.  1.
         13    1    3    3    0    0  0.50596560719E+02 -0.78035578633E+01 -0.63275004025E+02  0.81391852211E+02  0.00000000000E+00 0. -1.
        -13    1    4    4    0    0 -0.39654416099E+02  0.11913055951E+00 -0.11391198632E+03  0.12061686256E+03  0.00000000000E+00 0.  1.
         13    1    4    4    0    0  0.45824867347E+02  0.28538610322E+02 -0.17734556085E+03  0.18538020040E+03  0.00000000000E+00 0. -1.
         21    1    1    2  502  501 -0.38812506613E+02  0.18457496640E+02  0.80800841199E+02  0.91519756284E+02  0.00000000000E+00 0.  1.
<scales pt_clust_5="13000.00000" pt_clust_6="13000.00000" pt_clust_7="13000.00000" pt_clust_8="13000.00000" pt_clust_9="42.97778"></scales>
<clustering>
<clus scale="   42.978">  1  9  2 -1</clus>
<clus scale="   89.129">  7  8 -1 -1</clus>
<clus scale="   89.532">  5  6 -1 -1</clus>
<clus scale="   94.820">  2  7  1 -1</clus>
<clus scale="   94.820">  2  5  1 -1</clus>
</clustering>
</event>
<event>
 9    1  0.1175034E-005  0.9331523E+02  0.7546771E-02  0.1295438E+00
          1   -1    0    0  502    0  0.00000000000E+00  0.00000000000E+00  0.19781529097E+03  0.19781529097E+03  0.00000000000E+00 0. -1.
         -1   -1    0    0    0  501 -0.00000000000E+00 -0.00000000000E+00 -0.58378370173E+02  0.58378370173E+02  0.00000000000E+00 0.  1.
         23    2    1    2    0    0 -0.12166479913E+02 -0.20299016969E+01  0.30833022743E+02  0.97953998967E+02  0.92152953766E+02 0.  0.
         23    2    1    2    0    0  0.16650176272E+02 -0.17584440515E+02  0.94321660924E+02  0.13356562216E+03  0.91415309356E+02 0.  0.
        -13    1    4    4    0    0 -0.19357513323E+02  0.16433040472E+02 -0.17740380768E+01  0.25453984998E+02  0.00000000000E+00 0.  1.
         13    1    4    4    0    0  0.36007689595E+02 -0.34017480987E+02  0.96095699001E+02  0.10811163716E+03  0.00000000000E+00 0. -1.
        -13    1    3    3    0    0 -0.18346839889E+01 -0.45897513930E+02  0.55219377748E+01  0.46264885681E+02  0.00000000000E+00 0. -1.
         13    1    3    3    0    0 -0.10331795924E+02  0.43867612233E+02  0.25311084968E+02  0.51689113286E+02  0.00000000000E+00 0.  1.
         21    1    1    2  502  501 -0.44836963589E+01  0.19614342212E+02  0.14282237131E+02  0.24674040020E+02  0.00000000000E+00 0.  1.
<scales pt_clust_5="13000.00000" pt_clust_6="13000.00000" pt_clust_7="13000.00000" pt_clust_8="13000.00000" pt_clust_9="20.12029"></scales>
<clustering>
<clus scale="   20.120">  1  9  2 -1</clus>
<clus scale="   91.415">  5  6 -1 -1</clus>
<clus scale="   92.153">  7  8 -1 -1</clus>
<clus scale="   92.587">  1  5  2 -1</clus>
<clus scale="   20.120">  1  5  2 -1</clus>
</clustering>
</event>
<event>
 9    1  0.1175034E-005  0.1016644E+03  0.7546771E-02  0.1277489E+00
         -1   -1    0    0    0  501 -0.00000000000E+00  0.00000000000E+00  0.14044919446E+03  0.14044919446E+03  0.00000000000E+00 0.  1.
          1   -1    0    0  502    0  0.00000000000E+00 -0.00000000000E+00 -0.17059852441E+03  0.17059852441E+03  0.00000000000E+00 0. -1.
         23    2    1    2    0    0  0.18492715638E+01  0.34079655347E+02 -0.22350870261E+02  0.97643409327E+02  0.88712069471E+02 0.  0.
         23    2    1    2    0    0 -0.66976800536E+02 -0.27880480638E+02 -0.59414557141E+02  0.13007216500E+03  0.90141363968E+02 0.  0.
        -11    1    4    4    0    0 -0.40086549989E+02 -0.32204220526E+02 -0.80573632226E+02  0.95583228235E+02  0.00000000000E+00 0. -1.
         11    1    4    4    0    0 -0.26890250547E+02  0.43237398887E+01  0.21159075084E+02  0.34488936770E+02  0.00000000000E+00 0.  1.
        -11    1    3    3    0    0  0.36905729018E+02  0.44159890434E+02 -0.20591896494E+02  0.61124094748E+02  0.00000000000E+00 0.  1.
         11    1    3    3    0    0 -0.35056457454E+02 -0.10080235087E+02 -0.17589737667E+01  0.36519314580E+02  0.00000000000E+00 0. -1.
         21    1    1    2  502  501  0.65127528972E+02 -0.61991747096E+01  0.51616097452E+02  0.83332144538E+02  0.00000000000E+00 0.  1.
<scales pt_clust_5="13000.00000" pt_clust_6="13000.00000" pt_clust_7="13000.00000" pt_clust_8="13000.00000" pt_clust_9="65.42190"></scales>
<clustering>
<clus scale="   65.422">  1  9  2 -1</clus>
<clus scale="   88.712">  7  8 -1 -1</clus>
<clus scale="   90.141">  5  6 -1 -1</clus>
<clus scale="  100.399">  1  7  2 -1</clus>
<clus scale="  101.664">  2  5  1 -1</clus>
</clustering>
</event>
<event>
 9    1  0.1175034E-005  0.1056696E+03  0.7546771E-02  0.1269768E+00
          2   -1    0    0  502    0  0.00000000000E+00  0.00000000000E+00  0.40727319509E+03  0.40727319509E+03  0.00000000000E+00 0. -1.
         -2   -1    0    0    0  501 -0.00000000000E+00 -0.00000000000E+00 -0.53542567090E+02  0.53542567090E+02  0.00000000000E+00 0.  1.
         23    2    1    2    0    0 -0.53705825087E+02 -0.49583095756E+02  0.58445011459E+02  0.13147793140E+03  0.92346240031E+02 0.  0.
         23    2    1    2    0    0  0.29878557312E+02  0.35202249333E+02  0.27965245965E+03  0.29741694376E+03  0.90107789358E+02 0.  0.
        -11    1    4    4    0    0  0.22281462225E+02  0.58274693991E+02  0.25607314300E+03  0.26356376474E+03  0.00000000000E+00 0. -1.
         11    1    4    4    0    0  0.75970950867E+01 -0.23072444658E+02  0.23579316658E+02  0.33853179028E+02  0.00000000000E+00 0.  1.
        -13    1    3    3    0    0 -0.35441939448E+02  0.17055797519E+02 -0.24068500483E+01  0.39405890778E+02  0.00000000000E+00 0. -1.
         13    1    3    3    0    0 -0.18263885639E+02 -0.66638893275E+02  0.60851861508E+02  0.92072040623E+02  0.00000000000E+00 0.  1.
         21    1    1    2  502  501  0.23827267775E+02  0.14380846423E+02  0.15633156883E+02  0.31920887011E+02  0.00000000000E+00 0. -1.
<scales pt_clust_5="13000.00000" pt_clust_6="13000.00000" pt_clust_7="13000.00000" pt_clust_8="13000.00000" pt_clust_9="27.83069"></scales>
<clustering>
<clus scale="   27.831">  2  9  1 -1</clus>
<clus scale="   90.108">  5  6 -1 -1</clus>
<clus scale="   92.346">  7  8 -1 -1</clus>
<clus scale="  103.719">  1  5  2 -1</clus>
<clus scale="  103.719">  1  5  2 -1</clus>
</clustering>
</event>
<event>
 9    1  0.1175034E-005  0.1102864E+03  0.7546771E-02  0.1260998E+00
          4   -1    0    0  502    0  0.00000000000E+00  0.00000000000E+00  0.24294745098E+03  0.24294745098E+03  0.00000000000E+00 0. -1.
         -4   -1    0    0    0  501 -0.00000000000E+00 -0.00000000000E+00 -0.71844905386E+02  0.71844905386E+02  0.00000000000E+00 0.  1.
         23    2    1    2    0    0  0.34228847980E+02  0.80620531593E+01  0.31608559388E+02  0.10500159775E+03  0.93752993379E+02 0.  0.
         23    2    1    2    0    0 -0.61405574869E+02 -0.21888902803E+02  0.13639409959E+03  0.17914168763E+03  0.96117767114E+02 0.  0.
        -11    1    3    3    0    0 -0.14084274828E+02  0.37748373844E+02  0.43459502617E+00  0.40292622130E+02  0.00000000000E+00 0.  1.
         11    1    3    3    0    0  0.48313122808E+02 -0.29686320685E+02  0.31173964362E+02  0.64708975616E+02  0.00000000000E+00 0. -1.
        -11    1    4    4    0    0 -0.11262126634E+01 -0.33391410419E+02  0.10504662938E+03  0.11023179663E+03  0.00000000000E+00 0. -1.
         11    1    4    4    0    0 -0.60279362206E+02  0.11502507616E+02  0.31347470209E+02  0.68909891002E+02  0.00000000000E+00 0.  1.
         21    1    1    2  502  501  0.27176726889E+02  0.13826849644E+02  0.30998866203E+01  0.30649070990E+02  0.00000000000E+00 0. -1.
<scales pt_clust_5="13000.00000" pt_clust_6="13000.00000" pt_clust_7="13000.00000" pt_clust_8="13000.00000" pt_clust_9="30.49190"></scales>
<clustering>
<clus scale="   30.492">  2  9  1 -1</clus>
<clus scale="   93.753">  5  6 -1 -1</clus>
<clus scale="   96.118">  7  8 -1 -1</clus>
<clus scale="  108.232">  2  5  1 -1</clus>
<clus scale="  110.286">  1  5  2 -1</clus>
</clustering>
</event>
<event>
 9    1  0.1175034E-005  0.1851530E+03  0.7546771E-02  0.1164365E+00
         -1   -1    0    0    0  501 -0.00000000000E+00  0.00000000000E+00  0.66112800047E+02  0.66112800047E+02  0.00000000000E+00 0.  1.
          1   -1    0    0  502    0  0.00000000000E+00 -0.00000000000E+00 -0.67397271528E+03  0.67397271528E+03  0.00000000000E+00 0. -1.
         23    2    1    2    0    0  0.11466207276E+03  0.10109053202E+03 -0.17638555985E+03  0.25102227311E+03  0.92377644920E+02 0.  0.
         23    2    1    2    0    0 -0.93222550196E+02 -0.12342752719E+03 -0.41287187797E+03  0.45294334954E+03  0.10377712629E+03 0.  0.
        -11    1    3    3    0    0  0.49863188678E+02  0.74474120661E+02 -0.40939643844E+02  0.98533175486E+02  0.00000000000E+00 0.  1.
         11    1    3    3    0    0  0.64798884081E+02  0.26616411358E+02 -0.13544591600E+03  0.15248909762E+03  0.00000000000E+00 0. -1.
        -11    1    4    4    0    0 -0.75241210592E+02 -0.64764065813E+02 -0.35492630803E+03  0.36854892229E+03  0.00000000000E+00 0. -1.
         11    1    4    4    0    0 -0.17981339604E+02 -0.58663461380E+02 -0.57945569948E+02  0.84394427254E+02  0.00000000000E+00 0.  1.
         21    1    1    2  502  501 -0.21439522562E+02  0.22336995173E+02 -0.18602477413E+02  0.36119892677E+02  0.00000000000E+00 0. -1.
<scales pt_clust_5="13000.00000" pt_clust_6="13000.00000" pt_clust_7="13000.00000" pt_clust_8="13000.00000" pt_clust_9="30.96118"></scales>
<clustering>
<clus scale="   30.961">  1  9  2 -1</clus>
<clus scale="   92.378">  5  6 -1 -1</clus>
<clus scale="  103.777">  7  8 -1 -1</clus>
<clus scale="  179.013">  1  5  2 -1</clus>
<clus scale="  185.153">  2  5  1 -1</clus>
</clustering>
</event>
<event>
 9    1  0.1175034E-005  0.1433851E+03  0.7546771E-02  0.1210037E+00
          1   -1    0    0  502    0  0.00000000000E+00  0.00000000000E+00  0.89357093829E+03  0.89357093829E+03  0.00000000000E+00 0. -1.
         -1   -1    0    0    0  501 -0.00000000000E+00 -0.00000000000E+00 -0.59170593316E+02  0.59170593316E+02  0.00000000000E+00 0.  1.
         23    2    1    2    0    0  0.41774963086E+02  0.13874410063E+03  0.45495971525E+03  0.48664803602E+03  0.94036670801E+02 0.  0.
         23    2    1    2    0    0 -0.22265173067E+02 -0.83146552712E+02  0.38744955211E+03  0.40663038031E+03  0.88442204871E+02 0.  0.
        -13    1    3    3    0    0 -0.23031002418E+02  0.28948742666E+02  0.50704500838E+02  0.62764665056E+02  0.00000000000E+00 0.  1.
         13    1    3    3    0    0  0.64805965504E+02  0.10979535796E+03  0.40425521442E+03  0.42388337096E+03  0.00000000000E+00 0. -1.
        -13    1    4    4    0    0 -0.56615873977E+02 -0.55980871316E+02  0.24923676357E+03  0.26164514032E+03  0.00000000000E+00 0.  1.
         13    1    4    4    0    0  0.34350700910E+02 -0.27165681397E+02  0.13821278854E+03  0.14498523999E+03  0.00000000000E+00 0. -1.
         21    1    1    2  502  501 -0.19509790019E+02 -0.55597547915E+02 -0.80089223899E+01  0.59463115278E+02  0.00000000000E+00 0.  1.
<scales pt_clust_5="13000.00000" pt_clust_6="13000.00000" pt_clust_7="13000.00000" pt_clust_8="13000.00000" pt_clust_9="58.92130"></scales>
<clustering>
<clus scale="   58.921">  2  9  1 -1</clus>
<clus scale="   88.442">  7  8 -1 -1</clus>
<clus scale="   94.037">  5  6 -1 -1</clus>
<clus scale="  139.780">  1  7  2 -1</clus>
<clus scale="  139.780">  1  5  2 -1</clus>
</clustering>
</event>
<event>
 9    1  0.3839012E-005  0.1374820E+03  0.7546771E-02  0.1220188E+00
         -1   -1    0    0    0  501 -0.00000000000E+00  0.00000000000E+00  0.48638571221E+03  0.48638571221E+03  0.00000000000E+00 0.  1.
          1   -1    0    0  502    0  0.00000000000E+00 -0.00000000000E+00 -0.25559107240E+03  0.25559107240E+03  0.00000000000E+00 0. -1.
         23    2    1    2    0    0 -0.83644309324E+02  0.68304245665E+02  0.41695390710E+03  0.44298747369E+03  0.10356399347E+03 0.  0.
         23    2    1    2    0    0  0.55664249395E+02 -0.70489509697E+02 -0.22046356910E+03  0.25466725936E+03  0.90465175897E+02 0.  0.
        -11    1    4    4    0    0  0.29438617354E+02 -0.82953894601E+02 -0.20176731875E+03  0.22013185080E+03  0.00000000000E+00 0. -1.
         11    1    4    4    0    0  0.26225632041E+02  0.12464384904E+02 -0.18696250348E+02  0.34535408555E+02  0.00000000000E+00 0.  1.
        -13    1    3    3    0    0  0.12247667724E+02  0.16778064862E+02  0.12732259118E+02  0.24364302729E+02  0.00000000000E+00 0. -1.
         13    1    3    3    0    0 -0.95891977048E+02  0.51526180803E+02  0.40422164798E+03  0.41862317096E+03  0.00000000000E+00 0.  1.
         21    1    1    2  502  501  0.27980059930E+02  0.21852640317E+01  0.34304301815E+02  0.44322051572E+02  0.00000000000E+00 0. -1.
<scales pt_clust_5="13000.00000" pt_clust_6="13000.00000" pt_clust_7="13000.00000" pt_clust_8="13000.00000" pt_clust_9="28.06527"></scales>
<clustering>
<clus scale="   28.065">  1  9  2 -1</clus>
<clus scale="   90.465">  5  6 -1 -1</clus>
<clus scale="  103.564">  7  8 -1 -1</clus>
<clus scale="  127.905">  2  5  1 -1</clus>
<clus scale="  127.905">  2  5  1 -1</clus>
</clustering>
</event>
<event>
 9    1  0.1175034E-005  0.1944938E+03  0.7546771E-02  0.1154472E+00
          2   -1    0    0  502    0  0.00000000000E+00  0.00000000000E+00  0.26533016288E+03  0.26533016288E+03  0.00000000000E+00 0. -1.
         -2   -1    0    0    0  501 -0.00000000000E+00 -0.00000000000E+00 -0.26243231567E+03  0.26243231567E+03  0.00000000000E+00 0.  1.
         23    2    1    2    0    0 -0.86477760481E+02 -0.15586961923E+03 -0.15756174393E+03  0.25470698472E+03  0.90973642658E+02 0.  0.
         23    2    1    2    0    0  0.10023030377E+03  0.11431981011E+03  0.12815050528E+03  0.21865516190E+03  0.90952707730E+02 0.  0.
        -11    1    4    4    0    0  0.42795535535E+02  0.47276242063E+02  0.11203909056E+03  0.12891570400E+03  0.00000000000E+00 0. -1.
         11    1    4    4    0    0  0.57434768238E+02  0.67043568045E+02  0.16111414720E+02  0.89739457894E+02  0.00000000000E+00 0.  1.
        -13    1    3    3    0    0 -0.47807257139E+02 -0.95417078529E+02 -0.14776899110E+03  0.18227898244E+03  0.00000000000E+00 0.  1.
         13    1    3    3    0    0 -0.38670503342E+02 -0.60452540698E+02 -0.97927528305E+01  0.72428002275E+02  0.00000000000E+00 0. -1.
         21    1    1    2  502  501 -0.13752543292E+02  0.41549809119E+02  0.32309085868E+02  0.54400331933E+02  0.00000000000E+00 0. -1.
<scales pt_clust_5="13000.00000" pt_clust_6="13000.00000" pt_clust_7="13000.00000" pt_clust_8="13000.00000" pt_clust_9="43.76664"></scales>
<clustering>
<clus scale="   43.767">  1  9  2 -1</clus>
<clus scale="   90.953">  5  6 -1 -1</clus>
<clus scale="   90.974">  7  8 -1 -1</clus>
<clus scale="  194.484">  1  5  2 -1</clus>
<clus scale="   43.767">  1  5  2 -1</clus>
</clustering>
</event>
<event>
 9    1  0.1175034E-005  0.9192121E+02  0.7546771E-02  0.1298850E+00
          1   -1    0    0  502    0  0.00000000000E+00  0.00000000000E+00  0.61385403488E+02  0.61385403488E+02  0.00000000000E+00 0. -1.
         -1   -1    0    0    0  501 -0.00000000000E+00 -0.00000000000E+00 -0.30857652497E+03  0.30857652497E+03  0.00000000000E+00 0.  1.
         23    2    1    2    0    0 -0.21391813938E+01  0.56451788132E+01 -0.12193817737E+03  0.15191087893E+03  0.90396636525E+02 0.  0.
         23    2    1    2    0    0  0.61996199452E-01  0.15166866348E+02 -0.16139282238E+01  0.92655426913E+02  0.91391387416E+02 0.  0.
        -11    1    4    4    0    0 -0.12942384399E+02 -0.35578246280E+02 -0.11025100440E+02  0.39431836909E+02  0.00000000000E+00 0. -1.
         11    1    4    4    0    0  0.13004380599E+02  0.50745112628E+02  0.94111722166E+01  0.53223590004E+02  0.00000000000E+00 0.  1.
        -13    1    3    3    0    0 -0.31133768218E+02  0.25197554912E+02 -0.21288616616E+02  0.45358940623E+02  0.00000000000E+00 0. -1.
         13    1    3    3    0    0  0.28994586824E+02 -0.19552376099E+02 -0.10064956076E+03  0.10655193831E+03  0.00000000000E+00 0.  1.
         21    1    1    2  502  501  0.20771851944E+01 -0.20812045161E+02 -0.12363901589E+03  0.12539562262E+03  0.00000000000E+00 0. -1.
<scales pt_clust_5="13000.00000" pt_clust_6="13000.00000" pt_clust_7="13000.00000" pt_clust_8="13000.00000" pt_clust_9="20.91545"></scales>
<clustering>
<clus scale="   20.915">  2  9  1 -1</clus>
<clus scale="   90.397">  7  8 -1 -1</clus>
<clus scale="   90.932">  2  7  1 -1</clus>
<clus scale="   91.391">  5  6 -1 -1</clus>
<clus scale="   91.921">  1  5  2 -1</clus>
</clustering>
</event>
<event>
 9    1  0.1175034E-005  0.1554504E+03  0.7546771E-02  0.1194061E+00
         -1   -1    0    0    0  501 -0.00000000000E+00  0.00000000000E+00  0.13064280576E+03  0.13064280576E+03  0.00000000000E+00 0.  1.
          1   -1    0    0  502    0  0.00000000000E+00 -0.00000000000E+00 -0.33110521239E+03  0.33110521239E+03  0.00000000000E+00 0. -1.
         23    2    1    2    0    0  0.63221292296E+02 -0.14047408397E+03 -0.63154964628E+02  0.18995602901E+03  0.91459517467E+02 0.  0.
         23    2    1    2    0    0 -0.25692765629E+01  0.11462559744E+03 -0.14356073099E+03  0.20556574893E+03  0.92206100024E+02 0.  0.
        -13    1    3    3    0    0  0.31362506385E+02 -0.14305664016E+03 -0.58275361258E+02  0.15762241855E+03  0.00000000000E+00 0.  1.
         13    1    3    3    0    0  0.31858785911E+02  0.25825561955E+01 -0.48796033703E+01  0.32333610458E+02  0.00000000000E+00 0. -1.
        -13    1    4    4    0    0  0.28689372756E+02  0.85449490190E+02 -0.13441453592E+03  0.16183931213E+03  0.00000000000E+00 0. -1.
         13    1    4    4    0    0 -0.31258649318E+02  0.29176107247E+02 -0.91461950667E+01  0.43726436803E+02  0.00000000000E+00 0.  1.
         21    1    1    2  502  501 -0.60652015733E+02  0.25848486529E+02  0.62532889896E+01  0.66226240204E+02  0.00000000000E+00 0. -1.
<scales pt_clust_5="13000.00000" pt_clust_6="13000.00000" pt_clust_7="13000.00000" pt_clust_8="13000.00000" pt_clust_9="65.93035"></scales>
<clustering>
<clus scale="   65.930">  1  9  2 -1</clus>
<clus scale="   91.460">  5  6 -1 -1</clus>
<clus scale="   92.206">  7  8 -1 -1</clus>
<clus scale="  155.009">  1  5  2 -1</clus>
<clus scale="  155.450">  2  5  1 -1</clus>
</clustering>
</event>
<event>
 9    1  0.1175034E-005  0.2254021E+03  0.7546771E-02  0.1130754E+00
          2   -1    0    0  502    0  0.00000000000E+00  0.00000000000E+00  0.13302920236E+03  0.13302920236E+03  0.00000000000E+00 0. -1.
         -2   -1    0    0    0  501 -0.00000000000E+00 -0.00000000000E+00 -0.73343641264E+03  0.73343641264E+03  0.00000000000E+00 0.  1.
         23    2    1    2    0    0  0.62212013569E+02  0.21441954912E+03 -0.45557159692E+03  0.51394073878E+03  0.82118970907E+02 0.  0.
         23    2    1    2    0    0 -0.76248952768E+02 -0.18565496942E+03 -0.18592316567E+02  0.22228737512E+03  0.93724769588E+02 0.  0.
        -13    1    3    3    0    0 -0.16934473184E+02  0.20651596840E+02 -0.74920645431E+02  0.79538468340E+02  0.00000000000E+00 0. -1.
         13    1    3    3    0    0  0.79146486753E+02  0.19376795228E+03 -0.38065095149E+03  0.43440227044E+03  0.00000000000E+00 0.  1.
        -13    1    4    4    0    0 -0.43851024793E+02 -0.55224270731E+02 -0.47234738910E+02  0.84874925703E+02  0.00000000000E+00 0.  1.
         13    1    4    4    0    0 -0.32397927975E+02 -0.13043069869E+03  0.28642422342E+02  0.13741244942E+03  0.00000000000E+00 0. -1.
         21    1    1    2  502  501  0.14036939199E+02 -0.28764579702E+02 -0.12624329679E+03  0.13023750110E+03  0.00000000000E+00 0.  1.
<scales pt_clust_5="13000.00000" pt_clust_6="13000.00000" pt_clust_7="13000.00000" pt_clust_8="13000.00000" pt_clust_9="32.00682"></scales>
<clustering>
<clus scale="   32.007">  2  9  1 -1</clus>
<clus scale="   82.119">  5  6 -1 -1</clus>
<clus scale="   93.725">  7  8 -1 -1</clus>
<clus scale="  220.829">  2  5  1 -1</clus>
<clus scale="  225.402">  1  5  2 -1</clus>
</clustering>
</event>
<event>
 9    1  0.1175034E-005  0.1022667E+03  0.7546771E-02  0.1279585E+00
          2   -1    0    0  502    0  0.00000000000E+00  0.00000000000E+00  0.76326366769E+02  0.76326366769E+02  0.00000000000E+00 0. -1.
         -2   -1    0    0    0  501 -0.00000000000E+00 -0.00000000000E+00 -0.70701946755E+03  0.70701946755E+03  0.00000000000E+00 0.  1.
         23    2    1    2    0    0 -0.60820401998E+01  0.92378218205E+02 -0.27247167417E+03  0.29945848178E+03  0.82848311220E+02 0.  0.
         23    2    1    2    0    0  0.23278539942E+02 -0.33434239238E+02  0.18922524494E+02  0.10177784976E+03  0.91328692061E+02 0.  0.
        -13    1    3    3    0    0 -0.19135610547E+02  0.65034762885E+02 -0.25629902370E+03  0.26511295993E+03  0.00000000000E+00 0.  1.
         13    1    3    3    0    0  0.13053570347E+02  0.27343455320E+02 -0.16172650470E+02  0.34345521846E+02  0.00000000000E+00 0. -1.
        -13    1    4    4    0    0  0.20758759231E+02  0.28724716767E+02  0.17561336803E+02  0.39552951703E+02  0.00000000000E+00 0.  1.
         13    1    4    4    0    0  0.25197807111E+01 -0.62158956004E+02  0.13611876908E+01  0.62224898058E+02  0.00000000000E+00 0. -1.
         21    1    1    2  502  501 -0.17196499742E+02 -0.58943978967E+02 -0.37714395111E+03  0.38210950278E+03  0.00000000000E+00 0.  1.
<scales pt_clust_5="13000.00000" pt_clust_6="13000.00000" pt_clust_7="13000.00000" pt_clust_8="13000.00000" pt_clust_9="61.40124"></scales>
<clustering>
<clus scale="   61.401">  2  9  1 -1</clus>
<clus scale="   82.848">  5  6 -1 -1</clus>
<clus scale="   91.329">  7  8 -1 -1</clus>
<clus scale="   94.770">  2  5  1 -1</clus>
<clus scale="  102.267">  1  5  2 -1</clus>
</clustering>
</event>
<event>
 9    1  0.1175034E-005  0.3207182E+03  0.7546771E-02  0.1075457E+00
          2   -1    0    0  502    0  0.00000000000E+00  0.00000000000E+00  0.15691845951E+04  0.15691845951E+04  0.00000000000E+00 0. -1.
         -2   -1    0    0    0  501 -0.00000000000E+00 -0.00000000000E+00 -0.23173973385E+03  0.23173973385E+03  0.00000000000E+00 0.  1.
         23    2    1    2    0    0  0.24824984454E+03 -0.22759833307E+03  0.31635484233E+02  0.35112950637E+03  0.94138939055E+02 0.  0.
         23    2    1    2    0    0 -0.14157269892E+03  0.27024848683E+03  0.12960317183E+04  0.13344923871E+04  0.89970232173E+02 0.  0.
        -13    1    3    3    0    0  0.21781898845E+03 -0.14919106845E+03  0.38224987660E+02  0.26676625783E+03  0.00000000000E+00 0.  1.
         13    1    3    3    0    0  0.30430856087E+02 -0.78407264623E+02 -0.65895034271E+01  0.84363248535E+02  0.00000000000E+00 0. -1.
        -13    1    4    4    0    0 -0.63060892594E+02  0.40832491948E+02  0.33841461632E+03  0.34665317121E+03  0.00000000000E+00 0.  1.
         13    1    4    4    0    0 -0.78511806322E+02  0.22941599488E+03  0.95761710197E+03  0.98783921588E+03  0.00000000000E+00 0. -1.
         21    1    1    2  502  501 -0.10667714562E+03 -0.42650153752E+02  0.97776586820E+01  0.11530243546E+03  0.00000000000E+00 0.  1.
<scales pt_clust_5="13000.00000" pt_clust_6="13000.00000" pt_clust_7="13000.00000" pt_clust_8="13000.00000" pt_clust_9="114.88711"></scales>
<clustering>
<clus scale="   89.970">  7  8 -1 -1</clus>
<clus scale="   94.139">  5  6 -1 -1</clus>
<clus scale="  114.887">  2  9  1 -1</clus>
<clus scale="  319.519">  1  7  2 -1</clus>
<clus scale="  319.519">  1  5  2 -1</clus>
</clustering>
</event>
<event>
 9    1  0.1175034E-005  0.9261812E+02  0.7546771E-02  0.1297824E+00
          1   -1    0    0  502    0  0.00000000000E+00  0.00000000000E+00  0.20350407984E+03  0.20350407984E+03  0.00000000000E+00 0. -1.
         -1   -1    0    0    0  501 -0.00000000000E+00 -0.00000000000E+00 -0.16799959512E+03  0.16799959512E+03  0.00000000000E+00 0.  1.
         23    2    1    2    0    0  0.49916558976E+02  0.54472824591E+01  0.54232325851E+02  0.11845719099E+03  0.92572270060E+02 0.  0.
         23    2    1    2    0    0  0.32211745492E+02  0.76494746758E+01  0.79054736285E+02  0.12467975974E+03  0.90549876580E+02 0.  0.
        -11    1    4    4    0    0  0.23573595654E+02  0.43004097245E+02  0.15483510368E+02  0.51427676257E+02  0.00000000000E+00 0.  1.
         11    1    4    4    0    0  0.86381498381E+01 -0.35354622569E+02  0.63571225917E+02  0.73252083480E+02  0.00000000000E+00 0. -1.
        -11    1    3    3    0    0 -0.25514708629E+02  0.13407528100E+02  0.92450519203E+01  0.30269343422E+02  0.00000000000E+00 0.  1.
         11    1    3    3    0    0  0.75431267605E+02 -0.79602456408E+01  0.44987273930E+02  0.88187847569E+02  0.00000000000E+00 0. -1.
         21    1    1    2  502  501 -0.82128304468E+02 -0.13096757135E+02 -0.97782577416E+02  0.12836672423E+03  0.00000000000E+00 0.  1.
<scales pt_clust_5="13000.00000" pt_clust_6="13000.00000" pt_clust_7="13000.00000" pt_clust_8="13000.00000" pt_clust_9="83.16600"></scales>
<clustering>
<clus scale="   83.166">  2  9  1 -1</clus>
<clus scale="   90.550">  5  6 -1 -1</clus>
<clus scale="   90.597">  1  5  2 -1</clus>
<clus scale="   92.572">  7  8 -1 -1</clus>
<clus scale="   90.597">  1  5  2 -1</clus>
</clustering>
</event>
<event>
 9    1  0.1175034E-005  0.1195512E+03  0.7546771E-02  0.1244521E+00
         -2   -1    0    0    0  501 -0.00000000000E+00  0.00000000000E+00  0.15469999835E+03  0.15469999835E+03  0.00000000000E+00 0.  1.
          2   -1    0    0  502    0  0.00000000000E+00 -0.00000000000E+00 -0.13811792969E+03  0.13811792969E+03  0.00000000000E+00 0. -1.
         23    2    1    2    0    0  0.85043730566E+02  0.13102108383E+02  0.14429766240E+01  0.12322829844E+03  0.88198809527E+02 0.  0.
         23    2    1    2    0    0 -0.73241076502E+02  0.38381896521E+01 -0.29795824903E+02  0.12013841020E+03  0.90368464832E+02 0.  0.
        -11    1    3    3    0    0  0.29772262917E+02  0.21927121764E+02  0.40604217001E+02  0.54917107957E+02  0.00000000000E+00 0.  1.
         11    1    3    3    0    0  0.55271467649E+02 -0.88250133809E+01 -0.39161240377E+02  0.68311190482E+02  0.00000000000E+00 0. -1.
        -13    1    4    4    0    0 -0.43743635268E+02 -0.39274173752E+02 -0.33688241808E+02  0.67755914771E+02  0.00000000000E+00 0. -1.
         13    1    4    4    0    0 -0.29497441234E+02  0.43112363405E+02  0.38924169053E+01  0.52382495426E+02  0.00000000000E+00 0.  1.
         21    1    1    2  502  501 -0.11802654064E+02 -0.16940298035E+02  0.44934916935E+02  0.49451219403E+02  0.00000000000E+00 0. -1.
<scales pt_clust_5="13000.00000" pt_clust_6="13000.00000" pt_clust_7="13000.00000" pt_clust_8="13000.00000" pt_clust_9="20.64646"></scales>
<clustering>
<clus scale="   20.646">  1  9  2 -1</clus>
<clus scale="   88.199">  5  6 -1 -1</clus>
<clus scale="   90.368">  7  8 -1 -1</clus>
<clus scale="  117.920">  1  5  2 -1</clus>
<clus scale="  119.551">  2  5  1 -1</clus>
</clustering>
</event>
<event>
 9    1  0.1175034E-005  0.1244303E+03  0.7546771E-02  0.1238064E+00
          1   -1    0    0  502    0  0.00000000000E+00  0.00000000000E+00  0.83279357306E+03  0.83279357306E+03  0.00000000000E+00 0. -1.
         -1   -1    0    0    0  501 -0.00000000000E+00 -0.00000000000E+00 -0.34107624810E+02  0.34107624810E+02  0.00000000000E+00 0.  1.
         23    2    1    2    0    0 -0.16591315877E+02  0.59932762750E+02  0.18565855705E+03  0.21575412128E+03  0.90628545344E+02 0.  0.
         23    2    1    2    0    0  0.40872701114E+02 -0.74381919608E+02  0.60906507771E+03  0.62261527448E+03  0.97397451053E+02 0.  0.
        -13    1    4    4    0    0  0.52099487023E+02  0.16462897750E+01  0.26374295613E+03  0.26884459029E+03  0.00000000000E+00 0.  1.
         13    1    4    4    0    0 -0.11226785909E+02 -0.76028209383E+02  0.34532212158E+03  0.35377068420E+03  0.00000000000E+00 0. -1.
        -13    1    3    3    0    0  0.19351492872E+02  0.44610582788E+02  0.34487338447E+02  0.59615106192E+02  0.00000000000E+00 0.  1.
         13    1    3    3    0    0 -0.35942808750E+02  0.15322179962E+02  0.15117121860E+03  0.15613901509E+03  0.00000000000E+00 0. -1.
         21    1    1    2  502  501 -0.24281385237E+02  0.14449156858E+02  0.39623134853E+01  0.28531802101E+02  0.00000000000E+00 0. -1.
<scales pt_clust_5="13000.00000" pt_clust_6="13000.00000" pt_clust_7="13000.00000" pt_clust_8="13000.00000" pt_clust_9="28.25533"></scales>
<clustering>
<clus scale="   28.255">  2  9  1 -1</clus>
<clus scale="   90.629">  7  8 -1 -1</clus>
<clus scale="   97.397">  5  6 -1 -1</clus>
<clus scale="  119.206">  2  7  1 -1</clus>
<clus scale="  124.430">  1  5  2 -1</clus>
</clustering>
</event>
<event>
 9    1  0.1175034E-005  0.1021775E+03  0.7546771E-02  0.1277728E+00
         -2   -1    0    0    0  501 -0.00000000000E+00  0.00000000000E+00  0.80165446557E+02  0.80165446557E+02  0.00000000000E+00 0.  1.
          2   -1    0    0  502    0  0.00000000000E+00 -0.00000000000E+00 -0.21883467684E+03  0.21883467684E+03  0.00000000000E+00 0. -1.
         23    2    1    2    0    0 -0.27556177951E+02  0.45146003586E+02 -0.10321191095E+02  0.10555034121E+03  0.90757054601E+02 0.  0.
         23    2    1    2    0    0 -0.79400342381E+01 -0.20318262796E+02 -0.66070224583E+02  0.11758856691E+03  0.94794095512E+02 0.  0.
        -11    1    3    3    0    0 -0.60601029545E+02  0.27599005298E+02 -0.13696507632E+02  0.67983705376E+02  0.00000000000E+00 0.  1.
         11    1    3    3    0    0  0.33044851594E+02  0.17546998288E+02  0.33753165374E+01  0.37566635829E+02  0.00000000000E+00 0. -1.
        -11    1    4    4    0    0 -0.31479797702E+02  0.10394788924E+02  0.79251261003E+01  0.34085729035E+02  0.00000000000E+00 0.  1.
         11    1    4    4    0    0  0.23539763464E+02 -0.30713051720E+02 -0.73995350684E+02  0.83502837872E+02  0.00000000000E+00 0. -1.
         21    1    1    2  502  501  0.35496212189E+02 -0.24827740791E+02 -0.62277814609E+02  0.75861215288E+02  0.00000000000E+00 0. -1.
<scales pt_clust_5="13000.00000" pt_clust_6="13000.00000" pt_clust_7="13000.00000" pt_clust_8="13000.00000" pt_clust_9="43.31741"></scales>
<clustering>
<clus scale="   43.317">  2  9  1 -1</clus>
<clus scale="   90.757">  5  6 -1 -1</clus>
<clus scale="   94.794">  7  8 -1 -1</clus>
<clus scale="   98.444">  1  5  2 -1</clus>
<clus scale="   43.317">  2  5  1 -1</clus>
</clustering>
</event>
<event>
 9    1  0.1175034E-005  0.1141574E+03  0.7546771E-02  0.1255401E+00
         -1   -1    0    0    0  501 -0.00000000000E+00  0.00000000000E+00  0.20055631913E+02  0.20055631913E+02  0.00000000000E+00 0.  1.
          1   -1    0    0  502    0  0.00000000000E+00 -0.00000000000E+00 -0.84107186888E+03  0.84107186888E+03  0.00000000000E+00 0. -1.
         23    2    1    2    0    0 -0.39191092169E+01 -0.58099999537E+02 -0.24291170899E+03  0.26641045689E+03  0.92614598266E+02 0.  0.
         23    2    1    2    0    0 -0.19023088473E+02  0.55783732213E+02 -0.44329582179E+03  0.45795046615E+03  0.98659724038E+02 0.  0.
        -11    1    3    3    0    0  0.18402170216E+02  0.19680742624E+02 -0.81721712076E+02  0.86048879851E+02  0.00000000000E+00 0.  1.
         11    1    3    3    0    0 -0.22321279432E+02 -0.77780742161E+02 -0.16118999692E+03  0.18036157704E+03  0.00000000000E+00 0. -1.
        -13    1    4    4    0    0  0.27753421399E+02  0.61399025084E+02 -0.28009442201E+03  0.28808501856E+03  0.00000000000E+00 0.  1.
         13    1    4    4    0    0 -0.46776509873E+02 -0.56152928708E+01 -0.16320139979E+03  0.16986544758E+03  0.00000000000E+00 0. -1.
         21    1    1    2  502  501  0.22942197690E+02  0.23162673241E+01 -0.13480870617E+03  0.13676657775E+03  0.00000000000E+00 0. -1.
<scales pt_clust_5="13000.00000" pt_clust_6="13000.00000" pt_clust_7="13000.00000" pt_clust_8="13000.00000" pt_clust_9="23.05883"></scales>
<clustering>
<clus scale="   23.059">  2  9  1 -1</clus>
<clus scale="   92.615">  5  6 -1 -1</clus>
<clus scale="   98.660">  7  8 -1 -1</clus>
<clus scale="  108.975">  1  5  2 -1</clus>
<clus scale="   23.059">  2  5  1 -1</clus>
</clustering>
</event>
<event>
 9    1  0.1175034E-005  0.1364400E+03  0.7546771E-02  0.1218992E+00
          4   -1    0    0  502    0  0.00000000000E+00  0.00000000000E+00  0.22784526763E+03  0.22784526763E+03  0.00000000000E+00 0. -1.
         -4   -1    0    0    0  501 -0.00000000000E+00 -0.00000000000E+00 -0.14161794134E+03  0.14161794134E+03  0.00000000000E+00 0.  1.
         23    2    1    2    0    0  0.21774021796E+02  0.90526389293E+02 -0.56298133674E+02  0.14421186385E+03  0.94649070968E+02 0.  0.
         23    2    1    2    0    0 -0.23898074321E+02 -0.11508423582E+03  0.12977917180E+03  0.19750125886E+03  0.91370753122E+02 0.  0.
        -11    1    3    3    0    0  0.18645236228E+02 -0.15321005913E+02  0.31543103605E+00  0.24134571737E+02  0.00000000000E+00 0.  1.
         11    1    3    3    0    0  0.31287855675E+01  0.10584739521E+03 -0.56613564710E+02  0.12007729211E+03  0.00000000000E+00 0. -1.
        -13    1    4    4    0    0  0.18230227831E+02 -0.99650454712E+02  0.10638346180E+03  0.14690131135E+03  0.00000000000E+00 0.  1.
         13    1    4    4    0    0 -0.42128302152E+02 -0.15433781113E+02  0.23395709996E+02  0.50599947508E+02  0.00000000000E+00 0. -1.
         21    1    1    2  502  501  0.21240525247E+01  0.24557846531E+02  0.12746288166E+02  0.27750086259E+02  0.00000000000E+00 0. -1.
<scales pt_clust_5="13000.00000" pt_clust_6="13000.00000" pt_clust_7="13000.00000" pt_clust_8="13000.00000" pt_clust_9="24.64953"></scales>
<clustering>
<clus scale="   24.650">  1  9  2 -1</clus>
<clus scale="   91.371">  7  8 -1 -1</clus>
<clus scale="   94.649">  5  6 -1 -1</clus>
<clus scale="  134.187">  1  7  2 -1</clus>
<clus scale="   24.650">  1  5  2 -1</clus>
</clustering>
</event>
<event>
 9    1  0.1175034E-005  0.1109695E+03  0.7546771E-02  0.1261729E+00
          3   -1    0    0  502    0  0.00000000000E+00  0.00000000000E+00  0.62807878127E+02  0.62807878127E+02  0.00000000000E+00 0. -1.
         -3   -1    0    0    0  501 -0.00000000000E+00 -0.00000000000E+00 -0.25078801711E+03  0.25078801711E+03  0.00000000000E+00 0.  1.
         23    2    1    2    0    0  0.55300576948E+01  0.59449710605E+02 -0.12805461852E+03  0.17128883143E+03  0.96835059876E+02 0.  0.
         23    2    1    2    0    0  0.15231512808E+02 -0.50622466479E+02 -0.37785913533E+02  0.11069812134E+03  0.89619560987E+02 0.  0.
        -11    1    3    3    0    0  0.44646012896E+02  0.44808287838E+02 -0.10752312350E+03  0.12474883251E+03  0.00000000000E+00 0.  1.
         11    1    3    3    0    0 -0.39115955201E+02  0.14641422767E+02 -0.20531495021E+02  0.46539998923E+02  0.00000000000E+00 0. -1.
        -13    1    4    4    0    0 -0.28316706553E+02  0.41251910779E+01 -0.28046231652E+02  0.40067994476E+02  0.00000000000E+00 0.  1.
         13    1    4    4    0    0  0.43548219361E+02 -0.54747657557E+02 -0.97396818813E+01  0.70630126863E+02  0.00000000000E+00 0. -1.
         21    1    1    2  502  501 -0.20761570503E+02 -0.88272441255E+01 -0.22139606934E+02  0.31608942466E+02  0.00000000000E+00 0.  1.
<scales pt_clust_5="13000.00000" pt_clust_6="13000.00000" pt_clust_7="13000.00000" pt_clust_8="13000.00000" pt_clust_9="22.56021"></scales>
<clustering>
<clus scale="   22.560">  2  9  1 -1</clus>
<clus scale="   89.620">  7  8 -1 -1</clus>
<clus scale="   96.835">  5  6 -1 -1</clus>
<clus scale="  104.732">  1  7  2 -1</clus>
<clus scale="  104.732">  1  5  2 -1</clus>
</clustering>
</event>
<event>
 9    1  0.1175034E-005  0.1083870E+03  0.7546771E-02  0.1277952E+00
          1   -1    0    0  502    0  0.00000000000E+00  0.00000000000E+00  0.42580857533E+03  0.42580857533E+03  0.00000000000E+00 0. -1.
         -1   -1    0    0    0  501 -0.00000000000E+00 -0.00000000000E+00 -0.31546506460E+02  0.31546506460E+02  0.00000000000E+00 0.  1.
         23    2    1    2    0    0  0.31841280320E+02 -0.51591131427E+02  0.20163171759E+03  0.23004909544E+03  0.92691557334E+02 0.  0.
         23    2    1    2    0    0 -0.51178483549E+02  0.24924125135E+02  0.16408362290E+03  0.18371731403E+03  0.59901310325E+02 0.  0.
        -11    1    4    4    0    0 -0.52781047097E+02 -0.41877629212E+01  0.11548079560E+03  0.12704011352E+03  0.00000000000E+00 0.  1.
         11    1    4    4    0    0  0.16025635483E+01  0.29111888057E+02  0.48602827299E+02  0.56677200510E+02  0.00000000000E+00 0. -1.
        -11    1    3    3    0    0 -0.17675178494E+02 -0.10371509489E+02  0.23694661946E+01  0.20629942169E+02  0.00000000000E+00 0.  1.
         11    1    3    3    0    0  0.49516458814E+02 -0.41219621938E+02  0.19926225140E+03  0.20941915327E+03  0.00000000000E+00 0. -1.
         21    1    1    2  502  501  0.19337203228E+02  0.26667006292E+02  0.28546728380E+02  0.43588672318E+02  0.00000000000E+00 0. -1.
<scales pt_clust_5="13000.00000" pt_clust_6="13000.00000" pt_clust_7="13000.00000" pt_clust_8="13000.00000" pt_clust_9="32.94020"></scales>
<clustering>
<clus scale="   32.940">  2  9  1 -1</clus>
<clus scale="   59.901">  5  6 -1 -1</clus>
<clus scale="   82.123">  1  5  2 -1</clus>
<clus scale="   92.692">  7  8 -1 -1</clus>
<clus scale="   82.123">  1  5  2 -1</clus>
</clustering>
</event>
<event>
 9    1  0.1175034E-005  0.1145816E+03  0.7546771E-02  0.1254237E+00
         -3   -1    0    0    0  501 -0.00000000000E+00  0.00000000000E+00  0.14144066886E+03  0.14144066886E+03  0.00000000000E+00 0.  1.
          3   -1    0    0  502    0  0.00000000000E+00 -0.00000000000E+00 -0.14280203070E+03  0.14280203070E+03  0.00000000000E+00 0. -1.
         23    2    1    2    0    0 -0.15079360147E+02  0.59744968949E+02  0.14043180115E+02  0.10478596820E+03  0.83582532900E+02 0.  0.
         23    2    1    2    0    0 -0.13770077886E+02 -0.80223249087E+02 -0.49341777109E+02  0.13043239086E+03  0.89177423593E+02 0.  0.
        -11    1    3    3    0    0  0.33910900578E+02  0.20182593489E+02 -0.29222977168E+01  0.39570520364E+02  0.00000000000E+00 0.  1.
         11    1    3    3    0    0 -0.48990260725E+02  0.39562375460E+02  0.16965477832E+02  0.65215447833E+02  0.00000000000E+00 0. -1.
        -11    1    4    4    0    0 -0.50381545182E+02 -0.34501669935E+02 -0.33968146990E+02  0.69874890577E+02  0.00000000000E+00 0. -1.
         11    1    4    4    0    0  0.36611467296E+02 -0.45721579153E+02 -0.15373630119E+02  0.60557500286E+02  0.00000000000E+00 0.  1.
         21    1    1    2  502  501  0.28849438033E+02  0.20478280139E+02  0.33937235155E+02  0.49024340508E+02  0.00000000000E+00 0.  1.
<scales pt_clust_5="13000.00000" pt_clust_6="13000.00000" pt_clust_7="13000.00000" pt_clust_8="13000.00000" pt_clust_9="35.37867"></scales>
<clustering>
<clus scale="   35.379">  1  9  2 -1</clus>
<clus scale="   83.583">  5  6 -1 -1</clus>
<clus scale="   89.177">  7  8 -1 -1</clus>
<clus scale="  110.283">  1  5  2 -1</clus>
<clus scale="  114.582">  2  5  1 -1</clus>
</clustering>
</event>
<event>
 9    1  0.1175034E-005  0.1032640E+03  0.7546771E-02  0.1273871E+00
          2   -1    0    0  502    0  0.00000000000E+00  0.00000000000E+00  0.10307334982E+03  0.10307334982E+03  0.00000000000E+00 0. -1.
         -2   -1    0    0    0  501 -0.00000000000E+00 -0.00000000000E+00 -0.22505771678E+03  0.22505771678E+03  0.00000000000E+00 0.  1.
         23    2    1    2    0    0  0.23547090830E+02  0.36015220722E+02 -0.62181275531E+02  0.11852805619E+03  0.91273366693E+02 0.  0.
         23    2    1    2    0    0  0.45498264042E+02 -0.46391982050E+02  0.72416553599E+01  0.11280457924E+03  0.91924553279E+02 0.  0.
        -13    1    4    4    0    0  0.10786713679E+02  0.21252009096E+02  0.25197213286E+02  0.34682858014E+02  0.00000000000E+00 0.  1.
         13    1    4    4    0    0  0.34711550363E+02 -0.67643991146E+02 -0.17955557926E+02  0.78121721225E+02  0.00000000000E+00 0. -1.
        -13    1    3    3    0    0  0.21560367296E+02  0.59262017011E+02 -0.13422821301E+02  0.64474865101E+02  0.00000000000E+00 0.  1.
         13    1    3    3    0    0  0.19867235341E+01 -0.23246796288E+02 -0.48758454230E+02  0.54053191089E+02  0.00000000000E+00 0. -1.
         21    1    1    2  502  501 -0.69045354872E+02  0.10376761327E+02 -0.67044746786E+02  0.96798431168E+02  0.00000000000E+00 0.  1.
<scales pt_clust_5="13000.00000" pt_clust_6="13000.00000" pt_clust_7="13000.00000" pt_clust_8="13000.00000" pt_clust_9="69.82076"></scales>
<clustering>
<clus scale="   69.821">  2  9  1 -1</clus>
<clus scale="   91.273">  7  8 -1 -1</clus>
<clus scale="   91.925">  5  6 -1 -1</clus>
<clus scale="  102.685">  2  7  1 -1</clus>
<clus scale="  103.264">  1  5  2 -1</clus>
</clustering>
</event>
<event>
 9    1  0.1175034E-005  0.2020877E+03  0.7546771E-02  0.1148045E+00
         -1   -1    0    0    0  501 -0.00000000000E+00  0.00000000000E+00  0.39202130087E+03  0.39202130087E+03  0.00000000000E+00 0.  1.
          1   -1    0    0  502    0  0.00000000000E+00 -0.00000000000E+00 -0.13663306270E+03  0.13663306270E+03  0.00000000000E+00 0. -1.
         23    2    1    2    0    0  0.95310341413E+02  0.17396914333E+03  0.18407877221E+03  0.28575393419E+03  0.91765966012E+02 0.  0.
         23    2    1    2    0    0 -0.84428243686E+02 -0.14875654975E+03  0.34341451321E+02  0.19684905554E+03  0.91178813112E+02 0.  0.
        -11    1    3    3    0    0 -0.17377650109E+02  0.12003902480E+02  0.14935274640E+02  0.25867717848E+02  0.00000000000E+00 0. -1.
         11    1    3    3    0    0  0.11268799152E+03  0.16196524085E+03  0.16914349757E+03  0.25988621635E+03  0.00000000000E+00 0.  1.
        -13    1    4    4    0    0 -0.48762393924E+02 -0.99820905231E+02  0.65274845601E+02  0.12885181276E+03  0.00000000000E+00 0.  1.
         13    1    4    4    0    0 -0.35665849762E+02 -0.48935644522E+02 -0.30933394280E+02  0.67997242781E+02  0.00000000000E+00 0. -1.
         21    1    1    2  502  501 -0.10882097726E+02 -0.25212593576E+02  0.36968014638E+02  0.46051373834E+02  0.00000000000E+00 0. -1.
<scales pt_clust_5="13000.00000" pt_clust_6="13000.00000" pt_clust_7="13000.00000" pt_clust_8="13000.00000" pt_clust_9="27.46079"></scales>
<clustering>
<clus scale="   27.461">  1  9  2 -1</clus>
<clus scale="   91.179">  7  8 -1 -1</clus>
<clus scale="   91.766">  5  6 -1 -1</clus>
<clus scale="  201.822">  2  7  1 -1</clus>
<clus scale="  201.822">  2  5  1 -1</clus>
</clustering>
</event>
<event>
 9    1  0.1175034E-005  0.1124224E+03  0.7546771E-02  0.1257152E+00
          1   -1    0    0  502    0  0.00000000000E+00  0.00000000000E+00  0.10413332566E+03  0.10413332566E+03  0.00000000000E+00 0. -1.
         -1   -1    0    0    0  501 -0.00000000000E+00 -0.00000000000E+00 -0.33773466645E+03  0.33773466645E+03  0.00000000000E+00 0.  1.
         23    2    1    2    0    0 -0.42818731644E+02  0.49380509286E+02 -0.20056265209E+03  0.22991976046E+03  0.91464967937E+02 0.  0.
         23    2    1    2    0    0  0.67192348565E+02 -0.92673789093E+01  0.45377725824E+02  0.12055747447E+03  0.88737087129E+02 0.  0.
        -11    1    3    3    0    0  0.20502791969E+02  0.37437929577E+02 -0.11599822474E+03  0.12360239153E+03  0.00000000000E+00 0. -1.
         11    1    3    3    0    0 -0.63321523614E+02  0.11942579709E+02 -0.84564427349E+02  0.10631736893E+03  0.00000000000E+00 0.  1.
        -11    1    4    4    0    0  0.14670668776E+02 -0.34476666321E+02 -0.11444276838E+02  0.39177040665E+02  0.00000000000E+00 0.  1.
         11    1    4    4    0    0  0.52521679789E+02  0.25209287412E+02  0.56822002662E+02  0.81380433805E+02  0.00000000000E+00 0. -1.
         21    1    1    2  502  501 -0.24373616920E+02 -0.40113130377E+02 -0.78416414533E+02  0.91390757184E+02  0.00000000000E+00 0.  1.
<scales pt_clust_5="13000.00000" pt_clust_6="13000.00000" pt_clust_7="13000.00000" pt_clust_8="13000.00000" pt_clust_9="46.93758"></scales>
<clustering>
<clus scale="   46.938">  2  9  1 -1</clus>
<clus scale="   88.737">  7  8 -1 -1</clus>
<clus scale="   91.465">  5  6 -1 -1</clus>
<clus scale="  110.214">  1  7  2 -1</clus>
<clus scale="  110.214">  1  5  2 -1</clus>
</clustering>
</event>
<event>
 9    1  0.1175034E-005  0.2125174E+03  0.7546771E-02  0.1140518E+00
         -1   -1    0    0    0  501 -0.00000000000E+00  0.00000000000E+00  0.68471350447E+02  0.68471350447E+02  0.00000000000E+00 0.  1.
          1   -1    0    0  502    0  0.00000000000E+00 -0.00000000000E+00 -0.12000859866E+04  0.12000859866E+04  0.00000000000E+00 0. -1.
         23    2    1    2    0    0  0.17998486862E+03 -0.82637666396E+02 -0.27381350345E+03  0.35088788687E+03  0.94471888121E+02 0.  0.
         23    2    1    2    0    0 -0.17919092027E+03  0.57814348430E+02 -0.86705326542E+03  0.89116606491E+03  0.83328898887E+02 0.  0.
        -11    1    4    4    0    0 -0.12687487533E+03  0.26129536158E+02 -0.72535649008E+03  0.73683242624E+03  0.00000000000E+00 0. -1.
         11    1    4    4    0    0 -0.52316044935E+02  0.31684812272E+02 -0.14169677534E+03  0.15433363868E+03  0.00000000000E+00 0.  1.
        -13    1    3    3    0    0  0.14160792998E+03 -0.57098890686E+02 -0.13221616636E+03  0.20197575052E+03  0.00000000000E+00 0.  1.
         13    1    3    3    0    0  0.38376938644E+02 -0.25538775710E+02 -0.14159733708E+03  0.14891213635E+03  0.00000000000E+00 0. -1.
         21    1    1    2  502  501 -0.79394835681E+00  0.24823317966E+02  0.92521327342E+01  0.26503385236E+02  0.00000000000E+00 0. -1.
<scales pt_clust_5="13000.00000" pt_clust_6="13000.00000" pt_clust_7="13000.00000" pt_clust_8="13000.00000" pt_clust_9="24.83601"></scales>
<clustering>
<clus scale="   24.836">  1  9  2 -1</clus>
<clus scale="   83.329">  5  6 -1 -1</clus>
<clus scale="   94.472">  7  8 -1 -1</clus>
<clus scale="  207.804">  2  5  1 -1</clus>
<clus scale="  207.804">  2  5  1 -1</clus>
</clustering>
</event>
<event>
 9    1  0.1175034E-005  0.1812921E+03  0.7546771E-02  0.1167150E+00
         -2   -1    0    0    0  501 -0.00000000000E+00  0.00000000000E+00  0.49959548467E+02  0.49959548467E+02  0.00000000000E+00 0.  1.
          2   -1    0    0  502    0  0.00000000000E+00 -0.00000000000E+00 -0.98545232387E+03  0.98545232387E+03  0.00000000000E+00 0. -1.
         23    2    1    2    0    0  0.84248920522E+02  0.12939653730E+03 -0.45857235549E+03  0.49332616459E+03  0.96128845686E+02 0.  0.
         23    2    1    2    0    0 -0.57155252821E+02 -0.14356113038E+03 -0.47889994035E+03  0.51144878513E+03  0.91423114497E+02 0.  0.
        -11    1    4    4    0    0 -0.19632867837E+02 -0.12886235122E+03 -0.28483966820E+03  0.31324845035E+03  0.00000000000E+00 0.  1.
         11    1    4    4    0    0 -0.37522384984E+02 -0.14698779161E+02 -0.19406027214E+03  0.19820033478E+03  0.00000000000E+00 0. -1.
        -13    1    3    3    0    0  0.62925364145E+02  0.25775351913E+02 -0.11259410407E+03  0.13153479574E+03  0.00000000000E+00 0. -1.
         13    1    3    3    0    0  0.21323556377E+02  0.10362118539E+03 -0.34597825142E+03  0.36179136884E+03  0.00000000000E+00 0.  1.
         21    1    1    2  502  501 -0.27093667701E+02  0.14164593086E+02  0.19795204290E+01  0.30636922625E+02  0.00000000000E+00 0.  1.
<scales pt_clust_5="13000.00000" pt_clust_6="13000.00000" pt_clust_7="13000.00000" pt_clust_8="13000.00000" pt_clust_9="30.57291"></scales>
<clustering>
<clus scale="   30.573">  1  9  2 -1</clus>
<clus scale="   91.423">  5  6 -1 -1</clus>
<clus scale="   96.129">  7  8 -1 -1</clus>
<clus scale="  178.841">  2  5  1 -1</clus>
<clus scale="  178.841">  2  5  1 -1</clus>
</clustering>
</event>
<event>
 9    1  0.1175034E-005  0.1002582E+03  0.7546771E-02  0.1281417E+00
          2   -1    0    0  502    0  0.00000000000E+00  0.00000000000E+00  0.11440988731E+03  0.11440988731E+03  0.00000000000E+00 0. -1.
         -2   -1    0    0    0  501 -0.00000000000E+00 -0.00000000000E+00 -0.17014162639E+03  0.17014162639E+03  0.00000000000E+00 0.  1.
         23    2    1    2    0    0 -0.65753507088E+01 -0.23630394898E+02 -0.10465216506E+03  0.14010844778E+03  0.89870299257E+02 0.  0.
         23    2    1    2    0    0  0.34037846788E+02  0.23167490279E+02  0.55704454399E+02  0.11615126476E+03  0.93235306860E+02 0.  0.
        -13    1    4    4    0    0  0.62253217556E+02  0.18800800707E+02  0.58490100867E+02  0.87464421926E+02  0.00000000000E+00 0.  1.
         13    1    4    4    0    0 -0.28215370769E+02  0.43666895727E+01 -0.27856464680E+01  0.28686842832E+02  0.00000000000E+00 0. -1.
        -13    1    3    3    0    0 -0.22112983921E+02  0.22826936908E+02 -0.78254400813E+02  0.84461851466E+02  0.00000000000E+00 0. -1.
         13    1    3    3    0    0  0.15537633212E+02 -0.46457331806E+02 -0.26397764243E+02  0.55646596314E+02  0.00000000000E+00 0.  1.
         21    1    1    2  502  501 -0.27462496079E+02  0.46290461900E+00 -0.67840284197E+01  0.28291801165E+02  0.00000000000E+00 0. -1.
<scales pt_clust_5="13000.00000" pt_clust_6="13000.00000" pt_clust_7="13000.00000" pt_clust_8="13000.00000" pt_clust_9="27.46640"></scales>
<clustering>
<clus scale="   27.466">  2  9  1 -1</clus>
<clus scale="   89.870">  7  8 -1 -1</clus>
<clus scale="   93.235">  5  6 -1 -1</clus>
<clus scale="   97.137">  2  7  1 -1</clus>
<clus scale="  100.258">  1  5  2 -1</clus>
</clustering>
</event>
<event>
 9    1  0.1175034E-005  0.1878877E+03  0.7546771E-02  0.1160756E+00
         -2   -1    0    0    0  501 -0.00000000000E+00  0.00000000000E+00  0.71109947521E+03  0.71109947521E+03  0.00000000000E+00 0.  1.
          2   -1    0    0  502    0  0.00000000000E+00 -0.00000000000E+00 -0.24105653001E+03  0.24105653001E+03  0.00000000000E+00 0. -1.
         23    2    1    2    0    0  0.10014544371E+03  0.11751494072E+03  0.48653320200E+03  0.51843731298E+03  0.90685278029E+02 0.  0.
         23    2    1    2    0    0 -0.13595895660E+03 -0.91310362883E+02 -0.18206098584E+03  0.26230412483E+03  0.93993782172E+02 0.  0.
        -11    1    3    3    0    0  0.51297389787E+02 -0.50638395297E+00  0.13516631317E+03  0.14457389405E+03  0.00000000000E+00 0. -1.
         11    1    3    3    0    0  0.48848053923E+02  0.11802132467E+03  0.35136688883E+03  0.37386341893E+03  0.00000000000E+00 0.  1.
        -13    1    4    4    0    0 -0.60891654727E+02 -0.62576375577E+00 -0.24541387825E+02  0.65654130959E+02  0.00000000000E+00 0. -1.
         13    1    4    4    0    0 -0.75067301872E+02 -0.90684599127E+02 -0.15751959802E+03  0.19664999387E+03  0.00000000000E+00 0.  1.
         21    1    1    2  502  501  0.35813512889E+02 -0.26204577835E+02  0.16557072904E+03  0.17141456740E+03  0.00000000000E+00 0. -1.
<scales pt_clust_5="13000.00000" pt_clust_6="13000.00000" pt_clust_7="13000.00000" pt_clust_8="13000.00000" pt_clust_9="44.37666"></scales>
<clustering>
<clus scale="   44.377">  1  9  2 -1</clus>
<clus scale="   90.685">  5  6 -1 -1</clus>
<clus scale="   93.994">  7  8 -1 -1</clus>
<clus scale="  186.255">  1  5  2 -1</clus>
<clus scale="  187.888">  2  5  1 -1</clus>
</clustering>
</event>
<event>
 9    1  0.1175034E-005  0.1139970E+03  0.7546771E-02  0.1253389E+00
          1   -1    0    0  502    0  0.00000000000E+00  0.00000000000E+00  0.36433600486E+03  0.36433600486E+03  0.00000000000E+00 0. -1.
         -1   -1    0    0    0  501 -0.00000000000E+00 -0.00000000000E+00 -0.53102209999E+02  0.53102209999E+02  0.00000000000E+00 0.  1.
         23    2    1    2    0    0 -0.81040747173E+02  0.17710343148E+02  0.15695308592E+03  0.19940113373E+03  0.90803535149E+02 0.  0.
         23    2    1    2    0    0  0.57251676149E+02 -0.76850577601E+01  0.15873412996E+03  0.19184053162E+03  0.90936521943E+02 0.  0.
        -13    1    4    4    0    0  0.15573483993E+02  0.38511114417E+02  0.39366505633E+02  0.57230770596E+02  0.00000000000E+00 0. -1.
         13    1    4    4    0    0  0.41678192156E+02 -0.46196172177E+02  0.11936762433E+03  0.13460976103E+03  0.00000000000E+00 0.  1.
        -13    1    3    3    0    0 -0.31938208820E+02 -0.27716993273E+02  0.19567700282E+02  0.46595877426E+02  0.00000000000E+00 0.  1.
         13    1    3    3    0    0 -0.49102538353E+02  0.45427336420E+02  0.13738538564E+03  0.15280525630E+03  0.00000000000E+00 0. -1.
         21    1    1    2  502  501  0.23789071024E+02 -0.10025285388E+02 -0.44534210228E+01  0.26196549508E+02  0.00000000000E+00 0. -1.
<scales pt_clust_5="13000.00000" pt_clust_6="13000.00000" pt_clust_7="13000.00000" pt_clust_8="13000.00000" pt_clust_9="25.81523"></scales>
<clustering>
<clus scale="   25.815">  2  9  1 -1</clus>
<clus scale="   90.804">  7  8 -1 -1</clus>
<clus scale="   90.937">  5  6 -1 -1</clus>
<clus scale="  113.891">  2  7  1 -1</clus>
<clus scale="  113.997">  1  5  2 -1</clus>
</clustering>
</event>
<event>
 9    1  0.1175034E-005  0.1371327E+03  0.7546771E-02  0.1229152E+00
          1   -1    0    0  502    0  0.00000000000E+00  0.00000000000E+00  0.33723571277E+03  0.33723571277E+03  0.00000000000E+00 0. -1.
         -1   -1    0    0    0  501 -0.00000000000E+00 -0.00000000000E+00 -0.86270890644E+02  0.86270890644E+02  0.00000000000E+00 0.  1.
         23    2    1    2    0    0  0.39444945739E+02 -0.46537145781E+02  0.94772812756E+02  0.16809308608E+03  0.12470681564E+03 0.  0.
         23    2    1    2    0    0 -0.11395519531E+02  0.56476702868E+02  0.18510379990E+03  0.21392307582E+03  0.90444401710E+02 0.  0.
        -11    1    4    4    0    0  0.34749257023E+02  0.49106662647E+02  0.95549695323E+02  0.11291022742E+03  0.00000000000E+00 0. -1.
         11    1    4    4    0    0 -0.46144776554E+02  0.73700402207E+01  0.89554104575E+02  0.10101284840E+03  0.00000000000E+00 0.  1.
        -11    1    3    3    0    0  0.62915104207E+02  0.91787340621E+01  0.86077452500E+02  0.10701349132E+03  0.00000000000E+00 0. -1.
         11    1    3    3    0    0 -0.23470158468E+02 -0.55715879843E+02  0.86953602561E+01  0.61079594753E+02  0.00000000000E+00 0.  1.
         21    1    1    2  502  501 -0.28049426208E+02 -0.99395570868E+01 -0.28911790527E+02  0.41490441516E+02  0.00000000000E+00 0. -1.
<scales pt_clust_5="13000.00000" pt_clust_6="13000.00000" pt_clust_7="13000.00000" pt_clust_8="13000.00000" pt_clust_9="29.75845"></scales>
<clustering>
<clus scale="   29.758">  2  9  1 -1</clus>
<clus scale="   90.444">  5  6 -1 -1</clus>
<clus scale="  106.929">  1  5  2 -1</clus>
<clus scale="  124.707">  7  8 -1 -1</clus>
<clus scale="  106.929">  1  5  2 -1</clus>
</clustering>
</event>
<event>
 9    1  0.1175034E-005  0.2702809E+03  0.7546771E-02  0.1101206E+00
         -2   -1    0    0    0  501 -0.00000000000E+00  0.00000000000E+00  0.34355321297E+03  0.34355321297E+03  0.00000000000E+00 0.  1.
          2   -1    0    0  502    0  0.00000000000E+00 -0.00000000000E+00 -0.28719753733E+03  0.28719753733E+03  0.00000000000E+00 0. -1.
         23    2    1    2    0    0 -0.17208213564E+03 -0.15246695943E+03  0.12468180763E+03  0.27671010578E+03  0.90357591615E+02 0.  0.
         23    2    1    2    0    0  0.19263795043E+03  0.18319352167E+03 -0.10655739089E+03  0.30085895306E+03  0.92154141297E+02 0.  0.
        -11    1    3    3    0    0 -0.12017798720E+03 -0.15295132216E+03  0.90342064598E+02  0.21447271200E+03  0.00000000000E+00 0.  1.
         11    1    3    3    0    0 -0.51904148439E+02  0.48436273063E+00  0.34339743032E+02  0.62237393776E+02  0.00000000000E+00 0. -1.
        -13    1    4    4    0    0  0.17208894245E+03  0.15521192503E+03 -0.54134508261E+02  0.23798296319E+03  0.00000000000E+00 0. -1.
         13    1    4    4    0    0  0.20549007982E+02  0.27981596640E+02 -0.52422882627E+02  0.62875989873E+02  0.00000000000E+00 0.  1.
         21    1    1    2  502  501 -0.20555814795E+02 -0.30726562235E+02  0.38231258900E+02  0.53181691452E+02  0.00000000000E+00 0. -1.
<scales pt_clust_5="13000.00000" pt_clust_6="13000.00000" pt_clust_7="13000.00000" pt_clust_8="13000.00000" pt_clust_9="36.96841"></scales>
<clustering>
<clus scale="   36.968">  1  9  2 -1</clus>
<clus scale="   90.358">  5  6 -1 -1</clus>
<clus scale="   92.154">  7  8 -1 -1</clus>
<clus scale="  269.674">  1  5  2 -1</clus>
<clus scale="  270.281">  2  5  1 -1</clus>
</clustering>
</event>
<event>
 9    1  0.1175034E-005  0.2342354E+03  0.7546771E-02  0.1123831E+00
         -1   -1    0    0    0  501 -0.00000000000E+00  0.00000000000E+00  0.15381478418E+03  0.15381478418E+03  0.00000000000E+00 0.  1.
          1   -1    0    0  502    0  0.00000000000E+00 -0.00000000000E+00 -0.65468947405E+03  0.65468947405E+03  0.00000000000E+00 0. -1.
         23    2    1    2    0    0  0.39614409207E+02 -0.20682093783E+03 -0.14314499777E+03  0.27010405083E+03  0.90119399397E+02 0.  0.
         23    2    1    2    0    0 -0.15825702514E+03  0.16991568663E+03 -0.32498190735E+03  0.40990707417E+03  0.92162588858E+02 0.  0.
        -11    1    4    4    0    0 -0.32020973724E+01  0.58813376144E+02 -0.83213060607E+02  0.10194939969E+03  0.00000000000E+00 0.  1.
         11    1    4    4    0    0 -0.15505492777E+03  0.11110231048E+03 -0.24176884674E+03  0.30795767449E+03  0.00000000000E+00 0. -1.
        -11    1    3    3    0    0  0.41322917969E+02 -0.17102506804E+03 -0.15275112852E+03  0.23300228478E+03  0.00000000000E+00 0.  1.
         11    1    3    3    0    0 -0.17085087621E+01 -0.35795869781E+02  0.96061307543E+01  0.37101766045E+02  0.00000000000E+00 0. -1.
         21    1    1    2  502  501  0.11864261594E+03  0.36905251200E+02 -0.32747784752E+02  0.12849313323E+03  0.00000000000E+00 0.  1.
<scales pt_clust_5="13000.00000" pt_clust_6="13000.00000" pt_clust_7="13000.00000" pt_clust_8="13000.00000" pt_clust_9="124.25002"></scales>
<clustering>
<clus scale="   90.119">  7  8 -1 -1</clus>
<clus scale="   92.163">  5  6 -1 -1</clus>
<clus scale="  124.250">  1  9  2 -1</clus>
<clus scale="  233.439">  1  7  2 -1</clus>
<clus scale="  234.235">  2  5  1 -1</clus>
</clustering>
</event>
<event>
 9    1  0.1175034E-005  0.1097223E+03  0.7546771E-02  0.1261602E+00
         -1   -1    0    0    0  501 -0.00000000000E+00  0.00000000000E+00  0.30716775766E+03  0.30716775766E+03  0.00000000000E+00 0.  1.
          1   -1    0    0  502    0  0.00000000000E+00 -0.00000000000E+00 -0.53056522386E+02  0.53056522386E+02  0.00000000000E+00 0. -1.
         23    2    1    2    0    0  0.48476395924E+02 -0.93627131240E+01  0.14189642767E+03  0.17640449425E+03  0.92446352261E+02 0.  0.
         23    2    1    2    0    0 -0.71083782782E+02  0.23423261007E+02  0.99602993238E+02  0.15436047812E+03  0.91130936637E+02 0.  0.
        -11    1    3    3    0    0  0.62702193962E+02 -0.28994623936E+02  0.13425307306E+03  0.15098390964E+03  0.00000000000E+00 0.  1.
         11    1    3    3    0    0 -0.14225798039E+02  0.19631910812E+02  0.76433546099E+01  0.25420584605E+02  0.00000000000E+00 0. -1.
        -13    1    4    4    0    0 -0.24245971663E+02  0.53650911069E+02  0.69225182732E+02  0.90875812649E+02  0.00000000000E+00 0. -1.
         13    1    4    4    0    0 -0.46837811120E+02 -0.30227650061E+02  0.30377810506E+02  0.63484665470E+02  0.00000000000E+00 0.  1.
         21    1    1    2  502  501  0.22607386859E+02 -0.14060547883E+02  0.12611814365E+02  0.29459307679E+02  0.00000000000E+00 0.  1.
<scales pt_clust_5="13000.00000" pt_clust_6="13000.00000" pt_clust_7="13000.00000" pt_clust_8="13000.00000" pt_clust_9="26.62317"></scales>
<clustering>
<clus scale="   26.623">  2  9  1 -1</clus>
<clus scale="   91.131">  7  8 -1 -1</clus>
<clus scale="   92.446">  5  6 -1 -1</clus>
<clus scale="  108.616">  2  7  1 -1</clus>
<clus scale="   26.623">  2  5  1 -1</clus>
</clustering>
</event>
<event>
 9    1  0.1175034E-005  0.1192046E+03  0.7546771E-02  0.1245849E+00
         -1   -1    0    0    0  501 -0.00000000000E+00  0.00000000000E+00  0.86400141205E+02  0.86400141205E+02  0.00000000000E+00 0.  1.
          1   -1    0    0  502    0  0.00000000000E+00 -0.00000000000E+00 -0.71884043572E+03  0.71884043572E+03  0.00000000000E+00 0. -1.
         23    2    1    2    0    0  0.36159422290E+01 -0.78266787937E+02 -0.32871208066E+02  0.12618745674E+03  0.93295191660E+02 0.  0.
         23    2    1    2    0    0 -0.25328014082E+02  0.69628626189E+02 -0.63007976122E+03  0.64062223186E+03  0.88919539860E+02 0.  0.
        -13    1    4    4    0    0  0.22039754023E+02  0.64423222852E+02 -0.37175534494E+03  0.37793933229E+03  0.00000000000E+00 0. -1.
         13    1    4    4    0    0 -0.47367768104E+02  0.52054033372E+01 -0.25832441628E+03  0.26268289956E+03  0.00000000000E+00 0.  1.
        -13    1    3    3    0    0  0.25220455162E+02 -0.86452375671E+02 -0.52938095496E+01  0.90211468436E+02  0.00000000000E+00 0.  1.
         13    1    3    3    0    0 -0.21604512933E+02  0.81855877341E+01 -0.27577398516E+02  0.35975988305E+02  0.00000000000E+00 0. -1.
         21    1    1    2  502  501  0.21712071853E+02  0.86381617480E+01  0.30510674772E+02  0.38430888326E+02  0.00000000000E+00 0.  1.
<scales pt_clust_5="13000.00000" pt_clust_6="13000.00000" pt_clust_7="13000.00000" pt_clust_8="13000.00000" pt_clust_9="23.36733"></scales>
<clustering>
<clus scale="   23.367">  1  9  2 -1</clus>
<clus scale="   88.920">  5  6 -1 -1</clus>
<clus scale="   93.295">  7  8 -1 -1</clus>
<clus scale="  115.812">  2  5  1 -1</clus>
<clus scale="  115.812">  2  5  1 -1</clus>
</clustering>
</event>
<event>
 9    1  0.1175034E-005  0.1114466E+03  0.7546771E-02  0.1259895E+00
         -2   -1    0    0    0  501 -0.00000000000E+00  0.00000000000E+00  0.46493865071E+03  0.46493865071E+03  0.00000000000E+00 0.  1.
          2   -1    0    0  502    0  0.00000000000E+00 -0.00000000000E+00 -0.46960409815E+02  0.46960409815E+02  0.00000000000E+00 0. -1.
         23    2    1    2    0    0  0.38947213599E+02  0.37812366323E+02  0.24308940027E+03  0.26435804607E+03  0.88577985431E+02 0.  0.
         23    2    1    2    0    0 -0.57908764379E+02 -0.25875309129E+02  0.55414540285E+02  0.12598385842E+03  0.93692073798E+02 0.  0.
        -11    1    3    3    0    0 -0.21403430018E+02  0.96720010611E+01  0.13774082986E+03  0.13972898995E+03  0.00000000000E+00 0. -1.
         11    1    3    3    0    0  0.60350643617E+02  0.28140365262E+02  0.10534857041E+03  0.12462905612E+03  0.00000000000E+00 0.  1.
        -11    1    4    4    0    0 -0.36751581940E+02  0.30829079155E+02  0.69975112730E+01  0.48477583074E+02  0.00000000000E+00 0. -1.
         11    1    4    4    0    0 -0.21157182438E+02 -0.56704388284E+02  0.48417029012E+02  0.77506275345E+02  0.00000000000E+00 0.  1.
         21    1    1    2  502  501  0.18961550780E+02 -0.11937057194E+02  0.11947430033E+03  0.12155715603E+03  0.00000000000E+00 0.  1.
<scales pt_clust_5="13000.00000" pt_clust_6="13000.00000" pt_clust_7="13000.00000" pt_clust_8="13000.00000" pt_clust_9="22.40611"></scales>
<clustering>
<clus scale="   22.406">  1  9  2 -1</clus>
<clus scale="   88.578">  5  6 -1 -1</clus>
<clus scale="   93.692">  7  8 -1 -1</clus>
<clus scale="  107.183">  1  5  2 -1</clus>
<clus scale="  111.447">  2  5  1 -1</clus>
</clustering>
</event>
<event>
 9    1  0.1175034E-005  0.3833800E+03  0.7546771E-02  0.1049714E+00
         -2   -1    0    0    0  501 -0.00000000000E+00  0.00000000000E+00  0.40224794852E+03  0.40224794852E+03  0.00000000000E+00 0.  1.
          2   -1    0    0  502    0  0.00000000000E+00 -0.00000000000E+00 -0.83053870563E+03  0.83053870563E+03  0.00000000000E+00 0. -1.
         23    2    1    2    0    0  0.25797266149E+03 -0.14752344594E+03 -0.13697388225E+03  0.34001785557E+03  0.92397167217E+02 0.  0.
         23    2    1    2    0    0 -0.30794725777E+03  0.32870764488E+03 -0.45243374292E+03  0.64521310910E+03  0.93399331121E+02 0.  0.
        -11    1    3    3    0    0  0.13803054851E+03 -0.31578456492E+02 -0.40347530014E+02  0.14723299364E+03  0.00000000000E+00 0. -1.
         11    1    3    3    0    0  0.11994211297E+03 -0.11594498945E+03 -0.96626352239E+02  0.19278486193E+03  0.00000000000E+00 0.  1.
        -13    1    4    4    0    0 -0.99330647931E+02  0.78099886072E+02 -0.18212787728E+03  0.22166807056E+03  0.00000000000E+00 0.  1.
         13    1    4    4    0    0 -0.20861660984E+03  0.25060775881E+03 -0.27030586564E+03  0.42354503855E+03  0.00000000000E+00 0. -1.
         21    1    1    2  502  501  0.49974596287E+02 -0.18118419894E+03  0.16111686806E+03  0.24755568948E+03  0.00000000000E+00 0.  1.
<scales pt_clust_5="13000.00000" pt_clust_6="13000.00000" pt_clust_7="13000.00000" pt_clust_8="13000.00000" pt_clust_9="187.94992"></scales>
<clustering>
<clus scale="   92.397">  5  6 -1 -1</clus>
<clus scale="   93.399">  7  8 -1 -1</clus>
<clus scale="  187.950">  1  9  2 -1</clus>
<clus scale="  383.137">  1  5  2 -1</clus>
<clus scale="  383.380">  2  5  1 -1</clus>
</clustering>
</event>
<event>
 9    1  0.1175034E-005  0.9566767E+02  0.7546771E-02  0.1289930E+00
          3   -1    0    0  502    0  0.00000000000E+00  0.00000000000E+00  0.30830465889E+02  0.30830465889E+02  0.00000000000E+00 0. -1.
         -3   -1    0    0    0  501 -0.00000000000E+00 -0.00000000000E+00 -0.42999608807E+03  0.42999608807E+03  0.00000000000E+00 0.  1.
         23    2    1    2    0    0 -0.21061611287E+02  0.80672255164E+01 -0.25543863232E+03  0.27168491758E+03  0.89750364700E+02 0.  0.
         23    2    1    2    0    0  0.38349059343E+02  0.30688928211E+01 -0.93537610018E+02  0.13490287864E+03  0.89271684878E+02 0.  0.
        -11    1    4    4    0    0  0.64355428239E+02  0.15605018078E+02 -0.77275839270E+02  0.10176783907E+03  0.00000000000E+00 0. -1.
         11    1    4    4    0    0 -0.26006368895E+02 -0.12536125257E+02 -0.16261770748E+02  0.33135039572E+02  0.00000000000E+00 0.  1.
        -11    1    3    3    0    0  0.81533071547E+01 -0.32417640587E+02 -0.49143348989E+02  0.59434405765E+02  0.00000000000E+00 0. -1.
         11    1    3    3    0    0 -0.29214918442E+02  0.40484866103E+02 -0.20629528333E+03  0.21225051182E+03  0.00000000000E+00 0.  1.
         21    1    1    2  502  501 -0.17287448056E+02 -0.11136118337E+02 -0.50189379843E+02  0.54238757737E+02  0.00000000000E+00 0.  1.
<scales pt_clust_5="13000.00000" pt_clust_6="13000.00000" pt_clust_7="13000.00000" pt_clust_8="13000.00000" pt_clust_9="20.56378"></scales>
<clustering>
<clus scale="   20.564">  2  9  1 -1</clus>
<clus scale="   89.272">  5  6 -1 -1</clus>
<clus scale="   89.750">  7  8 -1 -1</clus>
<clus scale="   95.219">  1  5  2 -1</clus>
<clus scale="   95.219">  1  5  2 -1</clus>
</clustering>
</event>
<event>
 9    1  0.1175034E-005  0.1531581E+03  0.7546771E-02  0.1197168E+00
         -1   -1    0    0    0  501 -0.00000000000E+00  0.00000000000E+00  0.55870700291E+02  0.55870700291E+02  0.00000000000E+00 0.  1.
          1   -1    0    0  502    0  0.00000000000E+00 -0.00000000000E+00 -0.86887229209E+03  0.86887229209E+03  0.00000000000E+00 0. -1.
         23    2    1    2    0    0 -0.24292609729E+02  0.11883810125E+03 -0.26866400576E+03  0.30907459769E+03  0.92920039553E+02 0.  0.
         23    2    1    2    0    0 -0.13768935366E+02 -0.12324291284E+03 -0.55510514710E+03  0.57586859630E+03  0.90025089429E+02 0.  0.
        -11    1    3    3    0    0 -0.28470003988E+02  0.14678225471E+02 -0.13930785665E+03  0.14294289194E+03  0.00000000000E+00 0. -1.
         11    1    3    3    0    0  0.41773942585E+01  0.10415987578E+03 -0.12935614911E+03  0.16613170575E+03  0.00000000000E+00 0.  1.
        -11    1    4    4    0    0 -0.28531124972E+02 -0.14603357002E+02 -0.53041140352E+02  0.61972943271E+02  0.00000000000E+00 0.  1.
         11    1    4    4    0    0  0.14762189606E+02 -0.10863955584E+03 -0.50206400675E+03  0.51389565303E+03  0.00000000000E+00 0. -1.
         21    1    1    2  502  501  0.38061545095E+02  0.44048115948E+01  0.10767561063E+02  0.39799798385E+02  0.00000000000E+00 0.  1.
<scales pt_clust_5="13000.00000" pt_clust_6="13000.00000" pt_clust_7="13000.00000" pt_clust_8="13000.00000" pt_clust_9="38.31558"></scales>
<clustering>
<clus scale="   38.316">  1  9  2 -1</clus>
<clus scale="   90.025">  7  8 -1 -1</clus>
<clus scale="   92.920">  5  6 -1 -1</clus>
<clus scale="  151.419">  2  7  1 -1</clus>
<clus scale="  151.419">  2  5  1 -1</clus>
</clustering>
</event>
<event>
 9    1  0.1175034E-005  0.1970727E+03  0.7546771E-02  0.1176309E+00
         -2   -1    0    0    0  501 -0.00000000000E+00  0.00000000000E+00  0.71923247452E+02  0.71923247452E+02  0.00000000000E+00 0.  1.
          2   -1    0    0  502    0  0.00000000000E+00 -0.00000000000E+00 -0.97847428203E+03  0.97847428203E+03  0.00000000000E+00 0. -1.
         23    2    1    2    0    0  0.14697405477E+03 -0.37251187069E+02 -0.19926024044E+03  0.26606573857E+03  0.89985054932E+02 0.  0.
         23    2    1    2    0    0  0.66825149354E+02  0.24873018744E+01 -0.33587407541E+03  0.35436783155E+03  0.91067986943E+02 0.  0.
        -13    1    3    3    0    0  0.12092720078E+03 -0.49354979846E+02 -0.10517283069E+03  0.16769205777E+03  0.00000000000E+00 0.  1.
         13    1    3    3    0    0  0.26046853988E+02  0.12103792778E+02 -0.94087409742E+02  0.98373680800E+02  0.00000000000E+00 0. -1.
        -13    1    4    4    0    0 -0.11388338074E+02  0.27370731347E+02 -0.67488418967E+02  0.73712535387E+02  0.00000000000E+00 0. -1.
         13    1    4    4    0    0  0.78213487429E+02 -0.24883429473E+02 -0.26838565644E+03  0.28065529616E+03  0.00000000000E+00 0.  1.
         21    1    1    2  502  501 -0.21379920412E+03  0.34763885194E+02 -0.37141671873E+03  0.42996395936E+03  0.00000000000E+00 0. -1.
<scales pt_clust_5="13000.00000" pt_clust_6="13000.00000" pt_clust_7="13000.00000" pt_clust_8="13000.00000" pt_clust_9="175.32919"></scales>
<clustering>
<clus scale="   89.985">  5  6 -1 -1</clus>
<clus scale="   91.068">  7  8 -1 -1</clus>
<clus scale="  112.983">  2  7  1 -1</clus>
<clus scale="  175.329">  2  9  1 -1</clus>
<clus scale="  112.983">  2  5  1 -1</clus>
</clustering>
</event>
<event>
 9    1  0.1175034E-005  0.1115743E+03  0.7546771E-02  0.1261433E+00
         -1   -1    0    0    0  501 -0.00000000000E+00  0.00000000000E+00  0.48010317859E+02  0.48010317859E+02  0.00000000000E+00 0.  1.
          1   -1    0    0  502    0  0.00000000000E+00 -0.00000000000E+00 -0.38434526301E+03  0.38434526301E+03  0.00000000000E+00 0. -1.
         23    2    1    2    0    0  0.32411952659E+02 -0.22003774500E+02 -0.61221963100E+02  0.11686974580E+03  0.91518893952E+02 0.  0.
         23    2    1    2    0    0 -0.31243734496E+02  0.43140146743E+02 -0.27106512200E+03  0.29393366264E+03  0.10041640535E+03 0.  0.
        -13    1    3    3    0    0  0.13558650751E+02 -0.55607994534E+02 -0.51814206574E+02  0.77206204862E+02  0.00000000000E+00 0. -1.
         13    1    3    3    0    0  0.18853301908E+02  0.33604220034E+02 -0.94077565255E+01  0.39663540938E+02  0.00000000000E+00 0.  1.
        -13    1    4    4    0    0  0.44372452012E+01 -0.29994228503E+02 -0.10008364628E+03  0.10457571010E+03  0.00000000000E+00 0.  1.
         13    1    4    4    0    0 -0.35680979698E+02  0.73134375246E+02 -0.17098147572E+03  0.18935795255E+03  0.00000000000E+00 0. -1.
         21    1    1    2  502  501 -0.11682181627E+01 -0.21136372243E+02 -0.40478600506E+01  0.21552172425E+02  0.00000000000E+00 0. -1.
<scales pt_clust_5="13000.00000" pt_clust_6="13000.00000" pt_clust_7="13000.00000" pt_clust_8="13000.00000" pt_clust_9="21.16863"></scales>
<clustering>
<clus scale="   21.169">  1  9  2 -1</clus>
<clus scale="   91.519">  5  6 -1 -1</clus>
<clus scale="  100.416">  7  8 -1 -1</clus>
<clus scale="  103.639">  1  5  2 -1</clus>
<clus scale="  111.574">  2  5  1 -1</clus>
</clustering>
</event>
<event>
 9    1  0.1175034E-005  0.1084318E+03  0.7546771E-02  0.1264097E+00
         -1   -1    0    0    0  501 -0.00000000000E+00  0.00000000000E+00  0.20228123649E+02  0.20228123649E+02  0.00000000000E+00 0.  1.
          1   -1    0    0  502    0  0.00000000000E+00 -0.00000000000E+00 -0.76896052642E+03  0.76896052642E+03  0.00000000000E+00 0. -1.
         23    2    1    2    0    0 -0.59548733121E+02  0.99410018336E+01 -0.27278453629E+03  0.29372032842E+03  0.90638584250E+02 0.  0.
         23    2    1    2    0    0  0.58876166540E+02  0.17816784998E+02 -0.40639594361E+03  0.42057895624E+03  0.89135596925E+02 0.  0.
        -11    1    3    3    0    0  0.17863517448E+02  0.98197535113E+01 -0.17206531239E+02  0.26675785497E+02  0.00000000000E+00 0.  1.
         11    1    3    3    0    0 -0.77412250568E+02  0.12124832229E+00 -0.25557800505E+03  0.26704454292E+03  0.00000000000E+00 0. -1.
        -13    1    4    4    0    0  0.69557751385E+02 -0.17027345316E+02 -0.28238377913E+03  0.29132251884E+03  0.00000000000E+00 0.  1.
         13    1    4    4    0    0 -0.10681584845E+02  0.34844130314E+02 -0.12401216448E+03  0.12925643741E+03  0.00000000000E+00 0. -1.
         21    1    1    2  502  501  0.67256658113E+00 -0.27757786832E+02 -0.69551922874E+02  0.74889365407E+02  0.00000000000E+00 0. -1.
<scales pt_clust_5="13000.00000" pt_clust_6="13000.00000" pt_clust_7="13000.00000" pt_clust_8="13000.00000" pt_clust_9="27.76593"></scales>
<clustering>
<clus scale="   27.766">  1  9  2 -1</clus>
<clus scale="   89.136">  7  8 -1 -1</clus>
<clus scale="   90.639">  5  6 -1 -1</clus>
<clus scale="  107.179">  2  7  1 -1</clus>
<clus scale="  107.179">  2  5  1 -1</clus>
</clustering>
</event>
<event>
 9    1  0.1175034E-005  0.1095910E+03  0.7546771E-02  0.1264097E+00
          1   -1    0    0  502    0  0.00000000000E+00  0.00000000000E+00  0.35003651887E+03  0.35003651887E+03  0.00000000000E+00 0. -1.
         -1   -1    0    0    0  501 -0.00000000000E+00 -0.00000000000E+00 -0.92789029868E+02  0.92789029868E+02  0.00000000000E+00 0.  1.
         23    2    1    2    0    0  0.33576689128E+02  0.34990414779E+02  0.35715369881E+02  0.10397768906E+03  0.84758769437E+02 0.  0.
         23    2    1    2    0    0 -0.64286710917E+02 -0.15095461608E+02  0.26136359373E+03  0.28476032906E+03  0.91743461445E+02 0.  0.
        -11    1    4    4    0    0 -0.37804845615E+02 -0.46158445260E+02  0.21435068199E+03  0.22249949053E+03  0.00000000000E+00 0. -1.
         11    1    4    4    0    0 -0.26481865302E+02  0.31062983652E+02  0.47012911742E+02  0.62260838523E+02  0.00000000000E+00 0.  1.
        -13    1    3    3    0    0  0.46397609135E+01  0.55399716835E+02  0.28510481844E+01  0.55666726889E+02  0.00000000000E+00 0.  1.
         13    1    3    3    0    0  0.28936928214E+02 -0.20409302056E+02  0.32864321697E+02  0.48310962167E+02  0.00000000000E+00 0. -1.
         21    1    1    2  502  501  0.30710021789E+02 -0.19894953171E+02 -0.39831474605E+02  0.54087530625E+02  0.00000000000E+00 0.  1.
<scales pt_clust_5="13000.00000" pt_clust_6="13000.00000" pt_clust_7="13000.00000" pt_clust_8="13000.00000" pt_clust_9="36.59118"></scales>
<clustering>
<clus scale="   36.591">  2  9  1 -1</clus>
<clus scale="   84.759">  7  8 -1 -1</clus>
<clus scale="   91.743">  5  6 -1 -1</clus>
<clus scale="  103.814">  2  7  1 -1</clus>
<clus scale="  109.591">  1  5  2 -1</clus>
</clustering>
</event>
<event>
 9    1  0.1175034E-005  0.1132493E+03  0.7546771E-02  0.1254855E+00
          1   -1    0    0  502    0  0.00000000000E+00  0.00000000000E+00  0.71685787056E+02  0.71685787056E+02  0.00000000000E+00 0. -1.
         -1   -1    0    0    0  501 -0.00000000000E+00 -0.00000000000E+00 -0.50010198338E+03  0.50010198338E+03  0.00000000000E+00 0.  1.
         23    2    1    2    0    0 -0.36829077630E+02 -0.58744021693E+02 -0.40800822766E+03  0.42373100614E+03  0.90939599047E+02 0.  0.
         23    2    1    2    0    0  0.94918764785E+01  0.57040835048E+02  0.92021822266E+01  0.10772086903E+03  0.90417658039E+02 0.  0.
        -11    1    3    3    0    0 -0.27539369507E+02 -0.82000542760E+02 -0.35031857571E+03  0.36084014518E+03  0.00000000000E+00 0.  1.
         11    1    3    3    0    0 -0.92897081225E+01  0.23256521067E+02 -0.57689651958E+02  0.62890860959E+02  0.00000000000E+00 0. -1.
        -11    1    4    4    0    0 -0.34859350438E+02  0.35891050799E+02 -0.15959492674E+02  0.52517113847E+02  0.00000000000E+00 0.  1.
         11    1    4    4    0    0  0.44351226916E+02  0.21149784250E+02  0.25161674900E+02  0.55203755185E+02  0.00000000000E+00 0. -1.
         21    1    1    2  502  501  0.27337201151E+02  0.17031866448E+01 -0.29610150883E+02  0.40335895265E+02  0.00000000000E+00 0.  1.
<scales pt_clust_5="13000.00000" pt_clust_6="13000.00000" pt_clust_7="13000.00000" pt_clust_8="13000.00000" pt_clust_9="27.39021"></scales>
<clustering>
<clus scale="   27.390">  1  9  2 -1</clus>
<clus scale="   90.418">  7  8 -1 -1</clus>
<clus scale="   90.940">  5  6 -1 -1</clus>
<clus scale="  112.831">  1  7  2 -1</clus>
<clus scale="   27.390">  1  5  2 -1</clus>
</clustering>
</event>
<event>
 9    1  0.1175034E-005  0.9942037E+02  0.7546771E-02  0.1282446E+00
          2   -1    0    0  502    0  0.00000000000E+00  0.00000000000E+00  0.10205754955E+03  0.10205754955E+03  0.00000000000E+00 0. -1.
         -2   -1    0    0    0  501 -0.00000000000E+00 -0.00000000000E+00 -0.19982954797E+03  0.19982954797E+03  0.00000000000E+00 0.  1.
         23    2    1    2    0    0  0.38134072139E+01 -0.12773513367E+02 -0.30675915828E+02  0.96592453419E+02  0.90616695632E+02 0.  0.
         23    2    1    2    0    0 -0.74227145839E+02 -0.85599498640E+01 -0.53920632677E+02  0.13054971972E+03  0.92481634767E+02 0.  0.
        -13    1    3    3    0    0 -0.22736354622E+02 -0.27475398088E+01 -0.54769341347E+02  0.59364733202E+02  0.00000000000E+00 0.  1.
         13    1    3    3    0    0  0.26549761836E+02 -0.10025973558E+02  0.24093425519E+02  0.37227720217E+02  0.00000000000E+00 0. -1.
        -13    1    4    4    0    0  0.10955828757E+02 -0.18046206610E+02  0.10261017580E+02  0.23473053456E+02  0.00000000000E+00 0. -1.
         13    1    4    4    0    0 -0.85182974596E+02  0.94862567464E+01 -0.64181650258E+02  0.10707666626E+03  0.00000000000E+00 0.  1.
         21    1    1    2  502  501  0.70413738625E+02  0.21333463231E+02 -0.13175449920E+02  0.74744924384E+02  0.00000000000E+00 0. -1.
<scales pt_clust_5="13000.00000" pt_clust_6="13000.00000" pt_clust_7="13000.00000" pt_clust_8="13000.00000" pt_clust_9="73.57453"></scales>
<clustering>
<clus scale="   73.575">  1  9  2 -1</clus>
<clus scale="   90.617">  5  6 -1 -1</clus>
<clus scale="   92.482">  7  8 -1 -1</clus>
<clus scale="   97.688">  2  5  1 -1</clus>
<clus scale="   73.575">  1  5  2 -1</clus>
</clustering>
</event>
<event>
 9    1  0.1175034E-005  0.9689908E+02  0.7546771E-02  0.1288276E+00
         -1   -1    0    0    0  501 -0.00000000000E+00  0.00000000000E+00  0.55468328003E+02  0.55468328003E+02  0.00000000000E+00 0.  1.
          1   -1    0    0  502    0  0.00000000000E+00 -0.00000000000E+00 -0.34690604802E+03  0.34690604802E+03  0.00000000000E+00 0. -1.
         23    2    1    2    0    0 -0.22779224434E+02  0.40008440996E+01 -0.73223090970E+02  0.12173054883E+03  0.94455310326E+02 0.  0.
         23    2    1    2    0    0 -0.73319483557E+01 -0.28894469346E+02 -0.22123847542E+03  0.24145812889E+03  0.92015852857E+02 0.  0.
        -11    1    3    3    0    0  0.71660761219E+01 -0.39677195239E+02 -0.49112912679E+02  0.63542982782E+02  0.00000000000E+00 0. -1.
         11    1    3    3    0    0 -0.29945300556E+02  0.43678039338E+02 -0.24110178291E+02  0.58187566052E+02  0.00000000000E+00 0.  1.
        -11    1    4    4    0    0 -0.49401977790E+02 -0.20393515232E+02 -0.11229505268E+03  0.12436490554E+03  0.00000000000E+00 0.  1.
         11    1    4    4    0    0  0.42070029434E+02 -0.85009541131E+01 -0.10894342274E+03  0.11709322335E+03  0.00000000000E+00 0. -1.
         21    1    1    2  502  501  0.30111172789E+02  0.24893625246E+02  0.30238463664E+01  0.39185698303E+02  0.00000000000E+00 0.  1.
<scales pt_clust_5="13000.00000" pt_clust_6="13000.00000" pt_clust_7="13000.00000" pt_clust_8="13000.00000" pt_clust_9="39.06885"></scales>
<clustering>
<clus scale="   39.069">  1  9  2 -1</clus>
<clus scale="   92.016">  7  8 -1 -1</clus>
<clus scale="   94.455">  5  6 -1 -1</clus>
<clus scale="   94.523">  2  7  1 -1</clus>
<clus scale="   94.523">  2  5  1 -1</clus>
</clustering>
</event>
<event>
 9    1  0.1175034E-005  0.9807241E+02  0.7546771E-02  0.1285972E+00
         -2   -1    0    0    0  501 -0.00000000000E+00  0.00000000000E+00  0.31919095726E+02  0.31919095726E+02  0.00000000000E+00 0.  1.
          2   -1    0    0  502    0  0.00000000000E+00 -0.00000000000E+00 -0.41623433883E+03  0.41623433883E+03  0.00000000000E+00 0. -1.
         23    2    1    2    0    0  0.16773872973E+02  0.31790473909E+02 -0.10688580785E+03  0.14609193407E+03  0.92877770394E+02 0.  0.
         23    2    1    2    0    0 -0.28895094540E+02 -0.13200639570E+02 -0.24384950267E+03  0.26181081322E+03  0.89850646050E+02 0.  0.
        -11    1    3    3    0    0  0.53358310367E+02  0.17748753409E+02 -0.82817156071E+02  0.10010399029E+03  0.00000000000E+00 0.  1.
         11    1    3    3    0    0 -0.36584437394E+02  0.14041720500E+02 -0.24068651783E+02  0.45987943776E+02  0.00000000000E+00 0. -1.
        -11    1    4    4    0    0 -0.22199291057E+02  0.30368226417E+02 -0.47588954782E+02  0.60660912591E+02  0.00000000000E+00 0.  1.
         11    1    4    4    0    0 -0.66958034828E+01 -0.43568865987E+02 -0.19626054788E+03  0.20114990063E+03  0.00000000000E+00 0. -1.
         21    1    1    2  502  501  0.12121221567E+02 -0.18589834339E+02 -0.33579932579E+02  0.40250687262E+02  0.00000000000E+00 0. -1.
<scales pt_clust_5="13000.00000" pt_clust_6="13000.00000" pt_clust_7="13000.00000" pt_clust_8="13000.00000" pt_clust_9="22.19248"></scales>
<clustering>
<clus scale="   22.192">  1  9  2 -1</clus>
<clus scale="   89.851">  7  8 -1 -1</clus>
<clus scale="   92.878">  5  6 -1 -1</clus>
<clus scale="   95.211">  2  7  1 -1</clus>
<clus scale="   95.211">  2  5  1 -1</clus>
</clustering>
</event>
<event>
 9    1  0.1175034E-005  0.1225533E+03  0.7546771E-02  0.1243710E+00
         -1   -1    0    0    0  501 -0.00000000000E+00  0.00000000000E+00  0.12013996029E+03  0.12013996029E+03  0.00000000000E+00 0.  1.
          1   -1    0    0  502    0  0.00000000000E+00 -0.00000000000E+00 -0.18334083263E+03  0.18334083263E+03  0.00000000000E+00 0. -1.
         23    2    1    2    0    0  0.55634280370E+02  0.40250012516E+02  0.23198929821E+01  0.12475273579E+03  0.10412793345E+03 0.  0.
         23    2    1    2    0    0 -0.64610668578E+02 -0.91994398989E+01 -0.85597584632E+02  0.14067819144E+03  0.90577253571E+02 0.  0.
        -11    1    3    3    0    0 -0.15850692995E+02 -0.21453784614E+02  0.13081562413E+02  0.29709200896E+02  0.00000000000E+00 0. -1.
         11    1    3    3    0    0  0.71484973364E+02  0.61703797130E+02 -0.10761669431E+02  0.95043534899E+02  0.00000000000E+00 0.  1.
        -13    1    4    4    0    0 -0.58943506773E+00 -0.36738613758E+02 -0.10477619039E+02  0.38208031554E+02  0.00000000000E+00 0.  1.
         13    1    4    4    0    0 -0.64021233510E+02  0.27539173859E+02 -0.75119965593E+02  0.10247015989E+03  0.00000000000E+00 0. -1.
         21    1    1    2  502  501  0.89763882085E+01 -0.31050572617E+02  0.20076819304E+02  0.38049865683E+02  0.00000000000E+00 0. -1.
<scales pt_clust_5="13000.00000" pt_clust_6="13000.00000" pt_clust_7="13000.00000" pt_clust_8="13000.00000" pt_clust_9="32.32203"></scales>
<clustering>
<clus scale="   32.322">  1  9  2 -1</clus>
<clus scale="   90.577">  7  8 -1 -1</clus>
<clus scale="  104.128">  5  6 -1 -1</clus>
<clus scale="  111.270">  2  7  1 -1</clus>
<clus scale="  111.270">  2  5  1 -1</clus>
</clustering>
</event>
<event>
 9    1  0.1175034E-005  0.1150255E+03  0.7546771E-02  0.1254275E+00
          1   -1    0    0  502    0  0.00000000000E+00  0.00000000000E+00  0.33714898878E+03  0.33714898878E+03  0.00000000000E+00 0. -1.
         -1   -1    0    0    0  501 -0.00000000000E+00 -0.00000000000E+00 -0.71129626323E+02  0.71129626323E+02  0.00000000000E+00 0.  1.
         23    2    1    2    0    0 -0.85009208868E+02 -0.83573794628E+01  0.69426867593E+02  0.13867282644E+03  0.84342465379E+02 0.  0.
         23    2    1    2    0    0  0.52311377722E+02 -0.44911351924E+02  0.16038761541E+03  0.19737352992E+03  0.92079386230E+02 0.  0.
        -11    1    4    4    0    0  0.13556504743E+02  0.27962607199E+02  0.58570618916E+02  0.66303873359E+02  0.00000000000E+00 0. -1.
         11    1    4    4    0    0  0.38754872979E+02 -0.72873959123E+02  0.10181699649E+03  0.13106965656E+03  0.00000000000E+00 0.  1.
        -13    1    3    3    0    0 -0.42155850416E+02  0.21283498439E+02 -0.53568359829E+01  0.47526821079E+02  0.00000000000E+00 0. -1.
         13    1    3    3    0    0 -0.42853358453E+02 -0.29640877902E+02  0.74783703576E+02  0.91146005365E+02  0.00000000000E+00 0.  1.
         21    1    1    2  502  501  0.32697831146E+02  0.53268731387E+02  0.36204879458E+02  0.72232258734E+02  0.00000000000E+00 0. -1.
<scales pt_clust_5="13000.00000" pt_clust_6="13000.00000" pt_clust_7="13000.00000" pt_clust_8="13000.00000" pt_clust_9="62.50365"></scales>
<clustering>
<clus scale="   62.504">  2  9  1 -1</clus>
<clus scale="   84.342">  7  8 -1 -1</clus>
<clus scale="   92.079">  5  6 -1 -1</clus>
<clus scale="  108.931">  2  7  1 -1</clus>
<clus scale="  115.025">  1  5  2 -1</clus>
</clustering>
</event>
<event>
 9    1  0.1175034E-005  0.3254239E+03  0.7546771E-02  0.1073284E+00
         -1   -1    0    0    0  501 -0.00000000000E+00  0.00000000000E+00  0.55442167369E+03  0.55442167369E+03  0.00000000000E+00 0.  1.
          1   -1    0    0  502    0  0.00000000000E+00 -0.00000000000E+00 -0.22729817774E+03  0.22729817774E+03  0.00000000000E+00 0. -1.
         23    2    1    2    0    0  0.12614017961E+03 -0.26860513054E+03  0.15764307359E+03  0.34807233122E+03  0.90790682616E+02 0.  0.
         23    2    1    2    0    0 -0.17206437310E+03  0.27700815009E+03  0.10741294591E+03  0.35598147925E+03  0.94051097363E+02 0.  0.
        -13    1    3    3    0    0  0.12148518428E+03 -0.19145235281E+03  0.85456952807E+02  0.24231290552E+03  0.00000000000E+00 0. -1.
         13    1    3    3    0    0  0.46549953274E+01 -0.77152777725E+02  0.72186120778E+02  0.10575942570E+03  0.00000000000E+00 0.  1.
        -13    1    4    4    0    0 -0.14507094622E+03  0.26512094522E+03  0.11829465496E+03  0.32454324892E+03  0.00000000000E+00 0.  1.
         13    1    4    4    0    0 -0.26993426882E+02  0.11887204873E+02 -0.10881709047E+02  0.31438230331E+02  0.00000000000E+00 0. -1.
         21    1    1    2  502  501  0.45924193489E+02 -0.84030195531E+01  0.62067476447E+02  0.77666040956E+02  0.00000000000E+00 0.  1.
<scales pt_clust_5="13000.00000" pt_clust_6="13000.00000" pt_clust_7="13000.00000" pt_clust_8="13000.00000" pt_clust_9="46.68664"></scales>
<clustering>
<clus scale="   46.687">  1  9  2 -1</clus>
<clus scale="   90.791">  5  6 -1 -1</clus>
<clus scale="   94.051">  7  8 -1 -1</clus>
<clus scale="  324.497">  1  5  2 -1</clus>
<clus scale="  325.424">  2  5  1 -1</clus>
</clustering>
</event>
<event>
 9    1  0.1175034E-005  0.9484445E+02  0.7546771E-02  0.1292806E+00
         -1   -1    0    0    0  501 -0.00000000000E+00  0.00000000000E+00  0.16973256571E+03  0.16973256571E+03  0.00000000000E+00 0.  1.
          1   -1    0    0  502    0  0.00000000000E+00 -0.00000000000E+00 -0.13077653342E+03  0.13077653342E+03  0.00000000000E+00 0. -1.
         23    2    1    2    0    0 -0.42010745901E+01 -0.12424632362E+01  0.35018910056E+01  0.91628517626E+02  0.91456707021E+02 0.  0.
         23    2    1    2    0    0 -0.35153988389E+01 -0.23670833848E+02 -0.57369899393E+02  0.11246212445E+03  0.93721703334E+02 0.  0.
        -11    1    3    3    0    0 -0.39865740995E+02  0.18735027072E+02  0.18918449328E+02  0.47939402056E+02  0.00000000000E+00 0.  1.
         11    1    3    3    0    0  0.35664666405E+02 -0.19977490309E+02 -0.15416558322E+02  0.43689115570E+02  0.00000000000E+00 0. -1.
        -13    1    4    4    0    0  0.20339265668E+02  0.30107684605E+02 -0.12329747962E+02  0.38369012041E+02  0.00000000000E+00 0. -1.
         13    1    4    4    0    0 -0.23854664507E+02 -0.53778518453E+02 -0.45040151431E+02  0.74093112411E+02  0.00000000000E+00 0.  1.
         21    1    1    2  502  501  0.77164734290E+01  0.24913297084E+02  0.92824040673E+02  0.96418457053E+02  0.00000000000E+00 0.  1.
<scales pt_clust_5="13000.00000" pt_clust_6="13000.00000" pt_clust_7="13000.00000" pt_clust_8="13000.00000" pt_clust_9="26.08096"></scales>
<clustering>
<clus scale="   26.081">  1  9  2 -1</clus>
<clus scale="   91.457">  5  6 -1 -1</clus>
<clus scale="   92.607">  1  5  2 -1</clus>
<clus scale="   93.722">  7  8 -1 -1</clus>
<clus scale="   94.844">  2  5  1 -1</clus>
</clustering>
</event>
<event>
 9    1  0.1175034E-005  0.1217891E+03  0.7546771E-02  0.1242981E+00
         -1   -1    0    0    0  501 -0.00000000000E+00  0.00000000000E+00  0.42799828494E+02  0.42799828494E+02  0.00000000000E+00 0.  1.
          1   -1    0    0  502    0  0.00000000000E+00 -0.00000000000E+00 -0.41641012180E+03  0.41641012180E+03  0.00000000000E+00 0. -1.
         23    2    1    2    0    0 -0.69632406142E+02 -0.35640789744E+02 -0.15030132018E+03  0.18825239035E+03  0.82033759803E+02 0.  0.
         23    2    1    2    0    0  0.83539149248E+02  0.14234553224E+02 -0.20379828008E+03  0.23882826476E+03  0.91234802139E+02 0.  0.
        -11    1    3    3    0    0 -0.33873386319E+02  0.24731259770E+02 -0.43180668393E+02  0.60196442032E+02  0.00000000000E+00 0.  1.
         11    1    3    3    0    0 -0.35759019824E+02 -0.60372049514E+02 -0.10712065179E+03  0.12805594832E+03  0.00000000000E+00 0. -1.
        -13    1    4    4    0    0  0.58343815842E+02 -0.35827470040E+02 -0.11063097983E+03  0.13010312123E+03  0.00000000000E+00 0. -1.
         13    1    4    4    0    0  0.25195333406E+02  0.50062023264E+02 -0.93167300248E+02  0.10872514352E+03  0.00000000000E+00 0.  1.
         21    1    1    2  502  501 -0.13906743106E+02  0.21406236519E+02 -0.19510693049E+02  0.32129295184E+02  0.00000000000E+00 0.  1.
<scales pt_clust_5="13000.00000" pt_clust_6="13000.00000" pt_clust_7="13000.00000" pt_clust_8="13000.00000" pt_clust_9="25.52694"></scales>
<clustering>
<clus scale="   25.527">  1  9  2 -1</clus>
<clus scale="   82.034">  5  6 -1 -1</clus>
<clus scale="   91.235">  7  8 -1 -1</clus>
<clus scale="  115.058">  1  5  2 -1</clus>
<clus scale="  121.789">  2  5  1 -1</clus>
</clustering>
</event>
<event>
 9    1  0.1175034E-005  0.2071920E+03  0.7546771E-02  0.1144270E+00
         -2   -1    0    0    0  501 -0.00000000000E+00  0.00000000000E+00  0.38280767179E+03  0.38280767179E+03  0.00000000000E+00 0.  1.
          2   -1    0    0  502    0  0.00000000000E+00 -0.00000000000E+00 -0.45090798235E+03  0.45090798235E+03  0.00000000000E+00 0. -1.
         23    2    1    2    0    0 -0.15856009695E+03 -0.13383596676E+03 -0.84509376902E+02  0.23971930285E+03  0.85265110276E+02 0.  0.
         23    2    1    2    0    0  0.16643752802E+03  0.67763468235E+02 -0.24912224302E+03  0.32025467519E+03  0.90597056547E+02 0.  0.
        -11    1    4    4    0    0  0.19699431828E+02  0.13134162450E+02  0.25889578780E+01  0.23817567897E+02  0.00000000000E+00 0.  1.
         11    1    4    4    0    0  0.14673809619E+03  0.54629305785E+02 -0.25171120090E+03  0.29643710730E+03  0.00000000000E+00 0. -1.
        -13    1    3    3    0    0  0.60209080673E+01 -0.20243042131E+02  0.31890359780E+01  0.21358886655E+02  0.00000000000E+00 0. -1.
         13    1    3    3    0    0 -0.16458100502E+03 -0.11359292463E+03 -0.87698412880E+02  0.21836041620E+03  0.00000000000E+00 0.  1.
         21    1    1    2  502  501 -0.78774310627E+01  0.66072498525E+02  0.26553130937E+03  0.27374167610E+03  0.00000000000E+00 0.  1.
<scales pt_clust_5="13000.00000" pt_clust_6="13000.00000" pt_clust_7="13000.00000" pt_clust_8="13000.00000" pt_clust_9="66.54043"></scales>
<clustering>
<clus scale="   66.540">  1  9  2 -1</clus>
<clus scale="   85.265">  7  8 -1 -1</clus>
<clus scale="   90.597">  5  6 -1 -1</clus>
<clus scale="  204.917">  1  7  2 -1</clus>
<clus scale="  207.192">  2  5  1 -1</clus>
</clustering>
</event>
<event>
 9    1  0.1175034E-005  0.9333110E+02  0.7546771E-02  0.1304368E+00
          1   -1    0    0  502    0  0.00000000000E+00  0.00000000000E+00  0.48023593822E+03  0.48023593822E+03  0.00000000000E+00 0. -1.
         -1   -1    0    0    0  501 -0.00000000000E+00 -0.00000000000E+00 -0.27199383732E+02  0.27199383732E+02  0.00000000000E+00 0.  1.
         23    2    1    2    0    0 -0.22316303846E+02  0.31245454234E+02  0.11875734821E+03  0.15386045578E+03  0.89974642377E+02 0.  0.
         23    2    1    2    0    0 -0.10062177198E+02 -0.84757198098E+01  0.21862621167E+03  0.23133558442E+03  0.74469100679E+02 0.  0.
        -11    1    4    4    0    0 -0.36820596522E+02 -0.10534487120E+02  0.18166864072E+03  0.18566159207E+03  0.00000000000E+00 0. -1.
         11    1    4    4    0    0  0.26758419323E+02  0.20587673100E+01  0.36957570945E+02  0.45673992355E+02  0.00000000000E+00 0.  1.
        -13    1    3    3    0    0  0.17555060879E+01  0.56108851783E+02  0.99533823773E+02  0.11427277508E+03  0.00000000000E+00 0.  1.
         13    1    3    3    0    0 -0.24071809934E+02 -0.24863397549E+02  0.19223524438E+02  0.39587680697E+02  0.00000000000E+00 0. -1.
         21    1    1    2  502  501  0.32378481045E+02 -0.22769734424E+02  0.11565299461E+03  0.12223928175E+03  0.00000000000E+00 0.  1.
<scales pt_clust_5="13000.00000" pt_clust_6="13000.00000" pt_clust_7="13000.00000" pt_clust_8="13000.00000" pt_clust_9="39.58316"></scales>
<clustering>
<clus scale="   39.583">  1  9  2 -1</clus>
<clus scale="   74.469">  5  6 -1 -1</clus>
<clus scale="   78.491">  1  5  2 -1</clus>
<clus scale="   89.975">  7  8 -1 -1</clus>
<clus scale="   39.583">  1  5  2 -1</clus>
</clustering>
</event>
<event>
 9    1  0.1175034E-005  0.1615393E+03  0.7546771E-02  0.1211851E+00
         -1   -1    0    0    0  501 -0.00000000000E+00  0.00000000000E+00  0.32033637816E+03  0.32033637816E+03  0.00000000000E+00 0.  1.
          1   -1    0    0  502    0  0.00000000000E+00 -0.00000000000E+00 -0.15252431826E+03  0.15252431826E+03  0.00000000000E+00 0. -1.
         23    2    1    2    0    0 -0.89369554496E+01 -0.25839457553E+02  0.13516950974E+03  0.16466530548E+03  0.89979551708E+02 0.  0.
         23    2    1    2    0    0  0.12677231950E+03  0.19916686674E+02  0.73708717314E+02  0.18326868315E+03  0.10810430065E+03 0.  0.
        -11    1    3    3    0    0 -0.32949251573E+02 -0.15566141826E+02  0.11418444508E+02  0.38188202701E+02  0.00000000000E+00 0. -1.
         11    1    3    3    0    0  0.24012296123E+02 -0.10273315727E+02  0.12375106523E+03  0.12647710277E+03  0.00000000000E+00 0.  1.
        -13    1    4    4    0    0  0.47888224032E+01  0.43128143384E+02  0.23315946353E+02  0.49260561569E+02  0.00000000000E+00 0. -1.
         13    1    4    4    0    0  0.12198349709E+03 -0.23211456709E+02  0.50392770961E+02  0.13400812158E+03  0.00000000000E+00 0.  1.
         21    1    1    2  502  501 -0.11783536405E+03  0.59227708781E+01 -0.41066167147E+02  0.12492670779E+03  0.00000000000E+00 0. -1.
<scales pt_clust_5="13000.00000" pt_clust_6="13000.00000" pt_clust_7="13000.00000" pt_clust_8="13000.00000" pt_clust_9="120.03502"></scales>
<clustering>
<clus scale="   89.980">  5  6 -1 -1</clus>
<clus scale="   94.042">  1  5  2 -1</clus>
<clus scale="  108.104">  7  8 -1 -1</clus>
<clus scale="  120.035">  2  9  1 -1</clus>
<clus scale="  120.035">  2  5  1 -1</clus>
</clustering>
</event>
<event>
 9    1  0.1175034E-005  0.8995965E+02  0.7546771E-02  0.1303118E+00
         -3   -1    0    0    0  501 -0.00000000000E+00  0.00000000000E+00  0.85874797946E+02  0.85874797946E+02  0.00000000000E+00 0.  1.
          3   -1    0    0  502    0  0.00000000000E+00 -0.00000000000E+00 -0.19982157289E+03  0.19982157289E+03  0.00000000000E+00 0. -1.
         23    2    1    2    0    0  0.20536017058E+01 -0.12087718593E+02  0.33781389654E+02  0.96164151655E+02  0.89196589373E+02 0.  0.
         23    2    1    2    0    0 -0.23901215335E+02  0.75099438290E+00 -0.12952965016E+03  0.15892134750E+03  0.88916996887E+02 0.  0.
        -11    1    4    4    0    0 -0.24655022414E+02 -0.41469351178E+02 -0.83661124919E+02  0.96575157468E+02  0.00000000000E+00 0.  1.
         11    1    4    4    0    0  0.75380707859E+00  0.42220345561E+02 -0.45868525238E+02  0.62346190035E+02  0.00000000000E+00 0. -1.
        -11    1    3    3    0    0  0.22905145854E+02  0.29205897507E+02 -0.27516623414E+01  0.37218299282E+02  0.00000000000E+00 0. -1.
         11    1    3    3    0    0 -0.20851544148E+02 -0.41293616100E+02  0.36533051995E+02  0.58945852373E+02  0.00000000000E+00 0.  1.
         21    1    1    2  502  501  0.21847613629E+02  0.11336724210E+02 -0.18198514443E+02  0.30610871680E+02  0.00000000000E+00 0. -1.
<scales pt_clust_5="13000.00000" pt_clust_6="13000.00000" pt_clust_7="13000.00000" pt_clust_8="13000.00000" pt_clust_9="24.61381"></scales>
<clustering>
<clus scale="   24.614">  2  9  1 -1</clus>
<clus scale="   88.917">  5  6 -1 -1</clus>
<clus scale="   89.197">  7  8 -1 -1</clus>
<clus scale="   89.682">  2  5  1 -1</clus>
<clus scale="   24.614">  2  5  1 -1</clus>
</clustering>
</event>
<event>
 9    1  0.1175034E-005  0.1182533E+03  0.7546771E-02  0.1246021E+00
          4   -1    0    0  502    0  0.00000000000E+00  0.00000000000E+00  0.99193517430E+02  0.99193517430E+02  0.00000000000E+00 0. -1.
         -4   -1    0    0    0  501 -0.00000000000E+00 -0.00000000000E+00 -0.21198569890E+03  0.21198569890E+03  0.00000000000E+00 0.  1.
         23    2    1    2    0    0  0.82473582532E+02 -0.18773925713E+02 -0.29098049590E+02  0.12773168866E+03  0.91182979204E+02 0.  0.
         23    2    1    2    0    0 -0.56130917788E+02  0.41376041466E+02 -0.28491349628E+02  0.11823910190E+03  0.91137651253E+02 0.  0.
        -11    1    3    3    0    0  0.65917833311E+02  0.24573965527E+02 -0.38780546551E+02  0.80330388527E+02  0.00000000000E+00 0.  1.
         11    1    3    3    0    0  0.16555749220E+02 -0.43347891240E+02  0.96824969601E+01  0.47401300136E+02  0.00000000000E+00 0. -1.
        -11    1    4    4    0    0 -0.76994948286E+02  0.37686382600E+02 -0.39462933576E+01  0.85814093984E+02  0.00000000000E+00 0. -1.
         11    1    4    4    0    0  0.20864030498E+02  0.36896588657E+01 -0.24545056270E+02  0.32425007918E+02  0.00000000000E+00 0.  1.
         21    1    1    2  502  501 -0.26342664744E+02 -0.22602115753E+02 -0.55202782252E+02  0.65208425765E+02  0.00000000000E+00 0.  1.
<scales pt_clust_5="13000.00000" pt_clust_6="13000.00000" pt_clust_7="13000.00000" pt_clust_8="13000.00000" pt_clust_9="34.71011"></scales>
<clustering>
<clus scale="   34.710">  2  9  1 -1</clus>
<clus scale="   91.138">  7  8 -1 -1</clus>
<clus scale="   91.183">  5  6 -1 -1</clus>
<clus scale="  118.218">  1  7  2 -1</clus>
<clus scale="  118.218">  1  5  2 -1</clus>
</clustering>
</event>
<event>
 9    1  0.1175034E-005  0.1364479E+03  0.7546771E-02  0.1221912E+00
          2   -1    0    0  502    0  0.00000000000E+00  0.00000000000E+00  0.12020604038E+04  0.12020604038E+04  0.00000000000E+00 0. -1.
         -2   -1    0    0    0  501 -0.00000000000E+00 -0.00000000000E+00 -0.21602991797E+02  0.21602991797E+02  0.00000000000E+00 0.  1.
         23    2    1    2    0    0  0.52799889648E+02 -0.56256734496E+02  0.41254278705E+03  0.42942990878E+03  0.90916703025E+02 0.  0.
         23    2    1    2    0    0 -0.73044437754E+02  0.62035974757E+02  0.75761759075E+03  0.77079697128E+03  0.10468813241E+03 0.  0.
        -11    1    3    3    0    0  0.44096835817E+02 -0.77950210669E+02  0.37202824057E+03  0.38265621393E+03  0.00000000000E+00 0. -1.
         11    1    3    3    0    0  0.87030538310E+01  0.21693476173E+02  0.40514546474E+02  0.46773694856E+02  0.00000000000E+00 0.  1.
        -13    1    4    4    0    0 -0.81115408656E+02  0.19557640187E+01  0.45212032881E+03  0.45934336423E+03  0.00000000000E+00 0. -1.
         13    1    4    4    0    0  0.80709709025E+01  0.60080210738E+02  0.30549726193E+03  0.31145360705E+03  0.00000000000E+00 0.  1.
         21    1    1    2  502  501  0.20244548106E+02 -0.57792402610E+01  0.10297034164E+02  0.23436515496E+02  0.00000000000E+00 0.  1.
<scales pt_clust_5="13000.00000" pt_clust_6="13000.00000" pt_clust_7="13000.00000" pt_clust_8="13000.00000" pt_clust_9="21.05330"></scales>
<clustering>
<clus scale="   21.053">  2  9  1 -1</clus>
<clus scale="   90.917">  5  6 -1 -1</clus>
<clus scale="  104.688">  7  8 -1 -1</clus>
<clus scale="  126.191">  2  5  1 -1</clus>
<clus scale="  136.448">  1  5  2 -1</clus>
</clustering>
</event>
<event>
 9    1  0.1175034E-005  0.9361783E+02  0.7546771E-02  0.1295526E+00
          1   -1    0    0  502    0  0.00000000000E+00  0.00000000000E+00  0.21169798762E+03  0.21169798762E+03  0.00000000000E+00 0. -1.
         -1   -1    0    0    0  501 -0.00000000000E+00 -0.00000000000E+00 -0.74673676549E+02  0.74673676549E+02  0.00000000000E+00 0.  1.
         23    2    1    2    0    0  0.99837836872E+00 -0.51899685868E+02  0.24345913445E+02  0.10669783429E+03  0.89984055188E+02 0.  0.
         23    2    1    2    0    0  0.21005945359E+01  0.15930869975E+02  0.11243408177E+03  0.14357093471E+03  0.87823604084E+02 0.  0.
        -13    1    3    3    0    0  0.20074394815E+02  0.15829636127E+02 -0.11146097970E+02  0.27888962101E+02  0.00000000000E+00 0. -1.
         13    1    3    3    0    0 -0.19076016446E+02 -0.67729321995E+02  0.35492011415E+02  0.78808872188E+02  0.00000000000E+00 0.  1.
        -13    1    4    4    0    0  0.41337979695E+02  0.34649093145E+01  0.29256122236E+02  0.50761745932E+02  0.00000000000E+00 0.  1.
         13    1    4    4    0    0 -0.39237385159E+02  0.12465960661E+02  0.83177959529E+02  0.92809188773E+02  0.00000000000E+00 0. -1.
         21    1    1    2  502  501 -0.30989729046E+01  0.35968815892E+02  0.24431586216E+00  0.36102895175E+02  0.00000000000E+00 0. -1.
<scales pt_clust_5="13000.00000" pt_clust_6="13000.00000" pt_clust_7="13000.00000" pt_clust_8="13000.00000" pt_clust_9="36.10207"></scales>
<clustering>
<clus scale="   36.102">  2  9  1 -1</clus>
<clus scale="   87.824">  7  8 -1 -1</clus>
<clus scale="   89.984">  5  6 -1 -1</clus>
<clus scale="   91.543">  1  7  2 -1</clus>
<clus scale="   91.543">  1  5  2 -1</clus>
</clustering>
</event>
<event>
 9    1  0.1175034E-005  0.1332504E+03  0.7546771E-02  0.1222724E+00
         -1   -1    0    0    0  501 -0.00000000000E+00  0.00000000000E+00  0.81327123040E+02  0.81327123040E+02  0.00000000000E+00 0.  1.
          1   -1    0    0  502    0  0.00000000000E+00 -0.00000000000E+00 -0.42108990008E+03  0.42108990008E+03  0.00000000000E+00 0. -1.
         23    2    1    2    0    0  0.21633571175E+02 -0.11970696564E+03 -0.12965567822E+03  0.19904726265E+03  0.89506697229E+02 0.  0.
         23    2    1    2    0    0 -0.77157757356E+02  0.56350240848E+02 -0.15399831820E+03  0.20215115995E+03  0.89559702416E+02 0.  0.
        -11    1    4    4    0    0  0.44385823893E+01  0.44533733535E+02 -0.32459302485E+02  0.55286171454E+02  0.00000000000E+00 0.  1.
         11    1    4    4    0    0 -0.81596339745E+02  0.11816507312E+02 -0.12153901572E+03  0.14686498850E+03  0.00000000000E+00 0. -1.
        -13    1    3    3    0    0 -0.34266288329E+02 -0.39376052006E+02 -0.56042919587E+02  0.76586296577E+02  0.00000000000E+00 0. -1.
         13    1    3    3    0    0  0.55899859504E+02 -0.80330913638E+02 -0.73612758628E+02  0.12246096607E+03  0.00000000000E+00 0.  1.
         21    1    1    2  502  501  0.55524186181E+02  0.63356724797E+02 -0.56108780623E+02  0.10121860052E+03  0.00000000000E+00 0.  1.
<scales pt_clust_5="13000.00000" pt_clust_6="13000.00000" pt_clust_7="13000.00000" pt_clust_8="13000.00000" pt_clust_9="84.24375"></scales>
<clustering>
<clus scale="   84.244">  1  9  2 -1</clus>
<clus scale="   89.507">  7  8 -1 -1</clus>
<clus scale="   89.560">  5  6 -1 -1</clus>
<clus scale="  133.215">  1  7  2 -1</clus>
<clus scale="  133.250">  2  5  1 -1</clus>
</clustering>
</event>
<event>
 9    1  0.1175034E-005  0.9911459E+02  0.7546771E-02  0.1282435E+00
          1   -1    0    0  502    0  0.00000000000E+00  0.00000000000E+00  0.67153402678E+02  0.67153402678E+02  0.00000000000E+00 0. -1.
         -1   -1    0    0    0  501 -0.00000000000E+00 -0.00000000000E+00 -0.24349727890E+03  0.24349727890E+03  0.00000000000E+00 0.  1.
         23    2    1    2    0    0 -0.39549272464E+02  0.33962748525E+02 -0.89451395782E+02  0.13708312500E+03  0.89847747396E+02 0.  0.
         23    2    1    2    0    0  0.34248030724E+02 -0.11205298874E+02 -0.15615096241E+02  0.98557756042E+02  0.90395319094E+02 0.  0.
        -11    1    3    3    0    0  0.23880522709E+02  0.46106055675E+01 -0.98804032807E+00  0.24341595515E+02  0.00000000000E+00 0. -1.
         11    1    3    3    0    0 -0.63429795173E+02  0.29352142957E+02 -0.88463355454E+02  0.11274152948E+03  0.00000000000E+00 0.  1.
        -11    1    4    4    0    0 -0.80085326851E+01 -0.26965933066E+02 -0.38739155045E+02  0.47875048569E+02  0.00000000000E+00 0.  1.
         11    1    4    4    0    0  0.42256563409E+02  0.15760634192E+02  0.23124058804E+02  0.50682707473E+02  0.00000000000E+00 0. -1.
         21    1    1    2  502  501  0.53012417408E+01 -0.22757449651E+02 -0.71277384202E+02  0.75009800542E+02  0.00000000000E+00 0. -1.
<scales pt_clust_5="13000.00000" pt_clust_6="13000.00000" pt_clust_7="13000.00000" pt_clust_8="13000.00000" pt_clust_9="23.36674"></scales>
<clustering>
<clus scale="   23.367">  2  9  1 -1</clus>
<clus scale="   89.848">  5  6 -1 -1</clus>
<clus scale="   90.395">  7  8 -1 -1</clus>
<clus scale="   98.615">  2  5  1 -1</clus>
<clus scale="   99.115">  1  5  2 -1</clus>
</clustering>
</event>
<event>
 9    1  0.1175034E-005  0.1329315E+03  0.7546771E-02  0.1223368E+00
          1   -1    0    0  502    0  0.00000000000E+00  0.00000000000E+00  0.17539506518E+03  0.17539506518E+03  0.00000000000E+00 0. -1.
         -1   -1    0    0    0  501 -0.00000000000E+00 -0.00000000000E+00 -0.32726108469E+03  0.32726108469E+03  0.00000000000E+00 0.  1.
         23    2    1    2    0    0  0.77439042319E+01 -0.51180469556E+02 -0.16683122429E+03  0.19810871155E+03  0.93461198776E+02 0.  0.
         23    2    1    2    0    0 -0.34659727911E+02  0.94919942913E+02  0.12296019209E+03  0.18496265510E+03  0.94238435064E+02 0.  0.
        -11    1    3    3    0    0  0.30952702405E+02  0.10350468460E+02 -0.96277688449E+02  0.10165921147E+03  0.00000000000E+00 0.  1.
         11    1    3    3    0    0 -0.23208798173E+02 -0.61530938016E+02 -0.70553535839E+02  0.96449500078E+02  0.00000000000E+00 0. -1.
        -11    1    4    4    0    0 -0.63819081908E+02  0.65521051150E+02  0.10654628286E+03  0.14042077393E+03  0.00000000000E+00 0. -1.
         11    1    4    4    0    0  0.29159353997E+02  0.29398891764E+02  0.16413909226E+02  0.44541881174E+02  0.00000000000E+00 0.  1.
         21    1    1    2  502  501  0.26915823679E+02 -0.43739473357E+02 -0.10799498731E+03  0.11958478322E+03  0.00000000000E+00 0. -1.
<scales pt_clust_5="13000.00000" pt_clust_6="13000.00000" pt_clust_7="13000.00000" pt_clust_8="13000.00000" pt_clust_9="51.35760"></scales>
<clustering>
<clus scale="   51.358">  2  9  1 -1</clus>
<clus scale="   93.461">  5  6 -1 -1</clus>
<clus scale="   94.238">  7  8 -1 -1</clus>
<clus scale="  132.382">  2  5  1 -1</clus>
<clus scale="  132.931">  1  5  2 -1</clus>
</clustering>
</event>
<event>
 9    1  0.1175034E-005  0.1274628E+03  0.7546771E-02  0.1231415E+00
          1   -1    0    0  502    0  0.00000000000E+00  0.00000000000E+00  0.36592118278E+03  0.36592118278E+03  0.00000000000E+00 0. -1.
         -1   -1    0    0    0  501 -0.00000000000E+00 -0.00000000000E+00 -0.31023447210E+03  0.31023447210E+03  0.00000000000E+00 0.  1.
         23    2    1    2    0    0  0.31762244359E+02  0.72973291573E+02  0.19766590103E+02  0.12349269281E+03  0.92335180967E+02 0.  0.
         23    2    1    2    0    0 -0.77236297527E+02 -0.51961855963E+02  0.27706768656E+03  0.30636737031E+03  0.91809490378E+02 0.  0.
        -11    1    3    3    0    0  0.61949669048E+02  0.28791168670E+02  0.13262095162E+02  0.69588620166E+02  0.00000000000E+00 0.  1.
         11    1    3    3    0    0 -0.30187424689E+02  0.44182122903E+02  0.65044949412E+01  0.53904072647E+02  0.00000000000E+00 0. -1.
        -11    1    4    4    0    0 -0.30083455456E+02  0.13452272042E+02  0.24011837963E+02  0.40774333564E+02  0.00000000000E+00 0.  1.
         11    1    4    4    0    0 -0.47152842071E+02 -0.65414128004E+02  0.25305584860E+03  0.26559303674E+03  0.00000000000E+00 0. -1.
         21    1    1    2  502  501  0.45474053168E+02 -0.21011435610E+02 -0.24114756599E+03  0.24629559176E+03  0.00000000000E+00 0.  1.
<scales pt_clust_5="13000.00000" pt_clust_6="13000.00000" pt_clust_7="13000.00000" pt_clust_8="13000.00000" pt_clust_9="50.09361"></scales>
<clustering>
<clus scale="   50.094">  2  9  1 -1</clus>
<clus scale="   91.809">  7  8 -1 -1</clus>
<clus scale="   92.335">  5  6 -1 -1</clus>
<clus scale="  127.082">  1  7  2 -1</clus>
<clus scale="  127.082">  1  5  2 -1</clus>
</clustering>
</event>
<event>
 9    1  0.1175034E-005  0.9725079E+02  0.7546771E-02  0.1290071E+00
         -1   -1    0    0    0  501 -0.00000000000E+00  0.00000000000E+00  0.66855878453E+02  0.66855878453E+02  0.00000000000E+00 0.  1.
          1   -1    0    0  502    0  0.00000000000E+00 -0.00000000000E+00 -0.17649491740E+03  0.17649491740E+03  0.00000000000E+00 0. -1.
         23    2    1    2    0    0  0.14002425627E+02 -0.10830688521E+02 -0.54489661937E+02  0.11195678743E+03  0.96186419289E+02 0.  0.
         23    2    1    2    0    0  0.69325556233E+01  0.16874786057E+02 -0.59977304805E+02  0.10907555324E+03  0.89260184247E+02 0.  0.
        -13    1    3    3    0    0  0.52396556927E+02  0.68218542589E+01 -0.43109121875E+02  0.68193352038E+02  0.00000000000E+00 0. -1.
         13    1    3    3    0    0 -0.38394131300E+02 -0.17652542780E+02 -0.11380540062E+02  0.43763435389E+02  0.00000000000E+00 0.  1.
        -13    1    4    4    0    0  0.42717446350E+02  0.28383743502E+02 -0.22536607355E+02  0.56020672871E+02  0.00000000000E+00 0. -1.
         13    1    4    4    0    0 -0.35784890727E+02 -0.11508957445E+02 -0.37440697450E+02  0.53054880373E+02  0.00000000000E+00 0.  1.
         21    1    1    2  502  501 -0.20934981250E+02 -0.60440975364E+01  0.48279277937E+01  0.22318455183E+02  0.00000000000E+00 0.  1.
<scales pt_clust_5="13000.00000" pt_clust_6="13000.00000" pt_clust_7="13000.00000" pt_clust_8="13000.00000" pt_clust_9="21.79001"></scales>
<clustering>
<clus scale="   21.790">  1  9  2 -1</clus>
<clus scale="   89.260">  7  8 -1 -1</clus>
<clus scale="   90.406">  2  7  1 -1</clus>
<clus scale="   96.186">  5  6 -1 -1</clus>
<clus scale="   90.406">  2  5  1 -1</clus>
</clustering>
</event>
<event>
 9    1  0.1175034E-005  0.1215278E+03  0.7546771E-02  0.1249958E+00
         -2   -1    0    0    0  501 -0.00000000000E+00  0.00000000000E+00  0.43758640495E+02  0.43758640495E+02  0.00000000000E+00 0.  1.
          2   -1    0    0  502    0  0.00000000000E+00 -0.00000000000E+00 -0.43043484598E+03  0.43043484598E+03  0.00000000000E+00 0. -1.
         23    2    1    2    0    0 -0.16002487357E+02 -0.30412004428E+02 -0.11628995667E+03  0.15186546733E+03  0.91426454214E+02 0.  0.
         23    2    1    2    0    0  0.62304007739E+01  0.48585075932E+02 -0.27454224775E+03  0.30127982371E+03  0.11400332836E+03 0.  0.
        -13    1    3    3    0    0 -0.52104763408E+02 -0.18755135939E+02 -0.45998887071E+02  0.71989993094E+02  0.00000000000E+00 0.  1.
         13    1    3    3    0    0  0.36102276051E+02 -0.11656868489E+02 -0.70291069598E+02  0.79875474235E+02  0.00000000000E+00 0. -1.
        -13    1    4    4    0    0 -0.29358855375E+02  0.73979279965E+02 -0.16068230218E+03  0.17931446815E+03  0.00000000000E+00 0.  1.
         13    1    4    4    0    0  0.35589256149E+02 -0.25394204034E+02 -0.11385994557E+03  0.12196535556E+03  0.00000000000E+00 0. -1.
         21    1    1    2  502  501  0.97720865832E+01 -0.18173071504E+02  0.41559989330E+01  0.21048195438E+02  0.00000000000E+00 0. -1.
<scales pt_clust_5="13000.00000" pt_clust_6="13000.00000" pt_clust_7="13000.00000" pt_clust_8="13000.00000" pt_clust_9="20.63381"></scales>
<clustering>
<clus scale="   20.634">  1  9  2 -1</clus>
<clus scale="   91.426">  5  6 -1 -1</clus>
<clus scale="  100.653">  1  5  2 -1</clus>
<clus scale="  114.003">  7  8 -1 -1</clus>
<clus scale="  121.528">  2  5  1 -1</clus>
</clustering>
</event>
<event>
 9    1  0.1175034E-005  0.1148209E+03  0.7546771E-02  0.1251914E+00
         -1   -1    0    0    0  501 -0.00000000000E+00  0.00000000000E+00  0.11383993092E+03  0.11383993092E+03  0.00000000000E+00 0.  1.
          1   -1    0    0  502    0  0.00000000000E+00 -0.00000000000E+00 -0.37138321101E+03  0.37138321101E+03  0.00000000000E+00 0. -1.
         23    2    1    2    0    0  0.79285312171E+02  0.10113995167E+02 -0.12688245035E+03  0.17548181364E+03  0.91138669549E+02 0.  0.
         23    2    1    2    0    0 -0.54945624821E+02 -0.37918754002E+02 -0.20082342206E+03  0.23044243578E+03  0.91196577605E+02 0.  0.
        -11    1    4    4    0    0 -0.36103223256E+02  0.18219481578E+02 -0.32106489708E+02  0.51635442477E+02  0.00000000000E+00 0.  1.
         11    1    4    4    0    0 -0.18842401565E+02 -0.56138235580E+02 -0.16871693235E+03  0.17880699330E+03  0.00000000000E+00 0. -1.
        -11    1    3    3    0    0  0.45019203494E+01  0.36859462509E+02 -0.19566426898E+02  0.41972995185E+02  0.00000000000E+00 0.  1.
         11    1    3    3    0    0  0.74783391822E+02 -0.26745467342E+02 -0.10731602345E+03  0.13350881845E+03  0.00000000000E+00 0. -1.
         21    1    1    2  502  501 -0.24339687350E+02  0.27804758835E+02  0.70162592310E+02  0.79298892514E+02  0.00000000000E+00 0.  1.
<scales pt_clust_5="13000.00000" pt_clust_6="13000.00000" pt_clust_7="13000.00000" pt_clust_8="13000.00000" pt_clust_9="36.95301"></scales>
<clustering>
<clus scale="   36.953">  1  9  2 -1</clus>
<clus scale="   91.139">  7  8 -1 -1</clus>
<clus scale="   91.197">  5  6 -1 -1</clus>
<clus scale="  114.775">  1  7  2 -1</clus>
<clus scale="  114.821">  2  5  1 -1</clus>
</clustering>
</event>
<event>
 9    1  0.1175034E-005  0.9646351E+02  0.7546771E-02  0.1290064E+00
          2   -1    0    0  502    0  0.00000000000E+00  0.00000000000E+00  0.63240353874E+03  0.63240353874E+03  0.00000000000E+00 0. -1.
         -2   -1    0    0    0  501 -0.00000000000E+00 -0.00000000000E+00 -0.29019580010E+02  0.29019580010E+02  0.00000000000E+00 0.  1.
         23    2    1    2    0    0  0.10189577193E+02 -0.33612697723E+02  0.10860624501E+03  0.14505014556E+03  0.89501884560E+02 0.  0.
         23    2    1    2    0    0  0.26593237560E+02  0.29951838882E+02  0.44193379790E+03  0.45188377419E+03  0.85376523205E+02 0.  0.
        -11    1    4    4    0    0 -0.94431481931E+01  0.50553398306E+02  0.28199831182E+03  0.28664937990E+03  0.00000000000E+00 0. -1.
         11    1    4    4    0    0  0.36036385753E+02 -0.20601559424E+02  0.15993548608E+03  0.16523439429E+03  0.00000000000E+00 0.  1.
        -13    1    3    3    0    0  0.33043274614E+02 -0.88299846974E+01  0.31626629301E+01  0.34348639912E+02  0.00000000000E+00 0.  1.
         13    1    3    3    0    0 -0.22853697421E+02 -0.24782713025E+02  0.10544358208E+03  0.11070150564E+03  0.00000000000E+00 0. -1.
         21    1    1    2  502  501 -0.36782814752E+02  0.36608588409E+01  0.52843915820E+02  0.64489199001E+02  0.00000000000E+00 0. -1.
<scales pt_clust_5="13000.00000" pt_clust_6="13000.00000" pt_clust_7="13000.00000" pt_clust_8="13000.00000" pt_clust_9="36.96454"></scales>
<clustering>
<clus scale="   36.965">  2  9  1 -1</clus>
<clus scale="   85.377">  5  6 -1 -1</clus>
<clus scale="   89.502">  7  8 -1 -1</clus>
<clus scale="   92.649">  1  5  2 -1</clus>
<clus scale="   92.649">  1  5  2 -1</clus>
</clustering>
</event>
<event>
 9    1  0.1175034E-005  0.1401760E+03  0.7546771E-02  0.1231580E+00
          2   -1    0    0  502    0  0.00000000000E+00  0.00000000000E+00  0.20622238017E+03  0.20622238017E+03  0.00000000000E+00 0. -1.
         -2   -1    0    0    0  501 -0.00000000000E+00 -0.00000000000E+00 -0.18084009285E+03  0.18084009285E+03  0.00000000000E+00 0.  1.
         23    2    1    2    0    0  0.10006943682E+03 -0.12531244145E+02 -0.15301536229E+02  0.13750258213E+03  0.92205741763E+02 0.  0.
         23    2    1    2    0    0  0.86946663602E+01  0.23239299164E+02  0.88748580639E+02  0.13016762374E+03  0.91932787706E+02 0.  0.
        -11    1    3    3    0    0  0.66718432859E+01  0.26562566656E+02  0.15756620070E+02  0.31596748507E+02  0.00000000000E+00 0.  1.
         11    1    3    3    0    0  0.93397593538E+02 -0.39093810801E+02 -0.31058156299E+02  0.10590583362E+03  0.00000000000E+00 0. -1.
        -13    1    4    4    0    0  0.46186345261E+02  0.22258367464E+02  0.27059837542E+02  0.57972823103E+02  0.00000000000E+00 0. -1.
         13    1    4    4    0    0 -0.37491678901E+02  0.98093169959E+00  0.61688743098E+02  0.72194800635E+02  0.00000000000E+00 0.  1.
         21    1    1    2  502  501 -0.10876410318E+03 -0.10708055020E+02 -0.48064757085E+02  0.11939226716E+03  0.00000000000E+00 0.  1.
<scales pt_clust_5="13000.00000" pt_clust_6="13000.00000" pt_clust_7="13000.00000" pt_clust_8="13000.00000" pt_clust_9="105.58132"></scales>
<clustering>
<clus scale="   91.933">  7  8 -1 -1</clus>
<clus scale="   92.206">  5  6 -1 -1</clus>
<clus scale="   95.222">  1  7  2 -1</clus>
<clus scale="  105.581">  2  9  1 -1</clus>
<clus scale="   95.222">  1  5  2 -1</clus>
</clustering>
</event>
<event>
 9    1  0.1937747E-005  0.1157240E+03  0.7546771E-02  0.1252395E+00
         -1   -1    0    0    0  501 -0.00000000000E+00  0.00000000000E+00  0.86479075047E+02  0.86479075047E+02  0.00000000000E+00 0.  1.
          1   -1    0    0  502    0  0.00000000000E+00 -0.00000000000E+00 -0.37984646046E+03  0.37984646046E+03  0.00000000000E+00 0. -1.
         23    2    1    2    0    0 -0.11999222665E+01  0.39819402715E+02  0.15547240752E+02  0.10211478848E+03  0.92729114548E+02 0.  0.
         23    2    1    2    0    0  0.30801030465E+02 -0.68390362102E+02 -0.30125732315E+03  0.32236388793E+03  0.86813342223E+02 0.  0.
        -11    1    4    4    0    0  0.55260390610E+02 -0.63629614268E+02 -0.26712213568E+03  0.28010118520E+03  0.00000000000E+00 0. -1.
         11    1    4    4    0    0 -0.24459360146E+02 -0.47607478341E+01 -0.34135187470E+02  0.42262702733E+02  0.00000000000E+00 0.  1.
        -13    1    3    3    0    0 -0.26219583019E+02  0.62102077135E+02  0.96961748029E+01  0.68103967021E+02  0.00000000000E+00 0.  1.
         13    1    3    3    0    0  0.25019660752E+02 -0.22282674420E+02  0.58510659489E+01  0.34010821457E+02  0.00000000000E+00 0. -1.
         21    1    1    2  502  501 -0.29601108198E+02  0.28570959387E+02 -0.76573030217E+01  0.41846859098E+02  0.00000000000E+00 0.  1.
<scales pt_clust_5="13000.00000" pt_clust_6="13000.00000" pt_clust_7="13000.00000" pt_clust_8="13000.00000" pt_clust_9="41.14031"></scales>
<clustering>
<clus scale="   41.140">  1  9  2 -1</clus>
<clus scale="   86.813">  5  6 -1 -1</clus>
<clus scale="   92.729">  7  8 -1 -1</clus>
<clus scale="  111.040">  2  5  1 -1</clus>
<clus scale="  111.040">  2  5  1 -1</clus>
</clustering>
</event>
<event>
 9    1  0.1175034E-005  0.9901028E+02  0.7546771E-02  0.1282866E+00
         -2   -1    0    0    0  501 -0.00000000000E+00  0.00000000000E+00  0.95157124528E+02  0.95157124528E+02  0.00000000000E+00 0.  1.
          2   -1    0    0  502    0  0.00000000000E+00 -0.00000000000E+00 -0.18759600066E+03  0.18759600066E+03  0.00000000000E+00 0. -1.
         23    2    1    2    0    0  0.20861195629E+02  0.64151993921E+01  0.88561211648E+01  0.94133571703E+02  0.91139202176E+02 0.  0.
         23    2    1    2    0    0 -0.33642075375E+01 -0.51876733403E+02 -0.92233402085E+02  0.13907151442E+03  0.90174122134E+02 0.  0.
        -11    1    4    4    0    0 -0.25599195857E+02 -0.35772515138E+02 -0.12178742771E+01  0.44005396096E+02  0.00000000000E+00 0.  1.
         11    1    4    4    0    0  0.22234988319E+02 -0.16104218266E+02 -0.91015527808E+02  0.95066118327E+02  0.00000000000E+00 0. -1.
        -13    1    3    3    0    0  0.81222137047E+01  0.35073489216E+02  0.37266809648E+02  0.51816359411E+02  0.00000000000E+00 0. -1.
         13    1    3    3    0    0  0.12738981925E+02 -0.28658289824E+02 -0.28410688483E+02  0.42317212292E+02  0.00000000000E+00 0.  1.
         21    1    1    2  502  501 -0.17496988092E+02  0.45461534011E+02 -0.90615952082E+01  0.49548039060E+02  0.00000000000E+00 0. -1.
<scales pt_clust_5="13000.00000" pt_clust_6="13000.00000" pt_clust_7="13000.00000" pt_clust_8="13000.00000" pt_clust_9="48.71238"></scales>
<clustering>
<clus scale="   48.712">  1  9  2 -1</clus>
<clus scale="   90.174">  5  6 -1 -1</clus>
<clus scale="   91.139">  7  8 -1 -1</clus>
<clus scale="   98.123">  2  5  1 -1</clus>
<clus scale="   98.123">  2  5  1 -1</clus>
</clustering>
</event>
<event>
 9    1  0.1175034E-005  0.1182749E+03  0.7546771E-02  0.1246050E+00
          1   -1    0    0  502    0  0.00000000000E+00  0.00000000000E+00  0.84035577475E+03  0.84035577475E+03  0.00000000000E+00 0. -1.
         -1   -1    0    0    0  501 -0.00000000000E+00 -0.00000000000E+00 -0.22178098791E+02  0.22178098791E+02  0.00000000000E+00 0.  1.
         23    2    1    2    0    0 -0.31289946776E+02  0.88222142867E+02  0.36747732389E+03  0.38995269469E+03  0.90891766746E+02 0.  0.
         23    2    1    2    0    0  0.16268968820E+02 -0.60677551162E+02  0.36607979039E+03  0.38233167043E+03  0.90645731958E+02 0.  0.
        -11    1    4    4    0    0 -0.36909691813E+02 -0.30622303148E+02  0.18992171684E+03  0.19588340748E+03  0.00000000000E+00 0. -1.
         11    1    4    4    0    0  0.53178660633E+02 -0.30055248015E+02  0.17615807355E+03  0.18644826295E+03  0.00000000000E+00 0.  1.
        -13    1    3    3    0    0  0.29831727605E+02  0.37007384824E+02  0.97916992971E+02  0.10884491727E+03  0.00000000000E+00 0.  1.
         13    1    3    3    0    0 -0.61121674381E+02  0.51214758043E+02  0.26956033092E+03  0.28110777742E+03  0.00000000000E+00 0. -1.
         21    1    1    2  502  501  0.15020977956E+02 -0.27544591705E+02  0.84620561687E+02  0.90249508426E+02  0.00000000000E+00 0.  1.
<scales pt_clust_5="13000.00000" pt_clust_6="13000.00000" pt_clust_7="13000.00000" pt_clust_8="13000.00000" pt_clust_9="31.37410"></scales>
<clustering>
<clus scale="   31.374">  2  9  1 -1</clus>
<clus scale="   90.646">  5  6 -1 -1</clus>
<clus scale="   90.892">  7  8 -1 -1</clus>
<clus scale="  118.086">  1  5  2 -1</clus>
<clus scale="  118.086">  1  5  2 -1</clus>
</clustering>
</event>
<event>
 9    1  0.1175034E-005  0.9344263E+02  0.7546771E-02  0.1295092E+00
         -2   -1    0    0    0  501 -0.00000000000E+00  0.00000000000E+00  0.11576851403E+03  0.11576851403E+03  0.00000000000E+00 0.  1.
          2   -1    0    0  502    0  0.00000000000E+00 -0.00000000000E+00 -0.44899961607E+03  0.44899961607E+03  0.00000000000E+00 0. -1.
         23    2    1    2    0    0 -0.15678519900E+02 -0.33852458044E+02 -0.37868334128E+02  0.10443829176E+03  0.89897392367E+02 0.  0.
         23    2    1    2    0    0 -0.26544642219E+02 -0.20841628220E+02 -0.35570178670E+03  0.36859633476E+03  0.90556642160E+02 0.  0.
        -11    1    4    4    0    0  0.30580794289E+02  0.73213226626E+01 -0.88884563032E+02  0.94282831365E+02  0.00000000000E+00 0.  1.
         11    1    4    4    0    0 -0.57125436508E+02 -0.28162950883E+02 -0.26681722366E+03  0.27431350339E+03  0.00000000000E+00 0. -1.
        -13    1    3    3    0    0  0.30892302303E+02 -0.33411355295E+02 -0.18141415417E+01  0.45540576564E+02  0.00000000000E+00 0. -1.
         13    1    3    3    0    0 -0.46570822203E+02 -0.44110274847E+00 -0.36054192586E+02  0.58897715196E+02  0.00000000000E+00 0.  1.
         21    1    1    2  502  501  0.42223162119E+02  0.54694086264E+02  0.60339018790E+02  0.91733503586E+02  0.00000000000E+00 0.  1.
<scales pt_clust_5="13000.00000" pt_clust_6="13000.00000" pt_clust_7="13000.00000" pt_clust_8="13000.00000" pt_clust_9="69.09586"></scales>
<clustering>
<clus scale="   69.096">  1  9  2 -1</clus>
<clus scale="   89.897">  7  8 -1 -1</clus>
<clus scale="   90.557">  5  6 -1 -1</clus>
<clus scale="   92.804">  1  7  2 -1</clus>
<clus scale="   93.443">  2  5  1 -1</clus>
</clustering>
</event>
<event>
 9    1  0.1175034E-005  0.9774959E+02  0.7546771E-02  0.1285796E+00
         -2   -1    0    0    0  501 -0.00000000000E+00  0.00000000000E+00  0.99950978512E+02  0.99950978512E+02  0.00000000000E+00 0.  1.
          2   -1    0    0  502    0  0.00000000000E+00 -0.00000000000E+00 -0.39642446322E+03  0.39642446322E+03  0.00000000000E+00 0. -1.
         23    2    1    2    0    0  0.32244985589E+02 -0.18312968796E+01  0.51267645963E+02  0.10942106231E+03  0.91112593044E+02 0.  0.
         23    2    1    2    0    0 -0.27280370897E+02 -0.24074760841E+02 -0.34732629388E+03  0.36057364184E+03  0.89743991579E+02 0.  0.
        -11    1    4    4    0    0  0.26999230175E+02 -0.31666941994E+02 -0.16665545636E+03  0.17177250880E+03  0.00000000000E+00 0.  1.
         11    1    4    4    0    0 -0.54279601072E+02  0.75921811527E+01 -0.18067083753E+03  0.18880113305E+03  0.00000000000E+00 0. -1.
        -13    1    3    3    0    0 -0.31530418116E+02  0.60718800089E+01  0.21157829963E+02  0.38453722345E+02  0.00000000000E+00 0. -1.
         13    1    3    3    0    0  0.63775403705E+02 -0.79031768885E+01  0.30109815999E+02  0.70967339968E+02  0.00000000000E+00 0.  1.
         21    1    1    2  502  501 -0.49646146913E+01  0.25906057721E+02 -0.41483679256E+00  0.26380737580E+02  0.00000000000E+00 0. -1.
<scales pt_clust_5="13000.00000" pt_clust_6="13000.00000" pt_clust_7="13000.00000" pt_clust_8="13000.00000" pt_clust_9="26.37748"></scales>
<clustering>
<clus scale="   26.377">  1  9  2 -1</clus>
<clus scale="   89.744">  5  6 -1 -1</clus>
<clus scale="   91.113">  7  8 -1 -1</clus>
<clus scale="   96.475">  2  5  1 -1</clus>
<clus scale="   96.475">  2  5  1 -1</clus>
</clustering>
</event>
<event>
 9    1  0.1175034E-005  0.9421740E+02  0.7546771E-02  0.1293512E+00
          1   -1    0    0  502    0  0.00000000000E+00  0.00000000000E+00  0.46019935272E+03  0.46019935272E+03  0.00000000000E+00 0. -1.
         -1   -1    0    0    0  501 -0.00000000000E+00 -0.00000000000E+00 -0.63625630518E+02  0.63625630518E+02  0.00000000000E+00 0.  1.
         23    2    1    2    0    0  0.14939562380E+02 -0.27891805583E+02  0.21507970546E+03  0.23548175269E+03  0.90505429719E+02 0.  0.
         23    2    1    2    0    0 -0.17695729748E+02  0.36421023300E+01  0.22214047908E+03  0.24093247790E+03  0.91518646737E+02 0.  0.
        -11    1    4    4    0    0  0.60548648178E+01 -0.26889006883E+02  0.17455886705E+02  0.32624960687E+02  0.00000000000E+00 0.  1.
         11    1    4    4    0    0 -0.23750594566E+02  0.30531109213E+02  0.20468459238E+03  0.20830751721E+03  0.00000000000E+00 0. -1.
        -13    1    3    3    0    0  0.53092972224E+02 -0.20966087310E+02  0.13025952802E+03  0.14221809012E+03  0.00000000000E+00 0.  1.
         13    1    3    3    0    0 -0.38153409844E+02 -0.69257182729E+01  0.84820177433E+02  0.93263662571E+02  0.00000000000E+00 0. -1.
         21    1    1    2  502  501  0.27561673675E+01  0.24249703253E+02 -0.40646462333E+02  0.47410752648E+02  0.00000000000E+00 0.  1.
<scales pt_clust_5="13000.00000" pt_clust_6="13000.00000" pt_clust_7="13000.00000" pt_clust_8="13000.00000" pt_clust_9="24.40583"></scales>
<clustering>
<clus scale="   24.406">  2  9  1 -1</clus>
<clus scale="   90.505">  7  8 -1 -1</clus>
<clus scale="   91.519">  5  6 -1 -1</clus>
<clus scale="   93.234">  2  7  1 -1</clus>
<clus scale="   94.217">  1  5  2 -1</clus>
</clustering>
</event>
<event>
 9    1  0.1175034E-005  0.1202774E+03  0.7546771E-02  0.1244329E+00
         -3   -1    0    0    0  501 -0.00000000000E+00  0.00000000000E+00  0.18259543561E+03  0.18259543561E+03  0.00000000000E+00 0.  1.
          3   -1    0    0  502    0  0.00000000000E+00 -0.00000000000E+00 -0.27742991652E+03  0.27742991652E+03  0.00000000000E+00 0. -1.
         23    2    1    2    0    0 -0.77469240248E+02  0.21445097659E+02  0.14249423311E+03  0.18730073806E+03  0.91189827332E+02 0.  0.
         23    2    1    2    0    0  0.58099930573E+02 -0.80590490211E+01 -0.22055187586E+03  0.24381408391E+03  0.85799926365E+02 0.  0.
        -11    1    3    3    0    0 -0.72875450474E+02  0.52503428825E+02  0.11157782410E+03  0.14323774695E+03  0.00000000000E+00 0.  1.
         11    1    3    3    0    0 -0.45937897738E+01 -0.31058331166E+02  0.30916409014E+02  0.44062991111E+02  0.00000000000E+00 0. -1.
        -11    1    4    4    0    0 -0.21428373395E+02  0.60589464713E+01 -0.61918524556E+02  0.65801137543E+02  0.00000000000E+00 0.  1.
         11    1    4    4    0    0  0.79528303968E+02 -0.14117995492E+02 -0.15863335130E+03  0.17801294637E+03  0.00000000000E+00 0. -1.
         21    1    1    2  502  501  0.19369309675E+02 -0.13386048638E+02 -0.16776838161E+02  0.28910530159E+02  0.00000000000E+00 0. -1.
<scales pt_clust_5="13000.00000" pt_clust_6="13000.00000" pt_clust_7="13000.00000" pt_clust_8="13000.00000" pt_clust_9="23.54478"></scales>
<clustering>
<clus scale="   23.545">  2  9  1 -1</clus>
<clus scale="   85.800">  7  8 -1 -1</clus>
<clus scale="   91.190">  5  6 -1 -1</clus>
<clus scale="  116.244">  2  7  1 -1</clus>
<clus scale="   23.545">  2  5  1 -1</clus>
</clustering>
</event>
<event>
 9    1  0.1175034E-005  0.1236015E+03  0.7546771E-02  0.1237761E+00
          4   -1    0    0  502    0  0.00000000000E+00  0.00000000000E+00  0.53978605060E+02  0.53978605060E+02  0.00000000000E+00 0. -1.
         -4   -1    0    0    0  501 -0.00000000000E+00 -0.00000000000E+00 -0.40879930845E+03  0.40879930845E+03  0.00000000000E+00 0.  1.
         23    2    1    2    0    0 -0.84463461129E+02  0.11716232152E+02 -0.22066875317E+03  0.25397420082E+03  0.92395073981E+02 0.  0.
         23    2    1    2    0    0  0.70589758365E+02 -0.43511891938E+02 -0.88516674674E+02  0.15147987834E+03  0.90745540508E+02 0.  0.
        -11    1    4    4    0    0  0.42433081116E+02 -0.68535785703E+02 -0.39801297298E+02  0.89899185545E+02  0.00000000000E+00 0. -1.
         11    1    4    4    0    0  0.28156677248E+02  0.25023893766E+02 -0.48715377376E+02  0.61580692800E+02  0.00000000000E+00 0.  1.
        -13    1    3    3    0    0 -0.66811958929E+02  0.34639431491E+02 -0.77944242071E+02  0.10834681787E+03  0.00000000000E+00 0.  1.
         13    1    3    3    0    0 -0.17651502200E+02 -0.22923199339E+02 -0.14272451110E+03  0.14562738296E+03  0.00000000000E+00 0. -1.
         21    1    1    2  502  501  0.13873702765E+02  0.31795659786E+02 -0.45635275542E+02  0.57323834340E+02  0.00000000000E+00 0.  1.
<scales pt_clust_5="13000.00000" pt_clust_6="13000.00000" pt_clust_7="13000.00000" pt_clust_8="13000.00000" pt_clust_9="34.69068"></scales>
<clustering>
<clus scale="   34.691">  2  9  1 -1</clus>
<clus scale="   90.746">  5  6 -1 -1</clus>
<clus scale="   92.395">  7  8 -1 -1</clus>
<clus scale="  122.373">  1  5  2 -1</clus>
<clus scale="  122.373">  1  5  2 -1</clus>
</clustering>
</event>
<event>
 9    1  0.1175034E-005  0.1043373E+03  0.7546771E-02  0.1273644E+00
         -1   -1    0    0    0  501 -0.00000000000E+00  0.00000000000E+00  0.38143455313E+03  0.38143455313E+03  0.00000000000E+00 0. -1.
          1   -1    0    0  502    0  0.00000000000E+00 -0.00000000000E+00 -0.79888318246E+02  0.79888318246E+02  0.00000000000E+00 0.  1.
         23    2    1    2    0    0  0.21020193201E+02  0.67403301260E+01  0.19888526214E+03  0.22024702584E+03  0.92011544495E+02 0.  0.
         23    2    1    2    0    0 -0.42285582473E+02  0.74070990941E+01 -0.26763612595E+02  0.10915507453E+03  0.96724369907E+02 0.  0.
        -11    1    3    3    0    0  0.20645406686E+01 -0.41658568614E+02  0.73412209458E+02  0.84433708699E+02  0.00000000000E+00 0. -1.
         11    1    3    3    0    0  0.18955652532E+02  0.48398898740E+02  0.12547305268E+03  0.13581331714E+03  0.00000000000E+00 0.  1.
        -13    1    4    4    0    0  0.29614816364E+02  0.59209263311E+01 -0.21450202069E+02  0.37043297446E+02  0.00000000000E+00 0. -1.
         13    1    4    4    0    0 -0.71900398837E+02  0.14861727629E+01 -0.53134105264E+01  0.72111777082E+02  0.00000000000E+00 0.  1.
         21    1    1    2  502  501  0.21265389273E+02 -0.14147429220E+02  0.12942458534E+03  0.13192077101E+03  0.00000000000E+00 0. -1.
<scales pt_clust_5="13000.00000" pt_clust_6="13000.00000" pt_clust_7="13000.00000" pt_clust_8="13000.00000" pt_clust_9="25.54147"></scales>
<clustering>
<clus scale="   25.541">  1  9  2 -1</clus>
<clus scale="   92.012">  5  6 -1 -1</clus>
<clus scale="   96.724">  7  8 -1 -1</clus>
<clus scale="   99.984">  1  5  2 -1</clus>
<clus scale="  104.337">  2  5  1 -1</clus>
</clustering>
</event>
<event>
 9    1  0.1175034E-005  0.1211033E+03  0.7546771E-02  0.1241904E+00
          2   -1    0    0  502    0  0.00000000000E+00  0.00000000000E+00  0.66406774194E+03  0.66406774194E+03  0.00000000000E+00 0. -1.
         -2   -1    0    0    0  501 -0.00000000000E+00 -0.00000000000E+00 -0.27237442354E+02  0.27237442354E+02  0.00000000000E+00 0.  1.
         23    2    1    2    0    0 -0.67933073726E+02 -0.37740842096E+01  0.24012893300E+03  0.26533967657E+03  0.90078261967E+02 0.  0.
         23    2    1    2    0    0  0.87575734414E+02 -0.17523562327E+01  0.37601944347E+03  0.39691180561E+03  0.92063997057E+02 0.  0.
        -11    1    3    3    0    0 -0.14738074826E+02  0.36097927714E+02  0.46878597923E+02  0.60974373125E+02  0.00000000000E+00 0.  1.
         11    1    3    3    0    0 -0.53194998900E+02 -0.39872011924E+02  0.19325033508E+03  0.20436530345E+03  0.00000000000E+00 0. -1.
        -11    1    4    4    0    0  0.99568327909E+02  0.19930634213E+02  0.28370469935E+03  0.30132945182E+03  0.00000000000E+00 0.  1.
         11    1    4    4    0    0 -0.11992593494E+02 -0.21682990446E+02  0.92314744124E+02  0.95582353791E+02  0.00000000000E+00 0. -1.
         21    1    1    2  502  501 -0.19642660689E+02  0.55264404423E+01  0.20681923110E+02  0.29053702112E+02  0.00000000000E+00 0. -1.
<scales pt_clust_5="13000.00000" pt_clust_6="13000.00000" pt_clust_7="13000.00000" pt_clust_8="13000.00000" pt_clust_9="20.40529"></scales>
<clustering>
<clus scale="   20.405">  2  9  1 -1</clus>
<clus scale="   90.078">  5  6 -1 -1</clus>
<clus scale="   92.064">  7  8 -1 -1</clus>
<clus scale="  119.601">  2  5  1 -1</clus>
<clus scale="  121.103">  1  5  2 -1</clus>
</clustering>
</event>
<event>
 9    1  0.1175034E-005  0.2632891E+03  0.7546771E-02  0.1105684E+00
         -1   -1    0    0    0  501 -0.00000000000E+00  0.00000000000E+00  0.14027022974E+03  0.14027022974E+03  0.00000000000E+00 0.  1.
          1   -1    0    0  502    0  0.00000000000E+00 -0.00000000000E+00 -0.90634517717E+03  0.90634517717E+03  0.00000000000E+00 0. -1.
         23    2    1    2    0    0 -0.15343383822E+03  0.12237356272E+03 -0.33972076450E+02  0.21868708156E+03  0.90292336875E+02 0.  0.
         23    2    1    2    0    0  0.17931570241E+03 -0.18492518625E+03 -0.70098879174E+03  0.75342555744E+03  0.99565751168E+02 0.  0.
        -13    1    3    3    0    0 -0.13415027924E+03  0.76275618517E+02  0.63935539945E+01  0.15445110855E+03  0.00000000000E+00 0.  1.
         13    1    3    3    0    0 -0.19283558978E+02  0.46097944204E+02 -0.40365630444E+02  0.64235973004E+02  0.00000000000E+00 0. -1.
        -13    1    4    4    0    0  0.23390347459E+02 -0.55851375571E+02 -0.27774442696E+03  0.28426827332E+03  0.00000000000E+00 0.  1.
         13    1    4    4    0    0  0.15592535495E+03 -0.12907381068E+03 -0.42324436478E+03  0.46915728412E+03  0.00000000000E+00 0. -1.
         21    1    1    2  502  501 -0.25881864188E+02  0.62551623528E+02 -0.31114079234E+02  0.74502767911E+02  0.00000000000E+00 0.  1.
<scales pt_clust_5="13000.00000" pt_clust_6="13000.00000" pt_clust_7="13000.00000" pt_clust_8="13000.00000" pt_clust_9="67.69473"></scales>
<clustering>
<clus scale="   67.695">  1  9  2 -1</clus>
<clus scale="   90.292">  5  6 -1 -1</clus>
<clus scale="   99.566">  7  8 -1 -1</clus>
<clus scale="  259.924">  1  5  2 -1</clus>
<clus scale="  263.289">  2  5  1 -1</clus>
</clustering>
</event>
<event>
 9    1  0.1175034E-005  0.9226137E+02  0.7546771E-02  0.1297634E+00
         -2   -1    0    0    0  501 -0.00000000000E+00  0.00000000000E+00  0.42589002835E+02  0.42589002835E+02  0.00000000000E+00 0.  1.
          2   -1    0    0  502    0  0.00000000000E+00 -0.00000000000E+00 -0.46792130679E+03  0.46792130679E+03  0.00000000000E+00 0. -1.
         23    2    1    2    0    0 -0.32654661577E+01  0.15735100709E+02 -0.80814485598E+02  0.12209081431E+03  0.90094001974E+02 0.  0.
         23    2    1    2    0    0  0.23061253972E+02 -0.44943665729E+01 -0.35232963621E+03  0.36435184448E+03  0.89800185162E+02 0.  0.
        -13    1    4    4    0    0 -0.31005466039E+02 -0.19444386979E+02 -0.14860766060E+03  0.15304790066E+03  0.00000000000E+00 0.  1.
         13    1    4    4    0    0  0.54066720012E+02  0.14950020406E+02 -0.20372197561E+03  0.21130394381E+03  0.00000000000E+00 0. -1.
        -13    1    3    3    0    0 -0.41247000059E+02  0.15259148422E+02 -0.15681802031E+02  0.46691279050E+02  0.00000000000E+00 0.  1.
         13    1    3    3    0    0  0.37981533901E+02  0.47595228723E+00 -0.65132683567E+02  0.75399535255E+02  0.00000000000E+00 0. -1.
         21    1    1    2  502  501 -0.19795787815E+02 -0.11240734136E+02  0.78118178511E+01  0.24067650846E+02  0.00000000000E+00 0.  1.
<scales pt_clust_5="13000.00000" pt_clust_6="13000.00000" pt_clust_7="13000.00000" pt_clust_8="13000.00000" pt_clust_9="22.76461"></scales>
<clustering>
<clus scale="   22.765">  1  9  2 -1</clus>
<clus scale="   89.800">  5  6 -1 -1</clus>
<clus scale="   90.094">  7  8 -1 -1</clus>
<clus scale="   91.974">  2  5  1 -1</clus>
<clus scale="   91.974">  2  5  1 -1</clus>
</clustering>
</event>
<event>
 9    1  0.1175034E-005  0.1336476E+03  0.7546771E-02  0.1222839E+00
         -1   -1    0    0    0  501 -0.00000000000E+00  0.00000000000E+00  0.42611920517E+03  0.42611920517E+03  0.00000000000E+00 0.  1.
          1   -1    0    0  502    0  0.00000000000E+00 -0.00000000000E+00 -0.58634353155E+02  0.58634353155E+02  0.00000000000E+00 0. -1.
         23    2    1    2    0    0  0.19766420737E+02  0.98150007864E+02  0.21516089955E+03  0.25459615416E+03  0.92200073676E+02 0.  0.
         23    2    1    2    0    0 -0.41369143183E+02 -0.86708546556E+02  0.79686513660E+02  0.15351680024E+03  0.89373874499E+02 0.  0.
        -11    1    4    4    0    0 -0.50003139834E+02 -0.33850056957E+02  0.79658152191E+02  0.99957798894E+02  0.00000000000E+00 0.  1.
         11    1    4    4    0    0  0.86339966508E+01 -0.52858489599E+02  0.28361469725E-01  0.53559001346E+02  0.00000000000E+00 0. -1.
        -11    1    3    3    0    0  0.48302400000E+02  0.34252645411E+02  0.59577568808E+02  0.83999120641E+02  0.00000000000E+00 0. -1.
         11    1    3    3    0    0 -0.28535979263E+02  0.63897362453E+02  0.15558333074E+03  0.17059703352E+03  0.00000000000E+00 0.  1.
         21    1    1    2  502  501  0.21602722446E+02 -0.11441461308E+02  0.72637438803E+02  0.76640603924E+02  0.00000000000E+00 0.  1.
<scales pt_clust_5="13000.00000" pt_clust_6="13000.00000" pt_clust_7="13000.00000" pt_clust_8="13000.00000" pt_clust_9="24.44554"></scales>
<clustering>
<clus scale="   24.446">  1  9  2 -1</clus>
<clus scale="   89.374">  5  6 -1 -1</clus>
<clus scale="   92.200">  7  8 -1 -1</clus>
<clus scale="  131.714">  2  5  1 -1</clus>
<clus scale="  131.714">  2  5  1 -1</clus>
</clustering>
</event>
<event>
 9    1  0.1175034E-005  0.1329655E+03  0.7546771E-02  0.1223308E+00
         -3   -1    0    0    0  501 -0.00000000000E+00  0.00000000000E+00  0.38351136211E+03  0.38351136211E+03  0.00000000000E+00 0.  1.
          3   -1    0    0  502    0  0.00000000000E+00 -0.00000000000E+00 -0.11658599227E+03  0.11658599227E+03  0.00000000000E+00 0. -1.
         23    2    1    2    0    0 -0.13512606674E+02 -0.68493194542E+02  0.10584696767E+03  0.15650563500E+03  0.91741620782E+02 0.  0.
         23    2    1    2    0    0 -0.92128970931E+01  0.10818713323E+03 -0.31947677165E+02  0.14522054055E+03  0.90989109516E+02 0.  0.
        -11    1    3    3    0    0  0.32754443245E+02 -0.37553185296E+02  0.81999028295E+02  0.95952779634E+02  0.00000000000E+00 0.  1.
         11    1    3    3    0    0 -0.46267049919E+02 -0.30940009247E+02  0.23847939373E+02  0.60552855363E+02  0.00000000000E+00 0. -1.
        -13    1    4    4    0    0 -0.39100071555E+02  0.24760868028E+02 -0.32582990443E+02  0.56600065789E+02  0.00000000000E+00 0. -1.
         13    1    4    4    0    0  0.29887174462E+02  0.83426265203E+02  0.63531327856E+00  0.88620474757E+02  0.00000000000E+00 0.  1.
         21    1    1    2  502  501  0.22725503767E+02 -0.39693938689E+02  0.19302607934E+03  0.19837117884E+03  0.00000000000E+00 0.  1.
<scales pt_clust_5="13000.00000" pt_clust_6="13000.00000" pt_clust_7="13000.00000" pt_clust_8="13000.00000" pt_clust_9="45.73901"></scales>
<clustering>
<clus scale="   45.739">  1  9  2 -1</clus>
<clus scale="   90.989">  7  8 -1 -1</clus>
<clus scale="   91.742">  5  6 -1 -1</clus>
<clus scale="  132.447">  2  7  1 -1</clus>
<clus scale="  132.447">  2  5  1 -1</clus>
</clustering>
</event>
<event>
 9    1  0.1175034E-005  0.1087102E+03  0.7546771E-02  0.1263560E+00
          2   -1    0    0  502    0  0.00000000000E+00  0.00000000000E+00  0.25931772042E+03  0.25931772042E+03  0.00000000000E+00 0. -1.
         -2   -1    0    0    0  501 -0.00000000000E+00 -0.00000000000E+00 -0.74021328750E+02  0.74021328750E+02  0.00000000000E+00 0.  1.
         23    2    1    2    0    0  0.42238143454E+02  0.15662326938E+02  0.26308018347E+02  0.10423100523E+03  0.90236474746E+02 0.  0.
         23    2    1    2    0    0 -0.64084133911E+02 -0.78334155203E+01  0.16981161748E+03  0.20350176020E+03  0.91699740202E+02 0.  0.
        -11    1    4    4    0    0 -0.64384160943E+02  0.32245426498E+02  0.11224527203E+03  0.13335699758E+03  0.00000000000E+00 0. -1.
         11    1    4    4    0    0  0.30002703244E+00 -0.40078842018E+02  0.57566345449E+02  0.70144762613E+02  0.00000000000E+00 0.  1.
        -13    1    3    3    0    0 -0.27184918799E+02  0.16430374865E+01 -0.33652473759E+01  0.27441652140E+02  0.00000000000E+00 0.  1.
         13    1    3    3    0    0  0.69423062254E+02  0.14019289452E+02  0.29673265723E+02  0.76789353090E+02  0.00000000000E+00 0. -1.
         21    1    1    2  502  501  0.21845990456E+02 -0.78289114178E+01 -0.10823244159E+02  0.25606283743E+02  0.00000000000E+00 0.  1.
<scales pt_clust_5="13000.00000" pt_clust_6="13000.00000" pt_clust_7="13000.00000" pt_clust_8="13000.00000" pt_clust_9="23.20645"></scales>
<clustering>
<clus scale="   23.206">  2  9  1 -1</clus>
<clus scale="   90.236">  7  8 -1 -1</clus>
<clus scale="   91.700">  5  6 -1 -1</clus>
<clus scale="  107.479">  2  7  1 -1</clus>
<clus scale="  108.710">  1  5  2 -1</clus>
</clustering>
</event>
<event>
 9    1  0.1175034E-005  0.9444537E+02  0.7546771E-02  0.1293141E+00
          2   -1    0    0  502    0  0.00000000000E+00  0.00000000000E+00  0.44758611241E+02  0.44758611241E+02  0.00000000000E+00 0. -1.
         -2   -1    0    0    0  501 -0.00000000000E+00 -0.00000000000E+00 -0.43223336860E+03  0.43223336860E+03  0.00000000000E+00 0.  1.
         23    2    1    2    0    0 -0.18873496219E+00 -0.99705941258E+01 -0.19487344902E+03  0.21437385579E+03  0.88775224832E+02 0.  0.
         23    2    1    2    0    0  0.23479303968E+02  0.26465742607E+02 -0.35716184717E+02  0.10315815246E+03  0.90079105908E+02 0.  0.
        -11    1    3    3    0    0 -0.31166935369E+02  0.22323121702E+02 -0.51653714329E+02  0.64325778867E+02  0.00000000000E+00 0. -1.
         11    1    3    3    0    0  0.30978200407E+02 -0.32293715828E+02 -0.14321973469E+03  0.15004807692E+03  0.00000000000E+00 0.  1.
        -11    1    4    4    0    0  0.52795171501E+02  0.17592939523E+02 -0.44545095698E+02  0.71281885536E+02  0.00000000000E+00 0.  1.
         11    1    4    4    0    0 -0.29315867533E+02  0.88728030838E+01  0.88289109802E+01  0.31876266922E+02  0.00000000000E+00 0. -1.
         21    1    1    2  502  501 -0.23290569006E+02 -0.16495148481E+02 -0.15688512362E+03  0.15945997160E+03  0.00000000000E+00 0.  1.
<scales pt_clust_5="13000.00000" pt_clust_6="13000.00000" pt_clust_7="13000.00000" pt_clust_8="13000.00000" pt_clust_9="28.54016"></scales>
<clustering>
<clus scale="   28.540">  2  9  1 -1</clus>
<clus scale="   88.775">  5  6 -1 -1</clus>
<clus scale="   90.079">  7  8 -1 -1</clus>
<clus scale="   93.203">  2  5  1 -1</clus>
<clus scale="   94.445">  1  5  2 -1</clus>
</clustering>
</event>
<event>
 9    1  0.1175034E-005  0.1796619E+03  0.7546771E-02  0.1170179E+00
         -1   -1    0    0    0  501 -0.00000000000E+00  0.00000000000E+00  0.38447804431E+03  0.38447804431E+03  0.00000000000E+00 0.  1.
          1   -1    0    0  502    0  0.00000000000E+00 -0.00000000000E+00 -0.42154171391E+03  0.42154171391E+03  0.00000000000E+00 0. -1.
         23    2    1    2    0    0  0.56301023976E+02 -0.99311958955E+02  0.24442655304E+03  0.29013538243E+03  0.10677794629E+03 0.  0.
         23    2    1    2    0    0 -0.99319335972E+02  0.10817374235E+03 -0.37467608234E+03  0.41286636368E+03  0.92252796981E+02 0.  0.
        -11    1    3    3    0    0  0.23308225908E+01 -0.92261341188E+02  0.19855041758E+03  0.21895172101E+03  0.00000000000E+00 0.  1.
         11    1    3    3    0    0  0.53970201385E+02 -0.70506177671E+01  0.45876135462E+02  0.71183661422E+02  0.00000000000E+00 0. -1.
        -13    1    4    4    0    0  0.14920586209E+02  0.33007629706E+02 -0.91164451705E+02  0.98097322932E+02  0.00000000000E+00 0.  1.
         13    1    4    4    0    0 -0.11423992218E+03  0.75166112640E+02 -0.28351163063E+03  0.31476904075E+03  0.00000000000E+00 0. -1.
         21    1    1    2  502  501  0.43018311996E+02 -0.88617833903E+01  0.93185859692E+02  0.10301801211E+03  0.00000000000E+00 0.  1.
<scales pt_clust_5="13000.00000" pt_clust_6="13000.00000" pt_clust_7="13000.00000" pt_clust_8="13000.00000" pt_clust_9="43.92159"></scales>
<clustering>
<clus scale="   43.922">  1  9  2 -1</clus>
<clus scale="   92.253">  7  8 -1 -1</clus>
<clus scale="  106.778">  5  6 -1 -1</clus>
<clus scale="  171.428">  2  7  1 -1</clus>
<clus scale="  171.428">  2  5  1 -1</clus>
</clustering>
</event>
<event>
 9    1  0.1175034E-005  0.9618430E+02  0.7546771E-02  0.1289071E+00
         -2   -1    0    0    0  501 -0.00000000000E+00  0.00000000000E+00  0.94434143994E+02  0.94434143994E+02  0.00000000000E+00 0.  1.
          2   -1    0    0  502    0  0.00000000000E+00 -0.00000000000E+00 -0.20765589206E+03  0.20765589206E+03  0.00000000000E+00 0. -1.
         23    2    1    2    0    0  0.79972414438E+01 -0.21874906863E+02  0.47013807551E+01  0.96514533621E+02  0.93544025988E+02 0.  0.
         23    2    1    2    0    0  0.20392092503E+02  0.16245878704E+02 -0.13953588643E+03  0.16945415788E+03  0.92545567209E+02 0.  0.
        -11    1    4    4    0    0 -0.31891141096E+02  0.22955969119E+02 -0.36091251261E+02  0.53353536116E+02  0.00000000000E+00 0.  1.
         11    1    4    4    0    0  0.52283233599E+02 -0.67100904147E+01 -0.10344463517E+03  0.11610062177E+03  0.00000000000E+00 0. -1.
        -13    1    3    3    0    0  0.26369070380E+02 -0.52457140939E+02  0.12424063130E+02  0.60011972579E+02  0.00000000000E+00 0.  1.
         13    1    3    3    0    0 -0.18371828936E+02  0.30582234076E+02 -0.77226823748E+01  0.36502561042E+02  0.00000000000E+00 0. -1.
         21    1    1    2  502  501 -0.28389333947E+02  0.56290281587E+01  0.21612757616E+02  0.36121344545E+02  0.00000000000E+00 0.  1.
<scales pt_clust_5="13000.00000" pt_clust_6="13000.00000" pt_clust_7="13000.00000" pt_clust_8="13000.00000" pt_clust_9="28.94202"></scales>
<clustering>
<clus scale="   28.942">  1  9  2 -1</clus>
<clus scale="   92.546">  5  6 -1 -1</clus>
<clus scale="   93.544">  7  8 -1 -1</clus>
<clus scale="   95.214">  2  5  1 -1</clus>
<clus scale="   95.214">  2  5  1 -1</clus>
</clustering>
</event>
<event>
 9    1  0.1175034E-005  0.1984365E+03  0.7546771E-02  0.1151606E+00
         -1   -1    0    0    0  501 -0.00000000000E+00  0.00000000000E+00  0.39098732132E+02  0.39098732132E+02  0.00000000000E+00 0.  1.
          1   -1    0    0  502    0  0.00000000000E+00 -0.00000000000E+00 -0.12062032782E+04  0.12062032782E+04  0.00000000000E+00 0. -1.
         23    2    1    2    0    0 -0.76708751072E+02  0.13877413533E+03 -0.40925928367E+03  0.44942303033E+03  0.96671639047E+02 0.  0.
         23    2    1    2    0    0  0.10798691761E+03 -0.14999206509E+03 -0.69292153471E+03  0.72294574980E+03  0.91386595973E+02 0.  0.
        -11    1    4    4    0    0  0.33906880552E+02 -0.11667652959E+03 -0.34842649144E+03  0.36900421277E+03  0.00000000000E+00 0.  1.
         11    1    4    4    0    0  0.74080037059E+02 -0.33315535502E+02 -0.34449504327E+03  0.35394153703E+03  0.00000000000E+00 0. -1.
        -11    1    3    3    0    0 -0.55721468861E+01  0.23575049916E+02 -0.73406430853E+01  0.25312385118E+02  0.00000000000E+00 0.  1.
         11    1    3    3    0    0 -0.71136604186E+02  0.11519908541E+03 -0.40191864058E+03  0.42411064521E+03  0.00000000000E+00 0. -1.
         21    1    1    2  502  501 -0.31278166540E+02  0.11217929764E+02 -0.64923727700E+02  0.72933230209E+02  0.00000000000E+00 0. -1.
<scales pt_clust_5="13000.00000" pt_clust_6="13000.00000" pt_clust_7="13000.00000" pt_clust_8="13000.00000" pt_clust_9="33.22899"></scales>
<clustering>
<clus scale="   33.229">  1  9  2 -1</clus>
<clus scale="   91.387">  5  6 -1 -1</clus>
<clus scale="   96.672">  7  8 -1 -1</clus>
<clus scale="  195.916">  2  5  1 -1</clus>
<clus scale="  195.916">  2  5  1 -1</clus>
</clustering>
</event>
<event>
 9    1  0.1175034E-005  0.1173182E+03  0.7546771E-02  0.1248351E+00
          3   -1    0    0  502    0  0.00000000000E+00  0.00000000000E+00  0.12294136531E+03  0.12294136531E+03  0.00000000000E+00 0. -1.
         -3   -1    0    0    0  501 -0.00000000000E+00 -0.00000000000E+00 -0.21729983512E+03  0.21729983512E+03  0.00000000000E+00 0.  1.
         23    2    1    2    0    0 -0.18729572473E+02  0.38202199999E+02 -0.91652569355E+02  0.13724827543E+03  0.92879979922E+02 0.  0.
         23    2    1    2    0    0  0.13254598914E+02 -0.81489049035E+02  0.51877189774E+02  0.13311417018E+03  0.90620030784E+02 0.  0.
        -11    1    4    4    0    0  0.48766296601E+02 -0.24232568809E+02  0.15867427237E+02  0.56719875902E+02  0.00000000000E+00 0.  1.
         11    1    4    4    0    0 -0.35511697687E+02 -0.57256480226E+02  0.36009762537E+02  0.76394294279E+02  0.00000000000E+00 0. -1.
        -11    1    3    3    0    0 -0.30564589890E+01  0.66183901094E+02 -0.78135224249E+02  0.10244395528E+03  0.00000000000E+00 0.  1.
         11    1    3    3    0    0 -0.15673113484E+02 -0.27981701095E+02 -0.13517345106E+02  0.34804320151E+02  0.00000000000E+00 0. -1.
         21    1    1    2  502  501  0.54749735589E+01  0.43286849036E+02 -0.54583090232E+02  0.69878754813E+02  0.00000000000E+00 0.  1.
<scales pt_clust_5="13000.00000" pt_clust_6="13000.00000" pt_clust_7="13000.00000" pt_clust_8="13000.00000" pt_clust_9="43.63172"></scales>
<clustering>
<clus scale="   43.632">  2  9  1 -1</clus>
<clus scale="   90.620">  5  6 -1 -1</clus>
<clus scale="   92.880">  7  8 -1 -1</clus>
<clus scale="  115.537">  1  5  2 -1</clus>
<clus scale="  115.537">  1  5  2 -1</clus>
</clustering>
</event>
<event>
 9    1  0.1175034E-005  0.1002217E+03  0.7546771E-02  0.1282828E+00
         -4   -1    0    0    0  501 -0.00000000000E+00  0.00000000000E+00  0.27677354186E+03  0.27677354186E+03  0.00000000000E+00 0.  1.
          4   -1    0    0  502    0  0.00000000000E+00 -0.00000000000E+00 -0.10437671277E+03  0.10437671277E+03  0.00000000000E+00 0. -1.
         23    2    1    2    0    0  0.29163696978E+02 -0.31845323740E+01  0.20731680688E+03  0.23162228675E+03  0.99035159588E+02 0.  0.
         23    2    1    2    0    0 -0.98242002109E+01 -0.11322704644E+02 -0.62082776024E+02  0.11316461176E+03  0.93419696672E+02 0.  0.
        -13    1    4    4    0    0 -0.42718444740E+02 -0.28253778488E+02 -0.55619088383E+02  0.75608362714E+02  0.00000000000E+00 0. -1.
         13    1    4    4    0    0  0.32894244529E+02  0.16931073844E+02 -0.64636876416E+01  0.37556249048E+02  0.00000000000E+00 0.  1.
        -13    1    3    3    0    0 -0.31154548299E+01  0.33031725209E+02  0.16157023512E+03  0.16494163151E+03  0.00000000000E+00 0.  1.
         13    1    3    3    0    0  0.32279151808E+02 -0.36216257583E+02  0.45746571762E+02  0.66680655236E+02  0.00000000000E+00 0. -1.
         21    1    1    2  502  501 -0.19339496767E+02  0.14507237018E+02  0.27162798230E+02  0.36363356126E+02  0.00000000000E+00 0. -1.
<scales pt_clust_5="13000.00000" pt_clust_6="13000.00000" pt_clust_7="13000.00000" pt_clust_8="13000.00000" pt_clust_9="24.17594"></scales>
<clustering>
<clus scale="   24.176">  1  9  2 -1</clus>
<clus scale="   93.420">  5  6 -1 -1</clus>
<clus scale="   94.677">  2  5  1 -1</clus>
<clus scale="   99.035">  7  8 -1 -1</clus>
<clus scale="   94.677">  2  5  1 -1</clus>
</clustering>
</event>
<event>
 9    1  0.1175034E-005  0.1520699E+03  0.7546771E-02  0.1202377E+00
         -3   -1    0    0    0  501 -0.00000000000E+00  0.00000000000E+00  0.24104222019E+03  0.24104222019E+03  0.00000000000E+00 0.  1.
          3   -1    0    0  502    0  0.00000000000E+00 -0.00000000000E+00 -0.12108654471E+03  0.12108654471E+03  0.00000000000E+00 0. -1.
         23    2    1    2    0    0 -0.86857405898E+02  0.14288249331E+02  0.76685528092E+02  0.14885789322E+03  0.92356045424E+02 0.  0.
         23    2    1    2    0    0  0.11054682925E+03 -0.22561966503E+02 -0.46996827957E+01  0.15913449036E+03  0.11212517654E+03 0.  0.
        -11    1    4    4    0    0  0.23505632980E+02 -0.23326091247E+02  0.47300427239E+02  0.57740382158E+02  0.00000000000E+00 0.  1.
         11    1    4    4    0    0  0.87041196268E+02  0.76412474321E+00 -0.52000110035E+02  0.10139410820E+03  0.00000000000E+00 0. -1.
        -13    1    3    3    0    0 -0.59307390908E+02 -0.36512682358E+02  0.45481577642E+02  0.83181226813E+02  0.00000000000E+00 0.  1.
         13    1    3    3    0    0 -0.27550014990E+02  0.50800931689E+02  0.31203950451E+02  0.65676666406E+02  0.00000000000E+00 0. -1.
         21    1    1    2  502  501 -0.23689423350E+02  0.82737171725E+01  0.47969830180E+02  0.54136381316E+02  0.00000000000E+00 0. -1.
<scales pt_clust_5="13000.00000" pt_clust_6="13000.00000" pt_clust_7="13000.00000" pt_clust_8="13000.00000" pt_clust_9="25.09269"></scales>
<clustering>
<clus scale="   25.093">  1  9  2 -1</clus>
<clus scale="   92.356">  7  8 -1 -1</clus>
<clus scale="  112.125">  5  6 -1 -1</clus>
<clus scale="  138.141">  1  7  2 -1</clus>
<clus scale="  152.070">  2  5  1 -1</clus>
</clustering>
</event>
<event>
 9    1  0.1175034E-005  0.9589821E+02  0.7546771E-02  0.1291176E+00
          3   -1    0    0  502    0  0.00000000000E+00  0.00000000000E+00  0.17150744151E+03  0.17150744151E+03  0.00000000000E+00 0. -1.
         -3   -1    0    0    0  501 -0.00000000000E+00 -0.00000000000E+00 -0.98248082127E+02  0.98248082127E+02  0.00000000000E+00 0.  1.
         23    2    1    2    0    0  0.35286580161E+02 -0.21736443020E+02  0.15286728572E+02  0.10293597753E+03  0.92975887756E+02 0.  0.
         23    2    1    2    0    0 -0.12215779489E+02  0.99262057186E+01  0.88537899211E+02  0.12674487604E+03  0.89317127006E+02 0.  0.
        -11    1    3    3    0    0  0.55180750177E+02  0.90169253113E+01 -0.12094162383E+02  0.57205671886E+02  0.00000000000E+00 0. -1.
         11    1    3    3    0    0 -0.19894170016E+02 -0.30753368332E+02  0.27380890955E+02  0.45730305639E+02  0.00000000000E+00 0.  1.
        -13    1    4    4    0    0 -0.81383975801E+01 -0.18689289712E+02 -0.10952723551E+02  0.23140553543E+02  0.00000000000E+00 0.  1.
         13    1    4    4    0    0 -0.40773819090E+01  0.28615495430E+02  0.99490622762E+02  0.10360432249E+03  0.00000000000E+00 0. -1.
         21    1    1    2  502  501 -0.23070800672E+02  0.11810237302E+02 -0.30565268403E+02  0.40074670071E+02  0.00000000000E+00 0. -1.
<scales pt_clust_5="13000.00000" pt_clust_6="13000.00000" pt_clust_7="13000.00000" pt_clust_8="13000.00000" pt_clust_9="25.91802"></scales>
<clustering>
<clus scale="   25.918">  2  9  1 -1</clus>
<clus scale="   89.317">  7  8 -1 -1</clus>
<clus scale="   92.355">  1  7  2 -1</clus>
<clus scale="   92.976">  5  6 -1 -1</clus>
<clus scale="   92.355">  1  5  2 -1</clus>
</clustering>
</event>
<event>
 9    1  0.1175034E-005  0.1916978E+03  0.7546771E-02  0.1157025E+00
         -2   -1    0    0    0  501 -0.00000000000E+00  0.00000000000E+00  0.49840394163E+02  0.49840394163E+02  0.00000000000E+00 0.  1.
          2   -1    0    0  502    0  0.00000000000E+00 -0.00000000000E+00 -0.96215681187E+03  0.96215681187E+03  0.00000000000E+00 0. -1.
         23    2    1    2    0    0 -0.17736117384E+03 -0.68609568664E+02 -0.37177678072E+03  0.42738794986E+03  0.90984757503E+02 0.  0.
         23    2    1    2    0    0  0.14092666672E+03  0.66299966665E+02 -0.48981789818E+03  0.52211523760E+03  0.91797260216E+02 0.  0.
        -11    1    4    4    0    0  0.90096277111E+02  0.51386587465E+02 -0.17952799478E+03  0.20733601093E+03  0.00000000000E+00 0.  1.
         11    1    4    4    0    0  0.50830389606E+02  0.14913379200E+02 -0.31028990341E+03  0.31477922667E+03  0.00000000000E+00 0. -1.
        -13    1    3    3    0    0 -0.47951519679E+02 -0.45254676365E+02 -0.60543562211E+02  0.89514562489E+02  0.00000000000E+00 0.  1.
         13    1    3    3    0    0 -0.12940965416E+03 -0.23354892299E+02 -0.31123321851E+03  0.33787338737E+03  0.00000000000E+00 0. -1.
         21    1    1    2  502  501  0.36434507125E+02  0.23096019986E+01 -0.50721738800E+02  0.62494018576E+02  0.00000000000E+00 0.  1.
<scales pt_clust_5="13000.00000" pt_clust_6="13000.00000" pt_clust_7="13000.00000" pt_clust_8="13000.00000" pt_clust_9="36.50764"></scales>
<clustering>
<clus scale="   36.508">  1  9  2 -1</clus>
<clus scale="   90.985">  7  8 -1 -1</clus>
<clus scale="   91.797">  5  6 -1 -1</clus>
<clus scale="  191.310">  1  7  2 -1</clus>
<clus scale="  191.698">  2  5  1 -1</clus>
</clustering>
</event>
<event>
 9    1  0.1326879E-005  0.2028333E+03  0.7546771E-02  0.1149716E+00
          1   -1    0    0  502    0  0.00000000000E+00  0.00000000000E+00  0.38759865565E+03  0.38759865565E+03  0.00000000000E+00 0. -1.
         -1   -1    0    0    0  501 -0.00000000000E+00 -0.00000000000E+00 -0.20962186525E+03  0.20962186525E+03  0.00000000000E+00 0.  1.
         23    2    1    2    0    0  0.53441568605E+01 -0.15212220095E+03 -0.11146383421E+03  0.22100038466E+03  0.11509674038E+03 0.  0.
         23    2    1    2    0    0  0.76832875861E+01  0.16950023337E+03  0.29558308454E+03  0.35364935571E+03  0.94388266785E+02 0.  0.
        -11    1    3    3    0    0  0.57982587584E+02 -0.10466355423E+03 -0.76011400823E+02  0.14175391741E+03  0.00000000000E+00 0.  1.
         11    1    3    3    0    0 -0.52638430724E+02 -0.47458646725E+02 -0.35452433386E+02  0.79246467246E+02  0.00000000000E+00 0. -1.
        -11    1    4    4    0    0 -0.41572000205E+02  0.93960670657E+02  0.13742422144E+03  0.17158745720E+03  0.00000000000E+00 0. -1.
         11    1    4    4    0    0  0.49255287791E+02  0.75539562716E+02  0.15815886310E+03  0.18206189851E+03  0.00000000000E+00 0.  1.
         21    1    1    2  502  501 -0.13027444447E+02 -0.17378032423E+02 -0.61424599332E+01  0.22570780530E+02  0.00000000000E+00 0.  1.
<scales pt_clust_5="13000.00000" pt_clust_6="13000.00000" pt_clust_7="13000.00000" pt_clust_8="13000.00000" pt_clust_9="21.71889"></scales>
<clustering>
<clus scale="   21.719">  2  9  1 -1</clus>
<clus scale="   94.388">  7  8 -1 -1</clus>
<clus scale="  115.097">  5  6 -1 -1</clus>
<clus scale="  191.842">  1  7  2 -1</clus>
<clus scale="  191.842">  1  5  2 -1</clus>
</clustering>
</event>
<event>
 9    1  0.1175034E-005  0.1020989E+03  0.7546771E-02  0.1276740E+00
          1   -1    0    0  502    0  0.00000000000E+00  0.00000000000E+00  0.25191363137E+03  0.25191363137E+03  0.00000000000E+00 0. -1.
         -1   -1    0    0    0  501 -0.00000000000E+00 -0.00000000000E+00 -0.79060443880E+02  0.79060443880E+02  0.00000000000E+00 0.  1.
         23    2    1    2    0    0 -0.25380361470E+02 -0.44208428120E+02  0.23014563236E+02  0.10671449039E+03  0.90883246382E+02 0.  0.
         23    2    1    2    0    0  0.51207136404E+02  0.40845749363E+01  0.14283430888E+03  0.17603089701E+03  0.89142483351E+02 0.  0.
        -13    1    3    3    0    0 -0.21732079297E+02  0.24465533443E+02  0.18970399568E+02  0.37824881454E+02  0.00000000000E+00 0. -1.
         13    1    3    3    0    0 -0.36482821733E+01 -0.68673961563E+02  0.40441636673E+01  0.68889608935E+02  0.00000000000E+00 0.  1.
        -13    1    4    4    0    0 -0.99110725906E+01  0.21650927351E+02  0.90777826997E+02  0.93848845967E+02  0.00000000000E+00 0. -1.
         13    1    4    4    0    0  0.61118208994E+02 -0.17566352415E+02  0.52056481887E+02  0.82182051047E+02  0.00000000000E+00 0.  1.
         21    1    1    2  502  501 -0.25826774934E+02  0.40123853183E+02  0.70043153728E+01  0.48228687849E+02  0.00000000000E+00 0.  1.
<scales pt_clust_5="13000.00000" pt_clust_6="13000.00000" pt_clust_7="13000.00000" pt_clust_8="13000.00000" pt_clust_9="47.71735"></scales>
<clustering>
<clus scale="   47.717">  2  9  1 -1</clus>
<clus scale="   89.142">  7  8 -1 -1</clus>
<clus scale="   90.883">  5  6 -1 -1</clus>
<clus scale="  100.552">  1  7  2 -1</clus>
<clus scale="  100.552">  1  5  2 -1</clus>
</clustering>
</event>
<event>
 9    1  0.1175034E-005  0.1099706E+03  0.7546771E-02  0.1262168E+00
         -2   -1    0    0    0  501 -0.00000000000E+00  0.00000000000E+00  0.20292985952E+03  0.20292985952E+03  0.00000000000E+00 0.  1.
          2   -1    0    0  502    0  0.00000000000E+00 -0.00000000000E+00 -0.21333123983E+03  0.21333123983E+03  0.00000000000E+00 0. -1.
         23    2    1    2    0    0  0.15246286292E+02  0.95849773551E+02  0.12510692496E+03  0.18145884620E+03  0.88633751213E+02 0.  0.
         23    2    1    2    0    0  0.26057253292E+01 -0.55316536740E+02 -0.15298954491E+03  0.18718680036E+03  0.92554785584E+02 0.  0.
        -11    1    4    4    0    0 -0.35186727170E+02  0.22356201253E+01 -0.30256063908E+02  0.46460016891E+02  0.00000000000E+00 0.  1.
         11    1    4    4    0    0  0.37792452499E+02 -0.57552156865E+02 -0.12273348101E+03  0.14072678347E+03  0.00000000000E+00 0. -1.
        -11    1    3    3    0    0 -0.15478458252E+02  0.85903424090E+02  0.52162747225E+02  0.10168546178E+03  0.00000000000E+00 0.  1.
         11    1    3    3    0    0  0.30724744543E+02  0.99463494613E+01  0.72944177738E+02  0.79773384413E+02  0.00000000000E+00 0. -1.
         21    1    1    2  502  501 -0.17852011621E+02 -0.40533236811E+02  0.17481239633E+02  0.47615452790E+02  0.00000000000E+00 0. -1.
<scales pt_clust_5="13000.00000" pt_clust_6="13000.00000" pt_clust_7="13000.00000" pt_clust_8="13000.00000" pt_clust_9="44.29038"></scales>
<clustering>
<clus scale="   44.290">  1  9  2 -1</clus>
<clus scale="   88.634">  7  8 -1 -1</clus>
<clus scale="   92.555">  5  6 -1 -1</clus>
<clus scale="  106.692">  1  7  2 -1</clus>
<clus scale="  109.971">  2  5  1 -1</clus>
</clustering>
</event>
<event>
 9    1  0.1175034E-005  0.9819290E+02  0.7546771E-02  0.1288372E+00
          4   -1    0    0  502    0  0.00000000000E+00  0.00000000000E+00  0.33761033474E+03  0.33761033474E+03  0.00000000000E+00 0. -1.
         -4   -1    0    0    0  501 -0.00000000000E+00 -0.00000000000E+00 -0.52016959837E+02  0.52016959837E+02  0.00000000000E+00 0.  1.
         23    2    1    2    0    0  0.36870186826E+02  0.93837133580E+01  0.69922204282E+02  0.11593183211E+03  0.84282918146E+02 0.  0.
         23    2    1    2    0    0 -0.19471795836E+02 -0.28172032093E+02  0.22565946146E+03  0.24620963187E+03  0.92326464553E+02 0.  0.
        -13    1    4    4    0    0  0.22232905524E+02  0.21382950271E+02  0.10273045546E+03  0.10726173190E+03  0.00000000000E+00 0.  1.
         13    1    4    4    0    0 -0.41704701360E+02 -0.49554982365E+02  0.12292900600E+03  0.13894789998E+03  0.00000000000E+00 0. -1.
        -13    1    3    3    0    0  0.41108013095E+02 -0.28480355543E+02  0.21805684323E+02  0.54557192571E+02  0.00000000000E+00 0. -1.
         13    1    3    3    0    0 -0.42378262692E+01  0.37864068901E+02  0.48116519959E+02  0.61374639536E+02  0.00000000000E+00 0.  1.
         21    1    1    2  502  501 -0.17398390990E+02  0.18788318735E+02 -0.99882908336E+01  0.27485830599E+02  0.00000000000E+00 0.  1.
<scales pt_clust_5="13000.00000" pt_clust_6="13000.00000" pt_clust_7="13000.00000" pt_clust_8="13000.00000" pt_clust_9="25.60674"></scales>
<clustering>
<clus scale="   25.607">  2  9  1 -1</clus>
<clus scale="   84.283">  7  8 -1 -1</clus>
<clus scale="   90.671">  2  7  1 -1</clus>
<clus scale="   92.326">  5  6 -1 -1</clus>
<clus scale="   98.193">  1  5  2 -1</clus>
</clustering>
</event>
<event>
 9    1  0.1175034E-005  0.9302809E+02  0.7546771E-02  0.1295765E+00
          1   -1    0    0  502    0  0.00000000000E+00  0.00000000000E+00  0.26923585323E+03  0.26923585323E+03  0.00000000000E+00 0. -1.
         -1   -1    0    0    0  501 -0.00000000000E+00 -0.00000000000E+00 -0.75896553774E+02  0.75896553774E+02  0.00000000000E+00 0.  1.
         23    2    1    2    0    0 -0.47605428499E+01  0.35931505727E+02  0.97747533961E+02  0.13680304194E+03  0.88581916977E+02 0.  0.
         23    2    1    2    0    0  0.36911193560E+02 -0.24128854838E+01  0.12180477026E+03  0.15499753721E+03  0.88428367936E+02 0.  0.
        -13    1    3    3    0    0  0.15425465987E+02  0.15980077007E+02 -0.10735320704E+02  0.24668907003E+02  0.00000000000E+00 0.  1.
         13    1    3    3    0    0 -0.20186008837E+02  0.19951428720E+02  0.10848285467E+03  0.11213413493E+03  0.00000000000E+00 0. -1.
        -13    1    4    4    0    0 -0.28819157381E+02 -0.69719630829E+01  0.43759986577E+02  0.52859138534E+02  0.00000000000E+00 0.  1.
         13    1    4    4    0    0  0.65730350941E+02  0.45590775991E+01  0.78044783687E+02  0.10213839868E+03  0.00000000000E+00 0. -1.
         21    1    1    2  502  501 -0.32150650710E+02 -0.33518620243E+02 -0.26213004767E+02  0.53331827861E+02  0.00000000000E+00 0.  1.
<scales pt_clust_5="13000.00000" pt_clust_6="13000.00000" pt_clust_7="13000.00000" pt_clust_8="13000.00000" pt_clust_9="46.44526"></scales>
<clustering>
<clus scale="   46.445">  2  9  1 -1</clus>
<clus scale="   88.428">  7  8 -1 -1</clus>
<clus scale="   88.582">  5  6 -1 -1</clus>
<clus scale="   92.882">  1  7  2 -1</clus>
<clus scale="   92.882">  1  5  2 -1</clus>
</clustering>
</event>
<event>
 9    1  0.1175034E-005  0.1066721E+03  0.7546771E-02  0.1268002E+00
         -1   -1    0    0    0  501 -0.00000000000E+00  0.00000000000E+00  0.73069973953E+02  0.73069973953E+02  0.00000000000E+00 0.  1.
          1   -1    0    0  502    0  0.00000000000E+00 -0.00000000000E+00 -0.21244177160E+03  0.21244177160E+03  0.00000000000E+00 0. -1.
         23    2    1    2    0    0  0.34880239898E+02  0.35139606705E+02 -0.50889351946E+02  0.11474985769E+03  0.90146439775E+02 0.  0.
         23    2    1    2    0    0 -0.56308882770E+02 -0.15044043979E+02 -0.89271052835E+02  0.14137413059E+03  0.92845626642E+02 0.  0.
        -11    1    3    3    0    0  0.59706520746E+01  0.61696133881E+02 -0.21122674059E+02  0.65484570560E+02  0.00000000000E+00 0. -1.
         11    1    3    3    0    0  0.28909587824E+02 -0.26556527176E+02 -0.29766677886E+02  0.49265287132E+02  0.00000000000E+00 0.  1.
        -13    1    4    4    0    0 -0.71300916542E+02  0.24428569853E+01 -0.93851563240E+02  0.11788937260E+03  0.00000000000E+00 0. -1.
         13    1    4    4    0    0  0.14992033772E+02 -0.17486900965E+02  0.45805104049E+01  0.23484757984E+02  0.00000000000E+00 0.  1.
         21    1    1    2  502  501  0.21428642871E+02 -0.20095562726E+02  0.78860713140E+00  0.29387757277E+02  0.00000000000E+00 0.  1.
<scales pt_clust_5="13000.00000" pt_clust_6="13000.00000" pt_clust_7="13000.00000" pt_clust_8="13000.00000" pt_clust_9="29.37717"></scales>
<clustering>
<clus scale="   29.377">  1  9  2 -1</clus>
<clus scale="   90.146">  5  6 -1 -1</clus>
<clus scale="   92.846">  7  8 -1 -1</clus>
<clus scale="  104.331">  1  5  2 -1</clus>
<clus scale="  106.672">  2  5  1 -1</clus>
</clustering>
</event>
<event>
 9    1  0.1175034E-005  0.1078663E+03  0.7546771E-02  0.1269643E+00
          1   -1    0    0  502    0  0.00000000000E+00  0.00000000000E+00  0.38249312276E+03  0.38249312276E+03  0.00000000000E+00 0. -1.
         -1   -1    0    0    0  501 -0.00000000000E+00 -0.00000000000E+00 -0.83557490565E+02  0.83557490565E+02  0.00000000000E+00 0.  1.
         23    2    1    2    0    0 -0.30643402177E+02 -0.13741506509E+02 -0.35900921451E+02  0.10379971820E+03  0.91420228831E+02 0.  0.
         23    2    1    2    0    0  0.47880981731E+02 -0.93655659575E+00  0.30177931296E+03  0.32218394057E+03  0.10216786325E+03 0.  0.
        -11    1    3    3    0    0  0.23276490215E+02  0.10709433944E+02  0.11376938574E+02  0.28034295130E+02  0.00000000000E+00 0.  1.
         11    1    3    3    0    0 -0.53919892392E+02 -0.24450940453E+02 -0.47277860025E+02  0.75765423071E+02  0.00000000000E+00 0. -1.
        -13    1    4    4    0    0  0.18798542085E+02  0.49914904685E+02  0.12345958052E+03  0.13448847875E+03  0.00000000000E+00 0.  1.
         13    1    4    4    0    0  0.29082439647E+02 -0.50851461281E+02  0.17831973243E+03  0.18769546181E+03  0.00000000000E+00 0. -1.
         21    1    1    2  502  501 -0.17237579554E+02  0.14678063105E+02  0.33057240686E+02  0.40066954553E+02  0.00000000000E+00 0. -1.
<scales pt_clust_5="13000.00000" pt_clust_6="13000.00000" pt_clust_7="13000.00000" pt_clust_8="13000.00000" pt_clust_9="22.64022"></scales>
<clustering>
<clus scale="   22.640">  1  9  2 -1</clus>
<clus scale="   91.420">  5  6 -1 -1</clus>
<clus scale="   97.747">  2  5  1 -1</clus>
<clus scale="  102.168">  7  8 -1 -1</clus>
<clus scale="   22.640">  1  5  2 -1</clus>
</clustering>
</event>
<event>
 9    1  0.1175034E-005  0.1130310E+03  0.7546771E-02  0.1256720E+00
          2   -1    0    0  502    0  0.00000000000E+00  0.00000000000E+00  0.27718440218E+03  0.27718440218E+03  0.00000000000E+00 0.  1.
         -2   -1    0    0    0  501 -0.00000000000E+00 -0.00000000000E+00 -0.68866998128E+02  0.68866998128E+02  0.00000000000E+00 0. -1.
         23    2    1    2    0    0  0.34133986034E+02 -0.39136617313E+02  0.21092236823E+02  0.11219512060E+03  0.97190837095E+02 0.  0.
         23    2    1    2    0    0 -0.42337763294E+02  0.58994915543E+02  0.14913079304E+03  0.19012030693E+03  0.92913139080E+02 0.  0.
        -11    1    3    3    0    0  0.34043440371E+02 -0.69432041532E+02  0.25835288984E+02  0.81530524225E+02  0.00000000000E+00 0. -1.
         11    1    3    3    0    0  0.90545662650E-01  0.30295424219E+02 -0.47430521612E+01  0.30664596376E+02  0.00000000000E+00 0.  1.
        -13    1    4    4    0    0 -0.45919667040E+02  0.80039815744E+01  0.19046470687E+02  0.50353228176E+02  0.00000000000E+00 0. -1.
         13    1    4    4    0    0  0.35819037463E+01  0.50990933968E+02  0.13008432235E+03  0.13976707875E+03  0.00000000000E+00 0.  1.
         21    1    1    2  502  501  0.82037772598E+01 -0.19858298229E+02  0.38094374190E+02  0.43735972778E+02  0.00000000000E+00 0.  1.
<scales pt_clust_5="13000.00000" pt_clust_6="13000.00000" pt_clust_7="13000.00000" pt_clust_8="13000.00000" pt_clust_9="21.48613"></scales>
<clustering>
<clus scale="   21.486">  1  9  2 -1</clus>
<clus scale="   92.913">  7  8 -1 -1</clus>
<clus scale="   97.191">  5  6 -1 -1</clus>
<clus scale="  109.375">  1  7  2 -1</clus>
<clus scale="   21.486">  1  5  2 -1</clus>
</clustering>
</event>
<event>
 9    1  0.1175034E-005  0.9567485E+02  0.7546771E-02  0.1290556E+00
          2   -1    0    0  502    0  0.00000000000E+00  0.00000000000E+00  0.12393579976E+03  0.12393579976E+03  0.00000000000E+00 0. -1.
         -2   -1    0    0    0  501 -0.00000000000E+00 -0.00000000000E+00 -0.13248000811E+03  0.13248000811E+03  0.00000000000E+00 0.  1.
         23    2    1    2    0    0 -0.21907786871E+02 -0.76100820303E+01 -0.59699696392E+02  0.11024365381E+03  0.89731516101E+02 0.  0.
         23    2    1    2    0    0  0.48094922929E+02 -0.95119337632E+01  0.49287710931E+02  0.11482860431E+03  0.91393278873E+02 0.  0.
        -11    1    3    3    0    0 -0.39884731329E+02  0.30288708347E+02 -0.25950159446E+02  0.56405748127E+02  0.00000000000E+00 0. -1.
         11    1    3    3    0    0  0.17976944458E+02 -0.37898790378E+02 -0.33749536946E+02  0.53837905682E+02  0.00000000000E+00 0.  1.
        -11    1    4    4    0    0  0.66835819200E+02  0.36096300802E+00  0.65844615387E+01  0.67160346606E+02  0.00000000000E+00 0. -1.
         11    1    4    4    0    0 -0.18740896272E+02 -0.98728967712E+01  0.42703249392E+02  0.47668257703E+02  0.00000000000E+00 0.  1.
         21    1    1    2  502  501 -0.26187136057E+02  0.17122015793E+02  0.18677771118E+01  0.31343549752E+02  0.00000000000E+00 0.  1.
<scales pt_clust_5="13000.00000" pt_clust_6="13000.00000" pt_clust_7="13000.00000" pt_clust_8="13000.00000" pt_clust_9="31.28785"></scales>
<clustering>
<clus scale="   31.288">  1  9  2 -1</clus>
<clus scale="   89.732">  5  6 -1 -1</clus>
<clus scale="   91.393">  7  8 -1 -1</clus>
<clus scale="   94.089">  2  5  1 -1</clus>
<clus scale="   31.288">  1  5  2 -1</clus>
</clustering>
</event>
<event>
 9    1  0.1175034E-005  0.1468564E+03  0.7546771E-02  0.1204883E+00
         -2   -1    0    0    0  501 -0.00000000000E+00  0.00000000000E+00  0.52309656024E+02  0.52309656024E+02  0.00000000000E+00 0.  1.
          2   -1    0    0  502    0  0.00000000000E+00 -0.00000000000E+00 -0.81663869361E+03  0.81663869361E+03  0.00000000000E+00 0. -1.
         23    2    1    2    0    0 -0.10923043793E+03 -0.44609166855E+02 -0.26685533313E+03  0.30646568018E+03  0.93745282414E+02 0.  0.
         23    2    1    2    0    0  0.93452931777E+02  0.60338752123E+02 -0.51462494546E+03  0.53436657760E+03  0.91293971890E+02 0.  0.
        -11    1    3    3    0    0 -0.11596562425E+03 -0.11581877427E+02 -0.19670183134E+03  0.22863459131E+03  0.00000000000E+00 0.  1.
         11    1    3    3    0    0  0.67351863231E+01 -0.33027289428E+02 -0.70153501791E+02  0.77831088874E+02  0.00000000000E+00 0. -1.
        -13    1    4    4    0    0  0.90731016405E+01 -0.23308499766E+02 -0.96401155020E+02  0.99593122373E+02  0.00000000000E+00 0.  1.
         13    1    4    4    0    0  0.84379830136E+02  0.83647251889E+02 -0.41822379044E+03  0.43477345523E+03  0.00000000000E+00 0. -1.
         21    1    1    2  502  501  0.15777506151E+02 -0.15729585268E+02  0.17151241000E+02  0.28116091849E+02  0.00000000000E+00 0.  1.
<scales pt_clust_5="13000.00000" pt_clust_6="13000.00000" pt_clust_7="13000.00000" pt_clust_8="13000.00000" pt_clust_9="22.27890"></scales>
<clustering>
<clus scale="   22.279">  1  9  2 -1</clus>
<clus scale="   91.294">  7  8 -1 -1</clus>
<clus scale="   93.745">  5  6 -1 -1</clus>
<clus scale="  145.304">  2  7  1 -1</clus>
<clus scale="  145.304">  2  5  1 -1</clus>
</clustering>
</event>
<event>
 9    1  0.1175034E-005  0.1203455E+03  0.7546771E-02  0.1248387E+00
         -1   -1    0    0    0  501 -0.00000000000E+00  0.00000000000E+00  0.71272176350E+02  0.71272176350E+02  0.00000000000E+00 0.  1.
          1   -1    0    0  502    0  0.00000000000E+00 -0.00000000000E+00 -0.39707933459E+03  0.39707933459E+03  0.00000000000E+00 0. -1.
         23    2    1    2    0    0 -0.78655864240E+02 -0.37543122380E+02 -0.11768647417E+03  0.17258234594E+03  0.91314450724E+02 0.  0.
         23    2    1    2    0    0  0.42065212857E+02 -0.45662375906E+01 -0.21069433054E+03  0.23992386419E+03  0.10668189643E+03 0.  0.
        -11    1    3    3    0    0  0.47950759378E+01  0.21961854097E+02 -0.31321309155E+02  0.38553082832E+02  0.00000000000E+00 0.  1.
         11    1    3    3    0    0 -0.83450940177E+02 -0.59504976477E+02 -0.86365165011E+02  0.13402926311E+03  0.00000000000E+00 0. -1.
        -13    1    4    4    0    0 -0.18157916210E+02  0.30051682791E+02 -0.12376849898E+03  0.12865245780E+03  0.00000000000E+00 0. -1.
         13    1    4    4    0    0  0.60223129067E+02 -0.34617920382E+02 -0.86925831565E+02  0.11127140639E+03  0.00000000000E+00 0.  1.
         21    1    1    2  502  501  0.36590651382E+02  0.42109359971E+02  0.25736464739E+01  0.55845300804E+02  0.00000000000E+00 0.  1.
<scales pt_clust_5="13000.00000" pt_clust_6="13000.00000" pt_clust_7="13000.00000" pt_clust_8="13000.00000" pt_clust_9="55.78597"></scales>
<clustering>
<clus scale="   55.786">  1  9  2 -1</clus>
<clus scale="   91.314">  5  6 -1 -1</clus>
<clus scale="  106.682">  7  8 -1 -1</clus>
<clus scale="  106.959">  1  5  2 -1</clus>
<clus scale="  120.345">  2  5  1 -1</clus>
</clustering>
</event>
<event>
 9    1  0.1175034E-005  0.1269100E+03  0.7546771E-02  0.1232276E+00
         -1   -1    0    0    0  501 -0.00000000000E+00  0.00000000000E+00  0.65272795686E+02  0.65272795686E+02  0.00000000000E+00 0.  1.
          1   -1    0    0  502    0  0.00000000000E+00 -0.00000000000E+00 -0.52164057964E+03  0.52164057964E+03  0.00000000000E+00 0. -1.
         23    2    1    2    0    0  0.81219585077E+02  0.21335661963E+02 -0.66415345364E+02  0.13979429249E+03  0.89886676663E+02 0.  0.
         23    2    1    2    0    0 -0.91145223555E+02  0.70304213763E+01 -0.39608690168E+03  0.41644687032E+03  0.90478083052E+02 0.  0.
        -11    1    3    3    0    0  0.78075136936E+02 -0.12593426048E+02 -0.18878210976E+02  0.81306261978E+02  0.00000000000E+00 0.  1.
         11    1    3    3    0    0  0.31444481410E+01  0.33929088011E+02 -0.47537134389E+02  0.58488030512E+02  0.00000000000E+00 0. -1.
        -13    1    4    4    0    0  0.14301909880E+02  0.17184761463E+02 -0.80974227674E+02  0.84004084425E+02  0.00000000000E+00 0.  1.
         13    1    4    4    0    0 -0.10544713343E+03 -0.10154340087E+02 -0.31511267401E+03  0.33244278589E+03  0.00000000000E+00 0. -1.
         21    1    1    2  502  501  0.99256384779E+01 -0.28366083339E+02  0.61344630921E+01  0.30672212516E+02  0.00000000000E+00 0. -1.
<scales pt_clust_5="13000.00000" pt_clust_6="13000.00000" pt_clust_7="13000.00000" pt_clust_8="13000.00000" pt_clust_9="30.05250"></scales>
<clustering>
<clus scale="   30.053">  1  9  2 -1</clus>
<clus scale="   89.887">  5  6 -1 -1</clus>
<clus scale="   90.478">  7  8 -1 -1</clus>
<clus scale="  126.489">  1  5  2 -1</clus>
<clus scale="  126.910">  2  5  1 -1</clus>
</clustering>
</event>
<event>
 9    1  0.1175034E-005  0.1018679E+03  0.7546771E-02  0.1280687E+00
          1   -1    0    0  502    0  0.00000000000E+00  0.00000000000E+00  0.21441295010E+03  0.21441295010E+03  0.00000000000E+00 0. -1.
         -1   -1    0    0    0  501 -0.00000000000E+00 -0.00000000000E+00 -0.85836624903E+02  0.85836624903E+02  0.00000000000E+00 0.  1.
         23    2    1    2    0    0 -0.40345921701E+02  0.74307622785E+01  0.64409756419E+02  0.12357516236E+03  0.97155516593E+02 0.  0.
         23    2    1    2    0    0  0.20158686061E+02 -0.16002648302E+02  0.99049050384E+02  0.13547017456E+03  0.88763711266E+02 0.  0.
        -11    1    4    4    0    0 -0.82447651234E+01  0.20147683830E+02 -0.44502019745E+01  0.22219577252E+02  0.00000000000E+00 0.  1.
         11    1    4    4    0    0  0.28403451184E+02 -0.36150332132E+02  0.10349925236E+03  0.11325059731E+03  0.00000000000E+00 0. -1.
        -13    1    3    3    0    0  0.17570637649E+02  0.14200764198E+02  0.61131190495E+02  0.65172167852E+02  0.00000000000E+00 0. -1.
         13    1    3    3    0    0 -0.57916559351E+02 -0.67700019198E+01  0.32785659243E+01  0.58402994508E+02  0.00000000000E+00 0.  1.
         21    1    1    2  502  501  0.20187235640E+02  0.85718860238E+01 -0.34882481606E+02  0.41204238080E+02  0.00000000000E+00 0.  1.
<scales pt_clust_5="13000.00000" pt_clust_6="13000.00000" pt_clust_7="13000.00000" pt_clust_8="13000.00000" pt_clust_9="21.93175"></scales>
<clustering>
<clus scale="   21.932">  2  9  1 -1</clus>
<clus scale="   88.764">  5  6 -1 -1</clus>
<clus scale="   93.898">  1  5  2 -1</clus>
<clus scale="   97.156">  7  8 -1 -1</clus>
<clus scale="   93.898">  1  5  2 -1</clus>
</clustering>
</event>
<event>
 9    1  0.1175034E-005  0.1278107E+03  0.7546771E-02  0.1236799E+00
          1   -1    0    0  502    0  0.00000000000E+00  0.00000000000E+00  0.59992805816E+03  0.59992805816E+03  0.00000000000E+00 0. -1.
         -1   -1    0    0    0  501 -0.00000000000E+00 -0.00000000000E+00 -0.40183818657E+02  0.40183818657E+02  0.00000000000E+00 0.  1.
         23    2    1    2    0    0  0.29035243423E+02  0.62324579204E+02  0.10339056998E+03  0.16528303238E+03  0.10909386920E+03 0.  0.
         23    2    1    2    0    0 -0.41489509364E+02 -0.46218515787E+02  0.39932843198E+03  0.41427810756E+03  0.91135192064E+02 0.  0.
        -11    1    3    3    0    0  0.48631908330E+02 -0.50806002466E+01  0.75068333521E+02  0.89588669508E+02  0.00000000000E+00 0.  1.
         11    1    3    3    0    0 -0.19596664908E+02  0.67405179451E+02  0.28322236458E+02  0.75694362870E+02  0.00000000000E+00 0. -1.
        -13    1    4    4    0    0  0.28175352694E+02 -0.14378601060E+02  0.15615193042E+03  0.15932363303E+03  0.00000000000E+00 0.  1.
         13    1    4    4    0    0 -0.69664862058E+02 -0.31839914727E+02  0.24317650156E+03  0.25495447453E+03  0.00000000000E+00 0. -1.
         21    1    1    2  502  501  0.12454265941E+02 -0.16106063417E+02  0.57025237544E+02  0.60550736873E+02  0.00000000000E+00 0. -1.
<scales pt_clust_5="13000.00000" pt_clust_6="13000.00000" pt_clust_7="13000.00000" pt_clust_8="13000.00000" pt_clust_9="20.35962"></scales>
<clustering>
<clus scale="   20.360">  1  9  2 -1</clus>
<clus scale="   91.135">  7  8 -1 -1</clus>
<clus scale="  109.094">  5  6 -1 -1</clus>
<clus scale="  112.870">  1  7  2 -1</clus>
<clus scale="   20.360">  1  5  2 -1</clus>
</clustering>
</event>
<event>
 9    1  0.1175034E-005  0.1052417E+03  0.7546771E-02  0.1271078E+00
         -1   -1    0    0    0  501 -0.00000000000E+00  0.00000000000E+00  0.15340509835E+03  0.15340509835E+03  0.00000000000E+00 0.  1.
          1   -1    0    0  502    0  0.00000000000E+00 -0.00000000000E+00 -0.23191022901E+03  0.23191022901E+03  0.00000000000E+00 0. -1.
         23    2    1    2    0    0  0.26573065820E+02 -0.13876413921E+02  0.48232876249E+02  0.10445873335E+03  0.87672880252E+02 0.  0.
         23    2    1    2    0    0  0.62793488362E+02  0.32579059547E+02 -0.14752147056E+03  0.18721834156E+03  0.91014866026E+02 0.  0.
        -11    1    4    4    0    0 -0.17728211209E+02  0.27657856912E+02 -0.58412894850E+02  0.67017257527E+02  0.00000000000E+00 0.  1.
         11    1    4    4    0    0  0.80521699571E+02  0.49212026341E+01 -0.89108575714E+02  0.12020108403E+03  0.00000000000E+00 0. -1.
        -11    1    3    3    0    0  0.42049503658E+02 -0.42652093221E+02  0.33374036148E+02  0.68565210587E+02  0.00000000000E+00 0.  1.
         11    1    3    3    0    0 -0.15476437838E+02  0.28775679299E+02  0.14858840101E+02  0.35893522764E+02  0.00000000000E+00 0. -1.
         21    1    1    2  502  501 -0.89366554182E+02 -0.18702645625E+02  0.20783463661E+02  0.93638252448E+02  0.00000000000E+00 0.  1.
<scales pt_clust_5="13000.00000" pt_clust_6="13000.00000" pt_clust_7="13000.00000" pt_clust_8="13000.00000" pt_clust_9="91.30263"></scales>
<clustering>
<clus scale="   87.673">  7  8 -1 -1</clus>
<clus scale="   91.015">  5  6 -1 -1</clus>
<clus scale="   91.303">  1  9  2 -1</clus>
<clus scale="  102.365">  1  7  2 -1</clus>
<clus scale="  105.242">  2  5  1 -1</clus>
</clustering>
</event>
<event>
 9    1  0.1175034E-005  0.1022095E+03  0.7546771E-02  0.1279674E+00
          1   -1    0    0  502    0  0.00000000000E+00  0.00000000000E+00  0.69142081722E+03  0.69142081722E+03  0.00000000000E+00 0. -1.
         -1   -1    0    0    0  501 -0.00000000000E+00 -0.00000000000E+00 -0.56365632590E+02  0.56365632590E+02  0.00000000000E+00 0.  1.
         23    2    1    2    0    0 -0.59349636234E+02 -0.72734133997E+02  0.28674349557E+03  0.31426157629E+03  0.87896942577E+02 0.  0.
         23    2    1    2    0    0 -0.19337767213E+01  0.88652625489E+01  0.32916492523E+03  0.34296280635E+03  0.95872864605E+02 0.  0.
        -11    1    4    4    0    0 -0.27609550504E+02 -0.33219309633E+02  0.10691685828E+03  0.11531272435E+03  0.00000000000E+00 0. -1.
         11    1    4    4    0    0  0.25675773783E+02  0.42084572182E+02  0.22224806695E+03  0.22765008200E+03  0.00000000000E+00 0.  1.
        -11    1    3    3    0    0 -0.54954337164E+02 -0.34375497583E+01  0.16699293650E+03  0.17583639203E+03  0.00000000000E+00 0.  1.
         11    1    3    3    0    0 -0.43952990704E+01 -0.69296584239E+02  0.11975055907E+03  0.13842518426E+03  0.00000000000E+00 0. -1.
         21    1    1    2  502  501  0.61283412955E+02  0.63868871448E+02  0.19146763832E+02  0.90562067163E+02  0.00000000000E+00 0.  1.
<scales pt_clust_5="13000.00000" pt_clust_6="13000.00000" pt_clust_7="13000.00000" pt_clust_8="13000.00000" pt_clust_9="88.51491"></scales>
<clustering>
<clus scale="   87.897">  7  8 -1 -1</clus>
<clus scale="   88.515">  2  9  1 -1</clus>
<clus scale="   94.768">  2  7  1 -1</clus>
<clus scale="   95.873">  5  6 -1 -1</clus>
<clus scale="  102.210">  1  5  2 -1</clus>
</clustering>
</event>
<event>
 9    1  0.1175034E-005  0.1147717E+03  0.7546771E-02  0.1252700E+00
         -1   -1    0    0    0  501 -0.00000000000E+00  0.00000000000E+00  0.81418286093E+02  0.81418286093E+02  0.00000000000E+00 0.  1.
          1   -1    0    0  502    0  0.00000000000E+00 -0.00000000000E+00 -0.40050686328E+03  0.40050686328E+03  0.00000000000E+00 0. -1.
         23    2    1    2    0    0  0.82794611404E+02  0.15887360245E+01 -0.12151722826E+03  0.17308462562E+03  0.91292820640E+02 0.  0.
         23    2    1    2    0    0 -0.59209624818E+02  0.37201343377E+01 -0.23760557555E+03  0.26207328097E+03  0.93307963205E+02 0.  0.
        -11    1    4    4    0    0 -0.65935953181E+02  0.28561357518E+02 -0.10655446595E+03  0.12851908527E+03  0.00000000000E+00 0. -1.
         11    1    4    4    0    0  0.67263283632E+01 -0.24841223180E+02 -0.13105110960E+03  0.13355419570E+03  0.00000000000E+00 0.  1.
        -13    1    3    3    0    0  0.16472052904E+02 -0.32120801367E+02 -0.73859290259E+01  0.36845981530E+02  0.00000000000E+00 0.  1.
         13    1    3    3    0    0  0.66322558501E+02  0.33709537392E+02 -0.11413129923E+03  0.13623864409E+03  0.00000000000E+00 0. -1.
         21    1    1    2  502  501 -0.23584986587E+02 -0.53088703622E+01  0.40034226620E+02  0.46767242787E+02  0.00000000000E+00 0.  1.
<scales pt_clust_5="13000.00000" pt_clust_6="13000.00000" pt_clust_7="13000.00000" pt_clust_8="13000.00000" pt_clust_9="24.17510"></scales>
<clustering>
<clus scale="   24.175">  1  9  2 -1</clus>
<clus scale="   91.293">  7  8 -1 -1</clus>
<clus scale="   93.308">  5  6 -1 -1</clus>
<clus scale="  113.140">  1  7  2 -1</clus>
<clus scale="  114.772">  2  5  1 -1</clus>
</clustering>
</event>
<event>
 9    1  0.1175034E-005  0.2347703E+03  0.7546771E-02  0.1150798E+00
         -1   -1    0    0    0  501 -0.00000000000E+00  0.00000000000E+00  0.27344324434E+03  0.27344324434E+03  0.00000000000E+00 0.  1.
          1   -1    0    0  502    0  0.00000000000E+00 -0.00000000000E+00 -0.59182616141E+03  0.59182616141E+03  0.00000000000E+00 0. -1.
         23    2    1    2    0    0 -0.49215859959E+01  0.72016934206E+02  0.13217111516E+03  0.17891419192E+03  0.96594117658E+02 0.  0.
         23    2    1    2    0    0  0.17767764610E+03 -0.14444151105E+03 -0.43266933435E+03  0.49818019411E+03  0.92455702243E+02 0.  0.
        -11    1    3    3    0    0 -0.12199602237E+02  0.35692581233E+02  0.13650001388E+03  0.14161583400E+03  0.00000000000E+00 0.  1.
         11    1    3    3    0    0  0.72780162412E+01  0.36324352973E+02 -0.43288987216E+01  0.37298357920E+02  0.00000000000E+00 0. -1.
        -13    1    4    4    0    0  0.18570557162E+03 -0.12079286269E+03 -0.39716772350E+03  0.45477431282E+03  0.00000000000E+00 0. -1.
         13    1    4    4    0    0 -0.80279255274E+01 -0.23648648361E+02 -0.35501610845E+02  0.43405881285E+02  0.00000000000E+00 0.  1.
         21    1    1    2  502  501 -0.17275606010E+03  0.72424576848E+02 -0.17884697884E+02  0.18817501973E+03  0.00000000000E+00 0.  1.
<scales pt_clust_5="13000.00000" pt_clust_6="13000.00000" pt_clust_7="13000.00000" pt_clust_8="13000.00000" pt_clust_9="215.79863"></scales>
<clustering>
<clus scale="   92.456">  7  8 -1 -1</clus>
<clus scale="   96.594">  5  6 -1 -1</clus>
<clus scale="  120.586">  1  5  2 -1</clus>
<clus scale="  215.799">  1  9  2 -1</clus>
<clus scale="  234.770">  2  5  1 -1</clus>
</clustering>
</event>
<event>
 9    1  0.1175034E-005  0.9700559E+02  0.7546771E-02  0.1287390E+00
         -1   -1    0    0    0  501 -0.00000000000E+00  0.00000000000E+00  0.19689694513E+03  0.19689694513E+03  0.00000000000E+00 0.  1.
          1   -1    0    0  502    0  0.00000000000E+00 -0.00000000000E+00 -0.22190374236E+03  0.22190374236E+03  0.00000000000E+00 0. -1.
         23    2    1    2    0    0  0.13806110817E+02 -0.79874644177E+01  0.21295968763E+02  0.95077445875E+02  0.91278662045E+02 0.  0.
         23    2    1    2    0    0 -0.29073084231E+02 -0.17143565067E+02 -0.17005358054E+03  0.19652688467E+03  0.92549716879E+02 0.  0.
        -11    1    3    3    0    0 -0.28707150337E+02  0.22962548630E+02  0.21310774292E+02  0.42491507633E+02  0.00000000000E+00 0.  1.
         11    1    3    3    0    0  0.42513261153E+02 -0.30950013047E+02 -0.14805529352E-01  0.52585938241E+02  0.00000000000E+00 0. -1.
        -11    1    4    4    0    0 -0.10152027737E+02  0.25164578504E+02 -0.84676147941E+01  0.28425695748E+02  0.00000000000E+00 0.  1.
         11    1    4    4    0    0 -0.18921056495E+02 -0.42308143572E+02 -0.16158596575E+03  0.16810118892E+03  0.00000000000E+00 0. -1.
         21    1    1    2  502  501  0.15266973415E+02  0.25131029485E+02  0.12375081455E+03  0.12719635695E+03  0.00000000000E+00 0.  1.
<scales pt_clust_5="13000.00000" pt_clust_6="13000.00000" pt_clust_7="13000.00000" pt_clust_8="13000.00000" pt_clust_9="29.40492"></scales>
<clustering>
<clus scale="   29.405">  1  9  2 -1</clus>
<clus scale="   91.279">  5  6 -1 -1</clus>
<clus scale="   92.550">  7  8 -1 -1</clus>
<clus scale="   95.794">  1  5  2 -1</clus>
<clus scale="   97.006">  2  5  1 -1</clus>
</clustering>
</event>
<event>
 9    1  0.1175034E-005  0.9520624E+02  0.7546771E-02  0.1291020E+00
          2   -1    0    0  502    0  0.00000000000E+00  0.00000000000E+00  0.12001509866E+03  0.12001509866E+03  0.00000000000E+00 0. -1.
         -2   -1    0    0    0  501 -0.00000000000E+00 -0.00000000000E+00 -0.17993009136E+03  0.17993009136E+03  0.00000000000E+00 0.  1.
         23    2    1    2    0    0  0.18607085049E+01 -0.10392775812E+02  0.11045193190E+02  0.92858753166E+02  0.91593011315E+02 0.  0.
         23    2    1    2    0    0  0.99021217693E+01  0.39784986509E+02  0.27590942630E+02  0.10357512753E+03  0.91025544553E+02 0.  0.
        -13    1    4    4    0    0  0.41595102158E+02  0.93653657926E+01 -0.12153528043E+02  0.44334758868E+02  0.00000000000E+00 0.  1.
         13    1    4    4    0    0 -0.31692980389E+02  0.30419620717E+02  0.39744470673E+02  0.59240368665E+02  0.00000000000E+00 0. -1.
        -13    1    3    3    0    0  0.32805745563E+02  0.33578281731E+01 -0.26495169904E+02  0.42302316487E+02  0.00000000000E+00 0.  1.
         13    1    3    3    0    0 -0.30945037058E+02 -0.13750603985E+02  0.37540363093E+02  0.50556436679E+02  0.00000000000E+00 0. -1.
         21    1    1    2  502  501 -0.11762830274E+02 -0.29392210698E+02 -0.98551128520E+02  0.10351130933E+03  0.00000000000E+00 0.  1.
<scales pt_clust_5="13000.00000" pt_clust_6="13000.00000" pt_clust_7="13000.00000" pt_clust_8="13000.00000" pt_clust_9="31.65859"></scales>
<clustering>
<clus scale="   31.659">  2  9  1 -1</clus>
<clus scale="   91.026">  5  6 -1 -1</clus>
<clus scale="   91.593">  7  8 -1 -1</clus>
<clus scale="   94.660">  1  5  2 -1</clus>
<clus scale="   94.660">  1  5  2 -1</clus>
</clustering>
</event>
<event>
 9    1  0.1175034E-005  0.1192771E+03  0.7546771E-02  0.1246203E+00
         -2   -1    0    0    0  501 -0.00000000000E+00  0.00000000000E+00  0.13751490437E+03  0.13751490437E+03  0.00000000000E+00 0.  1.
          2   -1    0    0  502    0  0.00000000000E+00 -0.00000000000E+00 -0.21615593974E+03  0.21615593974E+03  0.00000000000E+00 0. -1.
         23    2    1    2    0    0 -0.54496796465E+02 -0.35669282649E+00  0.30139554672E+02  0.10843000703E+03  0.88761735077E+02 0.  0.
         23    2    1    2    0    0  0.78168830701E+02 -0.82155008430E+01 -0.15184271940E+03  0.19535902984E+03  0.94504383805E+02 0.  0.
        -13    1    4    4    0    0  0.17859792328E+02  0.40699437649E+02 -0.44698669088E+02  0.63034811217E+02  0.00000000000E+00 0.  1.
         13    1    4    4    0    0  0.60309038373E+02 -0.48914938492E+02 -0.10714405031E+03  0.13232421862E+03  0.00000000000E+00 0. -1.
        -13    1    3    3    0    0 -0.18477315144E+02  0.43388583943E+02  0.18004060516E+02  0.50478971726E+02  0.00000000000E+00 0.  1.
         13    1    3    3    0    0 -0.36019481322E+02 -0.43745276769E+02  0.12135494156E+02  0.57951035303E+02  0.00000000000E+00 0. -1.
         21    1    1    2  502  501 -0.23672034236E+02  0.85721936695E+01  0.43062129360E+02  0.49881807246E+02  0.00000000000E+00 0. -1.
<scales pt_clust_5="13000.00000" pt_clust_6="13000.00000" pt_clust_7="13000.00000" pt_clust_8="13000.00000" pt_clust_9="25.17633"></scales>
<clustering>
<clus scale="   25.176">  1  9  2 -1</clus>
<clus scale="   88.762">  7  8 -1 -1</clus>
<clus scale="   94.504">  5  6 -1 -1</clus>
<clus scale="  114.781">  1  7  2 -1</clus>
<clus scale="  119.277">  2  5  1 -1</clus>
</clustering>
</event>
<event>
 9    1  0.1175034E-005  0.1575299E+03  0.7546771E-02  0.1191765E+00
          1   -1    0    0  502    0  0.00000000000E+00  0.00000000000E+00  0.16162377639E+03  0.16162377639E+03  0.00000000000E+00 0. -1.
         -1   -1    0    0    0  501 -0.00000000000E+00 -0.00000000000E+00 -0.19033797175E+03  0.19033797175E+03  0.00000000000E+00 0.  1.
         23    2    1    2    0    0 -0.13939879061E+03 -0.22527792714E+02 -0.43868430433E+02  0.17395567538E+03  0.91633037384E+02 0.  0.
         23    2    1    2    0    0  0.11699703495E+03  0.29471933177E+02  0.24832592565E+02  0.15263423115E+03  0.90131292194E+02 0.  0.
        -13    1    3    3    0    0 -0.20811964085E+02  0.31688450830E+02 -0.11237216179E+02  0.39542013005E+02  0.00000000000E+00 0. -1.
         13    1    3    3    0    0 -0.11858682652E+03 -0.54216243544E+02 -0.32631214255E+02  0.13441366237E+03  0.00000000000E+00 0.  1.
        -13    1    4    4    0    0  0.35337169093E+02 -0.32559454199E+02  0.82567530961E+01  0.48754564391E+02  0.00000000000E+00 0.  1.
         13    1    4    4    0    0  0.81659865854E+02  0.62031387377E+02  0.16575839469E+02  0.10387966676E+03  0.00000000000E+00 0. -1.
         21    1    1    2  502  501  0.22401755661E+02 -0.69441404634E+01 -0.96783574905E+01  0.25371841620E+02  0.00000000000E+00 0. -1.
<scales pt_clust_5="13000.00000" pt_clust_6="13000.00000" pt_clust_7="13000.00000" pt_clust_8="13000.00000" pt_clust_9="23.45335"></scales>
<clustering>
<clus scale="   23.453">  2  9  1 -1</clus>
<clus scale="   90.131">  7  8 -1 -1</clus>
<clus scale="   91.633">  5  6 -1 -1</clus>
<clus scale="  156.661">  1  7  2 -1</clus>
<clus scale="  156.661">  1  5  2 -1</clus>
</clustering>
</event>
<event>
 9    1  0.1175034E-005  0.1058206E+03  0.7546771E-02  0.1269709E+00
          1   -1    0    0  502    0  0.00000000000E+00  0.00000000000E+00  0.31732541279E+03  0.31732541279E+03  0.00000000000E+00 0. -1.
         -1   -1    0    0    0  501 -0.00000000000E+00 -0.00000000000E+00 -0.25052737461E+03  0.25052737461E+03  0.00000000000E+00 0.  1.
         23    2    1    2    0    0 -0.78882865069E+02  0.23695172942E+02 -0.18276236426E+03  0.22066545027E+03  0.92234437883E+02 0.  0.
         23    2    1    2    0    0  0.46256971158E+02 -0.20339513832E+02  0.28256412486E+03  0.30065825918E+03  0.89439929286E+02 0.  0.
        -11    1    4    4    0    0 -0.21372524366E+02 -0.98130819958E-01  0.21886481024E+02  0.30591052271E+02  0.00000000000E+00 0.  1.
         11    1    4    4    0    0  0.67629495524E+02 -0.20241383012E+02  0.26067764383E+03  0.27006720691E+03  0.00000000000E+00 0. -1.
        -11    1    3    3    0    0 -0.87694408099E+02 -0.12312955171E+01 -0.96301866411E+02  0.13025311810E+03  0.00000000000E+00 0.  1.
         11    1    3    3    0    0  0.88115430302E+01  0.24926468459E+02 -0.86460497850E+02  0.90412332173E+02  0.00000000000E+00 0. -1.
         21    1    1    2  502  501  0.32625893911E+02 -0.33556591101E+01 -0.33003722421E+02  0.46529077953E+02  0.00000000000E+00 0. -1.
<scales pt_clust_5="13000.00000" pt_clust_6="13000.00000" pt_clust_7="13000.00000" pt_clust_8="13000.00000" pt_clust_9="32.79801"></scales>
<clustering>
<clus scale="   32.798">  2  9  1 -1</clus>
<clus scale="   89.440">  5  6 -1 -1</clus>
<clus scale="   92.234">  7  8 -1 -1</clus>
<clus scale="  103.394">  1  5  2 -1</clus>
<clus scale="  103.394">  1  5  2 -1</clus>
</clustering>
</event>
<event>
 9    1  0.1719940E-005  0.9336090E+02  0.7546771E-02  0.1296186E+00
          2   -1    0    0  502    0  0.00000000000E+00  0.00000000000E+00  0.21195840922E+03  0.21195840922E+03  0.00000000000E+00 0. -1.
         -2   -1    0    0    0  501 -0.00000000000E+00 -0.00000000000E+00 -0.10768566622E+03  0.10768566622E+03  0.00000000000E+00 0.  1.
         23    2    1    2    0    0  0.13568212714E+02 -0.10704706133E+02 -0.57536339419E+02  0.11026076786E+03  0.92457122203E+02 0.  0.
         23    2    1    2    0    0  0.93075557538E+01 -0.10608087371E+02  0.15065841081E+03  0.17618882871E+03  0.90251783930E+02 0.  0.
        -11    1    3    3    0    0 -0.34367999912E+02  0.16798584278E+02 -0.17798843837E+02  0.42191832072E+02  0.00000000000E+00 0. -1.
         11    1    3    3    0    0  0.47936212625E+02 -0.27503290412E+02 -0.39737495582E+02  0.68068935789E+02  0.00000000000E+00 0.  1.
        -13    1    4    4    0    0  0.47906156886E+02  0.77607192366E+01  0.76623062430E+02  0.90699075667E+02  0.00000000000E+00 0.  1.
         13    1    4    4    0    0 -0.38598601133E+02 -0.18368806607E+02  0.74035348380E+02  0.85489753043E+02  0.00000000000E+00 0. -1.
         21    1    1    2  502  501 -0.22875768467E+02  0.21312793504E+02  0.11150671609E+02  0.33194478867E+02  0.00000000000E+00 0. -1.
<scales pt_clust_5="13000.00000" pt_clust_6="13000.00000" pt_clust_7="13000.00000" pt_clust_8="13000.00000" pt_clust_9="31.26557"></scales>
<clustering>
<clus scale="   31.266">  1  9  2 -1</clus>
<clus scale="   90.252">  7  8 -1 -1</clus>
<clus scale="   91.177">  1  7  2 -1</clus>
<clus scale="   92.457">  5  6 -1 -1</clus>
<clus scale="   31.266">  1  5  2 -1</clus>
</clustering>
</event>
<event>
 9    1  0.1175034E-005  0.1342807E+03  0.7546771E-02  0.1238911E+00
          1   -1    0    0  502    0  0.00000000000E+00  0.00000000000E+00  0.30479033191E+03  0.30479033191E+03  0.00000000000E+00 0. -1.
         -1   -1    0    0    0  501 -0.00000000000E+00 -0.00000000000E+00 -0.14651955869E+03  0.14651955869E+03  0.00000000000E+00 0.  1.
         23    2    1    2    0    0 -0.18883595949E+02  0.22439088814E+02  0.28958363299E+02  0.97621570290E+02  0.88494526826E+02 0.  0.
         23    2    1    2    0    0  0.92523492892E+02  0.44427803720E+02  0.19294107717E+03  0.23560943551E+03  0.88040447299E+02 0.  0.
        -11    1    3    3    0    0 -0.16519627927E+02 -0.23487553408E+02 -0.16366882675E+02  0.33052051682E+02  0.00000000000E+00 0. -1.
         11    1    3    3    0    0 -0.23639680219E+01  0.45926642222E+02  0.45325245974E+02  0.64569518608E+02  0.00000000000E+00 0.  1.
        -13    1    4    4    0    0  0.73760002773E+02  0.27032608474E+02  0.56438409977E+02  0.96729489044E+02  0.00000000000E+00 0.  1.
         13    1    4    4    0    0  0.18763490119E+02  0.17395195246E+02  0.13650266719E+03  0.13887994646E+03  0.00000000000E+00 0. -1.
         21    1    1    2  502  501 -0.73639896943E+02 -0.66866892534E+02 -0.63628667248E+02  0.11807888480E+03  0.00000000000E+00 0.  1.
<scales pt_clust_5="13000.00000" pt_clust_6="13000.00000" pt_clust_7="13000.00000" pt_clust_8="13000.00000" pt_clust_9="101.39125"></scales>
<clustering>
<clus scale="   88.040">  7  8 -1 -1</clus>
<clus scale="   88.495">  5  6 -1 -1</clus>
<clus scale="   93.228">  2  5  1 -1</clus>
<clus scale="  101.391">  2  9  1 -1</clus>
<clus scale="  134.281">  1  5  2 -1</clus>
</clustering>
</event>
<event>
 9    1  0.1175034E-005  0.2050533E+03  0.7546771E-02  0.1145863E+00
         -1   -1    0    0    0  501 -0.00000000000E+00  0.00000000000E+00  0.68165835471E+03  0.68165835471E+03  0.00000000000E+00 0.  1.
          1   -1    0    0  502    0  0.00000000000E+00 -0.00000000000E+00 -0.24258488193E+03  0.24258488193E+03  0.00000000000E+00 0. -1.
         23    2    1    2    0    0  0.15600428865E+03 -0.46018677217E+02  0.50384328363E+03  0.53807739804E+03  0.95990494804E+02 0.  0.
         23    2    1    2    0    0 -0.16234170286E+03  0.84776405265E+02 -0.17464427296E+03  0.26948369890E+03  0.92622753788E+02 0.  0.
        -11    1    4    4    0    0 -0.14730876919E+03  0.51360813721E+02 -0.17278851194E+03  0.23279535331E+03  0.00000000000E+00 0. -1.
         11    1    4    4    0    0 -0.15032933670E+02  0.33415591544E+02 -0.18557610195E+01  0.36688345587E+02  0.00000000000E+00 0.  1.
        -11    1    3    3    0    0  0.97892905466E+02 -0.23918226320E+02  0.16318879618E+03  0.19179594805E+03  0.00000000000E+00 0. -1.
         11    1    3    3    0    0  0.58111383184E+02 -0.22100450897E+02  0.34065448745E+03  0.34628144999E+03  0.00000000000E+00 0.  1.
         21    1    1    2  502  501  0.63374142053E+01 -0.38757728048E+02  0.10987446211E+03  0.11668213970E+03  0.00000000000E+00 0.  1.
<scales pt_clust_5="13000.00000" pt_clust_6="13000.00000" pt_clust_7="13000.00000" pt_clust_8="13000.00000" pt_clust_9="39.27244"></scales>
<clustering>
<clus scale="   39.272">  1  9  2 -1</clus>
<clus scale="   92.623">  5  6 -1 -1</clus>
<clus scale="   95.990">  7  8 -1 -1</clus>
<clus scale="  203.499">  2  5  1 -1</clus>
<clus scale="  203.499">  2  5  1 -1</clus>
</clustering>
</event>
<event>
 9    1  0.1175034E-005  0.9686066E+02  0.7546771E-02  0.1289584E+00
         -1   -1    0    0    0  501 -0.00000000000E+00  0.00000000000E+00  0.30514082921E+02  0.30514082921E+02  0.00000000000E+00 0.  1.
          1   -1    0    0  502    0  0.00000000000E+00 -0.00000000000E+00 -0.45238453384E+03  0.45238453384E+03  0.00000000000E+00 0. -1.
         23    2    1    2    0    0  0.29330639517E+02 -0.30529739562E+02 -0.18275063806E+03  0.20902040837E+03  0.92192103734E+02 0.  0.
         23    2    1    2    0    0 -0.26201011382E+02 -0.25806062487E+01 -0.21247344502E+03  0.23126226665E+03  0.87430650292E+02 0.  0.
        -11    1    4    4    0    0 -0.42043296822E+02  0.25548561705E+02 -0.17508003237E+03  0.18186089614E+03  0.00000000000E+00 0.  1.
         11    1    4    4    0    0  0.15842285440E+02 -0.28129167954E+02 -0.37393412651E+02  0.49401370501E+02  0.00000000000E+00 0. -1.
        -13    1    3    3    0    0  0.50305543076E+02 -0.50567136542E+02 -0.14310374088E+03  0.15989485175E+03  0.00000000000E+00 0. -1.
         13    1    3    3    0    0 -0.20974903559E+02  0.20037396981E+02 -0.39646897181E+02  0.49125556619E+02  0.00000000000E+00 0.  1.
         21    1    1    2  502  501 -0.31296281347E+01  0.33110345810E+02 -0.26646367843E+02  0.42615941749E+02  0.00000000000E+00 0.  1.
<scales pt_clust_5="13000.00000" pt_clust_6="13000.00000" pt_clust_7="13000.00000" pt_clust_8="13000.00000" pt_clust_9="33.25792"></scales>
<clustering>
<clus scale="   33.258">  1  9  2 -1</clus>
<clus scale="   87.431">  5  6 -1 -1</clus>
<clus scale="   92.192">  7  8 -1 -1</clus>
<clus scale="   92.340">  2  5  1 -1</clus>
<clus scale="   92.340">  2  5  1 -1</clus>
</clustering>
</event>
<event>
 9    1  0.1175034E-005  0.1058659E+03  0.7546771E-02  0.1268963E+00
         -2   -1    0    0    0  501 -0.00000000000E+00  0.00000000000E+00  0.20118403703E+03  0.20118403703E+03  0.00000000000E+00 0.  1.
          2   -1    0    0  502    0  0.00000000000E+00 -0.00000000000E+00 -0.10398723364E+03  0.10398723364E+03  0.00000000000E+00 0. -1.
         23    2    1    2    0    0  0.13723413253E+02  0.67717944840E+02  0.52701883227E+01  0.11479280494E+03  0.91518091412E+02 0.  0.
         23    2    1    2    0    0 -0.21476215141E+02 -0.34525130039E+02  0.74179974596E+01  0.99254509816E+02  0.90239783974E+02 0.  0.
        -11    1    4    4    0    0 -0.10255303827E+01 -0.46860457735E+02 -0.29428931135E+02  0.55344522759E+02  0.00000000000E+00 0. -1.
         11    1    4    4    0    0 -0.20450684758E+02  0.12335327696E+02  0.36846928595E+02  0.43909987057E+02  0.00000000000E+00 0.  1.
        -13    1    3    3    0    0  0.96420254609E+01 -0.22435427830E+02  0.62415719151E+00  0.24427579682E+02  0.00000000000E+00 0. -1.
         13    1    3    3    0    0  0.40813877923E+01  0.90153372670E+02  0.46460311312E+01  0.90365225255E+02  0.00000000000E+00 0.  1.
         21    1    1    2  502  501  0.77528018876E+01 -0.33192814801E+02  0.84508617605E+02  0.91123955912E+02  0.00000000000E+00 0. -1.
<scales pt_clust_5="13000.00000" pt_clust_6="13000.00000" pt_clust_7="13000.00000" pt_clust_8="13000.00000" pt_clust_9="34.08620"></scales>
<clustering>
<clus scale="   34.086">  1  9  2 -1</clus>
<clus scale="   90.240">  5  6 -1 -1</clus>
<clus scale="   91.518">  7  8 -1 -1</clus>
<clus scale="  104.763">  2  5  1 -1</clus>
<clus scale="  104.763">  2  5  1 -1</clus>
</clustering>
</event>
<event>
 9    1  0.1175034E-005  0.1276177E+03  0.7546771E-02  0.1231313E+00
         -2   -1    0    0    0  501 -0.00000000000E+00  0.00000000000E+00  0.94671636970E+02  0.94671636970E+02  0.00000000000E+00 0.  1.
          2   -1    0    0  502    0  0.00000000000E+00 -0.00000000000E+00 -0.32486983406E+03  0.32486983406E+03  0.00000000000E+00 0. -1.
         23    2    1    2    0    0 -0.53646116895E+02  0.96332257846E+02 -0.73655269792E+02  0.16118153824E+03  0.91632852959E+02 0.  0.
         23    2    1    2    0    0  0.28474641979E+02 -0.74899515178E+02 -0.18067629804E+03  0.21742846335E+03  0.90611640485E+02 0.  0.
        -11    1    4    4    0    0 -0.25151252035E+02 -0.13330178861E+02 -0.13769095676E+02  0.31620675880E+02  0.00000000000E+00 0.  1.
         11    1    4    4    0    0  0.53625894014E+02 -0.61569336317E+02 -0.16690720236E+03  0.18580778747E+03  0.00000000000E+00 0. -1.
        -13    1    3    3    0    0 -0.12281010746E+02  0.68886868399E+02  0.27940794274E+01  0.70028785101E+02  0.00000000000E+00 0.  1.
         13    1    3    3    0    0 -0.41365106149E+02  0.27445389446E+02 -0.76449349219E+02  0.91152753138E+02  0.00000000000E+00 0. -1.
         21    1    1    2  502  501  0.25171474916E+02 -0.21432742668E+02  0.24133370739E+02  0.40931469445E+02  0.00000000000E+00 0.  1.
<scales pt_clust_5="13000.00000" pt_clust_6="13000.00000" pt_clust_7="13000.00000" pt_clust_8="13000.00000" pt_clust_9="33.06003"></scales>
<clustering>
<clus scale="   33.060">  1  9  2 -1</clus>
<clus scale="   90.612">  5  6 -1 -1</clus>
<clus scale="   91.633">  7  8 -1 -1</clus>
<clus scale="  126.886">  2  5  1 -1</clus>
<clus scale="  126.886">  2  5  1 -1</clus>
</clustering>
</event>
<event>
 9    1  0.1175034E-005  0.9593387E+02  0.7546771E-02  0.1289714E+00
         -1   -1    0    0    0  501 -0.00000000000E+00  0.00000000000E+00  0.90825750269E+02  0.90825750269E+02  0.00000000000E+00 0.  1.
          1   -1    0    0  502    0  0.00000000000E+00 -0.00000000000E+00 -0.17393518657E+03  0.17393518657E+03  0.00000000000E+00 0. -1.
         23    2    1    2    0    0  0.22520463235E+02  0.38507051638E+02 -0.32637675561E+02  0.10545960029E+03  0.89813947341E+02 0.  0.
         23    2    1    2    0    0 -0.35224206442E+01 -0.22369300269E+02 -0.78138584027E+02  0.12206149562E+03  0.90997677758E+02 0.  0.
        -11    1    4    4    0    0  0.15098708758E+02  0.31748641820E+02 -0.19850769081E+02  0.40373262150E+02  0.00000000000E+00 0. -1.
         11    1    4    4    0    0 -0.18621129402E+02 -0.54117942089E+02 -0.58287814946E+02  0.81688233469E+02  0.00000000000E+00 0.  1.
        -13    1    3    3    0    0  0.51054171770E+02  0.20282064897E+01 -0.29595643471E+02  0.59046965960E+02  0.00000000000E+00 0. -1.
         13    1    3    3    0    0 -0.28533708535E+02  0.36478845148E+02 -0.30420320900E+01  0.46412634329E+02  0.00000000000E+00 0.  1.
         21    1    1    2  502  501 -0.18998042591E+02 -0.16137751368E+02  0.27666823289E+02  0.37239840929E+02  0.00000000000E+00 0.  1.
<scales pt_clust_5="13000.00000" pt_clust_6="13000.00000" pt_clust_7="13000.00000" pt_clust_8="13000.00000" pt_clust_9="24.92695"></scales>
<clustering>
<clus scale="   24.927">  1  9  2 -1</clus>
<clus scale="   89.814">  7  8 -1 -1</clus>
<clus scale="   90.998">  5  6 -1 -1</clus>
<clus scale="   94.812">  1  7  2 -1</clus>
<clus scale="   95.934">  2  5  1 -1</clus>
</clustering>
</event>
<event>
 9    1  0.1175034E-005  0.2221548E+03  0.7546771E-02  0.1151625E+00
          1   -1    0    0  502    0  0.00000000000E+00  0.00000000000E+00  0.11353712524E+04  0.11353712524E+04  0.00000000000E+00 0. -1.
         -1   -1    0    0    0  501 -0.00000000000E+00 -0.00000000000E+00 -0.12383181652E+03  0.12383181652E+03  0.00000000000E+00 0.  1.
         23    2    1    2    0    0 -0.10637143310E+03 -0.57985429452E+00 -0.15917098304E+02  0.14046779840E+03  0.90347276425E+02 0.  0.
         23    2    1    2    0    0 -0.95611992461E+02 -0.14316362236E+03  0.36324971754E+03  0.40977110601E+03  0.79526889497E+02 0.  0.
        -11    1    4    4    0    0 -0.18625215823E+01 -0.51812989057E+02  0.15842365523E+03  0.16669165953E+03  0.00000000000E+00 0. -1.
         11    1    4    4    0    0 -0.93749470878E+02 -0.91350633306E+02  0.20482606231E+03  0.24307944647E+03  0.00000000000E+00 0.  1.
        -13    1    3    3    0    0 -0.61870390647E+02  0.12935344026E+02  0.34388781640E+02  0.71957325316E+02  0.00000000000E+00 0. -1.
         13    1    3    3    0    0 -0.44501042457E+02 -0.13515198321E+02 -0.50305879943E+02  0.68510473085E+02  0.00000000000E+00 0.  1.
         21    1    1    2  502  501  0.20198342556E+03  0.14374347666E+03  0.66420681661E+03  0.70896416448E+03  0.00000000000E+00 0. -1.
<scales pt_clust_5="13000.00000" pt_clust_6="13000.00000" pt_clust_7="13000.00000" pt_clust_8="13000.00000" pt_clust_9="207.43247"></scales>
<clustering>
<clus scale="   79.527">  5  6 -1 -1</clus>
<clus scale="   90.347">  7  8 -1 -1</clus>
<clus scale="  139.563">  2  7  1 -1</clus>
<clus scale="  207.432">  2  9  1 -1</clus>
<clus scale="  222.155">  1  5  2 -1</clus>
</clustering>
</event>
<event>
 9    1  0.1175034E-005  0.1899209E+03  0.7546771E-02  0.1158632E+00
         -2   -1    0    0    0  501 -0.00000000000E+00  0.00000000000E+00  0.58884617271E+02  0.58884617271E+02  0.00000000000E+00 0.  1.
          2   -1    0    0  502    0  0.00000000000E+00 -0.00000000000E+00 -0.83732240858E+03  0.83732240858E+03  0.00000000000E+00 0. -1.
         23    2    1    2    0    0  0.87274960871E+02 -0.11361684844E+03 -0.16998246999E+03  0.23985262889E+03  0.90052964624E+02 0.  0.
         23    2    1    2    0    0 -0.98759423199E+02  0.14855994511E+03 -0.56491843720E+03  0.59935989583E+03  0.90972320411E+02 0.  0.
        -11    1    3    3    0    0  0.19287624540E+02 -0.91412414112E+02 -0.12226948023E+03  0.15387679393E+03  0.00000000000E+00 0. -1.
         11    1    3    3    0    0  0.67987336332E+02 -0.22204434326E+02 -0.47712989753E+02  0.85975834956E+02  0.00000000000E+00 0.  1.
        -13    1    4    4    0    0 -0.42244341080E+02  0.86463837742E+02 -0.16756249434E+03  0.19322983491E+03  0.00000000000E+00 0.  1.
         13    1    4    4    0    0 -0.56515082119E+02  0.62096107372E+02 -0.39735594286E+03  0.40613006092E+03  0.00000000000E+00 0. -1.
         21    1    1    2  502  501  0.11484462328E+02 -0.34943096675E+02 -0.43536884127E+02  0.56994501136E+02  0.00000000000E+00 0.  1.
<scales pt_clust_5="13000.00000" pt_clust_6="13000.00000" pt_clust_7="13000.00000" pt_clust_8="13000.00000" pt_clust_9="36.78196"></scales>
<clustering>
<clus scale="   36.782">  1  9  2 -1</clus>
<clus scale="   90.053">  5  6 -1 -1</clus>
<clus scale="   90.972">  7  8 -1 -1</clus>
<clus scale="  189.482">  1  5  2 -1</clus>
<clus scale="  189.921">  2  5  1 -1</clus>
</clustering>
</event>
<event>
 9    1  0.1175034E-005  0.3311321E+03  0.7546771E-02  0.1070681E+00
          3   -1    0    0  502    0  0.00000000000E+00  0.00000000000E+00  0.78260369623E+03  0.78260369623E+03  0.00000000000E+00 0. -1.
         -3   -1    0    0    0  501 -0.00000000000E+00 -0.00000000000E+00 -0.15547899821E+03  0.15547899821E+03  0.00000000000E+00 0.  1.
         23    2    1    2    0    0 -0.10088900840E+03 -0.29245156026E+03  0.27335601309E+03  0.42230058605E+03  0.88925631666E+02 0.  0.
         23    2    1    2    0    0  0.13443400212E+03  0.29924637087E+03  0.33070763957E+03  0.47451168475E+03  0.90404118765E+02 0.  0.
        -13    1    3    3    0    0 -0.30637531152E+02 -0.93659171079E+02  0.14547593375E+03  0.17570983450E+03  0.00000000000E+00 0.  1.
         13    1    3    3    0    0 -0.70251477251E+02 -0.19879238918E+03  0.12788007934E+03  0.24659075154E+03  0.00000000000E+00 0. -1.
        -13    1    4    4    0    0  0.20261818533E+01  0.28388806879E+02  0.71345556721E+02  0.76812878039E+02  0.00000000000E+00 0. -1.
         13    1    4    4    0    0  0.13240782027E+03  0.27085756399E+03  0.25936208285E+03  0.39769880671E+03  0.00000000000E+00 0.  1.
         21    1    1    2  502  501 -0.33544993720E+02 -0.67948106095E+01  0.23061045359E+02  0.41270423647E+02  0.00000000000E+00 0. -1.
<scales pt_clust_5="13000.00000" pt_clust_6="13000.00000" pt_clust_7="13000.00000" pt_clust_8="13000.00000" pt_clust_9="34.22625"></scales>
<clustering>
<clus scale="   34.226">  2  9  1 -1</clus>
<clus scale="   88.926">  5  6 -1 -1</clus>
<clus scale="   90.404">  7  8 -1 -1</clus>
<clus scale="  330.731">  2  5  1 -1</clus>
<clus scale="  331.132">  1  5  2 -1</clus>
</clustering>
</event>
<event>
 9    1  0.1175034E-005  0.1560197E+03  0.7546771E-02  0.1193959E+00
          2   -1    0    0  502    0  0.00000000000E+00  0.00000000000E+00  0.49737268483E+03  0.49737268483E+03  0.00000000000E+00 0. -1.
         -2   -1    0    0    0  501 -0.00000000000E+00 -0.00000000000E+00 -0.82253649024E+02  0.82253649024E+02  0.00000000000E+00 0.  1.
         23    2    1    2    0    0 -0.13522700489E+03 -0.72571281860E+02  0.20765713148E+03  0.27438813453E+03  0.92813955378E+02 0.  0.
         23    2    1    2    0    0  0.10029245847E+03  0.24578780411E+02  0.20063784103E+03  0.24548645820E+03  0.96671424067E+02 0.  0.
        -11    1    4    4    0    0  0.61079835053E+02 -0.23701470422E+02  0.15519042676E+03  0.16845347877E+03  0.00000000000E+00 0.  1.
         11    1    4    4    0    0  0.39212623418E+02  0.48280250833E+02  0.45447414270E+02  0.77032979429E+02  0.00000000000E+00 0. -1.
        -13    1    3    3    0    0 -0.13707292713E+03 -0.34780054140E+02  0.16749436595E+03  0.21920994992E+03  0.00000000000E+00 0.  1.
         13    1    3    3    0    0  0.18459222459E+01 -0.37791227720E+02  0.40162765535E+02  0.55178184611E+02  0.00000000000E+00 0. -1.
         21    1    1    2  502  501  0.34934546414E+02  0.47992501449E+02  0.68240632929E+01  0.59751741132E+02  0.00000000000E+00 0. -1.
<scales pt_clust_5="13000.00000" pt_clust_6="13000.00000" pt_clust_7="13000.00000" pt_clust_8="13000.00000" pt_clust_9="59.36078"></scales>
<clustering>
<clus scale="   59.361">  2  9  1 -1</clus>
<clus scale="   92.814">  7  8 -1 -1</clus>
<clus scale="   96.671">  5  6 -1 -1</clus>
<clus scale="  153.659">  2  7  1 -1</clus>
<clus scale="  156.020">  1  5  2 -1</clus>
</clustering>
</event>
<event>
 9    1  0.1175034E-005  0.1168238E+03  0.7546771E-02  0.1249894E+00
         -1   -1    0    0    0  501 -0.00000000000E+00  0.00000000000E+00  0.25205322175E+03  0.25205322175E+03  0.00000000000E+00 0.  1.
          1   -1    0    0  502    0  0.00000000000E+00 -0.00000000000E+00 -0.89513452707E+02  0.89513452707E+02  0.00000000000E+00 0. -1.
         23    2    1    2    0    0  0.39674293789E+01 -0.48541538928E+02  0.12382344003E+03  0.16157822804E+03  0.91669285907E+02 0.  0.
         23    2    1    2    0    0 -0.18198060442E+02  0.71703898054E+02 -0.12819828526E+02  0.12172197858E+03  0.95808526055E+02 0.  0.
        -11    1    3    3    0    0  0.34763367953E+02  0.93445561729E+01  0.60650791193E+02  0.70528936996E+02  0.00000000000E+00 0. -1.
         11    1    3    3    0    0 -0.30795938574E+02 -0.57886095101E+02  0.63172648834E+02  0.91049291043E+02  0.00000000000E+00 0.  1.
        -11    1    4    4    0    0 -0.33575987167E+01 -0.21204996083E+02  0.11758043913E+02  0.24478090708E+02  0.00000000000E+00 0.  1.
         11    1    4    4    0    0 -0.14840461725E+02  0.92908894137E+02 -0.24577872438E+02  0.97243887868E+02  0.00000000000E+00 0. -1.
         21    1    1    2  502  501  0.14230631063E+02 -0.23162359126E+02  0.51536157539E+02  0.58266467840E+02  0.00000000000E+00 0.  1.
<scales pt_clust_5="13000.00000" pt_clust_6="13000.00000" pt_clust_7="13000.00000" pt_clust_8="13000.00000" pt_clust_9="27.18466"></scales>
<clustering>
<clus scale="   27.185">  1  9  2 -1</clus>
<clus scale="   91.669">  5  6 -1 -1</clus>
<clus scale="   95.809">  7  8 -1 -1</clus>
<clus scale="  113.454">  1  5  2 -1</clus>
<clus scale="  116.824">  2  5  1 -1</clus>
</clustering>
</event>
<event>
 9    1  0.1175034E-005  0.2070613E+03  0.7546771E-02  0.1143962E+00
          2   -1    0    0  502    0  0.00000000000E+00  0.00000000000E+00  0.91051941264E+03  0.91051941264E+03  0.00000000000E+00 0. -1.
         -2   -1    0    0    0  501 -0.00000000000E+00 -0.00000000000E+00 -0.12523434237E+03  0.12523434237E+03  0.00000000000E+00 0.  1.
         23    2    1    2    0    0  0.95882131453E+02  0.16127107155E+03  0.11340164394E+03  0.23708994604E+03  0.90277173283E+02 0.  0.
         23    2    1    2    0    0 -0.11454201820E+03 -0.14696083280E+03  0.71784187772E+03  0.74703868368E+03  0.89735573696E+02 0.  0.
        -11    1    3    3    0    0  0.21016974284E+02  0.29751710432E+02 -0.14243046182E+02  0.39111914376E+02  0.00000000000E+00 0.  1.
         11    1    3    3    0    0  0.74865157169E+02  0.13151936112E+03  0.12764469012E+03  0.19797803167E+03  0.00000000000E+00 0. -1.
        -11    1    4    4    0    0 -0.60677192750E+02 -0.20981212862E+02  0.15521030825E+03  0.16796479631E+03  0.00000000000E+00 0.  1.
         11    1    4    4    0    0 -0.53864825454E+02 -0.12597961994E+03  0.56263156947E+03  0.57907388736E+03  0.00000000000E+00 0. -1.
         21    1    1    2  502  501  0.18659886751E+02 -0.14310238752E+02 -0.45958451390E+02  0.51625125287E+02  0.00000000000E+00 0. -1.
<scales pt_clust_5="13000.00000" pt_clust_6="13000.00000" pt_clust_7="13000.00000" pt_clust_8="13000.00000" pt_clust_9="23.51541"></scales>
<clustering>
<clus scale="   23.515">  2  9  1 -1</clus>
<clus scale="   89.736">  7  8 -1 -1</clus>
<clus scale="   90.277">  5  6 -1 -1</clus>
<clus scale="  206.826">  1  7  2 -1</clus>
<clus scale="  206.826">  1  5  2 -1</clus>
</clustering>
</event>
<event>
 9    1  0.1175034E-005  0.1360677E+03  0.7546771E-02  0.1219844E+00
          1   -1    0    0  502    0  0.00000000000E+00  0.00000000000E+00  0.32224421765E+03  0.32224421765E+03  0.00000000000E+00 0. -1.
         -1   -1    0    0    0  501 -0.00000000000E+00 -0.00000000000E+00 -0.10121161309E+03  0.10121161309E+03  0.00000000000E+00 0.  1.
         23    2    1    2    0    0 -0.79115295385E+01 -0.13504415577E+03  0.71221234705E+02  0.17718441271E+03  0.89567491463E+02 0.  0.
         23    2    1    2    0    0  0.25022670905E+02  0.78426383431E+02  0.13741497081E+03  0.18583935690E+03  0.94215501339E+02 0.  0.
        -13    1    3    3    0    0 -0.26292683537E+02 -0.23205563986E+02 -0.11458409739E+02  0.36893069284E+02  0.00000000000E+00 0.  1.
         13    1    3    3    0    0  0.18381153999E+02 -0.11183859179E+03  0.82679644444E+02  0.14029134343E+03  0.00000000000E+00 0. -1.
        -13    1    4    4    0    0  0.22479322305E+01  0.72337116300E+02  0.34345567795E+02  0.80108236912E+02  0.00000000000E+00 0. -1.
         13    1    4    4    0    0  0.22774738675E+02  0.60892671304E+01  0.10306940301E+03  0.10573111999E+03  0.00000000000E+00 0.  1.
         21    1    1    2  502  501 -0.17111141367E+02  0.56617772342E+02  0.12396399043E+02  0.60432061136E+02  0.00000000000E+00 0. -1.
<scales pt_clust_5="13000.00000" pt_clust_6="13000.00000" pt_clust_7="13000.00000" pt_clust_8="13000.00000" pt_clust_9="59.14696"></scales>
<clustering>
<clus scale="   59.147">  2  9  1 -1</clus>
<clus scale="   89.567">  5  6 -1 -1</clus>
<clus scale="   94.216">  7  8 -1 -1</clus>
<clus scale="  132.892">  2  5  1 -1</clus>
<clus scale="  136.068">  1  5  2 -1</clus>
</clustering>
</event>
<event>
 9    1  0.1175034E-005  0.9391927E+02  0.7546771E-02  0.1294958E+00
          1   -1    0    0  502    0  0.00000000000E+00  0.00000000000E+00  0.90322132902E+02  0.90322132902E+02  0.00000000000E+00 0. -1.
         -1   -1    0    0    0  501 -0.00000000000E+00 -0.00000000000E+00 -0.38439212659E+03  0.38439212659E+03  0.00000000000E+00 0.  1.
         23    2    1    2    0    0 -0.39091286166E+02 -0.54873013658E+01 -0.22011162925E+03  0.24191163263E+03  0.92270632052E+02 0.  0.
         23    2    1    2    0    0  0.14392737950E+02  0.43513217269E+01  0.51642167881E+02  0.10479168025E+03  0.89934964504E+02 0.  0.
        -11    1    3    3    0    0 -0.60787278643E+02  0.21816953570E+02 -0.15779302251E+03  0.17049841836E+03  0.00000000000E+00 0.  1.
         11    1    3    3    0    0  0.21695992477E+02 -0.27304254936E+02 -0.62318606741E+02  0.71413214276E+02  0.00000000000E+00 0. -1.
        -11    1    4    4    0    0 -0.14109131432E+01  0.31189121556E+02 -0.12387722842E+02  0.33588802547E+02  0.00000000000E+00 0.  1.
         11    1    4    4    0    0  0.15803651093E+02 -0.26837799829E+02  0.64029890723E+02  0.71202877706E+02  0.00000000000E+00 0. -1.
         21    1    1    2  502  501  0.24698548216E+02  0.11359796389E+01 -0.12560053231E+03  0.12801094661E+03  0.00000000000E+00 0. -1.
<scales pt_clust_5="13000.00000" pt_clust_6="13000.00000" pt_clust_7="13000.00000" pt_clust_8="13000.00000" pt_clust_9="24.72466"></scales>
<clustering>
<clus scale="   24.725">  2  9  1 -1</clus>
<clus scale="   89.935">  7  8 -1 -1</clus>
<clus scale="   91.626">  1  7  2 -1</clus>
<clus scale="   92.271">  5  6 -1 -1</clus>
<clus scale="   91.626">  1  5  2 -1</clus>
</clustering>
</event>
<event>
 9    1  0.1175034E-005  0.9890228E+02  0.7546771E-02  0.1284620E+00
          2   -1    0    0  502    0  0.00000000000E+00  0.00000000000E+00  0.30637255388E+03  0.30637255388E+03  0.00000000000E+00 0. -1.
         -2   -1    0    0    0  501 -0.00000000000E+00 -0.00000000000E+00 -0.56056937813E+02  0.56056937813E+02  0.00000000000E+00 0.  1.
         23    2    1    2    0    0 -0.18199430843E+02  0.84706164183E+01  0.50815634480E+02  0.10588638320E+03  0.90701305465E+02 0.  0.
         23    2    1    2    0    0  0.32303376917E+02  0.13955128023E+02  0.20590206996E+03  0.22928834664E+03  0.94547499876E+02 0.  0.
        -13    1    3    3    0    0  0.32581657718E+02  0.16857253371E+02  0.38058440264E+02  0.52859968655E+02  0.00000000000E+00 0. -1.
         13    1    3    3    0    0 -0.50781088561E+02 -0.83866369524E+01  0.12757194216E+02  0.53026414541E+02  0.00000000000E+00 0.  1.
        -13    1    4    4    0    0  0.45186549313E+02 -0.30033130981E+02  0.12575131977E+03  0.13695695536E+03  0.00000000000E+00 0. -1.
         13    1    4    4    0    0 -0.12883172396E+02  0.43988259004E+02  0.80150750185E+02  0.92331391284E+02  0.00000000000E+00 0.  1.
         21    1    1    2  502  501 -0.14103946074E+02 -0.22425744441E+02 -0.64020883699E+01  0.27254761861E+02  0.00000000000E+00 0.  1.
<scales pt_clust_5="13000.00000" pt_clust_6="13000.00000" pt_clust_7="13000.00000" pt_clust_8="13000.00000" pt_clust_9="26.49217"></scales>
<clustering>
<clus scale="   26.492">  2  9  1 -1</clus>
<clus scale="   90.701">  5  6 -1 -1</clus>
<clus scale="   94.547">  7  8 -1 -1</clus>
<clus scale="   95.232">  2  5  1 -1</clus>
<clus scale="   98.902">  1  5  2 -1</clus>
</clustering>
</event>
<event>
 9    1  0.1175034E-005  0.3469732E+03  0.7546771E-02  0.1065095E+00
          1   -1    0    0  502    0  0.00000000000E+00  0.00000000000E+00  0.49220223506E+03  0.49220223506E+03  0.00000000000E+00 0. -1.
         -1   -1    0    0    0  501 -0.00000000000E+00 -0.00000000000E+00 -0.72391335653E+03  0.72391335653E+03  0.00000000000E+00 0.  1.
         23    2    1    2    0    0  0.27311587789E+03  0.20752733036E+03 -0.25886224981E+03  0.43896773971E+03  0.89571962850E+02 0.  0.
         23    2    1    2    0    0 -0.23405958594E+03 -0.21708860127E+03  0.32728126414E+03  0.47433617731E+03  0.12637417726E+03 0.  0.
        -11    1    4    4    0    0 -0.21855731839E+02  0.20539863953E+01 -0.57702638686E+01  0.22697749215E+02  0.00000000000E+00 0.  1.
         11    1    4    4    0    0 -0.21220385411E+03 -0.21914258767E+03  0.33305152801E+03  0.45163842810E+03  0.00000000000E+00 0. -1.
        -13    1    3    3    0    0  0.16803767002E+02  0.52134725091E+02 -0.39216680972E+02  0.67367233966E+02  0.00000000000E+00 0. -1.
         13    1    3    3    0    0  0.25631211089E+03  0.15539260527E+03 -0.21964556884E+03  0.37160050575E+03  0.00000000000E+00 0.  1.
         21    1    1    2  502  501 -0.39056291947E+02  0.95612709151E+01 -0.30013013580E+03  0.30281167457E+03  0.00000000000E+00 0. -1.
<scales pt_clust_5="13000.00000" pt_clust_6="13000.00000" pt_clust_7="13000.00000" pt_clust_8="13000.00000" pt_clust_9="40.20960"></scales>
<clustering>
<clus scale="   40.210">  2  9  1 -1</clus>
<clus scale="   89.572">  7  8 -1 -1</clus>
<clus scale="  126.374">  5  6 -1 -1</clus>
<clus scale="  335.325">  2  7  1 -1</clus>
<clus scale="  346.973">  1  5  2 -1</clus>
</clustering>
</event>
<event>
 9    1  0.1175034E-005  0.9310487E+02  0.7546771E-02  0.1312467E+00
         -1   -1    0    0    0  501 -0.00000000000E+00  0.00000000000E+00  0.22146602911E+03  0.22146602911E+03  0.00000000000E+00 0.  1.
          1   -1    0    0  502    0  0.00000000000E+00 -0.00000000000E+00 -0.52019712414E+02  0.52019712414E+02  0.00000000000E+00 0. -1.
         23    2    1    2    0    0  0.34854086135E+02 -0.20285303052E+02  0.99435924259E+02  0.12478930109E+03  0.63706873988E+02 0.  0.
         23    2    1    2    0    0 -0.18357970093E+02 -0.95928930465E+01  0.31955217452E+02  0.97578686281E+02  0.89841112143E+02 0.  0.
        -13    1    3    3    0    0 -0.13302597284E+02 -0.21908956532E+02  0.23023573385E+02  0.34453539763E+02  0.00000000000E+00 0.  1.
         13    1    3    3    0    0  0.48156683419E+02  0.16236534796E+01  0.76412350875E+02  0.90335761328E+02  0.00000000000E+00 0. -1.
        -13    1    4    4    0    0  0.79607159504E+01 -0.46312925544E+02  0.17494657025E+02  0.50143026388E+02  0.00000000000E+00 0. -1.
         13    1    4    4    0    0 -0.26318686043E+02  0.36720032498E+02  0.14460560426E+02  0.47435659893E+02  0.00000000000E+00 0.  1.
         21    1    1    2  502  501 -0.16496116042E+02  0.29878196099E+02  0.38055174989E+02  0.51117754156E+02  0.00000000000E+00 0. -1.
<scales pt_clust_5="13000.00000" pt_clust_6="13000.00000" pt_clust_7="13000.00000" pt_clust_8="13000.00000" pt_clust_9="34.12958"></scales>
<clustering>
<clus scale="   34.130">  1  9  2 -1</clus>
<clus scale="   63.707">  5  6 -1 -1</clus>
<clus scale="   68.232">  1  5  2 -1</clus>
<clus scale="   89.841">  7  8 -1 -1</clus>
<clus scale="   93.105">  2  5  1 -1</clus>
</clustering>
</event>
<event>
 9    1  0.1175034E-005  0.9731466E+02  0.7546771E-02  0.1286593E+00
          2   -1    0    0  502    0  0.00000000000E+00  0.00000000000E+00  0.18674054658E+03  0.18674054658E+03  0.00000000000E+00 0. -1.
         -2   -1    0    0    0  501 -0.00000000000E+00 -0.00000000000E+00 -0.25169786795E+03  0.25169786795E+03  0.00000000000E+00 0.  1.
         23    2    1    2    0    0  0.56175015288E+02 -0.22089693266E+02 -0.15267440485E+03  0.18740765384E+03  0.90380130171E+02 0.  0.
         23    2    1    2    0    0 -0.31136184515E+02 -0.17465555842E+02  0.14689244415E+03  0.17557690666E+03  0.89304828398E+02 0.  0.
        -13    1    4    4    0    0  0.13839138774E+02 -0.40630202908E+02  0.47301087440E+02  0.63872748675E+02  0.00000000000E+00 0.  1.
         13    1    4    4    0    0 -0.44975323288E+02  0.23164647066E+02  0.99591356711E+02  0.11170415798E+03  0.00000000000E+00 0. -1.
        -13    1    3    3    0    0  0.73434118614E+02  0.37961867178E+01 -0.81722721381E+02  0.10993445320E+03  0.00000000000E+00 0.  1.
         13    1    3    3    0    0 -0.17259103327E+02 -0.25885879983E+02 -0.70951683471E+02  0.77473200641E+02  0.00000000000E+00 0. -1.
         21    1    1    2  502  501 -0.25038830773E+02  0.39555249108E+02 -0.59175360671E+02  0.75453854037E+02  0.00000000000E+00 0. -1.
<scales pt_clust_5="13000.00000" pt_clust_6="13000.00000" pt_clust_7="13000.00000" pt_clust_8="13000.00000" pt_clust_9="46.81411"></scales>
<clustering>
<clus scale="   46.814">  2  9  1 -1</clus>
<clus scale="   89.305">  5  6 -1 -1</clus>
<clus scale="   90.380">  7  8 -1 -1</clus>
<clus scale="   96.317">  1  5  2 -1</clus>
<clus scale="   96.317">  1  5  2 -1</clus>
</clustering>
</event>
<event>
 9    1  0.1175034E-005  0.1607577E+03  0.7546771E-02  0.1188444E+00
          1   -1    0    0  502    0  0.00000000000E+00  0.00000000000E+00  0.30718189534E+03  0.30718189534E+03  0.00000000000E+00 0. -1.
         -1   -1    0    0    0  501 -0.00000000000E+00 -0.00000000000E+00 -0.15157168295E+03  0.15157168295E+03  0.00000000000E+00 0.  1.
         23    2    1    2    0    0 -0.37142778440E+02 -0.12116374822E+03 -0.14572651789E+02  0.15552331430E+03  0.88965719458E+02 0.  0.
         23    2    1    2    0    0  0.10732964779E+03  0.10944408038E+03  0.11158083601E+03  0.21104704996E+03  0.92697973587E+02 0.  0.
        -11    1    4    4    0    0  0.95427038623E+02  0.83991524827E+02  0.12640868705E+03  0.17927646836E+03  0.00000000000E+00 0. -1.
         11    1    4    4    0    0  0.11902609167E+02  0.25452555549E+02 -0.14827851042E+02  0.31770581604E+02  0.00000000000E+00 0.  1.
        -11    1    3    3    0    0 -0.21657868576E+02 -0.33522379119E+02  0.35492515629E+02  0.53409098838E+02  0.00000000000E+00 0. -1.
         11    1    3    3    0    0 -0.15484909864E+02 -0.87641369104E+02 -0.50065167418E+02  0.10211421547E+03  0.00000000000E+00 0.  1.
         21    1    1    2  502  501 -0.70186869350E+02  0.11719667847E+02  0.58602028160E+02  0.92183214025E+02  0.00000000000E+00 0. -1.
<scales pt_clust_5="13000.00000" pt_clust_6="13000.00000" pt_clust_7="13000.00000" pt_clust_8="13000.00000" pt_clust_9="71.15861"></scales>
<clustering>
<clus scale="   71.159">  1  9  2 -1</clus>
<clus scale="   88.966">  7  8 -1 -1</clus>
<clus scale="   92.698">  5  6 -1 -1</clus>
<clus scale="  158.635">  2  7  1 -1</clus>
<clus scale="   71.159">  1  5  2 -1</clus>
</clustering>
</event>
<event>
 9    1  0.1175034E-005  0.1197175E+03  0.7546771E-02  0.1243583E+00
          1   -1    0    0  502    0  0.00000000000E+00  0.00000000000E+00  0.48033672566E+02  0.48033672566E+02  0.00000000000E+00 0. -1.
         -1   -1    0    0    0  501 -0.00000000000E+00 -0.00000000000E+00 -0.54251466992E+03  0.54251466992E+03  0.00000000000E+00 0.  1.
         23    2    1    2    0    0 -0.58246399040E+02  0.58645935474E+02 -0.37019405200E+03  0.39044632445E+03  0.92588916111E+02 0.  0.
         23    2    1    2    0    0  0.18061238899E+02 -0.57340964959E+02 -0.63765201512E+02  0.12744232137E+03  0.92527562045E+02 0.  0.
        -11    1    3    3    0    0  0.23721726971E+02  0.17238367967E+02 -0.57491821703E+02  0.64538292690E+02  0.00000000000E+00 0. -1.
         11    1    3    3    0    0 -0.81968126011E+02  0.41407567508E+02 -0.31270223030E+03  0.32590803176E+03  0.00000000000E+00 0.  1.
        -13    1    4    4    0    0 -0.31296650855E+02 -0.42647097821E+02 -0.52898230286E+02  0.74809612181E+02  0.00000000000E+00 0.  1.
         13    1    4    4    0    0  0.49357889754E+02 -0.14693867139E+02 -0.10866971226E+02  0.52632709184E+02  0.00000000000E+00 0. -1.
         21    1    1    2  502  501  0.40185160141E+02 -0.13049705151E+01 -0.60521743838E+02  0.72659696674E+02  0.00000000000E+00 0. -1.
<scales pt_clust_5="13000.00000" pt_clust_6="13000.00000" pt_clust_7="13000.00000" pt_clust_8="13000.00000" pt_clust_9="40.20634"></scales>
<clustering>
<clus scale="   40.206">  1  9  2 -1</clus>
<clus scale="   92.528">  7  8 -1 -1</clus>
<clus scale="   92.589">  5  6 -1 -1</clus>
<clus scale="  119.670">  1  7  2 -1</clus>
<clus scale="   40.206">  1  5  2 -1</clus>
</clustering>
</event>
<event>
 9    1  0.1175034E-005  0.1060046E+03  0.7546771E-02  0.1269860E+00
          1   -1    0    0  502    0  0.00000000000E+00  0.00000000000E+00  0.91572514881E+02  0.91572514881E+02  0.00000000000E+00 0. -1.
         -1   -1    0    0    0  501 -0.00000000000E+00 -0.00000000000E+00 -0.19944231725E+03  0.19944231725E+03  0.00000000000E+00 0.  1.
         23    2    1    2    0    0 -0.22661311526E+01 -0.28711450461E+02 -0.11323649173E+03  0.14771646948E+03  0.90377926280E+02 0.  0.
         23    2    1    2    0    0 -0.43968648730E+01  0.55165727838E+02  0.21775824179E+02  0.11146309898E+03  0.94272190841E+02 0.  0.
        -11    1    3    3    0    0 -0.32376871688E+02 -0.41305907096E+02 -0.99117592910E+02  0.11215496871E+03  0.00000000000E+00 0.  1.
         11    1    3    3    0    0  0.30110740535E+02  0.12594456635E+02 -0.14118898823E+02  0.35561500777E+02  0.00000000000E+00 0. -1.
        -13    1    4    4    0    0 -0.10699733335E+02  0.18500139569E+02 -0.36516370809E+02  0.42310575446E+02  0.00000000000E+00 0.  1.
         13    1    4    4    0    0  0.63028684624E+01  0.36665588269E+02  0.58292194988E+02  0.69152523530E+02  0.00000000000E+00 0. -1.
         21    1    1    2  502  501  0.66629960256E+01 -0.26454277377E+02 -0.16409134815E+02  0.31835263670E+02  0.00000000000E+00 0. -1.
<scales pt_clust_5="13000.00000" pt_clust_6="13000.00000" pt_clust_7="13000.00000" pt_clust_8="13000.00000" pt_clust_9="27.28047"></scales>
<clustering>
<clus scale="   27.280">  2  9  1 -1</clus>
<clus scale="   90.378">  5  6 -1 -1</clus>
<clus scale="   94.272">  7  8 -1 -1</clus>
<clus scale="  102.557">  2  5  1 -1</clus>
<clus scale="  106.005">  1  5  2 -1</clus>
</clustering>
</event>
<event>
 9    1  0.1175034E-005  0.1003379E+03  0.7546771E-02  0.1280332E+00
         -1   -1    0    0    0  501 -0.00000000000E+00  0.00000000000E+00  0.99401476000E+02  0.99401476000E+02  0.00000000000E+00 0.  1.
          1   -1    0    0  502    0  0.00000000000E+00 -0.00000000000E+00 -0.29967932739E+03  0.29967932739E+03  0.00000000000E+00 0. -1.
         23    2    1    2    0    0 -0.31520739731E+02 -0.19398712588E+01  0.41502976947E+02  0.10379265455E+03  0.89739054541E+02 0.  0.
         23    2    1    2    0    0  0.34176245468E+02 -0.27854990767E+02 -0.24505246499E+03  0.26519680257E+03  0.91294672518E+02 0.  0.
        -11    1    3    3    0    0  0.17713514061E+02  0.16904753302E+02 -0.13204240634E+02  0.27818900685E+02  0.00000000000E+00 0. -1.
         11    1    3    3    0    0 -0.49234253792E+02 -0.18844624561E+02  0.54707217581E+02  0.75973753868E+02  0.00000000000E+00 0.  1.
        -13    1    4    4    0    0  0.46517127012E+02  0.20867954422E+02 -0.11646713345E+03  0.12713735801E+03  0.00000000000E+00 0.  1.
         13    1    4    4    0    0 -0.12340881544E+02 -0.48722945190E+02 -0.12858533153E+03  0.13805944456E+03  0.00000000000E+00 0. -1.
         21    1    1    2  502  501 -0.26555057366E+01  0.29794862026E+02  0.32716366523E+01  0.30091346268E+02  0.00000000000E+00 0. -1.
<scales pt_clust_5="13000.00000" pt_clust_6="13000.00000" pt_clust_7="13000.00000" pt_clust_8="13000.00000" pt_clust_9="29.91297"></scales>
<clustering>
<clus scale="   29.913">  1  9  2 -1</clus>
<clus scale="   89.739">  5  6 -1 -1</clus>
<clus scale="   91.295">  7  8 -1 -1</clus>
<clus scale="   98.925">  1  5  2 -1</clus>
<clus scale="  100.338">  2  5  1 -1</clus>
</clustering>
</event>
<event>
 9    1  0.1175034E-005  0.1467187E+03  0.7546771E-02  0.1205062E+00
          1   -1    0    0  502    0  0.00000000000E+00  0.00000000000E+00  0.28692764056E+03  0.28692764056E+03  0.00000000000E+00 0. -1.
         -1   -1    0    0    0  501 -0.00000000000E+00 -0.00000000000E+00 -0.11660405721E+03  0.11660405721E+03  0.00000000000E+00 0.  1.
         23    2    1    2    0    0  0.89185611710E+02 -0.43131361584E+02  0.24895395871E+02  0.13663005848E+03  0.90739211238E+02 0.  0.
         23    2    1    2    0    0 -0.14023029560E+03  0.31882795649E+02  0.11551511856E+03  0.20667804191E+03  0.93225650585E+02 0.  0.
        -13    1    3    3    0    0  0.11974873258E+02  0.22606085398E+02 -0.12598355011E+02  0.28515806766E+02  0.00000000000E+00 0. -1.
         13    1    3    3    0    0  0.77210738452E+02 -0.65737446982E+02  0.37493750882E+02  0.10811425171E+03  0.00000000000E+00 0.  1.
        -13    1    4    4    0    0 -0.11418025485E+03  0.37534080595E+02  0.12941239959E+03  0.17661683660E+03  0.00000000000E+00 0. -1.
         13    1    4    4    0    0 -0.26050040758E+02 -0.56512849458E+01 -0.13897281022E+02  0.30061205312E+02  0.00000000000E+00 0.  1.
         21    1    1    2  502  501  0.51044683894E+02  0.11248565935E+02  0.29913068918E+02  0.60223597381E+02  0.00000000000E+00 0.  1.
<scales pt_clust_5="13000.00000" pt_clust_6="13000.00000" pt_clust_7="13000.00000" pt_clust_8="13000.00000" pt_clust_9="52.26940"></scales>
<clustering>
<clus scale="   52.269">  1  9  2 -1</clus>
<clus scale="   90.739">  5  6 -1 -1</clus>
<clus scale="   93.226">  7  8 -1 -1</clus>
<clus scale="  145.152">  2  5  1 -1</clus>
<clus scale="   52.269">  1  5  2 -1</clus>
</clustering>
</event>
<event>
 9    1  0.1175034E-005  0.9403603E+02  0.7546771E-02  0.1293642E+00
         -2   -1    0    0    0  501 -0.00000000000E+00  0.00000000000E+00  0.65947325969E+02  0.65947325969E+02  0.00000000000E+00 0.  1.
          2   -1    0    0  502    0  0.00000000000E+00 -0.00000000000E+00 -0.21001788132E+03  0.21001788132E+03  0.00000000000E+00 0. -1.
         23    2    1    2    0    0 -0.36570143377E+02  0.10589347536E+02 -0.53771836192E+02  0.11095686185E+03  0.89277685659E+02 0.  0.
         23    2    1    2    0    0  0.36840745659E+01 -0.33293542178E+02 -0.79059234642E+02  0.12349569690E+03  0.88762560881E+02 0.  0.
        -11    1    3    3    0    0 -0.56966599425E+02 -0.19917185657E+02 -0.32598305454E+02  0.68589629340E+02  0.00000000000E+00 0. -1.
         11    1    3    3    0    0  0.20396456048E+02  0.30506533193E+02 -0.21173530738E+02  0.42367232511E+02  0.00000000000E+00 0.  1.
        -13    1    4    4    0    0  0.35538881807E+02  0.36913137515E+01 -0.69197703457E+01  0.36393971190E+02  0.00000000000E+00 0.  1.
         13    1    4    4    0    0 -0.31854807241E+02 -0.36984855929E+02 -0.72139464297E+02  0.87101725709E+02  0.00000000000E+00 0. -1.
         21    1    1    2  502  501  0.32886068811E+02  0.22704194642E+02 -0.11239484513E+02  0.41512648534E+02  0.00000000000E+00 0.  1.
<scales pt_clust_5="13000.00000" pt_clust_6="13000.00000" pt_clust_7="13000.00000" pt_clust_8="13000.00000" pt_clust_9="39.96216"></scales>
<clustering>
<clus scale="   39.962">  1  9  2 -1</clus>
<clus scale="   88.763">  7  8 -1 -1</clus>
<clus scale="   89.278">  5  6 -1 -1</clus>
<clus scale="   93.547">  2  7  1 -1</clus>
<clus scale="   93.547">  2  5  1 -1</clus>
</clustering>
</event>
<event>
 9    1  0.1175034E-005  0.1604157E+03  0.7546771E-02  0.1188446E+00
          3   -1    0    0  502    0  0.00000000000E+00  0.00000000000E+00  0.27785652231E+03  0.27785652231E+03  0.00000000000E+00 0. -1.
         -3   -1    0    0    0  501 -0.00000000000E+00 -0.00000000000E+00 -0.25375499960E+03  0.25375499960E+03  0.00000000000E+00 0.  1.
         23    2    1    2    0    0 -0.12821723350E+03 -0.53418343262E+01  0.55818031562E+01  0.15754567214E+03  0.91221094726E+02 0.  0.
         23    2    1    2    0    0  0.13070499822E+03 -0.26599747880E+02  0.16062908647E+03  0.22838975080E+03  0.92567984213E+02 0.  0.
        -11    1    4    4    0    0  0.11257453961E+03 -0.37558522553E+02  0.16823535803E+03  0.20588056071E+03  0.00000000000E+00 0. -1.
         11    1    4    4    0    0  0.18130458606E+02  0.10958774673E+02 -0.76062715551E+01  0.22509190092E+02  0.00000000000E+00 0.  1.
        -13    1    3    3    0    0 -0.11533153156E+03  0.28883114356E+02 -0.63922932286E+01  0.11906493136E+03  0.00000000000E+00 0.  1.
         13    1    3    3    0    0 -0.12885701939E+02 -0.34224948682E+02  0.11974096385E+02  0.38480740780E+02  0.00000000000E+00 0. -1.
         21    1    1    2  502  501 -0.24877647228E+01  0.31941582206E+02 -0.14210936692E+03  0.14567609898E+03  0.00000000000E+00 0.  1.
<scales pt_clust_5="13000.00000" pt_clust_6="13000.00000" pt_clust_7="13000.00000" pt_clust_8="13000.00000" pt_clust_9="32.03832"></scales>
<clustering>
<clus scale="   32.038">  2  9  1 -1</clus>
<clus scale="   91.221">  7  8 -1 -1</clus>
<clus scale="   92.568">  5  6 -1 -1</clus>
<clus scale="  159.642">  2  7  1 -1</clus>
<clus scale="  160.416">  1  5  2 -1</clus>
</clustering>
</event>
<event>
 9    1  0.1175034E-005  0.1127632E+03  0.7546771E-02  0.1256629E+00
          1   -1    0    0  502    0  0.00000000000E+00  0.00000000000E+00  0.48996961473E+03  0.48996961473E+03  0.00000000000E+00 0. -1.
         -1   -1    0    0    0  501 -0.00000000000E+00 -0.00000000000E+00 -0.66079104080E+02  0.66079104080E+02  0.00000000000E+00 0.  1.
         23    2    1    2    0    0  0.50360568334E+02  0.54739373000E+02  0.91667422236E+02  0.15006722959E+03  0.92653501276E+02 0.  0.
         23    2    1    2    0    0 -0.65785224753E+02 -0.45489295765E+01  0.33538266097E+03  0.35337936440E+03  0.89705391989E+02 0.  0.
        -11    1    4    4    0    0 -0.70906600665E+02 -0.33905908528E+02  0.20300155393E+03  0.21768552443E+03  0.00000000000E+00 0.  1.
         11    1    4    4    0    0  0.51213759122E+01  0.29356978951E+02  0.13238110704E+03  0.13569383997E+03  0.00000000000E+00 0. -1.
        -13    1    3    3    0    0  0.65116593057E+02  0.34308162404E+01  0.45833955925E+02  0.79703781009E+02  0.00000000000E+00 0.  1.
         13    1    3    3    0    0 -0.14756024723E+02  0.51308556760E+02  0.45833466311E+02  0.70363448583E+02  0.00000000000E+00 0. -1.
         21    1    1    2  502  501  0.15424656419E+02 -0.50190443423E+02 -0.31595725512E+01  0.52602124818E+02  0.00000000000E+00 0.  1.
<scales pt_clust_5="13000.00000" pt_clust_6="13000.00000" pt_clust_7="13000.00000" pt_clust_8="13000.00000" pt_clust_9="52.50715"></scales>
<clustering>
<clus scale="   52.507">  2  9  1 -1</clus>
<clus scale="   89.705">  5  6 -1 -1</clus>
<clus scale="   92.654">  7  8 -1 -1</clus>
<clus scale="  110.354">  1  5  2 -1</clus>
<clus scale="  110.354">  1  5  2 -1</clus>
</clustering>
</event>
<event>
 9    1  0.1175034E-005  0.1079789E+03  0.7546771E-02  0.1266289E+00
          2   -1    0    0  502    0  0.00000000000E+00  0.00000000000E+00  0.88024804062E+02  0.88024804062E+02  0.00000000000E+00 0.  1.
         -2   -1    0    0    0  501 -0.00000000000E+00 -0.00000000000E+00 -0.22733883954E+03  0.22733883954E+03  0.00000000000E+00 0. -1.
         23    2    1    2    0    0  0.16737354647E+02  0.97788969482E+01 -0.84673982332E+02  0.12953753066E+03  0.96096423973E+02 0.  0.
         23    2    1    2    0    0 -0.57369281449E+02 -0.29095833214E+02  0.38998154706E+01  0.11199513218E+03  0.91596392432E+02 0.  0.
        -11    1    4    4    0    0 -0.69472222178E+02 -0.12409963491E+02 -0.26400193228E+02  0.75348304896E+02  0.00000000000E+00 0.  1.
         11    1    4    4    0    0  0.12102940730E+02 -0.16685869723E+02  0.30300008698E+02  0.36646827282E+02  0.00000000000E+00 0. -1.
        -11    1    3    3    0    0  0.18859257952E+02 -0.30933772659E+02 -0.75183696142E+00  0.36237206850E+02  0.00000000000E+00 0.  1.
         11    1    3    3    0    0 -0.21219033058E+01  0.40712669607E+02 -0.83922145371E+02  0.93300323814E+02  0.00000000000E+00 0. -1.
         21    1    1    2  502  501  0.40631926802E+02  0.19316936265E+02 -0.58539868613E+02  0.73830980757E+02  0.00000000000E+00 0. -1.
<scales pt_clust_5="13000.00000" pt_clust_6="13000.00000" pt_clust_7="13000.00000" pt_clust_8="13000.00000" pt_clust_9="44.98997"></scales>
<clustering>
<clus scale="   44.990">  2  9  1 -1</clus>
<clus scale="   91.596">  5  6 -1 -1</clus>
<clus scale="   96.096">  7  8 -1 -1</clus>
<clus scale="  103.994">  1  5  2 -1</clus>
<clus scale="  103.994">  1  5  2 -1</clus>
</clustering>
</event>
<event>
 9    1  0.1175034E-005  0.1367708E+03  0.7546771E-02  0.1218491E+00
         -1   -1    0    0    0  501 -0.00000000000E+00  0.00000000000E+00  0.39944819659E+03  0.39944819659E+03  0.00000000000E+00 0.  1.
          1   -1    0    0  502    0  0.00000000000E+00 -0.00000000000E+00 -0.57172041850E+02  0.57172041850E+02  0.00000000000E+00 0. -1.
         23    2    1    2    0    0  0.77849965255E+02 -0.49707356822E+02  0.17113283442E+03  0.21366159431E+03  0.88506448660E+02 0.  0.
         23    2    1    2    0    0 -0.10304991437E+03  0.51138697559E+02  0.14357111372E+03  0.20557799742E+03  0.91734383348E+02 0.  0.
        -11    1    3    3    0    0 -0.19426129610E+02 -0.50434009959E+01  0.18934406609E+02  0.27592066955E+02  0.00000000000E+00 0. -1.
         11    1    3    3    0    0  0.97276094865E+02 -0.44663955826E+02  0.15219842781E+03  0.18606952736E+03  0.00000000000E+00 0.  1.
        -11    1    4    4    0    0 -0.67911531127E+02  0.50358979322E+01  0.23139626822E+02  0.71922031794E+02  0.00000000000E+00 0. -1.
         11    1    4    4    0    0 -0.35138383243E+02  0.46102799627E+02  0.12043148690E+03  0.13365596563E+03  0.00000000000E+00 0.  1.
         21    1    1    2  502  501  0.25199949115E+02 -0.14313407370E+01  0.27572206595E+02  0.37380646707E+02  0.00000000000E+00 0.  1.
<scales pt_clust_5="13000.00000" pt_clust_6="13000.00000" pt_clust_7="13000.00000" pt_clust_8="13000.00000" pt_clust_9="25.24057"></scales>
<clustering>
<clus scale="   25.241">  2  9  1 -1</clus>
<clus scale="   88.506">  5  6 -1 -1</clus>
<clus scale="   91.734">  7  8 -1 -1</clus>
<clus scale="  134.627">  1  5  2 -1</clus>
<clus scale="   25.241">  2  5  1 -1</clus>
</clustering>
</event>
<event>
 9    1  0.1175034E-005  0.1050964E+03  0.7546771E-02  0.1270301E+00
         -3   -1    0    0    0  501 -0.00000000000E+00  0.00000000000E+00  0.10413023928E+03  0.10413023928E+03  0.00000000000E+00 0.  1.
          3   -1    0    0  502    0  0.00000000000E+00 -0.00000000000E+00 -0.40990716358E+03  0.40990716358E+03  0.00000000000E+00 0. -1.
         23    2    1    2    0    0 -0.46138392529E+01 -0.83904352836E+01  0.18066761437E+02  0.92444070169E+02  0.90154374956E+02 0.  0.
         23    2    1    2    0    0  0.54364786838E+02  0.23613359207E+02 -0.34776239161E+03  0.36433079093E+03  0.91022653335E+02 0.  0.
        -11    1    3    3    0    0 -0.44136660668E+02 -0.13237591614E+02  0.24374463635E+02  0.52128620969E+02  0.00000000000E+00 0.  1.
         11    1    3    3    0    0  0.39522821415E+02  0.48471563307E+01 -0.63077021987E+01  0.40315449199E+02  0.00000000000E+00 0. -1.
        -11    1    4    4    0    0  0.28717651164E+02  0.57481252781E+02 -0.24120090335E+03  0.24961304791E+03  0.00000000000E+00 0. -1.
         11    1    4    4    0    0  0.25647135674E+02 -0.33867893575E+02 -0.10656148826E+03  0.11471774302E+03  0.00000000000E+00 0.  1.
         21    1    1    2  502  501 -0.49750947585E+02 -0.15222923923E+02  0.23918705875E+02  0.57262541762E+02  0.00000000000E+00 0.  1.
<scales pt_clust_5="13000.00000" pt_clust_6="13000.00000" pt_clust_7="13000.00000" pt_clust_8="13000.00000" pt_clust_9="52.02782"></scales>
<clustering>
<clus scale="   52.028">  1  9  2 -1</clus>
<clus scale="   90.154">  5  6 -1 -1</clus>
<clus scale="   91.023">  7  8 -1 -1</clus>
<clus scale="  104.345">  1  5  2 -1</clus>
<clus scale="  105.096">  2  5  1 -1</clus>
</clustering>
</event>
<event>
 9    1  0.1175034E-005  0.1194257E+03  0.7546771E-02  0.1248954E+00
          1   -1    0    0  502    0  0.00000000000E+00  0.00000000000E+00  0.25049561718E+02  0.25049561718E+02  0.00000000000E+00 0. -1.
         -1   -1    0    0    0  501 -0.00000000000E+00 -0.00000000000E+00 -0.75932670554E+03  0.75932670554E+03  0.00000000000E+00 0.  1.
         23    2    1    2    0    0 -0.52849342985E+02 -0.18343835145E+02 -0.38580563775E+03  0.40042337111E+03  0.91451280328E+02 0.  0.
         23    2    1    2    0    0  0.42215958141E+02  0.44479344810E+02 -0.20827603432E+03  0.24094623882E+03  0.10447767366E+03 0.  0.
        -11    1    4    4    0    0 -0.20008970026E+02  0.40245747311E+02 -0.35550873810E+02  0.57305703790E+02  0.00000000000E+00 0. -1.
         11    1    4    4    0    0  0.62224928167E+02  0.42335974990E+01 -0.17272516051E+03  0.18364053503E+03  0.00000000000E+00 0.  1.
        -13    1    3    3    0    0 -0.20832371507E+02  0.36189242177E+02 -0.19467746709E+03  0.19910541215E+03  0.00000000000E+00 0. -1.
         13    1    3    3    0    0 -0.32016971478E+02 -0.54533077323E+02 -0.19112817065E+03  0.20131795897E+03  0.00000000000E+00 0.  1.
         21    1    1    2  502  501  0.10633384844E+02 -0.26135509665E+02 -0.14019547176E+03  0.14300665733E+03  0.00000000000E+00 0.  1.
<scales pt_clust_5="13000.00000" pt_clust_6="13000.00000" pt_clust_7="13000.00000" pt_clust_8="13000.00000" pt_clust_9="28.21584"></scales>
<clustering>
<clus scale="   28.216">  2  9  1 -1</clus>
<clus scale="   91.451">  7  8 -1 -1</clus>
<clus scale="  104.478">  5  6 -1 -1</clus>
<clus scale="  108.214">  2  7  1 -1</clus>
<clus scale="  119.426">  1  5  2 -1</clus>
</clustering>
</event>
<event>
 9    1  0.1917952E-005  0.1036229E+03  0.7546771E-02  0.1277148E+00
         -2   -1    0    0    0  501 -0.00000000000E+00  0.00000000000E+00  0.66094572858E+02  0.66094572858E+02  0.00000000000E+00 0.  1.
          2   -1    0    0  502    0  0.00000000000E+00 -0.00000000000E+00 -0.47487627516E+03  0.47487627516E+03  0.00000000000E+00 0. -1.
         23    2    1    2    0    0 -0.53243084265E+02 -0.11394158442E+01 -0.20628483796E+02  0.11535183363E+03  0.10022168871E+03 0.  0.
         23    2    1    2    0    0  0.18486034996E+02  0.15514821366E+02 -0.37332999506E+03  0.38519089657E+03  0.91729484962E+02 0.  0.
        -11    1    4    4    0    0  0.43984556195E+02  0.39862257344E+02 -0.24709083304E+03  0.25412107452E+03  0.00000000000E+00 0. -1.
         11    1    4    4    0    0 -0.25498521199E+02 -0.24347435978E+02 -0.12623916202E+03  0.13106982204E+03  0.00000000000E+00 0.  1.
        -13    1    3    3    0    0  0.98926751035E+01 -0.34810001653E+02 -0.24487505871E+02  0.43694841567E+02  0.00000000000E+00 0. -1.
         13    1    3    3    0    0 -0.63135759369E+02  0.33670585809E+02  0.38590220748E+01  0.71656992060E+02  0.00000000000E+00 0.  1.
         21    1    1    2  502  501  0.34757049269E+02 -0.14375405522E+02 -0.14823223446E+02  0.40428117828E+02  0.00000000000E+00 0. -1.
<scales pt_clust_5="13000.00000" pt_clust_6="13000.00000" pt_clust_7="13000.00000" pt_clust_8="13000.00000" pt_clust_9="37.61256"></scales>
<clustering>
<clus scale="   37.613">  1  9  2 -1</clus>
<clus scale="   91.729">  5  6 -1 -1</clus>
<clus scale="   95.434">  2  5  1 -1</clus>
<clus scale="  100.222">  7  8 -1 -1</clus>
<clus scale="   95.434">  2  5  1 -1</clus>
</clustering>
</event>
<event>
 9    1  0.1175034E-005  0.1645216E+03  0.7546771E-02  0.1185639E+00
          2   -1    0    0  502    0  0.00000000000E+00  0.00000000000E+00  0.15827591625E+04  0.15827591625E+04  0.00000000000E+00 0. -1.
         -2   -1    0    0    0  501 -0.00000000000E+00 -0.00000000000E+00 -0.32692932496E+02  0.32692932496E+02  0.00000000000E+00 0.  1.
         23    2    1    2    0    0  0.26562461391E+02  0.12218479928E+03  0.38099436940E+03  0.40964566060E+03  0.83774508056E+02 0.  0.
         23    2    1    2    0    0  0.51799311306E+02 -0.17775452872E+03  0.72332181773E+03  0.74982215509E+03  0.68985296532E+02 0.  0.
        -11    1    4    4    0    0  0.33848565372E+02 -0.53804240045E+02  0.35873379890E+03  0.36432205547E+03  0.00000000000E+00 0.  1.
         11    1    4    4    0    0  0.17950745934E+02 -0.12395028867E+03  0.36458801883E+03  0.38550009963E+03  0.00000000000E+00 0. -1.
        -13    1    3    3    0    0  0.46315300014E+02  0.62306035917E+02  0.28018364390E+03  0.29074047437E+03  0.00000000000E+00 0. -1.
         13    1    3    3    0    0 -0.19752838624E+02  0.59878763367E+02  0.10081072550E+03  0.11890518623E+03  0.00000000000E+00 0.  1.
         21    1    1    2  502  501 -0.78361772696E+02  0.55569729436E+02  0.44575004292E+03  0.45598427935E+03  0.00000000000E+00 0.  1.
<scales pt_clust_5="13000.00000" pt_clust_6="13000.00000" pt_clust_7="13000.00000" pt_clust_8="13000.00000" pt_clust_9="96.06541"></scales>
<clustering>
<clus scale="   68.985">  5  6 -1 -1</clus>
<clus scale="   83.775">  7  8 -1 -1</clus>
<clus scale="   96.065">  1  9  2 -1</clus>
<clus scale="  157.506">  1  5  2 -1</clus>
<clus scale="   96.065">  1  5  2 -1</clus>
</clustering>
</event>
<event>
 9    1  0.1175034E-005  0.1008045E+03  0.7546771E-02  0.1278728E+00
         -1   -1    0    0    0  501 -0.00000000000E+00  0.00000000000E+00  0.67447050280E+02  0.67447050280E+02  0.00000000000E+00 0.  1.
          1   -1    0    0  502    0  0.00000000000E+00 -0.00000000000E+00 -0.39539027233E+03  0.39539027233E+03  0.00000000000E+00 0. -1.
         23    2    1    2    0    0 -0.14397276708E+02 -0.10592028386E+02 -0.21497715274E+02  0.96114271082E+02  0.91958298710E+02 0.  0.
         23    2    1    2    0    0  0.28916683528E+02  0.36416018498E+02 -0.31853753808E+03  0.33472447561E+03  0.91717012667E+02 0.  0.
        -11    1    4    4    0    0  0.46398087532E+02  0.53994354152E+02 -0.27994510710E+03  0.28885538907E+03  0.00000000000E+00 0.  1.
         11    1    4    4    0    0 -0.17481404005E+02 -0.17578335654E+02 -0.38592430987E+02  0.45869086538E+02  0.00000000000E+00 0. -1.
        -13    1    3    3    0    0 -0.24521576407E+02 -0.48516990927E+02 -0.10723485496E+02  0.55409378803E+02  0.00000000000E+00 0. -1.
         13    1    3    3    0    0  0.10124299699E+02  0.37924962541E+02 -0.10774229778E+02  0.40704892279E+02  0.00000000000E+00 0.  1.
         21    1    1    2  502  501 -0.14519406819E+02 -0.25823990112E+02  0.12092031309E+02  0.31998575920E+02  0.00000000000E+00 0.  1.
<scales pt_clust_5="13000.00000" pt_clust_6="13000.00000" pt_clust_7="13000.00000" pt_clust_8="13000.00000" pt_clust_9="29.62586"></scales>
<clustering>
<clus scale="   29.626">  1  9  2 -1</clus>
<clus scale="   91.717">  5  6 -1 -1</clus>
<clus scale="   91.958">  7  8 -1 -1</clus>
<clus scale="  100.584">  2  5  1 -1</clus>
<clus scale="  100.584">  2  5  1 -1</clus>
</clustering>
</event>
<event>
 9    1  0.1175034E-005  0.2161020E+03  0.7546771E-02  0.1137411E+00
          1   -1    0    0  502    0  0.00000000000E+00  0.00000000000E+00  0.17440192104E+03  0.17440192104E+03  0.00000000000E+00 0. -1.
         -1   -1    0    0    0  501 -0.00000000000E+00 -0.00000000000E+00 -0.42063343067E+03  0.42063343067E+03  0.00000000000E+00 0.  1.
         23    2    1    2    0    0 -0.15116176060E+03  0.67161569251E+02 -0.18882946380E+03  0.26964813236E+03  0.98453007229E+02 0.  0.
         23    2    1    2    0    0  0.19078801038E+03 -0.71555077478E+02  0.33730886417E+02  0.22591484166E+03  0.91539876383E+02 0.  0.
        -11    1    4    4    0    0  0.90178301492E+02 -0.69852793269E+02 -0.13302574041E+02  0.11484118279E+03  0.00000000000E+00 0.  1.
         11    1    4    4    0    0  0.10060970888E+03 -0.17022842083E+01  0.47033460459E+02  0.11107365888E+03  0.00000000000E+00 0. -1.
        -13    1    3    3    0    0 -0.12467895576E+03  0.94008271361E+01 -0.98316387896E+02  0.15905763009E+03  0.00000000000E+00 0.  1.
         13    1    3    3    0    0 -0.26482804835E+02  0.57760742115E+02 -0.90513075909E+02  0.11059050227E+03  0.00000000000E+00 0. -1.
         21    1    1    2  502  501 -0.39626249779E+02  0.43935082268E+01 -0.91132932240E+02  0.99472377697E+02  0.00000000000E+00 0.  1.
<scales pt_clust_5="13000.00000" pt_clust_6="13000.00000" pt_clust_7="13000.00000" pt_clust_8="13000.00000" pt_clust_9="39.86907"></scales>
<clustering>
<clus scale="   39.869">  2  9  1 -1</clus>
<clus scale="   91.540">  5  6 -1 -1</clus>
<clus scale="   98.453">  7  8 -1 -1</clus>
<clus scale="  213.041">  1  5  2 -1</clus>
<clus scale="  213.041">  1  5  2 -1</clus>
</clustering>
</event>
<event>
 9    1  0.1175034E-005  0.3035824E+03  0.7546771E-02  0.1083645E+00
         -1   -1    0    0    0  501 -0.00000000000E+00  0.00000000000E+00  0.53847401317E+03  0.53847401317E+03  0.00000000000E+00 0.  1.
          1   -1    0    0  502    0  0.00000000000E+00 -0.00000000000E+00 -0.40201731588E+03  0.40201731588E+03  0.00000000000E+00 0. -1.
         23    2    1    2    0    0 -0.23184959064E+03 -0.19045286340E+03  0.28902087332E+03  0.42549956688E+03  0.86546463512E+02 0.  0.
         23    2    1    2    0    0  0.24525383165E+03  0.15069788045E+03 -0.26069959120E+03  0.39900296805E+03  0.91541239617E+02 0.  0.
        -11    1    3    3    0    0 -0.97984790980E+02 -0.12397362603E+03  0.18552755358E+03  0.24370258996E+03  0.00000000000E+00 0. -1.
         11    1    3    3    0    0 -0.13386479966E+03 -0.66479237376E+02  0.10349331974E+03  0.18179697693E+03  0.00000000000E+00 0.  1.
        -13    1    4    4    0    0  0.51758459392E+02  0.21971257473E+02 -0.99246883884E+01  0.57097930901E+02  0.00000000000E+00 0.  1.
         13    1    4    4    0    0  0.19349537225E+03  0.12872662297E+03 -0.25077490281E+03  0.34190503715E+03  0.00000000000E+00 0. -1.
         21    1    1    2  502  501 -0.13404241010E+02  0.39754982957E+02  0.10813541517E+03  0.11598879412E+03  0.00000000000E+00 0. -1.
<scales pt_clust_5="13000.00000" pt_clust_6="13000.00000" pt_clust_7="13000.00000" pt_clust_8="13000.00000" pt_clust_9="41.95393"></scales>
<clustering>
<clus scale="   41.954">  1  9  2 -1</clus>
<clus scale="   86.546">  5  6 -1 -1</clus>
<clus scale="   91.541">  7  8 -1 -1</clus>
<clus scale="  302.114">  1  5  2 -1</clus>
<clus scale="  303.582">  2  5  1 -1</clus>
</clustering>
</event>
<event>
 9    1  0.1484754E-005  0.9813509E+02  0.7546771E-02  0.1287288E+00
          2   -1    0    0  502    0  0.00000000000E+00  0.00000000000E+00  0.25957212292E+03  0.25957212292E+03  0.00000000000E+00 0. -1.
         -2   -1    0    0    0  501 -0.00000000000E+00 -0.00000000000E+00 -0.15090769574E+03  0.15090769574E+03  0.00000000000E+00 0.  1.
         23    2    1    2    0    0  0.17211482865E+02  0.15218773885E+02 -0.67647072857E+02  0.12028101979E+03  0.96765443397E+02 0.  0.
         23    2    1    2    0    0  0.11709751631E+02 -0.13427050047E+02  0.21939240901E+03  0.23827950768E+03  0.91250702435E+02 0.  0.
        -11    1    4    4    0    0  0.38234473425E+02  0.21407119380E+02  0.69829164293E+02  0.82439383210E+02  0.00000000000E+00 0. -1.
         11    1    4    4    0    0 -0.26524721794E+02 -0.34834169427E+02  0.14956324471E+03  0.15584012447E+03  0.00000000000E+00 0.  1.
        -11    1    3    3    0    0  0.14494798671E+01  0.37249487439E+02 -0.81671915933E+02  0.89777097071E+02  0.00000000000E+00 0.  1.
         11    1    3    3    0    0  0.15762002998E+02 -0.22030713554E+02  0.14024843076E+02  0.30503922724E+02  0.00000000000E+00 0. -1.
         21    1    1    2  502  501 -0.28921234496E+02 -0.17917238373E+01 -0.43080908976E+02  0.51919291186E+02  0.00000000000E+00 0.  1.
<scales pt_clust_5="13000.00000" pt_clust_6="13000.00000" pt_clust_7="13000.00000" pt_clust_8="13000.00000" pt_clust_9="28.97668"></scales>
<clustering>
<clus scale="   28.977">  2  9  1 -1</clus>
<clus scale="   91.251">  5  6 -1 -1</clus>
<clus scale="   92.702">  1  5  2 -1</clus>
<clus scale="   96.765">  7  8 -1 -1</clus>
<clus scale="   92.702">  1  5  2 -1</clus>
</clustering>
</event>
<event>
 9    1  0.1175034E-005  0.1715731E+03  0.7546771E-02  0.1176240E+00
         -1   -1    0    0    0  501 -0.00000000000E+00  0.00000000000E+00  0.17744996982E+03  0.17744996982E+03  0.00000000000E+00 0.  1.
          1   -1    0    0  502    0  0.00000000000E+00 -0.00000000000E+00 -0.49351349167E+03  0.49351349167E+03  0.00000000000E+00 0. -1.
         23    2    1    2    0    0 -0.13035950774E+03 -0.51509117310E+02  0.88307430164E+02  0.18861580370E+03  0.90171662725E+02 0.  0.
         23    2    1    2    0    0  0.14680961218E+03  0.11861273277E+02 -0.40402545411E+03  0.43942124586E+03  0.90336657609E+02 0.  0.
        -11    1    4    4    0    0  0.11478832177E+03  0.45068663542E+02 -0.25208559141E+03  0.28063265784E+03  0.00000000000E+00 0.  1.
         11    1    4    4    0    0  0.32021290414E+02 -0.33207390265E+02 -0.15193986270E+03  0.15878858802E+03  0.00000000000E+00 0. -1.
        -13    1    3    3    0    0 -0.33377412132E+02 -0.32187993368E+02  0.75912462630E+02  0.88954036110E+02  0.00000000000E+00 0.  1.
         13    1    3    3    0    0 -0.96982095607E+02 -0.19321123942E+02  0.12394967534E+02  0.99661767588E+02  0.00000000000E+00 0. -1.
         21    1    1    2  502  501 -0.16450104446E+02  0.39647844033E+02 -0.34549789511E+00  0.42926411934E+02  0.00000000000E+00 0.  1.
<scales pt_clust_5="13000.00000" pt_clust_6="13000.00000" pt_clust_7="13000.00000" pt_clust_8="13000.00000" pt_clust_9="42.92502"></scales>
<clustering>
<clus scale="   42.925">  1  9  2 -1</clus>
<clus scale="   90.172">  7  8 -1 -1</clus>
<clus scale="   90.337">  5  6 -1 -1</clus>
<clus scale="  171.486">  1  7  2 -1</clus>
<clus scale="  171.573">  2  5  1 -1</clus>
</clustering>
</event>
<event>
 9    1  0.1175034E-005  0.1000456E+03  0.7546771E-02  0.1280364E+00
         -3   -1    0    0    0  501 -0.00000000000E+00  0.00000000000E+00  0.32136090455E+02  0.32136090455E+02  0.00000000000E+00 0.  1.
          3   -1    0    0  502    0  0.00000000000E+00 -0.00000000000E+00 -0.55840210396E+03  0.55840210396E+03  0.00000000000E+00 0. -1.
         23    2    1    2    0    0 -0.15200009874E+02 -0.22307259974E+02 -0.86081964473E+02  0.12868621956E+03  0.91768100943E+02 0.  0.
         23    2    1    2    0    0  0.35247526788E+02  0.26034021367E+02 -0.42361184380E+03  0.43557594640E+03  0.91428947614E+02 0.  0.
        -11    1    4    4    0    0 -0.46753653156E+01 -0.27380395246E+02 -0.63022059722E+02  0.68871801895E+02  0.00000000000E+00 0.  1.
         11    1    4    4    0    0  0.39922892104E+02  0.53414416614E+02 -0.36058978407E+03  0.36670414450E+03  0.00000000000E+00 0. -1.
        -13    1    3    3    0    0 -0.14013617167E+02 -0.57748419713E+02 -0.61626511234E+02  0.85610094804E+02  0.00000000000E+00 0.  1.
         13    1    3    3    0    0 -0.11863927069E+01  0.35441159739E+02 -0.24455453238E+02  0.43076124760E+02  0.00000000000E+00 0. -1.
         21    1    1    2  502  501 -0.20047516914E+02 -0.37267613935E+01 -0.16572205238E+02  0.26276028455E+02  0.00000000000E+00 0.  1.
<scales pt_clust_5="13000.00000" pt_clust_6="13000.00000" pt_clust_7="13000.00000" pt_clust_8="13000.00000" pt_clust_9="20.39097"></scales>
<clustering>
<clus scale="   20.391">  1  9  2 -1</clus>
<clus scale="   91.429">  5  6 -1 -1</clus>
<clus scale="   91.768">  7  8 -1 -1</clus>
<clus scale="   99.735">  2  5  1 -1</clus>
<clus scale="   99.735">  2  5  1 -1</clus>
</clustering>
</event>
<event>
 9    1  0.1175034E-005  0.1346220E+03  0.7546771E-02  0.1220804E+00
         -2   -1    0    0    0  501 -0.00000000000E+00  0.00000000000E+00  0.15357467097E+03  0.15357467097E+03  0.00000000000E+00 0.  1.
          2   -1    0    0  502    0  0.00000000000E+00 -0.00000000000E+00 -0.19435973475E+03  0.19435973475E+03  0.00000000000E+00 0. -1.
         23    2    1    2    0    0  0.73699618667E+02  0.42946218424E+02  0.51887734568E+02  0.13385807937E+03  0.89160736575E+02 0.  0.
         23    2    1    2    0    0 -0.89744313900E+02 -0.56904253575E+02 -0.11728589525E+03  0.18154843786E+03  0.88947839286E+02 0.  0.
        -11    1    3    3    0    0  0.25993582077E+02 -0.27779207305E+02  0.17528372156E+02  0.41887880086E+02  0.00000000000E+00 0. -1.
         11    1    3    3    0    0  0.47706036590E+02  0.70725425729E+02  0.34359362412E+02  0.91970199288E+02  0.00000000000E+00 0.  1.
        -13    1    4    4    0    0 -0.19799095958E+02 -0.64859334402E+02 -0.64161515304E+02  0.93356507572E+02  0.00000000000E+00 0. -1.
         13    1    4    4    0    0 -0.69945217942E+02  0.79550808267E+01 -0.53124379941E+02  0.88191930289E+02  0.00000000000E+00 0.  1.
         21    1    1    2  502  501  0.16044695233E+02  0.13958035151E+02  0.24613096898E+02  0.32527888485E+02  0.00000000000E+00 0.  1.
<scales pt_clust_5="13000.00000" pt_clust_6="13000.00000" pt_clust_7="13000.00000" pt_clust_8="13000.00000" pt_clust_9="21.26638"></scales>
<clustering>
<clus scale="   21.266">  1  9  2 -1</clus>
<clus scale="   88.948">  7  8 -1 -1</clus>
<clus scale="   89.161">  5  6 -1 -1</clus>
<clus scale="  134.481">  2  7  1 -1</clus>
<clus scale="  134.481">  2  5  1 -1</clus>
</clustering>
</event>
<event>
 9    1  0.1175034E-005  0.1024631E+03  0.7546771E-02  0.1275395E+00
         -2   -1    0    0    0  501 -0.00000000000E+00  0.00000000000E+00  0.41010729319E+03  0.41010729319E+03  0.00000000000E+00 0.  1.
          2   -1    0    0  502    0  0.00000000000E+00 -0.00000000000E+00 -0.33024534811E+02  0.33024534811E+02  0.00000000000E+00 0. -1.
         23    2    1    2    0    0 -0.71631491572E+00  0.58518177582E+02  0.21988067019E+03  0.24520881586E+03  0.91405492366E+02 0.  0.
         23    2    1    2    0    0 -0.56428770433E+01 -0.38727923610E+02  0.12321237562E+03  0.15808089830E+03  0.90975748280E+02 0.  0.
        -11    1    3    3    0    0  0.42111967912E+02  0.31997799239E+02  0.74629574063E+02  0.91470488806E+02  0.00000000000E+00 0. -1.
         11    1    3    3    0    0 -0.42828282827E+02  0.26520378343E+02  0.14525109613E+03  0.15373832705E+03  0.00000000000E+00 0.  1.
        -11    1    4    4    0    0 -0.37997699961E+02 -0.36992403497E+02  0.11178041676E+03  0.12372196527E+03  0.00000000000E+00 0.  1.
         11    1    4    4    0    0  0.32354822918E+02 -0.17355201128E+01  0.11431958857E+02  0.34358933037E+02  0.00000000000E+00 0. -1.
         21    1    1    2  502  501  0.63591919590E+01 -0.19790253972E+02  0.33989712566E+02  0.39842113837E+02  0.00000000000E+00 0.  1.
<scales pt_clust_5="13000.00000" pt_clust_6="13000.00000" pt_clust_7="13000.00000" pt_clust_8="13000.00000" pt_clust_9="20.78686"></scales>
<clustering>
<clus scale="   20.787">  1  9  2 -1</clus>
<clus scale="   90.976">  7  8 -1 -1</clus>
<clus scale="   91.405">  5  6 -1 -1</clus>
<clus scale="  102.080">  2  7  1 -1</clus>
<clus scale="  102.080">  2  5  1 -1</clus>
</clustering>
</event>
<event>
 9    1  0.1175034E-005  0.1448291E+03  0.7546771E-02  0.1228464E+00
         -1   -1    0    0    0  501 -0.00000000000E+00  0.00000000000E+00  0.22046494188E+03  0.22046494188E+03  0.00000000000E+00 0.  1.
          1   -1    0    0  502    0  0.00000000000E+00 -0.00000000000E+00 -0.37178704137E+03  0.37178704137E+03  0.00000000000E+00 0. -1.
         23    2    1    2    0    0  0.88529470617E+02 -0.77665477307E+02  0.68898621185E+02  0.16381212961E+03  0.90653186778E+02 0.  0.
         23    2    1    2    0    0 -0.42192678453E+01  0.73196283547E+01 -0.28599004535E+03  0.30044628808E+03  0.91685804808E+02 0.  0.
        -13    1    3    3    0    0  0.37047909497E+02 -0.55072767706E+02  0.82582352457E+02  0.10594999895E+03  0.00000000000E+00 0.  1.
         13    1    3    3    0    0  0.51481561121E+02 -0.22592709602E+02 -0.13683731273E+02  0.57862130657E+02  0.00000000000E+00 0. -1.
        -13    1    4    4    0    0 -0.35557031105E+02  0.31391815926E+02 -0.10535926631E+03  0.11554360028E+03  0.00000000000E+00 0. -1.
         13    1    4    4    0    0  0.31337763260E+02 -0.24072187572E+02 -0.18063077903E+03  0.18490268780E+03  0.00000000000E+00 0.  1.
         21    1    1    2  502  501 -0.84310202772E+02  0.70345848953E+02  0.65769324670E+02  0.12799356556E+03  0.00000000000E+00 0. -1.
<scales pt_clust_5="13000.00000" pt_clust_6="13000.00000" pt_clust_7="13000.00000" pt_clust_8="13000.00000" pt_clust_9="112.94891"></scales>
<clustering>
<clus scale="   90.653">  5  6 -1 -1</clus>
<clus scale="   91.686">  7  8 -1 -1</clus>
<clus scale="   92.074">  2  7  1 -1</clus>
<clus scale="  112.949">  1  9  2 -1</clus>
<clus scale="   92.074">  2  5  1 -1</clus>
</clustering>
</event>
<event>
 9    1  0.1175034E-005  0.9738344E+02  0.7546771E-02  0.1287074E+00
         -2   -1    0    0    0  501 -0.00000000000E+00  0.00000000000E+00  0.12831202599E+03  0.12831202599E+03  0.00000000000E+00 0.  1.
          2   -1    0    0  502    0  0.00000000000E+00 -0.00000000000E+00 -0.20842991626E+03  0.20842991626E+03  0.00000000000E+00 0. -1.
         23    2    1    2    0    0 -0.15860609474E+02 -0.15265374055E+02  0.76558995924E+02  0.12278207732E+03  0.93432157615E+02 0.  0.
         23    2    1    2    0    0 -0.21942554653E+02  0.20313592836E+02 -0.79553479936E+02  0.12792159715E+03  0.95608896492E+02 0.  0.
        -11    1    3    3    0    0  0.26548346817E+01 -0.48779170105E+02  0.67695264665E+02  0.83481162195E+02  0.00000000000E+00 0.  1.
         11    1    3    3    0    0 -0.18515444156E+02  0.33513796050E+02  0.88637312590E+01  0.39300915127E+02  0.00000000000E+00 0. -1.
        -11    1    4    4    0    0  0.27705100295E+02  0.28076189872E+02 -0.64250792080E+02  0.75392368997E+02  0.00000000000E+00 0. -1.
         11    1    4    4    0    0 -0.49647654948E+02 -0.77625970357E+01 -0.15302687856E+02  0.52529228151E+02  0.00000000000E+00 0.  1.
         21    1    1    2  502  501  0.37803164127E+02 -0.50482187816E+01 -0.77123406249E+02  0.86038267779E+02  0.00000000000E+00 0. -1.
<scales pt_clust_5="13000.00000" pt_clust_6="13000.00000" pt_clust_7="13000.00000" pt_clust_8="13000.00000" pt_clust_9="38.13874"></scales>
<clustering>
<clus scale="   38.139">  2  9  1 -1</clus>
<clus scale="   93.432">  5  6 -1 -1</clus>
<clus scale="   95.247">  1  5  2 -1</clus>
<clus scale="   95.609">  7  8 -1 -1</clus>
<clus scale="   38.139">  2  5  1 -1</clus>
</clustering>
</event>
<event>
 9    1  0.1175034E-005  0.1368649E+03  0.7546771E-02  0.1217967E+00
         -1   -1    0    0    0  501 -0.00000000000E+00  0.00000000000E+00  0.63693363898E+02  0.63693363898E+02  0.00000000000E+00 0.  1.
          1   -1    0    0  502    0  0.00000000000E+00 -0.00000000000E+00 -0.38041840596E+03  0.38041840596E+03  0.00000000000E+00 0. -1.
         23    2    1    2    0    0  0.10648227706E+03  0.44093818171E+02 -0.18255763854E+03  0.23543331154E+03  0.93908533515E+02 0.  0.
         23    2    1    2    0    0 -0.77976507066E+02 -0.31503775995E+02 -0.12365287680E+03  0.17579011148E+03  0.92408364328E+02 0.  0.
        -11    1    3    3    0    0  0.29929867736E+02  0.62670436353E+01  0.34401394944E+01  0.30771860171E+02  0.00000000000E+00 0.  1.
         11    1    3    3    0    0  0.76552409327E+02  0.37826774536E+02 -0.18599777803E+03  0.20466145137E+03  0.00000000000E+00 0. -1.
        -11    1    4    4    0    0 -0.53317535817E+02 -0.46764614956E+02 -0.28699529089E+02  0.76507201017E+02  0.00000000000E+00 0.  1.
         11    1    4    4    0    0 -0.24658971248E+02  0.15260838961E+02 -0.94953347710E+02  0.99282910464E+02  0.00000000000E+00 0. -1.
         21    1    1    2  502  501 -0.28505769998E+02 -0.12590042176E+02 -0.10514526725E+02  0.32888346833E+02  0.00000000000E+00 0.  1.
<scales pt_clust_5="13000.00000" pt_clust_6="13000.00000" pt_clust_7="13000.00000" pt_clust_8="13000.00000" pt_clust_9="31.16229"></scales>
<clustering>
<clus scale="   31.162">  1  9  2 -1</clus>
<clus scale="   92.408">  7  8 -1 -1</clus>
<clus scale="   93.909">  5  6 -1 -1</clus>
<clus scale="  135.840">  2  7  1 -1</clus>
<clus scale="  135.840">  2  5  1 -1</clus>
</clustering>
</event>
<event>
 9    1  0.1175034E-005  0.1406459E+03  0.7546771E-02  0.1214849E+00
         -2   -1    0    0    0  501 -0.00000000000E+00  0.00000000000E+00  0.31683501346E+03  0.31683501346E+03  0.00000000000E+00 0.  1.
          2   -1    0    0  502    0  0.00000000000E+00 -0.00000000000E+00 -0.28371181807E+03  0.28371181807E+03  0.00000000000E+00 0. -1.
         23    2    1    2    0    0  0.10084022375E+02  0.96907406945E+02  0.96934870041E+02  0.17302792780E+03  0.10511689561E+03 0.  0.
         23    2    1    2    0    0  0.10705688590E+02 -0.92564120536E+02 -0.22678396907E+03  0.26316853114E+03  0.95624154753E+02 0.  0.
        -11    1    4    4    0    0 -0.28193479872E+02 -0.55515982149E+02 -0.18474600010E+03  0.19495635700E+03  0.00000000000E+00 0.  1.
         11    1    4    4    0    0  0.38899168462E+02 -0.37048138386E+02 -0.42037968973E+02  0.68212174135E+02  0.00000000000E+00 0. -1.
        -13    1    3    3    0    0 -0.28433901516E+02  0.72854060342E+02  0.10065296633E+03  0.12746458526E+03  0.00000000000E+00 0.  1.
         13    1    3    3    0    0  0.38517923890E+02  0.24053346604E+02 -0.37180962937E+01  0.45563342543E+02  0.00000000000E+00 0. -1.
         21    1    1    2  502  501 -0.20789710965E+02 -0.43432864096E+01  0.16297229442E+03  0.16435037258E+03  0.00000000000E+00 0.  1.
<scales pt_clust_5="13000.00000" pt_clust_6="13000.00000" pt_clust_7="13000.00000" pt_clust_8="13000.00000" pt_clust_9="21.23856"></scales>
<clustering>
<clus scale="   21.239">  1  9  2 -1</clus>
<clus scale="   95.624">  5  6 -1 -1</clus>
<clus scale="  105.117">  7  8 -1 -1</clus>
<clus scale="  133.700">  2  5  1 -1</clus>
<clus scale="  133.700">  2  5  1 -1</clus>
</clustering>
</event>
<event>
 9    1  0.1175034E-005  0.1051622E+03  0.7546771E-02  0.1271410E+00
         -2   -1    0    0    0  501 -0.00000000000E+00  0.00000000000E+00  0.55829236307E+02  0.55829236307E+02  0.00000000000E+00 0.  1.
          2   -1    0    0  502    0  0.00000000000E+00 -0.00000000000E+00 -0.46841723054E+03  0.46841723054E+03  0.00000000000E+00 0. -1.
         23    2    1    2    0    0  0.59703024065E+02 -0.67660922728E+02 -0.74290186342E+02  0.14906849544E+03  0.92519905955E+02 0.  0.
         23    2    1    2    0    0 -0.31825858413E+02  0.26545244080E+02 -0.28907496429E+03  0.30524569183E+03  0.88842907167E+02 0.  0.
        -11    1    3    3    0    0  0.37195575443E+02 -0.34190201499E+02  0.13638042009E+02  0.52330458635E+02  0.00000000000E+00 0.  1.
         11    1    3    3    0    0  0.22507448621E+02 -0.33470721229E+02 -0.87928228351E+02  0.96738036800E+02  0.00000000000E+00 0. -1.
        -13    1    4    4    0    0 -0.23625695478E+02 -0.31316085065E+02 -0.12923427024E+03  0.13505690384E+03  0.00000000000E+00 0. -1.
         13    1    4    4    0    0 -0.82001629348E+01  0.57861329144E+02 -0.15984069405E+03  0.17018878799E+03  0.00000000000E+00 0.  1.
         21    1    1    2  502  501 -0.27877165652E+02  0.41115678648E+02 -0.49222843604E+02  0.69932279585E+02  0.00000000000E+00 0.  1.
<scales pt_clust_5="13000.00000" pt_clust_6="13000.00000" pt_clust_7="13000.00000" pt_clust_8="13000.00000" pt_clust_9="49.67530"></scales>
<clustering>
<clus scale="   49.675">  1  9  2 -1</clus>
<clus scale="   88.843">  7  8 -1 -1</clus>
<clus scale="   92.520">  5  6 -1 -1</clus>
<clus scale="  101.942">  2  7  1 -1</clus>
<clus scale="  101.942">  2  5  1 -1</clus>
</clustering>
</event>
<event>
 9    1  0.1175034E-005  0.1594315E+03  0.7546771E-02  0.1199564E+00
          1   -1    0    0  502    0  0.00000000000E+00  0.00000000000E+00  0.51226331085E+03  0.51226331085E+03  0.00000000000E+00 0. -1.
         -1   -1    0    0    0  501 -0.00000000000E+00 -0.00000000000E+00 -0.13024659655E+03  0.13024659655E+03  0.00000000000E+00 0.  1.
         23    2    1    2    0    0  0.70830878335E+02  0.47628164310E+02  0.19278517781E+03  0.23113454870E+03  0.94718527533E+02 0.  0.
         23    2    1    2    0    0  0.71866164064E+02 -0.52927191893E+02  0.22994764823E+03  0.26288856684E+03  0.90930987396E+02 0.  0.
        -13    1    3    3    0    0 -0.16342041129E+02  0.18828251625E+02  0.89672624094E+02  0.93073867865E+02  0.00000000000E+00 0.  1.
         13    1    3    3    0    0  0.87172919464E+02  0.28799912685E+02  0.10311255371E+03  0.13806068083E+03  0.00000000000E+00 0. -1.
        -13    1    4    4    0    0  0.76311705342E+02 -0.73451625332E+02  0.19994221053E+03  0.22626423753E+03  0.00000000000E+00 0. -1.
         13    1    4    4    0    0 -0.44455412781E+01  0.20524433440E+02  0.30005437706E+02  0.36624329307E+02  0.00000000000E+00 0.  1.
         21    1    1    2  502  501 -0.14269704240E+03  0.52990275828E+01 -0.40716111747E+02  0.14848679187E+03  0.00000000000E+00 0.  1.
<scales pt_clust_5="13000.00000" pt_clust_6="13000.00000" pt_clust_7="13000.00000" pt_clust_8="13000.00000" pt_clust_9="128.24514"></scales>
<clustering>
<clus scale="   90.931">  7  8 -1 -1</clus>
<clus scale="   94.719">  5  6 -1 -1</clus>
<clus scale="  127.415">  1  7  2 -1</clus>
<clus scale="  128.245">  2  9  1 -1</clus>
<clus scale="  127.415">  1  5  2 -1</clus>
</clustering>
</event>
<event>
 9    1  0.1175034E-005  0.1169831E+03  0.7546771E-02  0.1248310E+00
         -2   -1    0    0    0  501 -0.00000000000E+00  0.00000000000E+00  0.11627368152E+03  0.11627368152E+03  0.00000000000E+00 0.  1.
          2   -1    0    0  502    0  0.00000000000E+00 -0.00000000000E+00 -0.16923314870E+03  0.16923314870E+03  0.00000000000E+00 0. -1.
         23    2    1    2    0    0 -0.59468454267E+02  0.23388440083E+02  0.68227985283E+01  0.11128847526E+03  0.90857349536E+02 0.  0.
         23    2    1    2    0    0  0.55669586837E+02 -0.59736597972E+02 -0.62596026721E+02  0.13756406152E+03  0.91312892984E+02 0.  0.
        -13    1    3    3    0    0 -0.13787423501E+02  0.54002073634E+02 -0.10066669782E+01  0.55743433532E+02  0.00000000000E+00 0.  1.
         13    1    3    3    0    0 -0.45681030765E+02 -0.30613633551E+02  0.78294655065E+01  0.55545041733E+02  0.00000000000E+00 0. -1.
        -13    1    4    4    0    0  0.13522244877E+01 -0.41777957771E+02  0.12063617845E+02  0.43505828829E+02  0.00000000000E+00 0.  1.
         13    1    4    4    0    0  0.54317362350E+02 -0.17958640201E+02 -0.74659644565E+02  0.94058232692E+02  0.00000000000E+00 0. -1.
         21    1    1    2  502  501  0.37988674293E+01  0.36348157889E+02  0.28137610151E+01  0.36654293428E+02  0.00000000000E+00 0.  1.
<scales pt_clust_5="13000.00000" pt_clust_6="13000.00000" pt_clust_7="13000.00000" pt_clust_8="13000.00000" pt_clust_9="36.54613"></scales>
<clustering>
<clus scale="   36.546">  1  9  2 -1</clus>
<clus scale="   90.857">  5  6 -1 -1</clus>
<clus scale="   91.313">  7  8 -1 -1</clus>
<clus scale="  116.628">  1  5  2 -1</clus>
<clus scale="  116.983">  2  5  1 -1</clus>
</clustering>
</event>
<event>
 9    1  0.1175034E-005  0.9337209E+02  0.7546771E-02  0.1296438E+00
         -2   -1    0    0    0  501 -0.00000000000E+00  0.00000000000E+00  0.18359576104E+03  0.18359576104E+03  0.00000000000E+00 0.  1.
          2   -1    0    0  502    0  0.00000000000E+00 -0.00000000000E+00 -0.41811157111E+03  0.41811157111E+03  0.00000000000E+00 0. -1.
         23    2    1    2    0    0 -0.19496166150E+02 -0.26181155439E+02  0.13066720417E+03  0.16143393621E+03  0.89002495030E+02 0.  0.
         23    2    1    2    0    0 -0.94635637660E+00 -0.30305951520E+02 -0.36893289514E+03  0.38008409800E+03  0.86215393915E+02 0.  0.
        -11    1    4    4    0    0  0.20412962697E+02  0.19414837381E+02 -0.58027258830E+02  0.64504168268E+02  0.00000000000E+00 0.  1.
         11    1    4    4    0    0 -0.21359319073E+02 -0.49720788901E+02 -0.31090563631E+03  0.31557992973E+03  0.00000000000E+00 0. -1.
        -11    1    3    3    0    0 -0.54112898779E+02 -0.22000805814E+02  0.95233500255E+02  0.11172135356E+03  0.00000000000E+00 0.  1.
         11    1    3    3    0    0  0.34616732629E+02 -0.41803496253E+01  0.35433703913E+02  0.49712582652E+02  0.00000000000E+00 0. -1.
         21    1    1    2  502  501  0.20442522527E+02  0.56487106960E+02  0.37498809015E+01  0.60189297942E+02  0.00000000000E+00 0.  1.
<scales pt_clust_5="13000.00000" pt_clust_6="13000.00000" pt_clust_7="13000.00000" pt_clust_8="13000.00000" pt_clust_9="60.07237"></scales>
<clustering>
<clus scale="   60.072">  1  9  2 -1</clus>
<clus scale="   86.215">  5  6 -1 -1</clus>
<clus scale="   89.002">  7  8 -1 -1</clus>
<clus scale="   90.719">  2  5  1 -1</clus>
<clus scale="   90.719">  2  5  1 -1</clus>
</clustering>
</event>
<event>
 9    1  0.1175034E-005  0.9780950E+02  0.7546771E-02  0.1285041E+00
          1   -1    0    0  502    0  0.00000000000E+00  0.00000000000E+00  0.29982724957E+03  0.29982724957E+03  0.00000000000E+00 0. -1.
         -1   -1    0    0    0  501 -0.00000000000E+00 -0.00000000000E+00 -0.46491319953E+02  0.46491319953E+02  0.00000000000E+00 0.  1.
         23    2    1    2    0    0 -0.10830676077E+02  0.24047850905E+02  0.52862807686E+02  0.10932388787E+03  0.91987136844E+02 0.  0.
         23    2    1    2    0    0  0.16201145710E+02 -0.45212854768E+02  0.17424701652E+03  0.20286832911E+03  0.92124138170E+02 0.  0.
        -11    1    3    3    0    0 -0.68453321977E+01  0.52960459421E+02  0.54904656889E+01  0.53682530198E+02  0.00000000000E+00 0.  1.
         11    1    3    3    0    0 -0.39853438796E+01 -0.28912608516E+02  0.47372341997E+02  0.55641357670E+02  0.00000000000E+00 0. -1.
        -13    1    4    4    0    0  0.34547020731E+02 -0.57091320597E+02  0.71415585784E+02  0.97739968395E+02  0.00000000000E+00 0. -1.
         13    1    4    4    0    0 -0.18345875021E+02  0.11878465830E+02  0.10283143073E+03  0.10512836072E+03  0.00000000000E+00 0.  1.
         21    1    1    2  502  501 -0.53704696326E+01  0.21165003863E+02  0.26226105412E+02  0.34126352540E+02  0.00000000000E+00 0. -1.
<scales pt_clust_5="13000.00000" pt_clust_6="13000.00000" pt_clust_7="13000.00000" pt_clust_8="13000.00000" pt_clust_9="21.83574"></scales>
<clustering>
<clus scale="   21.836">  1  9  2 -1</clus>
<clus scale="   91.987">  5  6 -1 -1</clus>
<clus scale="   92.124">  7  8 -1 -1</clus>
<clus scale="   97.680">  2  5  1 -1</clus>
<clus scale="   21.836">  1  5  2 -1</clus>
</clustering>
</event>
<event>
 9    1  0.1175034E-005  0.1034696E+03  0.7546771E-02  0.1274197E+00
         -4   -1    0    0    0  501 -0.00000000000E+00  0.00000000000E+00  0.50436754828E+02  0.50436754828E+02  0.00000000000E+00 0.  1.
          4   -1    0    0  502    0  0.00000000000E+00 -0.00000000000E+00 -0.65019101637E+03  0.65019101637E+03  0.00000000000E+00 0. -1.
         23    2    1    2    0    0  0.36992717240E+02 -0.66101871934E+02 -0.89663384560E+02  0.14779113785E+03  0.89804116238E+02 0.  0.
         23    2    1    2    0    0 -0.23901420477E+02  0.34887653824E+02 -0.50897920045E+03  0.51897005266E+03  0.92095943318E+02 0.  0.
        -11    1    4    4    0    0  0.30080213658E+02 -0.90152603949E+01 -0.13875272685E+03  0.14226177765E+03  0.00000000000E+00 0.  1.
         11    1    4    4    0    0 -0.53981634135E+02  0.43902914219E+02 -0.37022647360E+03  0.37670827501E+03  0.00000000000E+00 0. -1.
        -13    1    3    3    0    0  0.31094081481E+02 -0.71244509272E+00  0.60879995527E+01  0.31692478914E+02  0.00000000000E+00 0.  1.
         13    1    3    3    0    0  0.58986357591E+01 -0.65389426842E+02 -0.95751384113E+02  0.11609865893E+03  0.00000000000E+00 0. -1.
         21    1    1    2  502  501 -0.13091296763E+02  0.31214218110E+02 -0.11116765322E+01  0.33866580694E+02  0.00000000000E+00 0.  1.
<scales pt_clust_5="13000.00000" pt_clust_6="13000.00000" pt_clust_7="13000.00000" pt_clust_8="13000.00000" pt_clust_9="33.84833"></scales>
<clustering>
<clus scale="   33.848">  1  9  2 -1</clus>
<clus scale="   89.804">  7  8 -1 -1</clus>
<clus scale="   92.096">  5  6 -1 -1</clus>
<clus scale="  101.435">  1  7  2 -1</clus>
<clus scale="  103.470">  2  5  1 -1</clus>
</clustering>
</event>
<event>
 9    1  0.1175034E-005  0.9553499E+02  0.7546771E-02  0.1290407E+00
         -1   -1    0    0    0  501 -0.00000000000E+00  0.00000000000E+00  0.88934253705E+02  0.88934253705E+02  0.00000000000E+00 0.  1.
          1   -1    0    0  502    0  0.00000000000E+00 -0.00000000000E+00 -0.20306061449E+03  0.20306061449E+03  0.00000000000E+00 0. -1.
         23    2    1    2    0    0  0.42290549273E+02  0.17094835501E+02 -0.49368124940E+02  0.11364507875E+03  0.91636609528E+02 0.  0.
         23    2    1    2    0    0 -0.13259516213E+01 -0.17082986711E+02 -0.90073818223E+02  0.13019403057E+03  0.92431630318E+02 0.  0.
        -11    1    3    3    0    0 -0.18542818638E+02 -0.83018549379E+01  0.11986717697E+02  0.23588944859E+02  0.00000000000E+00 0. -1.
         11    1    3    3    0    0  0.60833367911E+02  0.25396690439E+02 -0.61354842637E+02  0.90056133892E+02  0.00000000000E+00 0.  1.
        -13    1    4    4    0    0  0.60820709525E+01  0.22037618529E+02  0.80995638704E+01  0.24253889428E+02  0.00000000000E+00 0.  1.
         13    1    4    4    0    0 -0.74080225739E+01 -0.39120605240E+02 -0.98173382093E+02  0.10594014114E+03  0.00000000000E+00 0. -1.
         21    1    1    2  502  501 -0.40964597652E+02 -0.11848790206E-01  0.25315582382E+02  0.48155758872E+02  0.00000000000E+00 0.  1.
<scales pt_clust_5="13000.00000" pt_clust_6="13000.00000" pt_clust_7="13000.00000" pt_clust_8="13000.00000" pt_clust_9="40.96460"></scales>
<clustering>
<clus scale="   40.965">  1  9  2 -1</clus>
<clus scale="   91.637">  5  6 -1 -1</clus>
<clus scale="   92.432">  7  8 -1 -1</clus>
<clus scale="   94.766">  1  5  2 -1</clus>
<clus scale="   95.535">  2  5  1 -1</clus>
</clustering>
</event>
<event>
 9    1  0.1175034E-005  0.3565275E+03  0.7546771E-02  0.1072600E+00
          1   -1    0    0  502    0  0.00000000000E+00  0.00000000000E+00  0.16359635822E+04  0.16359635822E+04  0.00000000000E+00 0. -1.
         -1   -1    0    0    0  501 -0.00000000000E+00 -0.00000000000E+00 -0.22148723588E+03  0.22148723588E+03  0.00000000000E+00 0.  1.
         23    2    1    2    0    0 -0.99126710781E+02  0.21215347358E+03  0.23230544229E+03  0.34231122553E+03  0.91520246179E+02 0.  0.
         23    2    1    2    0    0  0.42702904562E+03 -0.16659606507E+03  0.25816126742E+03  0.53361566150E+03  0.89388922720E+02 0.  0.
        -11    1    3    3    0    0 -0.84759305224E+02  0.12744337869E+03  0.19688043056E+03  0.24937493565E+03  0.00000000000E+00 0.  1.
         11    1    3    3    0    0 -0.14367405556E+02  0.84710094895E+02  0.35425011727E+02  0.92936289874E+02  0.00000000000E+00 0. -1.
        -13    1    4    4    0    0  0.28659044224E+03 -0.14998988267E+03  0.15575279518E+03  0.35901250632E+03  0.00000000000E+00 0.  1.
         13    1    4    4    0    0  0.14043860338E+03 -0.16606182396E+02  0.10240847224E+03  0.17460315518E+03  0.00000000000E+00 0. -1.
         21    1    1    2  502  501 -0.32790233484E+03 -0.45557408514E+02  0.92400963659E+03  0.98152393102E+03  0.00000000000E+00 0. -1.
<scales pt_clust_5="13000.00000" pt_clust_6="13000.00000" pt_clust_7="13000.00000" pt_clust_8="13000.00000" pt_clust_9="345.13975"></scales>
<clustering>
<clus scale="   89.389">  7  8 -1 -1</clus>
<clus scale="   91.520">  5  6 -1 -1</clus>
<clus scale="  251.418">  2  5  1 -1</clus>
<clus scale="  345.140">  1  9  2 -1</clus>
<clus scale="  345.140">  1  5  2 -1</clus>
</clustering>
</event>
<event>
 9    1  0.1175034E-005  0.1001412E+03  0.7546771E-02  0.1280546E+00
          2   -1    0    0  502    0  0.00000000000E+00  0.00000000000E+00  0.53770122744E+03  0.53770122744E+03  0.00000000000E+00 0. -1.
         -2   -1    0    0    0  501 -0.00000000000E+00 -0.00000000000E+00 -0.78862733416E+02  0.78862733416E+02  0.00000000000E+00 0.  1.
         23    2    1    2    0    0  0.36040693404E+02 -0.46018986994E+02  0.16940552655E+03  0.20248828880E+03  0.94268743113E+02 0.  0.
         23    2    1    2    0    0 -0.14922398518E+02  0.18587463984E+02  0.33969480977E+03  0.35304515818E+03  0.93167312554E+02 0.  0.
        -13    1    3    3    0    0  0.47999102943E+01  0.24169099883E+02  0.84335777736E+02  0.87861868489E+02  0.00000000000E+00 0. -1.
         13    1    3    3    0    0  0.31240783110E+02 -0.70188086878E+02  0.85069748817E+02  0.11462642031E+03  0.00000000000E+00 0.  1.
        -13    1    4    4    0    0 -0.48434165860E+02  0.27428169935E+02  0.26384329106E+03  0.26965061685E+03  0.00000000000E+00 0. -1.
         13    1    4    4    0    0  0.33511767342E+02 -0.88407059512E+01  0.75851518715E+02  0.83394541329E+02  0.00000000000E+00 0.  1.
         21    1    1    2  502  501 -0.21118294886E+02  0.27431523011E+02 -0.50261842301E+02  0.61030513885E+02  0.00000000000E+00 0.  1.
<scales pt_clust_5="13000.00000" pt_clust_6="13000.00000" pt_clust_7="13000.00000" pt_clust_8="13000.00000" pt_clust_9="34.61894"></scales>
<clustering>
<clus scale="   34.619">  2  9  1 -1</clus>
<clus scale="   93.167">  7  8 -1 -1</clus>
<clus scale="   94.269">  5  6 -1 -1</clus>
<clus scale="   99.105">  1  7  2 -1</clus>
<clus scale="   99.105">  1  5  2 -1</clus>
</clustering>
</event>
<event>
 9    1  0.1175034E-005  0.1070269E+03  0.7546771E-02  0.1271996E+00
          1   -1    0    0  502    0  0.00000000000E+00  0.00000000000E+00  0.48105070871E+02  0.48105070871E+02  0.00000000000E+00 0. -1.
         -1   -1    0    0    0  501 -0.00000000000E+00 -0.00000000000E+00 -0.32408110166E+03  0.32408110166E+03  0.00000000000E+00 0.  1.
         23    2    1    2    0    0  0.31978406834E+02  0.16987518377E+02 -0.18279711977E+03  0.20747108282E+03  0.91204544433E+02 0.  0.
         23    2    1    2    0    0 -0.27179058203E+02  0.47430622453E+01 -0.53892659912E+02  0.11956355145E+03  0.10310104848E+03 0.  0.
        -11    1    3    3    0    0  0.62167887859E+02 -0.22707904933E+01 -0.11119972858E+03  0.12741814002E+03  0.00000000000E+00 0. -1.
         11    1    3    3    0    0 -0.30189481025E+02  0.19258308870E+02 -0.71597391190E+02  0.80052942796E+02  0.00000000000E+00 0.  1.
        -13    1    4    4    0    0  0.90730073022E+01  0.46683502661E+02 -0.93922764539E+01  0.48475599421E+02  0.00000000000E+00 0.  1.
         13    1    4    4    0    0 -0.36252065505E+02 -0.41940440416E+02 -0.44500383458E+02  0.71087952028E+02  0.00000000000E+00 0. -1.
         21    1    1    2  502  501 -0.47993486307E+01 -0.21730580623E+02 -0.39286251104E+02  0.45151538260E+02  0.00000000000E+00 0. -1.
<scales pt_clust_5="13000.00000" pt_clust_6="13000.00000" pt_clust_7="13000.00000" pt_clust_8="13000.00000" pt_clust_9="22.25426"></scales>
<clustering>
<clus scale="   22.254">  2  9  1 -1</clus>
<clus scale="   91.205">  5  6 -1 -1</clus>
<clus scale="   95.620">  2  5  1 -1</clus>
<clus scale="  103.101">  7  8 -1 -1</clus>
<clus scale="  107.027">  1  5  2 -1</clus>
</clustering>
</event>
<event>
 9    1  0.1175034E-005  0.1741553E+03  0.7546771E-02  0.1189024E+00
          1   -1    0    0  502    0  0.00000000000E+00  0.00000000000E+00  0.95427620675E+03  0.95427620675E+03  0.00000000000E+00 0. -1.
         -1   -1    0    0    0  501 -0.00000000000E+00 -0.00000000000E+00 -0.60388359973E+02  0.60388359973E+02  0.00000000000E+00 0.  1.
         23    2    1    2    0    0  0.12391069022E+03 -0.90673855766E+02  0.48022683177E+03  0.51477362075E+03  0.10391565522E+03 0.  0.
         23    2    1    2    0    0  0.16818580698E+02  0.81058642259E+02  0.27853451270E+03  0.30455443722E+03  0.91206152883E+02 0.  0.
        -13    1    3    3    0    0  0.50468941572E+02  0.15418240904E+02  0.97265072147E+02  0.11065862133E+03  0.00000000000E+00 0.  1.
         13    1    3    3    0    0  0.73441748652E+02 -0.10609209667E+03  0.38296175963E+03  0.40411499942E+03  0.00000000000E+00 0. -1.
        -13    1    4    4    0    0 -0.23495703444E+02 -0.60294613545E+01  0.87069298830E+02  0.90385094364E+02  0.00000000000E+00 0. -1.
         13    1    4    4    0    0  0.40314284142E+02  0.87088103613E+02  0.19146521387E+03  0.21416934286E+03  0.00000000000E+00 0.  1.
         21    1    1    2  502  501 -0.14072927092E+03  0.96152135071E+01  0.13512650230E+03  0.19533650875E+03  0.00000000000E+00 0.  1.
<scales pt_clust_5="13000.00000" pt_clust_6="13000.00000" pt_clust_7="13000.00000" pt_clust_8="13000.00000" pt_clust_9="139.75554"></scales>
<clustering>
<clus scale="   91.206">  7  8 -1 -1</clus>
<clus scale="  103.916">  5  6 -1 -1</clus>
<clus scale="  123.174">  1  7  2 -1</clus>
<clus scale="  139.756">  2  9  1 -1</clus>
<clus scale="  123.174">  1  5  2 -1</clus>
</clustering>
</event>
<event>
 9    1  0.1175034E-005  0.9516382E+02  0.7546771E-02  0.1298305E+00
          1   -1    0    0  502    0  0.00000000000E+00  0.00000000000E+00  0.25427043776E+03  0.25427043776E+03  0.00000000000E+00 0. -1.
         -1   -1    0    0    0  501 -0.00000000000E+00 -0.00000000000E+00 -0.42674471673E+03  0.42674471673E+03  0.00000000000E+00 0.  1.
         23    2    1    2    0    0  0.43836477082E+02  0.25668770250E+01 -0.83044194723E+02  0.12325329011E+03  0.79792290765E+02 0.  0.
         23    2    1    2    0    0 -0.96247283885E+01 -0.19567585220E+02  0.22329768715E+03  0.24270928650E+03  0.92576535244E+02 0.  0.
        -11    1    3    3    0    0  0.65602231165E+02 -0.72038982323E+01 -0.69395733753E+02  0.95766991948E+02  0.00000000000E+00 0.  1.
         11    1    3    3    0    0 -0.21765754083E+02  0.97707752574E+01 -0.13648460970E+02  0.27486298164E+02  0.00000000000E+00 0. -1.
        -13    1    4    4    0    0  0.40594536955E+02 -0.14299756607E+00  0.11044623043E+03  0.11767033057E+03  0.00000000000E+00 0.  1.
         13    1    4    4    0    0 -0.50219265343E+02 -0.19424587654E+02  0.11285145672E+03  0.12503895594E+03  0.00000000000E+00 0. -1.
         21    1    1    2  502  501 -0.34211748693E+02  0.17000708195E+02 -0.31272777139E+03  0.31505257788E+03  0.00000000000E+00 0.  1.
<scales pt_clust_5="13000.00000" pt_clust_6="13000.00000" pt_clust_7="13000.00000" pt_clust_8="13000.00000" pt_clust_9="38.20298"></scales>
<clustering>
<clus scale="   38.203">  2  9  1 -1</clus>
<clus scale="   79.792">  5  6 -1 -1</clus>
<clus scale="   82.780">  2  5  1 -1</clus>
<clus scale="   92.577">  7  8 -1 -1</clus>
<clus scale="   95.164">  1  5  2 -1</clus>
</clustering>
</event>
<event>
 9    1  0.1175034E-005  0.1101015E+03  0.7546771E-02  0.1267676E+00
         -1   -1    0    0    0  501 -0.00000000000E+00  0.00000000000E+00  0.59159714380E+02  0.59159714380E+02  0.00000000000E+00 0.  1.
          1   -1    0    0  502    0  0.00000000000E+00 -0.00000000000E+00 -0.25899250679E+03  0.25899250679E+03  0.00000000000E+00 0. -1.
         23    2    1    2    0    0 -0.10930446949E+01  0.10418394813E+02 -0.65884200356E+02  0.11335363752E+03  0.91643775489E+02 0.  0.
         23    2    1    2    0    0  0.24578836256E+02 -0.35939668143E+02 -0.12257804175E+03  0.16829916979E+03  0.10678696220E+03 0.  0.
        -11    1    4    4    0    0  0.55716022981E+02 -0.43693787925E+02 -0.43852897389E+02  0.83285646599E+02  0.00000000000E+00 0. -1.
         11    1    4    4    0    0 -0.31137186725E+02  0.77541197822E+01 -0.78725144361E+02  0.85013523191E+02  0.00000000000E+00 0.  1.
        -13    1    3    3    0    0  0.40898114715E+02  0.24437821510E+02 -0.38913511582E+02  0.61515236251E+02  0.00000000000E+00 0. -1.
         13    1    3    3    0    0 -0.41991159409E+02 -0.14019426698E+02 -0.26970688773E+02  0.51838401272E+02  0.00000000000E+00 0.  1.
         21    1    1    2  502  501 -0.23485791561E+02  0.25521273330E+02 -0.11370550305E+02  0.36499413857E+02  0.00000000000E+00 0. -1.
<scales pt_clust_5="13000.00000" pt_clust_6="13000.00000" pt_clust_7="13000.00000" pt_clust_8="13000.00000" pt_clust_9="34.68311"></scales>
<clustering>
<clus scale="   34.683">  1  9  2 -1</clus>
<clus scale="   91.644">  7  8 -1 -1</clus>
<clus scale="   95.485">  1  7  2 -1</clus>
<clus scale="  106.787">  5  6 -1 -1</clus>
<clus scale="  110.102">  2  5  1 -1</clus>
</clustering>
</event>
<event>
 9    1  0.1175034E-005  0.1402779E+03  0.7546771E-02  0.1213488E+00
          1   -1    0    0  502    0  0.00000000000E+00  0.00000000000E+00  0.74364573071E+03  0.74364573071E+03  0.00000000000E+00 0. -1.
         -1   -1    0    0    0  501 -0.00000000000E+00 -0.00000000000E+00 -0.45164133646E+02  0.45164133646E+02  0.00000000000E+00 0.  1.
         23    2    1    2    0    0  0.20158337373E+02  0.10702719801E+03  0.18968879964E+03  0.23729233866E+03  0.92003443397E+02 0.  0.
         23    2    1    2    0    0 -0.42859523599E+02 -0.96436406375E+02  0.50792755304E+03  0.52645246293E+03  0.89581679817E+02 0.  0.
        -11    1    4    4    0    0  0.73524080703E+01 -0.66147596729E+02  0.37921859328E+03  0.38501468017E+03  0.00000000000E+00 0. -1.
         11    1    4    4    0    0 -0.50211931669E+02 -0.30288809645E+02  0.12870895976E+03  0.14143778276E+03  0.00000000000E+00 0.  1.
        -13    1    3    3    0    0 -0.96230595466E+01  0.11056190819E+03  0.13353914258E+03  0.17363536915E+03  0.00000000000E+00 0.  1.
         13    1    3    3    0    0  0.29781396920E+02 -0.35347101889E+01  0.56149657064E+02  0.63656969508E+02  0.00000000000E+00 0. -1.
         21    1    1    2  502  501  0.22701186226E+02 -0.10590791631E+02  0.86524438227E+00  0.25065062762E+02  0.00000000000E+00 0.  1.
<scales pt_clust_5="13000.00000" pt_clust_6="13000.00000" pt_clust_7="13000.00000" pt_clust_8="13000.00000" pt_clust_9="25.05012"></scales>
<clustering>
<clus scale="   25.050">  2  9  1 -1</clus>
<clus scale="   89.582">  5  6 -1 -1</clus>
<clus scale="   92.003">  7  8 -1 -1</clus>
<clus scale="  138.702">  1  5  2 -1</clus>
<clus scale="  138.702">  1  5  2 -1</clus>
</clustering>
</event>
<event>
 9    1  0.1175034E-005  0.1196322E+03  0.7546771E-02  0.1245813E+00
         -1   -1    0    0    0  501 -0.00000000000E+00  0.00000000000E+00  0.56234711473E+02  0.56234711473E+02  0.00000000000E+00 0.  1.
          1   -1    0    0  502    0  0.00000000000E+00 -0.00000000000E+00 -0.30799755794E+03  0.30799755794E+03  0.00000000000E+00 0. -1.
         23    2    1    2    0    0 -0.59642782827E+02 -0.51117282233E+02 -0.88314754642E+02  0.14698561360E+03  0.87378696674E+02 0.  0.
         23    2    1    2    0    0  0.66091816273E+02  0.29760206888E+02 -0.15001905301E+03  0.19120718993E+03  0.93811913549E+02 0.  0.
        -11    1    4    4    0    0 -0.15010592189E+02 -0.18552660337E+02 -0.25161942255E+02  0.34679135246E+02  0.00000000000E+00 0. -1.
         11    1    4    4    0    0  0.81102408461E+02  0.48312867225E+02 -0.12485711075E+03  0.15652805468E+03  0.00000000000E+00 0.  1.
        -13    1    3    3    0    0  0.22835103926E+02 -0.82582458899E+01 -0.22407941859E+02  0.33041738073E+02  0.00000000000E+00 0.  1.
         13    1    3    3    0    0 -0.82477886753E+02 -0.42859036343E+02 -0.65906812782E+02  0.11394387553E+03  0.00000000000E+00 0. -1.
         21    1    1    2  502  501 -0.64490334459E+01  0.21357075345E+02 -0.13429038817E+02  0.26039465878E+02  0.00000000000E+00 0. -1.
<scales pt_clust_5="13000.00000" pt_clust_6="13000.00000" pt_clust_7="13000.00000" pt_clust_8="13000.00000" pt_clust_9="22.30952"></scales>
<clustering>
<clus scale="   22.310">  1  9  2 -1</clus>
<clus scale="   87.379">  7  8 -1 -1</clus>
<clus scale="   93.812">  5  6 -1 -1</clus>
<clus scale="  114.657">  1  7  2 -1</clus>
<clus scale="  119.632">  2  5  1 -1</clus>
</clustering>
</event>
<event>
 9    1  0.1175034E-005  0.1405134E+03  0.7546771E-02  0.1212927E+00
         -1   -1    0    0    0  501 -0.00000000000E+00  0.00000000000E+00  0.93897254796E+02  0.93897254796E+02  0.00000000000E+00 0.  1.
          1   -1    0    0  502    0  0.00000000000E+00 -0.00000000000E+00 -0.66314314163E+03  0.66314314163E+03  0.00000000000E+00 0. -1.
         23    2    1    2    0    0 -0.11253967018E+03 -0.41447957305E+02  0.23462622297E+00  0.14968545929E+03  0.89568806768E+02 0.  0.
         23    2    1    2    0    0  0.72796968846E+02 -0.32645351207E+02 -0.26167131747E+03  0.28826905283E+03  0.90895823894E+02 0.  0.
        -11    1    4    4    0    0 -0.11888369536E+02 -0.30179431415E+02 -0.43783461281E+02  0.54489658583E+02  0.00000000000E+00 0.  1.
         11    1    4    4    0    0  0.84685338381E+02 -0.24659197915E+01 -0.21788785619E+03  0.23377939424E+03  0.00000000000E+00 0. -1.
        -13    1    3    3    0    0 -0.94592367844E+02 -0.61974744963E+02 -0.21132647656E+02  0.11504422569E+03  0.00000000000E+00 0. -1.
         13    1    3    3    0    0 -0.17947302336E+02  0.20526787658E+02  0.21367273879E+02  0.34641233605E+02  0.00000000000E+00 0.  1.
         21    1    1    2  502  501  0.39742701334E+02  0.74093308512E+02 -0.30780919559E+03  0.31908588431E+03  0.00000000000E+00 0. -1.
<scales pt_clust_5="13000.00000" pt_clust_6="13000.00000" pt_clust_7="13000.00000" pt_clust_8="13000.00000" pt_clust_9="84.07913"></scales>
<clustering>
<clus scale="   84.079">  2  9  1 -1</clus>
<clus scale="   89.569">  7  8 -1 -1</clus>
<clus scale="   90.896">  5  6 -1 -1</clus>
<clus scale="  139.659">  1  7  2 -1</clus>
<clus scale="   84.079">  2  5  1 -1</clus>
</clustering>
</event>
<event>
 9    1  0.1175034E-005  0.1182210E+03  0.7546771E-02  0.1247996E+00
          1   -1    0    0  502    0  0.00000000000E+00  0.00000000000E+00  0.97399926986E+02  0.97399926986E+02  0.00000000000E+00 0. -1.
         -1   -1    0    0    0  501 -0.00000000000E+00 -0.00000000000E+00 -0.22690947154E+03  0.22690947154E+03  0.00000000000E+00 0.  1.
         23    2    1    2    0    0  0.36983059805E+02  0.60542084425E+02 -0.35543050186E+02  0.12012958839E+03  0.90192676484E+02 0.  0.
         23    2    1    2    0    0 -0.58458004390E+02 -0.57485197446E+02 -0.10557915337E+02  0.11799681379E+03  0.84201498123E+02 0.  0.
        -13    1    4    4    0    0 -0.43792694099E+02  0.75485471850E+01  0.14548297294E+02  0.46759315384E+02  0.00000000000E+00 0.  1.
         13    1    4    4    0    0 -0.14665310291E+02 -0.65033744631E+02 -0.25106212632E+02  0.71237498408E+02  0.00000000000E+00 0. -1.
        -13    1    3    3    0    0  0.54489711625E+02  0.18587622129E+02 -0.45750349376E+02  0.73537220762E+02  0.00000000000E+00 0.  1.
         13    1    3    3    0    0 -0.17506651820E+02  0.41954462295E+02  0.10207299190E+02  0.46592367628E+02  0.00000000000E+00 0. -1.
         21    1    1    2  502  501  0.21474944586E+02 -0.30568869784E+01 -0.83408579029E+02  0.86182996343E+02  0.00000000000E+00 0.  1.
<scales pt_clust_5="13000.00000" pt_clust_6="13000.00000" pt_clust_7="13000.00000" pt_clust_8="13000.00000" pt_clust_9="21.69142"></scales>
<clustering>
<clus scale="   21.691">  2  9  1 -1</clus>
<clus scale="   84.201">  5  6 -1 -1</clus>
<clus scale="   90.193">  7  8 -1 -1</clus>
<clus scale="  113.716">  1  5  2 -1</clus>
<clus scale="  113.716">  1  5  2 -1</clus>
</clustering>
</event>
<event>
 9    1  0.1175034E-005  0.9589686E+02  0.7546771E-02  0.1291370E+00
          1   -1    0    0  502    0  0.00000000000E+00  0.00000000000E+00  0.72939275661E+03  0.72939275661E+03  0.00000000000E+00 0. -1.
         -1   -1    0    0    0  501 -0.00000000000E+00 -0.00000000000E+00 -0.30229646685E+02  0.30229646685E+02  0.00000000000E+00 0.  1.
         23    2    1    2    0    0 -0.19529961317E+02  0.11088706323E+02  0.25033471120E+03  0.26612826142E+03  0.87478026361E+02 0.  0.
         23    2    1    2    0    0  0.14977114242E+01 -0.38175583953E+02  0.45012792320E+03  0.46092805922E+03  0.91541849354E+02 0.  0.
        -11    1    4    4    0    0 -0.44871725527E+02 -0.22821620787E+02  0.23124087440E+03  0.23665722073E+03  0.00000000000E+00 0.  1.
         11    1    4    4    0    0  0.46369436952E+02 -0.15353963166E+02  0.21888704880E+03  0.22427083849E+03  0.00000000000E+00 0. -1.
        -11    1    3    3    0    0  0.33947324324E+02  0.12958986980E+02  0.88205216003E+02  0.95396626263E+02  0.00000000000E+00 0. -1.
         11    1    3    3    0    0 -0.53477285641E+02 -0.18702806562E+01  0.16212949520E+03  0.17073163515E+03  0.00000000000E+00 0.  1.
         21    1    1    2  502  501  0.18032249893E+02  0.27086877629E+02 -0.12995244730E+01  0.32566082659E+02  0.00000000000E+00 0. -1.
<scales pt_clust_5="13000.00000" pt_clust_6="13000.00000" pt_clust_7="13000.00000" pt_clust_8="13000.00000" pt_clust_9="32.54014"></scales>
<clustering>
<clus scale="   32.540">  2  9  1 -1</clus>
<clus scale="   87.478">  7  8 -1 -1</clus>
<clus scale="   91.542">  5  6 -1 -1</clus>
<clus scale="   92.026">  2  7  1 -1</clus>
<clus scale="   95.897">  1  5  2 -1</clus>
</clustering>
</event>
<event>
 9    1  0.1175034E-005  0.2061909E+03  0.7546771E-02  0.1145092E+00
          1   -1    0    0  502    0  0.00000000000E+00  0.00000000000E+00  0.11391513184E+04  0.11391513184E+04  0.00000000000E+00 0. -1.
         -1   -1    0    0    0  501 -0.00000000000E+00 -0.00000000000E+00 -0.46119731488E+02  0.46119731488E+02  0.00000000000E+00 0.  1.
         23    2    1    2    0    0 -0.14613952803E+03  0.10666296500E+03  0.36098848225E+03  0.41392229716E+03  0.91023260809E+02 0.  0.
         23    2    1    2    0    0  0.16510149624E+03 -0.85668319715E+02  0.57851971324E+03  0.61524057522E+03  0.96116292775E+02 0.  0.
        -11    1    4    4    0    0  0.66892151384E+02  0.34307476302E+01  0.11456723969E+03  0.13271014414E+03  0.00000000000E+00 0.  1.
         11    1    4    4    0    0  0.98209344857E+02 -0.89099067346E+02  0.46395247354E+03  0.48253043109E+03  0.00000000000E+00 0. -1.
        -11    1    3    3    0    0 -0.13571600019E+03  0.49643853809E+02  0.26202948359E+03  0.29923702177E+03  0.00000000000E+00 0.  1.
         11    1    3    3    0    0 -0.10423527846E+02  0.57019111196E+02  0.98958998660E+02  0.11468527539E+03  0.00000000000E+00 0. -1.
         21    1    1    2  502  501 -0.18961968207E+02 -0.20994645290E+02  0.15352339140E+03  0.15610817748E+03  0.00000000000E+00 0. -1.
<scales pt_clust_5="13000.00000" pt_clust_6="13000.00000" pt_clust_7="13000.00000" pt_clust_8="13000.00000" pt_clust_9="28.29013"></scales>
<clustering>
<clus scale="   28.290">  1  9  2 -1</clus>
<clus scale="   91.023">  7  8 -1 -1</clus>
<clus scale="   96.116">  5  6 -1 -1</clus>
<clus scale="  203.867">  2  7  1 -1</clus>
<clus scale="   28.290">  1  5  2 -1</clus>
</clustering>
</event>
<event>
 9    1  0.1175034E-005  0.9916383E+02  0.7546771E-02  0.1283113E+00
          1   -1    0    0  502    0  0.00000000000E+00  0.00000000000E+00  0.13283500209E+03  0.13283500209E+03  0.00000000000E+00 0. -1.
         -1   -1    0    0    0  501 -0.00000000000E+00 -0.00000000000E+00 -0.12644938408E+03  0.12644938408E+03  0.00000000000E+00 0.  1.
         23    2    1    2    0    0  0.22985242816E+02  0.17327164493E+02  0.10104192685E+02  0.96095061655E+02  0.91124168847E+02 0.  0.
         23    2    1    2    0    0 -0.12857234034E+02 -0.49723342810E+02  0.37868404957E+02  0.10950910650E+03  0.88997241667E+02 0.  0.
        -11    1    3    3    0    0  0.56144934552E+02 -0.37073094744E+01  0.70676639521E+01  0.56709343966E+02  0.00000000000E+00 0.  1.
         11    1    3    3    0    0 -0.33159691736E+02  0.21034473967E+02  0.30365287326E+01  0.39385717689E+02  0.00000000000E+00 0. -1.
        -13    1    4    4    0    0 -0.11415882441E+01  0.25902911426E+02  0.60173322465E+01  0.26617143563E+02  0.00000000000E+00 0. -1.
         13    1    4    4    0    0 -0.11715645790E+02 -0.75626254236E+02  0.31851072711E+02  0.82891962933E+02  0.00000000000E+00 0.  1.
         21    1    1    2  502  501 -0.10128008782E+02  0.32396178317E+02 -0.41586979632E+02  0.53680218017E+02  0.00000000000E+00 0. -1.
<scales pt_clust_5="13000.00000" pt_clust_6="13000.00000" pt_clust_7="13000.00000" pt_clust_8="13000.00000" pt_clust_9="33.94244"></scales>
<clustering>
<clus scale="   33.942">  2  9  1 -1</clus>
<clus scale="   88.997">  7  8 -1 -1</clus>
<clus scale="   91.124">  5  6 -1 -1</clus>
<clus scale="   97.213">  1  7  2 -1</clus>
<clus scale="   97.213">  1  5  2 -1</clus>
</clustering>
</event>
<event>
 9    1  0.1175034E-005  0.1164352E+03  0.7546771E-02  0.1256452E+00
         -1   -1    0    0    0  501 -0.00000000000E+00  0.00000000000E+00  0.47555781179E+02  0.47555781179E+02  0.00000000000E+00 0.  1.
          1   -1    0    0  502    0  0.00000000000E+00 -0.00000000000E+00 -0.46620961885E+03  0.46620961885E+03  0.00000000000E+00 0. -1.
         23    2    1    2    0    0  0.37195626528E+01  0.13669704702E+02 -0.14428763087E+03  0.17307187846E+03  0.94521207787E+02 0.  0.
         23    2    1    2    0    0 -0.46576322890E+02 -0.32315378195E+02 -0.26512781860E+03  0.29305203907E+03  0.11123443660E+03 0.  0.
        -11    1    4    4    0    0 -0.49667873560E+02 -0.69728069168E+02 -0.16068493181E+03  0.18206742873E+03  0.00000000000E+00 0.  1.
         11    1    4    4    0    0  0.30915506701E+01  0.37412690973E+02 -0.10444288679E+03  0.11098461034E+03  0.00000000000E+00 0. -1.
        -11    1    3    3    0    0 -0.37854688558E+02 -0.10247913487E+02 -0.30803640246E+02  0.49868441214E+02  0.00000000000E+00 0.  1.
         11    1    3    3    0    0  0.41574251211E+02  0.23917618188E+02 -0.11348399062E+03  0.12320343725E+03  0.00000000000E+00 0. -1.
         21    1    1    2  502  501  0.42856760237E+02  0.18645673493E+02 -0.92383882112E+01  0.47641482500E+02  0.00000000000E+00 0.  1.
<scales pt_clust_5="13000.00000" pt_clust_6="13000.00000" pt_clust_7="13000.00000" pt_clust_8="13000.00000" pt_clust_9="46.73717"></scales>
<clustering>
<clus scale="   46.737">  1  9  2 -1</clus>
<clus scale="   94.521">  7  8 -1 -1</clus>
<clus scale="  100.590">  1  7  2 -1</clus>
<clus scale="  111.234">  5  6 -1 -1</clus>
<clus scale="  116.435">  2  5  1 -1</clus>
</clustering>
</event>
<event>
 9    1  0.1175034E-005  0.9646603E+02  0.7546771E-02  0.1288423E+00
          1   -1    0    0  502    0  0.00000000000E+00  0.00000000000E+00  0.18566175311E+03  0.18566175311E+03  0.00000000000E+00 0. -1.
         -1   -1    0    0    0  501 -0.00000000000E+00 -0.00000000000E+00 -0.64451405663E+02  0.64451405663E+02  0.00000000000E+00 0.  1.
         23    2    1    2    0    0 -0.19042136149E+02 -0.25800658586E+02  0.46190261889E+02  0.10848681400E+03  0.92776999229E+02 0.  0.
         23    2    1    2    0    0  0.18845543576E+02  0.22183305076E+01  0.66789334767E+02  0.11664815219E+03  0.93733135376E+02 0.  0.
        -11    1    4    4    0    0 -0.18149741097E+02 -0.12511914508E+02 -0.14322775570E+02  0.26288838061E+02  0.00000000000E+00 0.  1.
         11    1    4    4    0    0  0.36995284673E+02  0.14730245016E+02  0.81112110337E+02  0.90359314127E+02  0.00000000000E+00 0. -1.
        -13    1    3    3    0    0 -0.56482602405E+02 -0.20144213486E+02  0.32605994588E+02  0.68258512982E+02  0.00000000000E+00 0.  1.
         13    1    3    3    0    0  0.37440466257E+02 -0.56564451000E+01  0.13584267301E+02  0.40228301018E+02  0.00000000000E+00 0. -1.
         21    1    1    2  502  501  0.19659257276E+00  0.23582328078E+02  0.82307507922E+01  0.24978192586E+02  0.00000000000E+00 0. -1.
<scales pt_clust_5="13000.00000" pt_clust_6="13000.00000" pt_clust_7="13000.00000" pt_clust_8="13000.00000" pt_clust_9="23.58315"></scales>
<clustering>
<clus scale="   23.583">  2  9  1 -1</clus>
<clus scale="   92.777">  7  8 -1 -1</clus>
<clus scale="   93.733">  5  6 -1 -1</clus>
<clus scale="   95.537">  2  7  1 -1</clus>
<clus scale="   96.466">  1  5  2 -1</clus>
</clustering>
</event>
<event>
 9    1  0.1175034E-005  0.9229740E+02  0.7546771E-02  0.1297516E+00
         -2   -1    0    0    0  501 -0.00000000000E+00  0.00000000000E+00  0.46964690121E+03  0.46964690121E+03  0.00000000000E+00 0.  1.
          2   -1    0    0  502    0  0.00000000000E+00 -0.00000000000E+00 -0.40742305718E+02  0.40742305718E+02  0.00000000000E+00 0. -1.
         23    2    1    2    0    0  0.29111868196E+00  0.26706465160E+02  0.29921113809E+03  0.31382517292E+03  0.90805363115E+02 0.  0.
         23    2    1    2    0    0 -0.17402154759E+02  0.20458840128E+02  0.64897997796E+02  0.11461401775E+03  0.90571650187E+02 0.  0.
        -13    1    3    3    0    0 -0.15376307102E+02  0.50964884227E+02  0.25842337225E+03  0.26384936909E+03  0.00000000000E+00 0.  1.
         13    1    3    3    0    0  0.15667425784E+02 -0.24258419067E+02  0.40787765842E+02  0.49975803833E+02  0.00000000000E+00 0. -1.
        -13    1    4    4    0    0  0.22571911252E+02  0.17297286080E+02  0.68682539678E+02  0.74336925817E+02  0.00000000000E+00 0.  1.
         13    1    4    4    0    0 -0.39974066011E+02  0.31615540487E+01 -0.37845418826E+01  0.40277091934E+02  0.00000000000E+00 0. -1.
         21    1    1    2  502  501  0.17111036077E+02 -0.47165305288E+02  0.64795459605E+02  0.81950016253E+02  0.00000000000E+00 0. -1.
<scales pt_clust_5="13000.00000" pt_clust_6="13000.00000" pt_clust_7="13000.00000" pt_clust_8="13000.00000" pt_clust_9="50.17324"></scales>
<clustering>
<clus scale="   50.173">  2  9  1 -1</clus>
<clus scale="   90.572">  7  8 -1 -1</clus>
<clus scale="   90.805">  5  6 -1 -1</clus>
<clus scale="   92.067">  2  7  1 -1</clus>
<clus scale="   50.173">  2  5  1 -1</clus>
</clustering>
</event>
<event>
 9    1  0.1175034E-005  0.1072582E+03  0.7546771E-02  0.1266765E+00
          2   -1    0    0  502    0  0.00000000000E+00  0.00000000000E+00  0.42879062912E+03  0.42879062912E+03  0.00000000000E+00 0. -1.
         -2   -1    0    0    0  501 -0.00000000000E+00 -0.00000000000E+00 -0.46215034880E+02  0.46215034880E+02  0.00000000000E+00 0.  1.
         23    2    1    2    0    0  0.15615972582E+02 -0.25921406876E+02  0.74076815150E+02  0.12396480135E+03  0.94679034092E+02 0.  0.
         23    2    1    2    0    0  0.13644697678E+02  0.61064336636E+02  0.26680834719E+03  0.28915948865E+03  0.92257708417E+02 0.  0.
        -11    1    4    4    0    0 -0.25895569554E+02  0.54847045719E+02  0.94701288790E+02  0.11245938398E+03  0.00000000000E+00 0. -1.
         11    1    4    4    0    0  0.39540267233E+02  0.62172909174E+01  0.17210705840E+03  0.17670010467E+03  0.00000000000E+00 0.  1.
        -11    1    3    3    0    0 -0.30792503719E+02  0.12585598475E+02  0.74293370749E+01  0.34084756470E+02  0.00000000000E+00 0.  1.
         11    1    3    3    0    0  0.46408476301E+02 -0.38507005351E+02  0.66647478075E+02  0.89880044879E+02  0.00000000000E+00 0. -1.
         21    1    1    2  502  501 -0.29260670260E+02 -0.35142929760E+02  0.41690431896E+02  0.61881373998E+02  0.00000000000E+00 0.  1.
<scales pt_clust_5="13000.00000" pt_clust_6="13000.00000" pt_clust_7="13000.00000" pt_clust_8="13000.00000" pt_clust_9="45.72978"></scales>
<clustering>
<clus scale="   45.730">  2  9  1 -1</clus>
<clus scale="   92.258">  5  6 -1 -1</clus>
<clus scale="   94.679">  7  8 -1 -1</clus>
<clus scale="  105.127">  1  5  2 -1</clus>
<clus scale="  105.127">  1  5  2 -1</clus>
</clustering>
</event>
<event>
 9    1  0.1175034E-005  0.9732239E+02  0.7546771E-02  0.1286513E+00
          2   -1    0    0  502    0  0.00000000000E+00  0.00000000000E+00  0.11062310196E+03  0.11062310196E+03  0.00000000000E+00 0. -1.
         -2   -1    0    0    0  501 -0.00000000000E+00 -0.00000000000E+00 -0.17967533436E+03  0.17967533436E+03  0.00000000000E+00 0.  1.
         23    2    1    2    0    0  0.43799578807E+02  0.16986351364E+02 -0.79848377502E+02  0.13097277183E+03  0.92580582927E+02 0.  0.
         23    2    1    2    0    0 -0.26245975318E+02  0.15303031958E+01  0.53683183826E+02  0.10942282307E+03  0.91653024692E+02 0.  0.
        -11    1    4    4    0    0  0.21786395007E+02  0.27973682941E+02  0.44542900365E+01  0.35735341672E+02  0.00000000000E+00 0. -1.
         11    1    4    4    0    0 -0.48032370325E+02 -0.26443379745E+02  0.49228893789E+02  0.73687481400E+02  0.00000000000E+00 0.  1.
        -11    1    3    3    0    0 -0.28262868283E+02  0.51050209277E+01 -0.11476239232E+02  0.30928223828E+02  0.00000000000E+00 0.  1.
         11    1    3    3    0    0  0.72062447090E+02  0.11881330437E+02 -0.68372138270E+02  0.10004454800E+03  0.00000000000E+00 0. -1.
         21    1    1    2  502  501 -0.17553603489E+02 -0.18516654560E+02 -0.42887038717E+02  0.49902841417E+02  0.00000000000E+00 0.  1.
<scales pt_clust_5="13000.00000" pt_clust_6="13000.00000" pt_clust_7="13000.00000" pt_clust_8="13000.00000" pt_clust_9="25.51461"></scales>
<clustering>
<clus scale="   25.515">  2  9  1 -1</clus>
<clus scale="   91.653">  5  6 -1 -1</clus>
<clus scale="   92.581">  7  8 -1 -1</clus>
<clus scale="   96.440">  1  5  2 -1</clus>
<clus scale="   96.440">  1  5  2 -1</clus>
</clustering>
</event>
<event>
 9    1  0.1175034E-005  0.1175641E+03  0.7546771E-02  0.1250083E+00
          1   -1    0    0  502    0  0.00000000000E+00  0.00000000000E+00  0.50566136383E+02  0.50566136383E+02  0.00000000000E+00 0. -1.
         -1   -1    0    0    0  501 -0.00000000000E+00 -0.00000000000E+00 -0.33695989548E+03  0.33695989548E+03  0.00000000000E+00 0.  1.
         23    2    1    2    0    0 -0.50744570261E+02 -0.18557362317E+02 -0.17285994707E+03  0.20691484176E+03  0.10006899285E+03 0.  0.
         23    2    1    2    0    0  0.72091020449E+02  0.20447987884E+02 -0.92080311783E+02  0.15028796347E+03  0.92154504552E+02 0.  0.
        -13    1    4    4    0    0  0.84881734394E+02 -0.81176439851E+00 -0.92403485928E+02  0.12547498558E+03  0.00000000000E+00 0. -1.
         13    1    4    4    0    0 -0.12790713945E+02  0.21259752283E+02  0.32317414502E+00  0.24812977892E+02  0.00000000000E+00 0.  1.
        -13    1    3    3    0    0 -0.50957612892E+02 -0.55853539841E+02 -0.12701995527E+03  0.14781869050E+03  0.00000000000E+00 0.  1.
         13    1    3    3    0    0  0.21304263140E+00  0.37296177524E+02 -0.45839991803E+02  0.59096151259E+02  0.00000000000E+00 0. -1.
         21    1    1    2  502  501 -0.21346450188E+02 -0.18906255669E+01 -0.21453500243E+02  0.30323226632E+02  0.00000000000E+00 0.  1.
<scales pt_clust_5="13000.00000" pt_clust_6="13000.00000" pt_clust_7="13000.00000" pt_clust_8="13000.00000" pt_clust_9="21.43001"></scales>
<clustering>
<clus scale="   21.430">  1  9  2 -1</clus>
<clus scale="   92.155">  5  6 -1 -1</clus>
<clus scale="  100.069">  7  8 -1 -1</clus>
<clus scale="  110.905">  1  5  2 -1</clus>
<clus scale="   21.430">  1  5  2 -1</clus>
</clustering>
</event>
<event>
 9    1  0.1175034E-005  0.9442491E+02  0.7546771E-02  0.1292867E+00
         -1   -1    0    0    0  501 -0.00000000000E+00  0.00000000000E+00  0.44404061275E+02  0.44404061275E+02  0.00000000000E+00 0.  1.
          1   -1    0    0  502    0  0.00000000000E+00 -0.00000000000E+00 -0.46538397668E+03  0.46538397668E+03  0.00000000000E+00 0. -1.
         23    2    1    2    0    0  0.19002372626E+02 -0.21629314986E+02 -0.11221738788E+03  0.14750357096E+03  0.91299747389E+02 0.  0.
         23    2    1    2    0    0  0.42350645013E+02 -0.54352405694E+01 -0.26083065859E+03  0.27985785114E+03  0.92003616288E+02 0.  0.
        -13    1    3    3    0    0 -0.36334625742E+02 -0.17111138573E+02 -0.44795544139E+02  0.60163418003E+02  0.00000000000E+00 0.  1.
         13    1    3    3    0    0  0.55336998368E+02 -0.45181764138E+01 -0.67421843737E+02  0.87340152961E+02  0.00000000000E+00 0. -1.
        -13    1    4    4    0    0 -0.27024239769E+02  0.50528817434E+01 -0.43289808800E+02  0.51282050416E+02  0.00000000000E+00 0.  1.
         13    1    4    4    0    0  0.69374884782E+02 -0.10488122313E+02 -0.21754084979E+03  0.22857580072E+03  0.00000000000E+00 0. -1.
         21    1    1    2  502  501 -0.61353017639E+02  0.27064555556E+02 -0.47931868936E+02  0.82426615850E+02  0.00000000000E+00 0.  1.
<scales pt_clust_5="13000.00000" pt_clust_6="13000.00000" pt_clust_7="13000.00000" pt_clust_8="13000.00000" pt_clust_9="67.05731"></scales>
<clustering>
<clus scale="   67.057">  1  9  2 -1</clus>
<clus scale="   91.300">  5  6 -1 -1</clus>
<clus scale="   92.004">  7  8 -1 -1</clus>
<clus scale="   93.739">  1  5  2 -1</clus>
<clus scale="   94.425">  2  5  1 -1</clus>
</clustering>
</event>
<event>
 9    1  0.1179953E-005  0.1168482E+03  0.7546771E-02  0.1248771E+00
          1   -1    0    0  502    0  0.00000000000E+00  0.00000000000E+00  0.73935033785E+03  0.73935033785E+03  0.00000000000E+00 0. -1.
         -1   -1    0    0    0  501 -0.00000000000E+00 -0.00000000000E+00 -0.47117276840E+02  0.47117276840E+02  0.00000000000E+00 0.  1.
         23    2    1    2    0    0  0.59499173777E+02 -0.29143050522E+02  0.10043241827E+03  0.15145425126E+03  0.91990491412E+02 0.  0.
         23    2    1    2    0    0 -0.71663857644E+02  0.91176849690E+01  0.59901480424E+03  0.61049726821E+03  0.93109280526E+02 0.  0.
        -11    1    4    4    0    0 -0.23450536609E+02 -0.41299368711E+02  0.27330404618E+03  0.27739983270E+03  0.00000000000E+00 0.  1.
         11    1    4    4    0    0 -0.48213321035E+02  0.50417053680E+02  0.32571075805E+03  0.33309743550E+03  0.00000000000E+00 0. -1.
        -13    1    3    3    0    0  0.17295283787E+02  0.28923702628E+02  0.60649694459E+02  0.69383664165E+02  0.00000000000E+00 0.  1.
         13    1    3    3    0    0  0.42203889990E+02 -0.58066753150E+02  0.39782723812E+02  0.82070587092E+02  0.00000000000E+00 0. -1.
         21    1    1    2  502  501  0.12164683867E+02  0.20025365553E+02 -0.72141614969E+01  0.24516095227E+02  0.00000000000E+00 0.  1.
<scales pt_clust_5="13000.00000" pt_clust_6="13000.00000" pt_clust_7="13000.00000" pt_clust_8="13000.00000" pt_clust_9="23.43064"></scales>
<clustering>
<clus scale="   23.431">  2  9  1 -1</clus>
<clus scale="   91.990">  7  8 -1 -1</clus>
<clus scale="   93.109">  5  6 -1 -1</clus>
<clus scale="  115.959">  2  7  1 -1</clus>
<clus scale="  116.848">  1  5  2 -1</clus>
</clustering>
</event>
<event>
 9    1  0.1175034E-005  0.1398360E+03  0.7546771E-02  0.1214205E+00
         -2   -1    0    0    0  501 -0.00000000000E+00  0.00000000000E+00  0.33160467546E+03  0.33160467546E+03  0.00000000000E+00 0.  1.
          2   -1    0    0  502    0  0.00000000000E+00 -0.00000000000E+00 -0.99610052554E+02  0.99610052554E+02  0.00000000000E+00 0. -1.
         23    2    1    2    0    0 -0.11294837668E+03  0.70983585546E+02  0.91739854197E+02  0.18786338152E+03  0.95291364023E+02 0.  0.
         23    2    1    2    0    0  0.70209459721E+02 -0.45188632319E+02  0.39111313251E+02  0.13055953288E+03  0.92437633446E+02 0.  0.
        -11    1    3    3    0    0 -0.89657123124E+02  0.81862167270E+00  0.56366557400E+02  0.10590683954E+03  0.00000000000E+00 0. -1.
         11    1    3    3    0    0 -0.23291253559E+02  0.70164963873E+02  0.35373296797E+02  0.81956541984E+02  0.00000000000E+00 0.  1.
        -11    1    4    4    0    0  0.54253074551E+02 -0.27123334016E+02  0.69191470283E+02  0.92013753898E+02  0.00000000000E+00 0.  1.
         11    1    4    4    0    0  0.15956385170E+02 -0.18065298303E+02 -0.30080157032E+02  0.38545778985E+02  0.00000000000E+00 0. -1.
         21    1    1    2  502  501  0.42738916961E+02 -0.25794953227E+02  0.10114345546E+03  0.11279181361E+03  0.00000000000E+00 0.  1.
<scales pt_clust_5="13000.00000" pt_clust_6="13000.00000" pt_clust_7="13000.00000" pt_clust_8="13000.00000" pt_clust_9="49.91988"></scales>
<clustering>
<clus scale="   49.920">  1  9  2 -1</clus>
<clus scale="   92.438">  7  8 -1 -1</clus>
<clus scale="   95.291">  5  6 -1 -1</clus>
<clus scale="  137.907">  2  7  1 -1</clus>
<clus scale="  137.907">  2  5  1 -1</clus>
</clustering>
</event>
<event>
 9    1  0.1175034E-005  0.1470164E+03  0.7546771E-02  0.1204902E+00
         -2   -1    0    0    0  501 -0.00000000000E+00  0.00000000000E+00  0.37416780980E+02  0.37416780980E+02  0.00000000000E+00 0.  1.
          2   -1    0    0  502    0  0.00000000000E+00 -0.00000000000E+00 -0.97345684084E+03  0.97345684084E+03  0.00000000000E+00 0. -1.
         23    2    1    2    0    0  0.46409865113E+02 -0.12847727137E+03 -0.50674441800E+03  0.53209508990E+03  0.87607047034E+02 0.  0.
         23    2    1    2    0    0 -0.23286031078E+02  0.95001427461E+02 -0.41438630024E+03  0.43544687728E+03  0.91271390087E+02 0.  0.
        -13    1    4    4    0    0  0.17396177922E+02  0.89525138482E+02 -0.25348729697E+03  0.26939411121E+03  0.00000000000E+00 0.  1.
         13    1    4    4    0    0 -0.40682209000E+02  0.54762889795E+01 -0.16089900326E+03  0.16605276607E+03  0.00000000000E+00 0. -1.
        -13    1    3    3    0    0 -0.19790618295E+02 -0.42003535519E+02 -0.23106890000E+03  0.23568793376E+03  0.00000000000E+00 0.  1.
         13    1    3    3    0    0  0.66200483408E+02 -0.86473735850E+02 -0.27567551799E+03  0.29640715615E+03  0.00000000000E+00 0. -1.
         21    1    1    2  502  501 -0.23123834035E+02  0.33475843907E+02 -0.14909341631E+02  0.43331654638E+02  0.00000000000E+00 0.  1.
<scales pt_clust_5="13000.00000" pt_clust_6="13000.00000" pt_clust_7="13000.00000" pt_clust_8="13000.00000" pt_clust_9="40.68592"></scales>
<clustering>
<clus scale="   40.686">  1  9  2 -1</clus>
<clus scale="   87.607">  7  8 -1 -1</clus>
<clus scale="   91.271">  5  6 -1 -1</clus>
<clus scale="  144.770">  1  7  2 -1</clus>
<clus scale="  147.016">  2  5  1 -1</clus>
</clustering>
</event>
<event>
 9    1  0.1175034E-005  0.1833907E+03  0.7546771E-02  0.1164768E+00
         -1   -1    0    0    0  501 -0.00000000000E+00  0.00000000000E+00  0.22086047705E+03  0.22086047705E+03  0.00000000000E+00 0.  1.
          1   -1    0    0  502    0  0.00000000000E+00 -0.00000000000E+00 -0.41308471367E+03  0.41308471367E+03  0.00000000000E+00 0. -1.
         23    2    1    2    0    0 -0.43396264035E+02 -0.10800901724E+03  0.12677140341E+03  0.19466569992E+03  0.90964622063E+02 0.  0.
         23    2    1    2    0    0  0.98933004776E+02  0.13258270411E+03 -0.32701692165E+03  0.37802153934E+03  0.92705470688E+02 0.  0.
        -13    1    4    4    0    0 -0.95849217006E+01  0.41799489420E+02 -0.11862614460E+03  0.12613972500E+03  0.00000000000E+00 0.  1.
         13    1    4    4    0    0  0.10851792648E+03  0.90783214691E+02 -0.20839077705E+03  0.25188181434E+03  0.00000000000E+00 0. -1.
        -13    1    3    3    0    0 -0.37195831727E+02  0.22574508125E+01  0.33507252989E+02  0.50113491047E+02  0.00000000000E+00 0.  1.
         13    1    3    3    0    0 -0.62004323075E+01 -0.11026646805E+03  0.93264150420E+02  0.14455220888E+03  0.00000000000E+00 0. -1.
         21    1    1    2  502  501 -0.55536740742E+02 -0.24573686873E+02  0.80212816239E+01  0.61257951464E+02  0.00000000000E+00 0.  1.
<scales pt_clust_5="13000.00000" pt_clust_6="13000.00000" pt_clust_7="13000.00000" pt_clust_8="13000.00000" pt_clust_9="60.73052"></scales>
<clustering>
<clus scale="   60.731">  1  9  2 -1</clus>
<clus scale="   90.965">  7  8 -1 -1</clus>
<clus scale="   92.705">  5  6 -1 -1</clus>
<clus scale="  182.517">  1  7  2 -1</clus>
<clus scale="  183.391">  2  5  1 -1</clus>
</clustering>
</event>
<event>
 9    1  0.1175034E-005  0.1341869E+03  0.7546771E-02  0.1222339E+00
          1   -1    0    0  502    0  0.00000000000E+00  0.00000000000E+00  0.33792938030E+03  0.33792938030E+03  0.00000000000E+00 0. -1.
         -1   -1    0    0    0  501 -0.00000000000E+00 -0.00000000000E+00 -0.16791250358E+03  0.16791250358E+03  0.00000000000E+00 0.  1.
         23    2    1    2    0    0  0.93190306553E+02 -0.82175240489E+02  0.12301533422E+03  0.19743412323E+03  0.91707454307E+02 0.  0.
         23    2    1    2    0    0 -0.66100941634E+02  0.39821235046E+02  0.14996362716E+03  0.19382640813E+03  0.95522362687E+02 0.  0.
        -11    1    3    3    0    0 -0.83302589312E+01 -0.45122971963E+02  0.29770496834E+02  0.54696967872E+02  0.00000000000E+00 0.  1.
         11    1    3    3    0    0  0.10152056548E+03 -0.37052268526E+02  0.93244837390E+02  0.14273715536E+03  0.00000000000E+00 0. -1.
        -13    1    4    4    0    0 -0.90486251007E+02  0.26999652246E+02  0.10616870902E+03  0.14208637380E+03  0.00000000000E+00 0.  1.
         13    1    4    4    0    0  0.24385309373E+02  0.12821582800E+02  0.43794918130E+02  0.51740034333E+02  0.00000000000E+00 0. -1.
         21    1    1    2  502  501 -0.27089364919E+02  0.42354005443E+02 -0.10296208466E+03  0.11458135253E+03  0.00000000000E+00 0.  1.
<scales pt_clust_5="13000.00000" pt_clust_6="13000.00000" pt_clust_7="13000.00000" pt_clust_8="13000.00000" pt_clust_9="50.27619"></scales>
<clustering>
<clus scale="   50.276">  2  9  1 -1</clus>
<clus scale="   91.707">  5  6 -1 -1</clus>
<clus scale="   95.522">  7  8 -1 -1</clus>
<clus scale="  131.499">  2  5  1 -1</clus>
<clus scale="  134.187">  1  5  2 -1</clus>
</clustering>
</event>
<event>
 9    1  0.1535854E-005  0.9959690E+02  0.7546771E-02  0.1282616E+00
          3   -1    0    0  502    0  0.00000000000E+00  0.00000000000E+00  0.19314527543E+03  0.19314527543E+03  0.00000000000E+00 0. -1.
         -3   -1    0    0    0  501 -0.00000000000E+00 -0.00000000000E+00 -0.14249887818E+03  0.14249887818E+03  0.00000000000E+00 0.  1.
         23    2    1    2    0    0 -0.11249698234E+02 -0.64784225786E+01 -0.83068719257E+02  0.12220773085E+03  0.88689298629E+02 0.  0.
         23    2    1    2    0    0  0.41873287582E+02 -0.12144339844E+02  0.14396723193E+03  0.17615750948E+03  0.91673589820E+02 0.  0.
        -11    1    4    4    0    0 -0.21758009575E+02  0.30214237084E+01  0.49476842494E+01  0.22517094868E+02  0.00000000000E+00 0.  1.
         11    1    4    4    0    0  0.63631297157E+02 -0.15165763553E+02  0.13901954769E+03  0.15364041461E+03  0.00000000000E+00 0. -1.
        -11    1    3    3    0    0  0.15629048505E+02  0.35979602716E+02 -0.32859813839E+02  0.51171929163E+02  0.00000000000E+00 0. -1.
         11    1    3    3    0    0 -0.26878746740E+02 -0.42458025294E+02 -0.50208905418E+02  0.71035801688E+02  0.00000000000E+00 0.  1.
         21    1    1    2  502  501 -0.30623589348E+02  0.18622762423E+02 -0.10252115431E+02  0.37278913284E+02  0.00000000000E+00 0.  1.
<scales pt_clust_5="13000.00000" pt_clust_6="13000.00000" pt_clust_7="13000.00000" pt_clust_8="13000.00000" pt_clust_9="35.84148"></scales>
<clustering>
<clus scale="   35.841">  2  9  1 -1</clus>
<clus scale="   88.689">  7  8 -1 -1</clus>
<clus scale="   91.674">  5  6 -1 -1</clus>
<clus scale="   96.857">  2  7  1 -1</clus>
<clus scale="   99.597">  1  5  2 -1</clus>
</clustering>
</event>
<event>
 9    1  0.1175034E-005  0.9658432E+02  0.7546771E-02  0.1288639E+00
          1   -1    0    0  502    0  0.00000000000E+00  0.00000000000E+00  0.16014087978E+03  0.16014087978E+03  0.00000000000E+00 0. -1.
         -1   -1    0    0    0  501 -0.00000000000E+00 -0.00000000000E+00 -0.19206149737E+03  0.19206149737E+03  0.00000000000E+00 0.  1.
         23    2    1    2    0    0  0.26127893020E+02  0.89244106038E+01 -0.63642293094E+02  0.11620590767E+03  0.93226389013E+02 0.  0.
         23    2    1    2    0    0  0.23125812067E+02 -0.22972367591E+02  0.10732617016E+03  0.14467663498E+03  0.91377727333E+02 0.  0.
        -11    1    3    3    0    0  0.17122698837E+01  0.49066735598E+02 -0.23604064992E+02  0.54475942346E+02  0.00000000000E+00 0.  1.
         11    1    3    3    0    0  0.24415623136E+02 -0.40142324994E+02 -0.40038228102E+02  0.61729965322E+02  0.00000000000E+00 0. -1.
        -11    1    4    4    0    0  0.55157996278E+02 -0.24578885997E+02  0.89548203125E+02  0.10800651310E+03  0.00000000000E+00 0. -1.
         11    1    4    4    0    0 -0.32032184211E+02  0.16065184053E+01  0.17777967036E+02  0.36670121879E+02  0.00000000000E+00 0.  1.
         21    1    1    2  502  501 -0.49253705087E+02  0.14047956987E+02 -0.75604494655E+02  0.91319834496E+02  0.00000000000E+00 0.  1.
<scales pt_clust_5="13000.00000" pt_clust_6="13000.00000" pt_clust_7="13000.00000" pt_clust_8="13000.00000" pt_clust_9="51.21789"></scales>
<clustering>
<clus scale="   51.218">  2  9  1 -1</clus>
<clus scale="   91.378">  7  8 -1 -1</clus>
<clus scale="   93.226">  5  6 -1 -1</clus>
<clus scale="   94.801">  1  7  2 -1</clus>
<clus scale="   94.801">  1  5  2 -1</clus>
</clustering>
</event>
<event>
 9    1  0.1175034E-005  0.1089493E+03  0.7546771E-02  0.1263678E+00
         -3   -1    0    0    0  501 -0.00000000000E+00  0.00000000000E+00  0.75835723670E+02  0.75835723670E+02  0.00000000000E+00 0.  1.
          3   -1    0    0  502    0  0.00000000000E+00 -0.00000000000E+00 -0.38043267449E+03  0.38043267449E+03  0.00000000000E+00 0. -1.
         23    2    1    2    0    0  0.54444183902E+02 -0.62583399002E+02 -0.55703061459E+02  0.13297450946E+03  0.87741313631E+02 0.  0.
         23    2    1    2    0    0  0.24626483379E+02  0.59481296443E+02 -0.20393796116E+03  0.23228384011E+03  0.90667535888E+02 0.  0.
        -11    1    4    4    0    0 -0.30035992511E+02 -0.46945286585E+00 -0.57477115345E+02  0.64853681626E+02  0.00000000000E+00 0.  1.
         11    1    4    4    0    0  0.54662475889E+02  0.59950749309E+02 -0.14646084581E+03  0.16743015848E+03  0.00000000000E+00 0. -1.
        -13    1    3    3    0    0  0.35109442684E+02  0.12139350310E+02 -0.39277225518E+02  0.54062345824E+02  0.00000000000E+00 0. -1.
         13    1    3    3    0    0  0.19334741218E+02 -0.74722749313E+02 -0.16425835941E+02  0.78912163632E+02  0.00000000000E+00 0.  1.
         21    1    1    2  502  501 -0.79070667280E+02  0.31021025588E+01 -0.44955928197E+02  0.91010048591E+02  0.00000000000E+00 0.  1.
<scales pt_clust_5="13000.00000" pt_clust_6="13000.00000" pt_clust_7="13000.00000" pt_clust_8="13000.00000" pt_clust_9="79.13149"></scales>
<clustering>
<clus scale="   79.131">  1  9  2 -1</clus>
<clus scale="   87.741">  7  8 -1 -1</clus>
<clus scale="   90.668">  5  6 -1 -1</clus>
<clus scale="  106.526">  1  7  2 -1</clus>
<clus scale="  108.949">  2  5  1 -1</clus>
</clustering>
</event>
<event>
 9    1  0.1175034E-005  0.1557300E+03  0.7546771E-02  0.1208146E+00
          3   -1    0    0  502    0  0.00000000000E+00  0.00000000000E+00  0.43315955680E+02  0.43315955680E+02  0.00000000000E+00 0. -1.
         -3   -1    0    0    0  501 -0.00000000000E+00 -0.00000000000E+00 -0.10889616665E+04  0.10889616665E+04  0.00000000000E+00 0.  1.
         23    2    1    2    0    0 -0.56676462267E+02  0.39106538400E+02 -0.50321087957E+03  0.51587534729E+03  0.90358408026E+02 0.  0.
         23    2    1    2    0    0  0.82920601167E+02  0.95873112508E+02 -0.31221318598E+03  0.34824137742E+03  0.87906220749E+02 0.  0.
        -11    1    4    4    0    0  0.60806657749E+02  0.67107970382E+02 -0.29402451333E+03  0.30765458514E+03  0.00000000000E+00 0.  1.
         11    1    4    4    0    0  0.22113943419E+02  0.28765142126E+02 -0.18188672648E+02  0.40586792282E+02  0.00000000000E+00 0. -1.
        -11    1    3    3    0    0  0.21248661692E+02 -0.77191063023E+01 -0.92415181694E+02  0.95140191472E+02  0.00000000000E+00 0. -1.
         11    1    3    3    0    0 -0.77925123959E+02  0.46825644703E+02 -0.41079569788E+03  0.42073515582E+03  0.00000000000E+00 0.  1.
         21    1    1    2  502  501 -0.26244138900E+02 -0.13497965091E+03 -0.23022164531E+03  0.26816089751E+03  0.00000000000E+00 0. -1.
<scales pt_clust_5="13000.00000" pt_clust_6="13000.00000" pt_clust_7="13000.00000" pt_clust_8="13000.00000" pt_clust_9="128.54697"></scales>
<clustering>
<clus scale="   87.906">  5  6 -1 -1</clus>
<clus scale="   90.358">  7  8 -1 -1</clus>
<clus scale="  113.605">  2  7  1 -1</clus>
<clus scale="  128.547">  1  9  2 -1</clus>
<clus scale="  128.547">  1  5  2 -1</clus>
</clustering>
</event>
<event>
 9    1  0.1175034E-005  0.1139569E+03  0.7546771E-02  0.1254058E+00
          2   -1    0    0  502    0  0.00000000000E+00  0.00000000000E+00  0.30107470018E+03  0.30107470018E+03  0.00000000000E+00 0. -1.
         -2   -1    0    0    0  501 -0.00000000000E+00 -0.00000000000E+00 -0.78143561312E+02  0.78143561312E+02  0.00000000000E+00 0.  1.
         23    2    1    2    0    0  0.67354538433E+01 -0.57489101998E+02  0.97188224389E+02  0.14546094905E+03  0.91449294978E+02 0.  0.
         23    2    1    2    0    0 -0.30659234616E+02  0.66632835171E+02  0.15480005235E+03  0.19502396242E+03  0.93227497663E+02 0.  0.
        -11    1    3    3    0    0 -0.42286958841E+02 -0.26010435711E+02  0.50337205443E+02  0.70700522669E+02  0.00000000000E+00 0.  1.
         11    1    3    3    0    0  0.49022412684E+02 -0.31478666287E+02  0.46851018946E+02  0.74760426382E+02  0.00000000000E+00 0. -1.
        -11    1    4    4    0    0  0.22353361442E+01 -0.20257715245E+02  0.55080274831E+02  0.58729961945E+02  0.00000000000E+00 0.  1.
         11    1    4    4    0    0 -0.32894570760E+02  0.86890550416E+02  0.99719777517E+02  0.13629400047E+03  0.00000000000E+00 0. -1.
         21    1    1    2  502  501  0.23923780773E+02 -0.91437331728E+01 -0.29057137869E+02  0.38733350022E+02  0.00000000000E+00 0.  1.
<scales pt_clust_5="13000.00000" pt_clust_6="13000.00000" pt_clust_7="13000.00000" pt_clust_8="13000.00000" pt_clust_9="25.61162"></scales>
<clustering>
<clus scale="   25.612">  2  9  1 -1</clus>
<clus scale="   91.449">  5  6 -1 -1</clus>
<clus scale="   93.227">  7  8 -1 -1</clus>
<clus scale="  112.507">  2  5  1 -1</clus>
<clus scale="  113.957">  1  5  2 -1</clus>
</clustering>
</event>
<event>
 9    1  0.1175034E-005  0.9158544E+02  0.7546771E-02  0.1301350E+00
         -1   -1    0    0    0  501 -0.00000000000E+00  0.00000000000E+00  0.36209038208E+02  0.36209038208E+02  0.00000000000E+00 0.  1.
          1   -1    0    0  502    0  0.00000000000E+00 -0.00000000000E+00 -0.41754667778E+03  0.41754667778E+03  0.00000000000E+00 0. -1.
         23    2    1    2    0    0 -0.58851486769E+01 -0.59304419676E+01 -0.12662245637E+03  0.15612853083E+03  0.90956399256E+02 0.  0.
         23    2    1    2    0    0 -0.33624266622E+01 -0.19259797452E+02 -0.25562653640E+03  0.27077767164E+03  0.87139977260E+02 0.  0.
        -11    1    4    4    0    0 -0.31077205007E+02 -0.41889042861E+02 -0.17410325956E+03  0.18174825879E+03  0.00000000000E+00 0.  1.
         11    1    4    4    0    0  0.27714778344E+02  0.22629245408E+02 -0.81523276831E+02  0.89029412846E+02  0.00000000000E+00 0. -1.
        -13    1    3    3    0    0 -0.19156386158E+00 -0.37151362136E+02 -0.14971818714E+02  0.40055158980E+02  0.00000000000E+00 0.  1.
         13    1    3    3    0    0 -0.56935848154E+01  0.31220920169E+02 -0.11165063765E+03  0.11607337185E+03  0.00000000000E+00 0. -1.
         21    1    1    2  502  501  0.92475753392E+01  0.25190239420E+02  0.91135318971E+00  0.26849513521E+02  0.00000000000E+00 0.  1.
<scales pt_clust_5="13000.00000" pt_clust_6="13000.00000" pt_clust_7="13000.00000" pt_clust_8="13000.00000" pt_clust_9="26.83404"></scales>
<clustering>
<clus scale="   26.834">  1  9  2 -1</clus>
<clus scale="   87.140">  5  6 -1 -1</clus>
<clus scale="   87.796">  2  5  1 -1</clus>
<clus scale="   90.956">  7  8 -1 -1</clus>
<clus scale="   87.796">  2  5  1 -1</clus>
</clustering>
</event>
<event>
 9    1  0.1175034E-005  0.1258164E+03  0.7546771E-02  0.1243743E+00
          1   -1    0    0  502    0  0.00000000000E+00  0.00000000000E+00  0.84677266733E+03  0.84677266733E+03  0.00000000000E+00 0. -1.
         -1   -1    0    0    0  501 -0.00000000000E+00 -0.00000000000E+00 -0.39447772726E+02  0.39447772726E+02  0.00000000000E+00 0.  1.
         23    2    1    2    0    0  0.62539631895E+02 -0.43975690799E+02  0.26405810773E+03  0.28945627470E+03  0.90626617310E+02 0.  0.
         23    2    1    2    0    0 -0.25948660059E+02  0.21625714299E+02  0.54042953861E+03  0.55379358651E+03  0.11611307322E+03 0.  0.
        -13    1    3    3    0    0  0.22062628474E+02  0.22146184448E+02  0.13775338690E+03  0.14125582700E+03  0.00000000000E+00 0.  1.
         13    1    3    3    0    0  0.40477003421E+02 -0.66121875247E+02  0.12630472083E+03  0.14820044769E+03  0.00000000000E+00 0. -1.
        -13    1    4    4    0    0 -0.69623170319E+02  0.17038316262E+02  0.40867522000E+03  0.41491339519E+03  0.00000000000E+00 0.  1.
         13    1    4    4    0    0  0.43674510259E+02  0.45873980368E+01  0.13175431861E+03  0.13888019132E+03  0.00000000000E+00 0. -1.
         21    1    1    2  502  501 -0.36590971835E+02  0.22349976500E+02  0.28372482655E+01  0.42970578855E+02  0.00000000000E+00 0.  1.
<scales pt_clust_5="13000.00000" pt_clust_6="13000.00000" pt_clust_7="13000.00000" pt_clust_8="13000.00000" pt_clust_9="42.87681"></scales>
<clustering>
<clus scale="   42.877">  2  9  1 -1</clus>
<clus scale="   90.627">  5  6 -1 -1</clus>
<clus scale="  102.765">  2  5  1 -1</clus>
<clus scale="  116.113">  7  8 -1 -1</clus>
<clus scale="  125.816">  1  5  2 -1</clus>
</clustering>
</event>
<event>
 9    1  0.1175034E-005  0.1194137E+03  0.7546771E-02  0.1244400E+00
          1   -1    0    0  502    0  0.00000000000E+00  0.00000000000E+00  0.60220021254E+03  0.60220021254E+03  0.00000000000E+00 0. -1.
         -1   -1    0    0    0  501 -0.00000000000E+00 -0.00000000000E+00 -0.41224039677E+02  0.41224039677E+02  0.00000000000E+00 0.  1.
         23    2    1    2    0    0 -0.63875223918E+02 -0.36832979322E+02  0.16766972888E+03  0.20507360840E+03  0.92224369248E+02 0.  0.
         23    2    1    2    0    0  0.45085897375E+02  0.65306084752E+02  0.38458981144E+03  0.40314075589E+03  0.91189490332E+02 0.  0.
        -11    1    3    3    0    0 -0.20647660498E+02  0.28563999140E+02  0.80275343179E+02  0.87671880631E+02  0.00000000000E+00 0. -1.
         11    1    3    3    0    0 -0.43227563419E+02 -0.65396978461E+02  0.87394385701E+02  0.11740172777E+03  0.00000000000E+00 0.  1.
        -11    1    4    4    0    0  0.99629002712E+01  0.81152576502E+02  0.24213863771E+03  0.25557018592E+03  0.00000000000E+00 0. -1.
         11    1    4    4    0    0  0.35122997104E+02 -0.15846491749E+02  0.14245117373E+03  0.14757056997E+03  0.00000000000E+00 0.  1.
         21    1    1    2  502  501  0.18789326542E+02 -0.28473105431E+02  0.87166325387E+01  0.35209887924E+02  0.00000000000E+00 0. -1.
<scales pt_clust_5="13000.00000" pt_clust_6="13000.00000" pt_clust_7="13000.00000" pt_clust_8="13000.00000" pt_clust_9="34.11388"></scales>
<clustering>
<clus scale="   34.114">  2  9  1 -1</clus>
<clus scale="   91.189">  7  8 -1 -1</clus>
<clus scale="   92.224">  5  6 -1 -1</clus>
<clus scale="  118.616">  1  7  2 -1</clus>
<clus scale="  118.616">  1  5  2 -1</clus>
</clustering>
</event>
<event>
 9    1  0.1175034E-005  0.1304967E+03  0.7546771E-02  0.1231025E+00
         -1   -1    0    0    0  501 -0.00000000000E+00  0.00000000000E+00  0.82924019953E+02  0.82924019953E+02  0.00000000000E+00 0.  1.
          1   -1    0    0  502    0  0.00000000000E+00 -0.00000000000E+00 -0.26529501798E+03  0.26529501798E+03  0.00000000000E+00 0. -1.
         23    2    1    2    0    0 -0.10231639382E+03  0.36040838998E+02 -0.91156150122E+02  0.16138195671E+03  0.77247043477E+02 0.  0.
         23    2    1    2    0    0  0.74894757306E+02 -0.16098641976E+02 -0.93540171330E+02  0.15285113559E+03  0.93516389218E+02 0.  0.
        -11    1    3    3    0    0 -0.78323805688E+02  0.52823864208E+02 -0.40319888926E+02  0.10271646708E+03  0.00000000000E+00 0.  1.
         11    1    3    3    0    0 -0.23992588135E+02 -0.16783025210E+02 -0.50836261196E+02  0.58665489626E+02  0.00000000000E+00 0. -1.
        -11    1    4    4    0    0  0.32392706130E+02  0.38662021814E+02 -0.29238676518E+02  0.58300424918E+02  0.00000000000E+00 0.  1.
         11    1    4    4    0    0  0.42502051176E+02 -0.54760663790E+02 -0.64301494812E+02  0.94550710668E+02  0.00000000000E+00 0. -1.
         21    1    1    2  502  501  0.27421636518E+02 -0.19942197022E+02  0.23253234296E+01  0.33985945631E+02  0.00000000000E+00 0.  1.
<scales pt_clust_5="13000.00000" pt_clust_6="13000.00000" pt_clust_7="13000.00000" pt_clust_8="13000.00000" pt_clust_9="33.90630"></scales>
<clustering>
<clus scale="   33.906">  1  9  2 -1</clus>
<clus scale="   77.247">  5  6 -1 -1</clus>
<clus scale="   93.516">  7  8 -1 -1</clus>
<clus scale="  119.378">  1  5  2 -1</clus>
<clus scale="  130.497">  2  5  1 -1</clus>
</clustering>
</event>
<event>
 9    1  0.1175034E-005  0.9119332E+02  0.7546771E-02  0.1302299E+00
          2   -1    0    0  502    0  0.00000000000E+00  0.00000000000E+00  0.63525983351E+02  0.63525983351E+02  0.00000000000E+00 0. -1.
         -2   -1    0    0    0  501 -0.00000000000E+00 -0.00000000000E+00 -0.19498667668E+03  0.19498667668E+03  0.00000000000E+00 0.  1.
         23    2    1    2    0    0 -0.97611426625E+01  0.42901450358E+01 -0.40990855463E+02  0.97099900958E+02  0.87375370008E+02 0.  0.
         23    2    1    2    0    0 -0.12600662066E+02  0.47746239575E+01 -0.31006511654E+02  0.97240276561E+02  0.91173976014E+02 0.  0.
        -11    1    3    3    0    0 -0.48735749574E+02 -0.48825045331E+00 -0.21700416067E+02  0.53350911262E+02  0.00000000000E+00 0.  1.
         11    1    3    3    0    0  0.38974606911E+02  0.47783954891E+01 -0.19290439396E+02  0.43748989696E+02  0.00000000000E+00 0. -1.
        -11    1    4    4    0    0 -0.38236751678E+02 -0.13982732649E+02 -0.46578083176E+02  0.61863428805E+02  0.00000000000E+00 0.  1.
         11    1    4    4    0    0  0.25636089613E+02  0.18757356606E+02  0.15571571522E+02  0.35376847756E+02  0.00000000000E+00 0. -1.
         21    1    1    2  502  501  0.22361804728E+02 -0.90647689933E+01 -0.59463326213E+02  0.64172482514E+02  0.00000000000E+00 0.  1.
<scales pt_clust_5="13000.00000" pt_clust_6="13000.00000" pt_clust_7="13000.00000" pt_clust_8="13000.00000" pt_clust_9="24.12924"></scales>
<clustering>
<clus scale="   24.129">  2  9  1 -1</clus>
<clus scale="   87.375">  5  6 -1 -1</clus>
<clus scale="   87.396">  2  5  1 -1</clus>
<clus scale="   91.174">  7  8 -1 -1</clus>
<clus scale="   91.193">  1  5  2 -1</clus>
</clustering>
</event>
<event>
 9    1  0.1175034E-005  0.1116619E+03  0.7546771E-02  0.1259298E+00
         -1   -1    0    0    0  501 -0.00000000000E+00  0.00000000000E+00  0.62302947891E+02  0.62302947891E+02  0.00000000000E+00 0.  1.
          1   -1    0    0  502    0  0.00000000000E+00 -0.00000000000E+00 -0.34245910528E+03  0.34245910528E+03  0.00000000000E+00 0. -1.
         23    2    1    2    0    0  0.28485402171E+01 -0.32218309701E+02 -0.81022448005E+02  0.12821477625E+03  0.93958810694E+02 0.  0.
         23    2    1    2    0    0  0.33246091418E+02  0.83112151911E+02 -0.15531526148E+03  0.20030383796E+03  0.89363665229E+02 0.  0.
        -11    1    3    3    0    0 -0.42454427600E+02 -0.21499529208E+02 -0.61430034260E+02  0.77706224256E+02  0.00000000000E+00 0.  1.
         11    1    3    3    0    0  0.45302967817E+02 -0.10718780494E+02 -0.19592413746E+02  0.50508551995E+02  0.00000000000E+00 0. -1.
        -13    1    4    4    0    0  0.25592065175E+02  0.14368589796E+02  0.10022861292E+01  0.29366898885E+02  0.00000000000E+00 0.  1.
         13    1    4    4    0    0  0.76540262439E+01  0.68743562115E+02 -0.15631754761E+03  0.17093693907E+03  0.00000000000E+00 0. -1.
         21    1    1    2  502  501 -0.36094631636E+02 -0.50893842210E+02 -0.43818447907E+02  0.76243438962E+02  0.00000000000E+00 0.  1.
<scales pt_clust_5="13000.00000" pt_clust_6="13000.00000" pt_clust_7="13000.00000" pt_clust_8="13000.00000" pt_clust_9="62.39395"></scales>
<clustering>
<clus scale="   62.394">  1  9  2 -1</clus>
<clus scale="   89.364">  7  8 -1 -1</clus>
<clus scale="   93.959">  5  6 -1 -1</clus>
<clus scale="  107.824">  2  7  1 -1</clus>
<clus scale="  107.824">  2  5  1 -1</clus>
</clustering>
</event>
<event>
 9    1  0.1175034E-005  0.9699732E+02  0.7546771E-02  0.1287107E+00
          2   -1    0    0  502    0  0.00000000000E+00  0.00000000000E+00  0.17529448040E+03  0.17529448040E+03  0.00000000000E+00 0. -1.
         -2   -1    0    0    0  501 -0.00000000000E+00 -0.00000000000E+00 -0.14354923870E+03  0.14354923870E+03  0.00000000000E+00 0.  1.
         23    2    1    2    0    0  0.25017252259E+02  0.56125574291E+02 -0.24792794037E+02  0.11435028152E+03  0.93195285542E+02 0.  0.
         23    2    1    2    0    0 -0.99819903064E+01  0.39022692263E+02  0.33800431590E+02  0.10551742851E+03  0.91482500521E+02 0.  0.
        -11    1    4    4    0    0 -0.38065973750E+02  0.62274921358E+01  0.46591227667E+02  0.60485886877E+02  0.00000000000E+00 0. -1.
         11    1    4    4    0    0  0.28083983444E+02  0.32795200127E+02 -0.12790796077E+02  0.45031541632E+02  0.00000000000E+00 0.  1.
        -13    1    3    3    0    0  0.22536715718E+02  0.78413089002E+02 -0.91436406966E+00  0.81592598585E+02  0.00000000000E+00 0.  1.
         13    1    3    3    0    0  0.24805365414E+01 -0.22287514711E+02 -0.23878429968E+02  0.32757682935E+02  0.00000000000E+00 0. -1.
         21    1    1    2  502  501 -0.15035261953E+02 -0.95148266554E+02  0.22737604150E+02  0.98976009076E+02  0.00000000000E+00 0. -1.
<scales pt_clust_5="13000.00000" pt_clust_6="13000.00000" pt_clust_7="13000.00000" pt_clust_8="13000.00000" pt_clust_9="96.32887"></scales>
<clustering>
<clus scale="   91.483">  5  6 -1 -1</clus>
<clus scale="   93.195">  7  8 -1 -1</clus>
<clus scale="   96.329">  1  9  2 -1</clus>
<clus scale="   96.329">  1  5  2 -1</clus>
<clus scale="   96.329">  1  5  2 -1</clus>
</clustering>
</event>
<event>
 9    1  0.1175034E-005  0.1006262E+03  0.7546771E-02  0.1279169E+00
          1   -1    0    0  502    0  0.00000000000E+00  0.00000000000E+00  0.76987595744E+03  0.76987595744E+03  0.00000000000E+00 0. -1.
         -1   -1    0    0    0  501 -0.00000000000E+00 -0.00000000000E+00 -0.44278215667E+02  0.44278215667E+02  0.00000000000E+00 0.  1.
         23    2    1    2    0    0 -0.76280736978E+02  0.16290825875E+02  0.32750989776E+03  0.34897590575E+03  0.91854819252E+02 0.  0.
         23    2    1    2    0    0  0.11037793909E+02  0.40724605083E+02  0.35382034079E+03  0.36787969168E+03  0.91467522333E+02 0.  0.
        -13    1    3    3    0    0 -0.95006365927E+02  0.26667246811E+02  0.25724222550E+03  0.27551935359E+03  0.00000000000E+00 0. -1.
         13    1    3    3    0    0  0.18725628948E+02 -0.10376420936E+02  0.70267672255E+02  0.73456552159E+02  0.00000000000E+00 0.  1.
        -13    1    4    4    0    0  0.32349611612E+01 -0.22482738151E+02  0.28804942352E+02  0.36683282192E+02  0.00000000000E+00 0.  1.
         13    1    4    4    0    0  0.78028327477E+01  0.63207343234E+02  0.32501539843E+03  0.33119640949E+03  0.00000000000E+00 0. -1.
         21    1    1    2  502  501  0.65242943070E+02 -0.57015430958E+02  0.44267503228E+02  0.97298575682E+02  0.00000000000E+00 0.  1.
<scales pt_clust_5="13000.00000" pt_clust_6="13000.00000" pt_clust_7="13000.00000" pt_clust_8="13000.00000" pt_clust_9="86.64526"></scales>
<clustering>
<clus scale="   86.645">  2  9  1 -1</clus>
<clus scale="   91.468">  7  8 -1 -1</clus>
<clus scale="   91.855">  5  6 -1 -1</clus>
<clus scale="  100.273">  1  7  2 -1</clus>
<clus scale="  100.273">  1  5  2 -1</clus>
</clustering>
</event>
<event>
 9    1  0.1175034E-005  0.1018541E+03  0.7546771E-02  0.1277417E+00
          1   -1    0    0  502    0  0.00000000000E+00  0.00000000000E+00  0.28471577864E+02  0.28471577864E+02  0.00000000000E+00 0. -1.
         -1   -1    0    0    0  501 -0.00000000000E+00 -0.00000000000E+00 -0.45841240266E+03  0.45841240266E+03  0.00000000000E+00 0.  1.
         23    2    1    2    0    0 -0.53874944818E+02  0.76124967890E+01 -0.21547913666E+03  0.24015881989E+03  0.91019452022E+02 0.  0.
         23    2    1    2    0    0  0.31062075947E+02 -0.33423006843E+01 -0.16324539976E+03  0.19049554428E+03  0.93077754117E+02 0.  0.
        -11    1    3    3    0    0  0.11049425366E+02 -0.27824820156E+02 -0.85734337613E+02  0.90811271677E+02  0.00000000000E+00 0.  1.
         11    1    3    3    0    0 -0.64924370185E+02  0.35437316945E+02 -0.12974479905E+03  0.14934754821E+03  0.00000000000E+00 0. -1.
        -11    1    4    4    0    0 -0.29415421969E+02 -0.10005789633E+02 -0.26543630607E+02  0.40864987478E+02  0.00000000000E+00 0.  1.
         11    1    4    4    0    0  0.60477497916E+02  0.66634889488E+01 -0.13670176916E+03  0.14963055680E+03  0.00000000000E+00 0. -1.
         21    1    1    2  502  501  0.22812868871E+02 -0.42701961047E+01 -0.51216288370E+02  0.56229616354E+02  0.00000000000E+00 0.  1.
<scales pt_clust_5="13000.00000" pt_clust_6="13000.00000" pt_clust_7="13000.00000" pt_clust_8="13000.00000" pt_clust_9="23.20908"></scales>
<clustering>
<clus scale="   23.209">  2  9  1 -1</clus>
<clus scale="   91.019">  5  6 -1 -1</clus>
<clus scale="   93.078">  7  8 -1 -1</clus>
<clus scale="   99.977">  2  5  1 -1</clus>
<clus scale="  101.854">  1  5  2 -1</clus>
</clustering>
</event>
<event>
 9    1  0.1175034E-005  0.1051046E+03  0.7546771E-02  0.1272007E+00
         -1   -1    0    0    0  501 -0.00000000000E+00  0.00000000000E+00  0.40883972146E+03  0.40883972146E+03  0.00000000000E+00 0.  1.
          1   -1    0    0  502    0  0.00000000000E+00 -0.00000000000E+00 -0.31535151243E+03  0.31535151243E+03  0.00000000000E+00 0. -1.
         23    2    1    2    0    0  0.60495181202E+02 -0.89705684269E+02 -0.91556712229E+01  0.14346357243E+03  0.93761364971E+02 0.  0.
         23    2    1    2    0    0 -0.26014368604E+02  0.28476855128E+02 -0.22531124409E+03  0.24532870568E+03  0.89069290246E+02 0.  0.
        -13    1    3    3    0    0 -0.22052283485E+02 -0.24494495705E+01 -0.72180161029E+01  0.23332440219E+02  0.00000000000E+00 0. -1.
         13    1    3    3    0    0  0.82547464686E+02 -0.87256234698E+02 -0.19376551200E+01  0.12013113221E+03  0.00000000000E+00 0.  1.
        -13    1    4    4    0    0  0.14484990591E+02  0.31295586187E+02 -0.29585942820E+02  0.45437392968E+02  0.00000000000E+00 0.  1.
         13    1    4    4    0    0 -0.40499359195E+02 -0.28187310591E+01 -0.19572530127E+03  0.19989131271E+03  0.00000000000E+00 0. -1.
         21    1    1    2  502  501 -0.34480812597E+02  0.61228829140E+02  0.32795512434E+03  0.33539895578E+03  0.00000000000E+00 0.  1.
<scales pt_clust_5="13000.00000" pt_clust_6="13000.00000" pt_clust_7="13000.00000" pt_clust_8="13000.00000" pt_clust_9="70.27016"></scales>
<clustering>
<clus scale="   70.270">  1  9  2 -1</clus>
<clus scale="   89.069">  7  8 -1 -1</clus>
<clus scale="   93.761">  5  6 -1 -1</clus>
<clus scale="  100.941">  2  7  1 -1</clus>
<clus scale="  100.941">  2  5  1 -1</clus>
</clustering>
</event>
<event>
 9    1  0.1175034E-005  0.3453421E+03  0.7546771E-02  0.1064571E+00
          1   -1    0    0  502    0  0.00000000000E+00  0.00000000000E+00  0.11628068657E+04  0.11628068657E+04  0.00000000000E+00 0. -1.
         -1   -1    0    0    0  501 -0.00000000000E+00 -0.00000000000E+00 -0.13460586153E+03  0.13460586153E+03  0.00000000000E+00 0.  1.
         23    2    1    2    0    0  0.17342074456E+03  0.26095182374E+03  0.41881701298E+03  0.53141482433E+03  0.93933041050E+02 0.  0.
         23    2    1    2    0    0 -0.16799224049E+03 -0.30566002220E+03  0.62184509348E+03  0.71926921003E+03  0.94907503265E+02 0.  0.
        -11    1    3    3    0    0  0.10273969501E+03  0.14852201591E+03  0.31400937231E+03  0.36223765685E+03  0.00000000000E+00 0. -1.
         11    1    3    3    0    0  0.70681049551E+02  0.11242980783E+03  0.10480764067E+03  0.16917716748E+03  0.00000000000E+00 0.  1.
        -13    1    4    4    0    0 -0.12367976873E+03 -0.28841517243E+03  0.53417552657E+03  0.61953489819E+03  0.00000000000E+00 0.  1.
         13    1    4    4    0    0 -0.44312471760E+02 -0.17244849766E+02  0.87669566910E+02  0.99734311845E+02  0.00000000000E+00 0. -1.
         21    1    1    2  502  501 -0.54285040725E+01  0.44708198455E+02 -0.12461102302E+02  0.46728692857E+02  0.00000000000E+00 0.  1.
<scales pt_clust_5="13000.00000" pt_clust_6="13000.00000" pt_clust_7="13000.00000" pt_clust_8="13000.00000" pt_clust_9="45.03656"></scales>
<clustering>
<clus scale="   45.037">  2  9  1 -1</clus>
<clus scale="   93.933">  5  6 -1 -1</clus>
<clus scale="   94.908">  7  8 -1 -1</clus>
<clus scale="  345.076">  2  5  1 -1</clus>
<clus scale="  345.342">  1  5  2 -1</clus>
</clustering>
</event>
<event>
 9    1  0.1175034E-005  0.1848680E+03  0.7546771E-02  0.1163419E+00
         -1   -1    0    0    0  501 -0.00000000000E+00  0.00000000000E+00  0.85639220501E+02  0.85639220501E+02  0.00000000000E+00 0.  1.
          1   -1    0    0  502    0  0.00000000000E+00 -0.00000000000E+00 -0.72545333472E+03  0.72545333472E+03  0.00000000000E+00 0. -1.
         23    2    1    2    0    0  0.11751591380E+03 -0.84154159545E+02 -0.12878176938E+03  0.21445514446E+03  0.92273247985E+02 0.  0.
         23    2    1    2    0    0 -0.13221549610E+03  0.97869519678E+02 -0.53367048322E+03  0.56636078392E+03  0.94344965983E+02 0.  0.
        -11    1    4    4    0    0 -0.89586900602E+02  0.24714731219E+02 -0.17856617904E+03  0.20130203923E+03  0.00000000000E+00 0.  1.
         11    1    4    4    0    0 -0.42628595493E+02  0.73154788460E+02 -0.35510430418E+03  0.36505874469E+03  0.00000000000E+00 0. -1.
        -13    1    3    3    0    0  0.17892546863E+02 -0.68280895647E+02 -0.54470000280E+02  0.89159435138E+02  0.00000000000E+00 0. -1.
         13    1    3    3    0    0  0.99623366937E+02 -0.15873263898E+02 -0.74311769105E+02  0.12529570932E+03  0.00000000000E+00 0.  1.
         21    1    1    2  502  501  0.14699582295E+02 -0.13715360134E+02  0.22638138391E+02  0.30276626844E+02  0.00000000000E+00 0.  1.
<scales pt_clust_5="13000.00000" pt_clust_6="13000.00000" pt_clust_7="13000.00000" pt_clust_8="13000.00000" pt_clust_9="20.10445"></scales>
<clustering>
<clus scale="   20.104">  1  9  2 -1</clus>
<clus scale="   92.273">  7  8 -1 -1</clus>
<clus scale="   94.345">  5  6 -1 -1</clus>
<clus scale="  183.819">  1  7  2 -1</clus>
<clus scale="  184.868">  2  5  1 -1</clus>
</clustering>
</event>
<event>
 9    1  0.1175034E-005  0.3526281E+03  0.7546771E-02  0.1061648E+00
         -2   -1    0    0    0  501 -0.00000000000E+00  0.00000000000E+00  0.30099226709E+03  0.30099226709E+03  0.00000000000E+00 0.  1.
          2   -1    0    0  502    0  0.00000000000E+00 -0.00000000000E+00 -0.72545980226E+03  0.72545980226E+03  0.00000000000E+00 0. -1.
         23    2    1    2    0    0  0.18746955364E+03 -0.23234822266E+03  0.54223447059E+02  0.31693161347E+03  0.91514672520E+02 0.  0.
         23    2    1    2    0    0 -0.22285188101E+03  0.27434501887E+03 -0.52417076627E+03  0.63821792621E+03  0.87401252179E+02 0.  0.
        -11    1    4    4    0    0 -0.12346657502E+03  0.18913816331E+03 -0.26761583226E+03  0.35019348030E+03  0.00000000000E+00 0.  1.
         11    1    4    4    0    0 -0.99385305986E+02  0.85206855561E+02 -0.25655493401E+03  0.28802444592E+03  0.00000000000E+00 0. -1.
        -13    1    3    3    0    0 -0.88043637665E+00 -0.23265592895E+02  0.24755069572E+02  0.33983473197E+02  0.00000000000E+00 0. -1.
         13    1    3    3    0    0  0.18834999002E+03 -0.20908262976E+03  0.29468377487E+02  0.28294814027E+03  0.00000000000E+00 0.  1.
         21    1    1    2  502  501  0.35382327363E+02 -0.41996796208E+02  0.45479784041E+02  0.71302529673E+02  0.00000000000E+00 0. -1.
<scales pt_clust_5="13000.00000" pt_clust_6="13000.00000" pt_clust_7="13000.00000" pt_clust_8="13000.00000" pt_clust_9="54.91484"></scales>
<clustering>
<clus scale="   54.915">  1  9  2 -1</clus>
<clus scale="   87.401">  5  6 -1 -1</clus>
<clus scale="   91.515">  7  8 -1 -1</clus>
<clus scale="  351.583">  2  5  1 -1</clus>
<clus scale="  351.583">  2  5  1 -1</clus>
</clustering>
</event>
<event>
 9    1  0.1175034E-005  0.1288568E+03  0.7546771E-02  0.1229422E+00
          2   -1    0    0  502    0  0.00000000000E+00  0.00000000000E+00  0.73303853713E+03  0.73303853713E+03  0.00000000000E+00 0. -1.
         -2   -1    0    0    0  501 -0.00000000000E+00 -0.00000000000E+00 -0.46043864581E+02  0.46043864581E+02  0.00000000000E+00 0.  1.
         23    2    1    2    0    0  0.35322468865E+02  0.42301293649E+02  0.12998835170E+03  0.16947363259E+03  0.93740409175E+02 0.  0.
         23    2    1    2    0    0  0.31311610506E+01 -0.11414842289E+03  0.45977201618E+03  0.48274190332E+03  0.92788855731E+02 0.  0.
        -11    1    4    4    0    0  0.27800033020E+02 -0.11689484705E+03  0.40804197058E+03  0.42536513357E+03  0.00000000000E+00 0. -1.
         11    1    4    4    0    0 -0.24668871970E+02  0.27464241596E+01  0.51730045600E+02  0.57376769757E+02  0.00000000000E+00 0.  1.
        -13    1    3    3    0    0 -0.19610519973E+02 -0.17990268553E+02  0.24886960532E+02  0.36436013239E+02  0.00000000000E+00 0. -1.
         13    1    3    3    0    0  0.54932988838E+02  0.60291562202E+02  0.10510139117E+03  0.13303761935E+03  0.00000000000E+00 0.  1.
         21    1    1    2  502  501 -0.38453629915E+02  0.71847129239E+02  0.97234304669E+02  0.12686686580E+03  0.00000000000E+00 0.  1.
<scales pt_clust_5="13000.00000" pt_clust_6="13000.00000" pt_clust_7="13000.00000" pt_clust_8="13000.00000" pt_clust_9="81.49044"></scales>
<clustering>
<clus scale="   81.490">  2  9  1 -1</clus>
<clus scale="   92.789">  5  6 -1 -1</clus>
<clus scale="   93.740">  7  8 -1 -1</clus>
<clus scale="  128.166">  1  5  2 -1</clus>
<clus scale="  128.166">  1  5  2 -1</clus>
</clustering>
</event>
<event>
 9    1  0.1719387E-005  0.1010435E+03  0.7546771E-02  0.1281058E+00
          4   -1    0    0  502    0  0.00000000000E+00  0.00000000000E+00  0.12731236982E+03  0.12731236982E+03  0.00000000000E+00 0. -1.
         -4   -1    0    0    0  501 -0.00000000000E+00 -0.00000000000E+00 -0.22924220127E+03  0.22924220127E+03  0.00000000000E+00 0.  1.
         23    2    1    2    0    0 -0.26130053384E+02 -0.14147790015E+02 -0.16981330124E+03  0.19727957312E+03  0.95915238833E+02 0.  0.
         23    2    1    2    0    0  0.25950565273E+02  0.46714158394E+02  0.71016674812E+02  0.12655776185E+03  0.90099137343E+02 0.  0.
        -11    1    3    3    0    0 -0.35696880077E+02  0.12959074051E+02 -0.16349529808E+03  0.16784789943E+03  0.00000000000E+00 0. -1.
         11    1    3    3    0    0  0.95668266929E+01 -0.27106864066E+02 -0.63180031588E+01  0.29431673693E+02  0.00000000000E+00 0.  1.
        -13    1    4    4    0    0  0.24667178263E+02 -0.16446031908E+02  0.53228456590E+02  0.60927910188E+02  0.00000000000E+00 0. -1.
         13    1    4    4    0    0  0.12833870096E+01  0.63160190303E+02  0.17788218222E+02  0.65629851659E+02  0.00000000000E+00 0.  1.
         21    1    1    2  502  501  0.17948811113E+00 -0.32566368380E+02 -0.31332050155E+01  0.32717236116E+02  0.00000000000E+00 0. -1.
<scales pt_clust_5="13000.00000" pt_clust_6="13000.00000" pt_clust_7="13000.00000" pt_clust_8="13000.00000" pt_clust_9="32.56686"></scales>
<clustering>
<clus scale="   32.567">  1  9  2 -1</clus>
<clus scale="   90.099">  7  8 -1 -1</clus>
<clus scale="   95.540">  1  7  2 -1</clus>
<clus scale="   95.915">  5  6 -1 -1</clus>
<clus scale="   32.567">  1  5  2 -1</clus>
</clustering>
</event>
<event>
 9    1  0.1175034E-005  0.2789648E+03  0.7546771E-02  0.1096394E+00
         -1   -1    0    0    0  501 -0.00000000000E+00  0.00000000000E+00  0.69641576600E+02  0.69641576600E+02  0.00000000000E+00 0.  1.
          1   -1    0    0  502    0  0.00000000000E+00 -0.00000000000E+00 -0.15826332281E+04  0.15826332281E+04  0.00000000000E+00 0. -1.
         23    2    1    2    0    0 -0.24638077320E+03 -0.26724804735E+02 -0.37847570199E+03  0.46177850000E+03  0.92616550731E+02 0.  0.
         23    2    1    2    0    0  0.26783883983E+03  0.14364699272E+02 -0.11299985144E+04  0.11653243352E+04  0.95604261783E+02 0.  0.
        -11    1    4    4    0    0  0.92819181429E+02  0.38847483934E+02 -0.54516584970E+03  0.55437381894E+03  0.00000000000E+00 0.  1.
         11    1    4    4    0    0  0.17501965840E+03 -0.24482784662E+02 -0.58483266472E+03  0.61095051624E+03  0.00000000000E+00 0. -1.
        -13    1    3    3    0    0 -0.78174191568E+02  0.24253010709E+02 -0.17299889735E+03  0.19138451149E+03  0.00000000000E+00 0. -1.
         13    1    3    3    0    0 -0.16820658164E+03 -0.50977815444E+02 -0.20547680464E+03  0.27039398850E+03  0.00000000000E+00 0.  1.
         21    1    1    2  502  501 -0.21458066623E+02  0.12360105463E+02 -0.45174351005E+01  0.25171969532E+02  0.00000000000E+00 0.  1.
<scales pt_clust_5="13000.00000" pt_clust_6="13000.00000" pt_clust_7="13000.00000" pt_clust_8="13000.00000" pt_clust_9="24.76330"></scales>
<clustering>
<clus scale="   24.763">  1  9  2 -1</clus>
<clus scale="   92.617">  7  8 -1 -1</clus>
<clus scale="   95.604">  5  6 -1 -1</clus>
<clus scale="  277.955">  1  7  2 -1</clus>
<clus scale="  278.965">  2  5  1 -1</clus>
</clustering>
</event>
<event>
 9    1  0.1175034E-005  0.1720465E+03  0.7546771E-02  0.1176147E+00
          3   -1    0    0  502    0  0.00000000000E+00  0.00000000000E+00  0.17839132816E+03  0.17839132816E+03  0.00000000000E+00 0. -1.
         -3   -1    0    0    0  501 -0.00000000000E+00 -0.00000000000E+00 -0.21994027382E+03  0.21994027382E+03  0.00000000000E+00 0.  1.
         23    2    1    2    0    0  0.14924846489E+02  0.12961763593E+03 -0.78724469994E+02  0.17742990650E+03  0.90886450907E+02 0.  0.
         23    2    1    2    0    0 -0.12365864366E+02 -0.15044103641E+03  0.62124587740E+02  0.18830387098E+03  0.93880047869E+02 0.  0.
        -11    1    4    4    0    0  0.21853069216E+02 -0.19332494993E+02  0.42261850169E+02  0.51355291612E+02  0.00000000000E+00 0.  1.
         11    1    4    4    0    0 -0.34218933582E+02 -0.13110854142E+03  0.19862737570E+02  0.13694857937E+03  0.00000000000E+00 0. -1.
        -13    1    3    3    0    0 -0.16801519711E+02  0.57933169958E+02 -0.78549519098E+02  0.99038225936E+02  0.00000000000E+00 0.  1.
         13    1    3    3    0    0  0.31726366200E+02  0.71684465976E+02 -0.17495089592E+00  0.78391680568E+02  0.00000000000E+00 0. -1.
         21    1    1    2  502  501 -0.25589821227E+01  0.20823400477E+02 -0.24949063408E+02  0.32597824496E+02  0.00000000000E+00 0.  1.
<scales pt_clust_5="13000.00000" pt_clust_6="13000.00000" pt_clust_7="13000.00000" pt_clust_8="13000.00000" pt_clust_9="20.98005"></scales>
<clustering>
<clus scale="   20.980">  2  9  1 -1</clus>
<clus scale="   90.886">  7  8 -1 -1</clus>
<clus scale="   93.880">  5  6 -1 -1</clus>
<clus scale="  170.431">  2  7  1 -1</clus>
<clus scale="  172.046">  1  5  2 -1</clus>
</clustering>
</event>
<event>
 9    1  0.1175034E-005  0.2995643E+03  0.7546771E-02  0.1085528E+00
         -1   -1    0    0    0  501 -0.00000000000E+00  0.00000000000E+00  0.92466260335E+02  0.92466260335E+02  0.00000000000E+00 0.  1.
          1   -1    0    0  502    0  0.00000000000E+00 -0.00000000000E+00 -0.16154703366E+04  0.16154703366E+04  0.00000000000E+00 0. -1.
         23    2    1    2    0    0 -0.25469877031E+03 -0.93180855912E+02 -0.25368651540E+03  0.38222552182E+03  0.90473012122E+02 0.  0.
         23    2    1    2    0    0  0.26740508971E+03  0.10926041646E+03 -0.12694994884E+04  0.13052162973E+04  0.92289278843E+02 0.  0.
        -13    1    3    3    0    0 -0.22067376750E+03 -0.95069274947E+02 -0.17739912190E+03  0.29867294345E+03  0.00000000000E+00 0.  1.
         13    1    3    3    0    0 -0.34025002812E+02  0.18884190347E+01 -0.76287393507E+02  0.83552578362E+02  0.00000000000E+00 0. -1.
        -13    1    4    4    0    0  0.22621816973E+03  0.51059345353E+02 -0.97998546582E+03  0.10070517515E+04  0.00000000000E+00 0. -1.
         13    1    4    4    0    0  0.41186919973E+02  0.58201071110E+02 -0.28951402263E+03  0.29816454577E+03  0.00000000000E+00 0.  1.
         21    1    1    2  502  501 -0.12706319395E+02 -0.16079560551E+02  0.18192757864E+00  0.20494777816E+02  0.00000000000E+00 0.  1.
<scales pt_clust_5="13000.00000" pt_clust_6="13000.00000" pt_clust_7="13000.00000" pt_clust_8="13000.00000" pt_clust_9="20.49397"></scales>
<clustering>
<clus scale="   20.494">  1  9  2 -1</clus>
<clus scale="   90.473">  5  6 -1 -1</clus>
<clus scale="   92.289">  7  8 -1 -1</clus>
<clus scale="  299.010">  1  5  2 -1</clus>
<clus scale="  299.564">  2  5  1 -1</clus>
</clustering>
</event>
<event>
 9    1  0.1175034E-005  0.1180420E+03  0.7546771E-02  0.1246947E+00
         -2   -1    0    0    0  501 -0.00000000000E+00  0.00000000000E+00  0.32042134772E+03  0.32042134772E+03  0.00000000000E+00 0.  1.
          2   -1    0    0  502    0  0.00000000000E+00 -0.00000000000E+00 -0.81244654904E+02  0.81244654904E+02  0.00000000000E+00 0. -1.
         23    2    1    2    0    0  0.44655797203E+02  0.83589897542E+02  0.21351480749E+03  0.25081629885E+03  0.91317202978E+02 0.  0.
         23    2    1    2    0    0 -0.37242572988E+02 -0.55728706438E+02  0.39570421860E+01  0.11476228105E+03  0.93070000559E+02 0.  0.
        -13    1    4    4    0    0 -0.46717481563E+02  0.79275798834E+01  0.14483821853E+02  0.49549477312E+02  0.00000000000E+00 0.  1.
         13    1    4    4    0    0  0.94749085750E+01 -0.63656286321E+02 -0.10526779667E+02  0.65212803734E+02  0.00000000000E+00 0. -1.
        -13    1    3    3    0    0 -0.20778770630E+02 -0.50851232845E+01  0.35880171222E+02  0.41773226768E+02  0.00000000000E+00 0.  1.
         13    1    3    3    0    0  0.65434567833E+02  0.88675020827E+02  0.17763463626E+03  0.20904307209E+03  0.00000000000E+00 0. -1.
         21    1    1    2  502  501 -0.74132242147E+01 -0.27861191104E+02  0.21704843145E+02  0.36087422725E+02  0.00000000000E+00 0. -1.
<scales pt_clust_5="13000.00000" pt_clust_6="13000.00000" pt_clust_7="13000.00000" pt_clust_8="13000.00000" pt_clust_9="28.83057"></scales>
<clustering>
<clus scale="   28.831">  1  9  2 -1</clus>
<clus scale="   91.317">  7  8 -1 -1</clus>
<clus scale="   93.070">  5  6 -1 -1</clus>
<clus scale="  116.665">  1  7  2 -1</clus>
<clus scale="  118.042">  2  5  1 -1</clus>
</clustering>
</event>
<event>
 9    1  0.1175034E-005  0.2362638E+03  0.7546771E-02  0.1122625E+00
         -2   -1    0    0    0  501 -0.00000000000E+00  0.00000000000E+00  0.64961561330E+02  0.64961561330E+02  0.00000000000E+00 0.  1.
          2   -1    0    0  502    0  0.00000000000E+00 -0.00000000000E+00 -0.15254659529E+04  0.15254659529E+04  0.00000000000E+00 0. -1.
         23    2    1    2    0    0 -0.12061070536E+03  0.21436850842E+03 -0.42542351654E+03  0.49961806661E+03  0.90178957694E+02 0.  0.
         23    2    1    2    0    0  0.11323528746E+03 -0.17271922439E+03 -0.10213558593E+04  0.10463410801E+04  0.94908924503E+02 0.  0.
        -11    1    4    4    0    0  0.27814195998E+02 -0.12676765383E+03 -0.61893469688E+03  0.63239530878E+03  0.00000000000E+00 0. -1.
         11    1    4    4    0    0  0.85421091463E+02 -0.45951570557E+02 -0.40242116238E+03  0.41394577137E+03  0.00000000000E+00 0.  1.
        -11    1    3    3    0    0 -0.29471264557E+02  0.85974452744E+00 -0.56535310740E+02  0.63761555468E+02  0.00000000000E+00 0. -1.
         11    1    3    3    0    0 -0.91139440805E+02  0.21350876389E+03 -0.36888820580E+03  0.43585651115E+03  0.00000000000E+00 0.  1.
         21    1    1    2  502  501  0.73754179008E+01 -0.41649284032E+02 -0.13725015795E+02  0.44468367501E+02  0.00000000000E+00 0. -1.
<scales pt_clust_5="13000.00000" pt_clust_6="13000.00000" pt_clust_7="13000.00000" pt_clust_8="13000.00000" pt_clust_9="42.29728"></scales>
<clustering>
<clus scale="   42.297">  1  9  2 -1</clus>
<clus scale="   90.179">  7  8 -1 -1</clus>
<clus scale="   94.909">  5  6 -1 -1</clus>
<clus scale="  234.404">  1  7  2 -1</clus>
<clus scale="  236.264">  2  5  1 -1</clus>
</clustering>
</event>
<event>
 9    1  0.1175034E-005  0.9532689E+02  0.7546771E-02  0.1292151E+00
          2   -1    0    0  502    0  0.00000000000E+00  0.00000000000E+00  0.86974772371E+02  0.86974772371E+02  0.00000000000E+00 0. -1.
         -2   -1    0    0    0  501 -0.00000000000E+00 -0.00000000000E+00 -0.19827665564E+03  0.19827665564E+03  0.00000000000E+00 0.  1.
         23    2    1    2    0    0 -0.24254912015E+02  0.39454164702E+02 -0.38725642573E+02  0.10878816170E+03  0.90500037920E+02 0.  0.
         23    2    1    2    0    0 -0.24070169927E+02  0.13979917637E+01 -0.34371370354E+02  0.10254558000E+03  0.93556813841E+02 0.  0.
        -11    1    4    4    0    0 -0.46703260867E+02  0.19827322709E+02  0.77230779986E+01  0.51322151506E+02  0.00000000000E+00 0.  1.
         11    1    4    4    0    0  0.22633090940E+02 -0.18429330945E+02 -0.42094448353E+02  0.51223428494E+02  0.00000000000E+00 0. -1.
        -13    1    3    3    0    0 -0.28966546942E+02  0.68039057202E+01  0.23794281566E+02  0.38098842634E+02  0.00000000000E+00 0. -1.
         13    1    3    3    0    0  0.47116349276E+01  0.32650258982E+02 -0.62519924138E+02  0.70689319063E+02  0.00000000000E+00 0.  1.
         21    1    1    2  502  501  0.48325081941E+02 -0.40852156466E+02 -0.38204870346E+02  0.73917686319E+02  0.00000000000E+00 0. -1.
<scales pt_clust_5="13000.00000" pt_clust_6="13000.00000" pt_clust_7="13000.00000" pt_clust_8="13000.00000" pt_clust_9="63.27885"></scales>
<clustering>
<clus scale="   63.279">  2  9  1 -1</clus>
<clus scale="   90.500">  7  8 -1 -1</clus>
<clus scale="   92.329">  2  7  1 -1</clus>
<clus scale="   93.557">  5  6 -1 -1</clus>
<clus scale="   95.327">  1  5  2 -1</clus>
</clustering>
</event>
<event>
 9    1  0.1175034E-005  0.9239335E+02  0.7546771E-02  0.1301352E+00
          1   -1    0    0  502    0  0.00000000000E+00  0.00000000000E+00  0.20904815653E+03  0.20904815653E+03  0.00000000000E+00 0. -1.
         -1   -1    0    0    0  501 -0.00000000000E+00 -0.00000000000E+00 -0.14230491617E+03  0.14230491617E+03  0.00000000000E+00 0.  1.
         23    2    1    2    0    0 -0.22441178004E+02  0.19167333899E+00  0.55820829168E+02  0.10978505263E+03  0.91832181741E+02 0.  0.
         23    2    1    2    0    0 -0.14079804258E+02 -0.15923741325E+02  0.10661671257E+03  0.13794042035E+03  0.84903649753E+02 0.  0.
        -11    1    3    3    0    0 -0.54731300163E+02  0.18049933693E+02  0.33519639353E+02  0.66669944849E+02  0.00000000000E+00 0.  1.
         11    1    3    3    0    0  0.32290122159E+02 -0.17858260354E+02  0.22301189815E+02  0.43115107782E+02  0.00000000000E+00 0. -1.
        -13    1    4    4    0    0  0.31014687864E+02  0.13127022320E+02  0.45755400794E+02  0.56813609990E+02  0.00000000000E+00 0.  1.
         13    1    4    4    0    0 -0.45094492122E+02 -0.29050763644E+02  0.60861311772E+02  0.81126810357E+02  0.00000000000E+00 0. -1.
         21    1    1    2  502  501  0.36520982261E+02  0.15732067986E+02 -0.95694301372E+02  0.10362759972E+03  0.00000000000E+00 0.  1.
<scales pt_clust_5="13000.00000" pt_clust_6="13000.00000" pt_clust_7="13000.00000" pt_clust_8="13000.00000" pt_clust_9="39.76531"></scales>
<clustering>
<clus scale="   39.765">  2  9  1 -1</clus>
<clus scale="   84.904">  7  8 -1 -1</clus>
<clus scale="   85.510">  1  7  2 -1</clus>
<clus scale="   91.832">  5  6 -1 -1</clus>
<clus scale="   85.510">  1  5  2 -1</clus>
</clustering>
</event>
<event>
 9    1  0.1175034E-005  0.1336398E+03  0.7546771E-02  0.1223258E+00
         -1   -1    0    0    0  501 -0.00000000000E+00  0.00000000000E+00  0.10393866637E+03  0.10393866637E+03  0.00000000000E+00 0.  1.
          1   -1    0    0  502    0  0.00000000000E+00 -0.00000000000E+00 -0.44385342153E+03  0.44385342153E+03  0.00000000000E+00 0. -1.
         23    2    1    2    0    0  0.44315527073E+02 -0.47319492160E+02 -0.60324485179E+02  0.12767555468E+03  0.91972840950E+02 0.  0.
         23    2    1    2    0    0 -0.12941813188E+03 -0.16617861198E+02 -0.27111057346E+03  0.31333477564E+03  0.87478754085E+02 0.  0.
        -13    1    4    4    0    0 -0.81786772253E+02  0.30749802334E+02 -0.18053384705E+03  0.20056693743E+03  0.00000000000E+00 0. -1.
         13    1    4    4    0    0 -0.47631359626E+02 -0.47367663532E+02 -0.90576726401E+02  0.11276783821E+03  0.00000000000E+00 0.  1.
        -13    1    3    3    0    0  0.64977006041E+02 -0.30029930995E+02 -0.68949625023E+02  0.99387418018E+02  0.00000000000E+00 0.  1.
         13    1    3    3    0    0 -0.20661478967E+02 -0.17289561164E+02  0.86251398443E+01  0.28288136660E+02  0.00000000000E+00 0. -1.
         21    1    1    2  502  501  0.85102604806E+02  0.63937353357E+02 -0.84796965267E+01  0.10678175758E+03  0.00000000000E+00 0.  1.
<scales pt_clust_5="13000.00000" pt_clust_6="13000.00000" pt_clust_7="13000.00000" pt_clust_8="13000.00000" pt_clust_9="106.44453"></scales>
<clustering>
<clus scale="   87.479">  5  6 -1 -1</clus>
<clus scale="   91.973">  7  8 -1 -1</clus>
<clus scale="  106.445">  1  9  2 -1</clus>
<clus scale="  130.588">  2  5  1 -1</clus>
<clus scale="  130.588">  2  5  1 -1</clus>
</clustering>
</event>
<event>
 9    1  0.1175034E-005  0.9779183E+02  0.7546771E-02  0.1285628E+00
          1   -1    0    0  502    0  0.00000000000E+00  0.00000000000E+00  0.75904220677E+03  0.75904220677E+03  0.00000000000E+00 0. -1.
         -1   -1    0    0    0  501 -0.00000000000E+00 -0.00000000000E+00 -0.31248852033E+02  0.31248852033E+02  0.00000000000E+00 0.  1.
         23    2    1    2    0    0  0.10346695839E+02  0.18867351179E+02  0.22364473883E+03  0.24240392967E+03  0.90992663759E+02 0.  0.
         23    2    1    2    0    0 -0.30260944115E+02 -0.31204369338E+02  0.51317803612E+03  0.52278115911E+03  0.89771967556E+02 0.  0.
        -11    1    3    3    0    0  0.46853166615E+02  0.27069076978E+02  0.15574908439E+03  0.16488096142E+03  0.00000000000E+00 0.  1.
         11    1    3    3    0    0 -0.36506470776E+02 -0.82017257984E+01  0.67895654446E+02  0.77522968256E+02  0.00000000000E+00 0. -1.
        -13    1    4    4    0    0  0.20670776182E+02 -0.41815855030E+02  0.28103678102E+03  0.28488158769E+03  0.00000000000E+00 0.  1.
         13    1    4    4    0    0 -0.50931720297E+02  0.10611485692E+02  0.23214125510E+03  0.23789957142E+03  0.00000000000E+00 0. -1.
         21    1    1    2  502  501  0.19914248276E+02  0.12337018159E+02 -0.90294202138E+01  0.25105970024E+02  0.00000000000E+00 0.  1.
<scales pt_clust_5="13000.00000" pt_clust_6="13000.00000" pt_clust_7="13000.00000" pt_clust_8="13000.00000" pt_clust_9="23.42604"></scales>
<clustering>
<clus scale="   23.426">  2  9  1 -1</clus>
<clus scale="   89.772">  7  8 -1 -1</clus>
<clus scale="   90.993">  5  6 -1 -1</clus>
<clus scale="   96.657">  1  7  2 -1</clus>
<clus scale="   96.657">  1  5  2 -1</clus>
</clustering>
</event>
<event>
 9    1  0.1175034E-005  0.1347909E+03  0.7546771E-02  0.1221973E+00
         -2   -1    0    0    0  501 -0.00000000000E+00  0.00000000000E+00  0.76569661412E+03  0.76569661412E+03  0.00000000000E+00 0.  1.
          2   -1    0    0  502    0  0.00000000000E+00 -0.00000000000E+00 -0.23066738772E+03  0.23066738772E+03  0.00000000000E+00 0. -1.
         23    2    1    2    0    0 -0.39101747360E+02 -0.84842041815E+02  0.61785235163E+03  0.63153274999E+03  0.91460194585E+02 0.  0.
         23    2    1    2    0    0  0.79177604091E+02 -0.51188447781E+02 -0.15661512069E+03  0.20496997765E+03  0.92709468412E+02 0.  0.
        -11    1    3    3    0    0  0.23839036391E+02 -0.57037464729E+02  0.27954170839E+03  0.28629554445E+03  0.00000000000E+00 0.  1.
         11    1    3    3    0    0 -0.62940783752E+02 -0.27804577086E+02  0.33831064324E+03  0.34523720555E+03  0.00000000000E+00 0. -1.
        -13    1    4    4    0    0  0.51552185211E+02  0.70528719814E+01 -0.12009575900E+03  0.13088300933E+03  0.00000000000E+00 0. -1.
         13    1    4    4    0    0  0.27625418880E+02 -0.58241319762E+02 -0.36519361697E+02  0.74086968319E+02  0.00000000000E+00 0.  1.
         21    1    1    2  502  501 -0.40075856731E+02  0.13603048960E+03  0.73791995468E+02  0.15986127420E+03  0.00000000000E+00 0. -1.
<scales pt_clust_5="13000.00000" pt_clust_6="13000.00000" pt_clust_7="13000.00000" pt_clust_8="13000.00000" pt_clust_9="97.84453"></scales>
<clustering>
<clus scale="   91.460">  5  6 -1 -1</clus>
<clus scale="   92.709">  7  8 -1 -1</clus>
<clus scale="  130.737">  1  5  2 -1</clus>
<clus scale="   97.845">  1  9  2 -1</clus>
<clus scale="  134.791">  2  5  1 -1</clus>
</clustering>
</event>
<event>
 9    1  0.1175034E-005  0.1048046E+03  0.7546771E-02  0.1273706E+00
         -2   -1    0    0    0  501 -0.00000000000E+00  0.00000000000E+00  0.21820180913E+03  0.21820180913E+03  0.00000000000E+00 0.  1.
          2   -1    0    0  502    0  0.00000000000E+00 -0.00000000000E+00 -0.21817345173E+03  0.21817345173E+03  0.00000000000E+00 0. -1.
         23    2    1    2    0    0  0.37651632338E+02 -0.11557993806E+02  0.15148541987E+03  0.17971325257E+03  0.88305085243E+02 0.  0.
         23    2    1    2    0    0 -0.41656545478E+02 -0.16364179941E+02 -0.18499673546E+03  0.21283739442E+03  0.95251825006E+02 0.  0.
        -11    1    4    4    0    0 -0.20169618919E+02  0.36746720328E+02 -0.44632092513E+02  0.61230373707E+02  0.00000000000E+00 0.  1.
         11    1    4    4    0    0 -0.21486926560E+02 -0.53110900269E+02 -0.14036464295E+03  0.15160702071E+03  0.00000000000E+00 0. -1.
        -13    1    3    3    0    0  0.40032501453E+02  0.32708351861E+02  0.70987605923E+02  0.87816158244E+02  0.00000000000E+00 0.  1.
         13    1    3    3    0    0 -0.23808691157E+01 -0.44266345667E+02  0.80497813945E+02  0.91897094330E+02  0.00000000000E+00 0. -1.
         21    1    1    2  502  501  0.40049131409E+01  0.27922173747E+02  0.33539672988E+02  0.43824613862E+02  0.00000000000E+00 0. -1.
<scales pt_clust_5="13000.00000" pt_clust_6="13000.00000" pt_clust_7="13000.00000" pt_clust_8="13000.00000" pt_clust_9="28.20793"></scales>
<clustering>
<clus scale="   28.208">  1  9  2 -1</clus>
<clus scale="   88.305">  7  8 -1 -1</clus>
<clus scale="   95.252">  5  6 -1 -1</clus>
<clus scale="   98.534">  1  7  2 -1</clus>
<clus scale="  104.805">  2  5  1 -1</clus>
</clustering>
</event>
<event>
 9    1  0.1175034E-005  0.1022086E+03  0.7546771E-02  0.1278158E+00
         -1   -1    0    0    0  501 -0.00000000000E+00  0.00000000000E+00  0.44428793841E+02  0.44428793841E+02  0.00000000000E+00 0.  1.
          1   -1    0    0  502    0  0.00000000000E+00 -0.00000000000E+00 -0.47717599093E+03  0.47717599093E+03  0.00000000000E+00 0. -1.
         23    2    1    2    0    0  0.43879195321E+02  0.35916159806E+01 -0.14711439013E+03  0.17821119588E+03  0.90433970750E+02 0.  0.
         23    2    1    2    0    0 -0.25191588322E+02 -0.25966400211E+02 -0.29548894607E+03  0.31262020586E+03  0.95440063920E+02 0.  0.
        -11    1    4    4    0    0 -0.21983303259E+02 -0.61488210226E+02 -0.21208571160E+03  0.22191082598E+03  0.00000000000E+00 0. -1.
         11    1    4    4    0    0 -0.32082850634E+01  0.35521810014E+02 -0.83403234465E+02  0.90709379884E+02  0.00000000000E+00 0.  1.
        -13    1    3    3    0    0  0.43612796008E+02  0.42577590139E+02 -0.79691134195E+02  0.10032748391E+03  0.00000000000E+00 0.  1.
         13    1    3    3    0    0  0.26639931372E+00 -0.38985974159E+02 -0.67423255934E+02  0.77883711971E+02  0.00000000000E+00 0. -1.
         21    1    1    2  502  501 -0.18687606999E+02  0.22374784231E+02  0.98561391144E+01  0.30773383028E+02  0.00000000000E+00 0. -1.
<scales pt_clust_5="13000.00000" pt_clust_6="13000.00000" pt_clust_7="13000.00000" pt_clust_8="13000.00000" pt_clust_9="29.15232"></scales>
<clustering>
<clus scale="   29.152">  1  9  2 -1</clus>
<clus scale="   90.434">  7  8 -1 -1</clus>
<clus scale="   95.440">  5  6 -1 -1</clus>
<clus scale="   97.551">  1  7  2 -1</clus>
<clus scale="  102.209">  2  5  1 -1</clus>
</clustering>
</event>
<event>
 9    1  0.1175034E-005  0.1558069E+03  0.7546771E-02  0.1194856E+00
         -1   -1    0    0    0  501 -0.00000000000E+00  0.00000000000E+00  0.45799013479E+03  0.45799013479E+03  0.00000000000E+00 0.  1.
          1   -1    0    0  502    0  0.00000000000E+00 -0.00000000000E+00 -0.74102003916E+03  0.74102003916E+03  0.00000000000E+00 0. -1.
         23    2    1    2    0    0 -0.55999288476E+02  0.86595166758E+02  0.20416919911E+03  0.24910545001E+03  0.98660124399E+02 0.  0.
         23    2    1    2    0    0 -0.28306741675E+02 -0.11902849750E+03 -0.70119415303E+03  0.71762620815E+03  0.91351406835E+02 0.  0.
        -11    1    4    4    0    0 -0.60900617832E+02 -0.86792591527E+02 -0.45392213123E+03  0.46614068736E+03  0.00000000000E+00 0.  1.
         11    1    4    4    0    0  0.32593876157E+02 -0.32235905974E+02 -0.24727202180E+03  0.25148552078E+03  0.00000000000E+00 0. -1.
        -11    1    3    3    0    0 -0.56394519845E+02  0.11422738390E+02  0.44893763378E+02  0.72981304532E+02  0.00000000000E+00 0. -1.
         11    1    3    3    0    0  0.39523136922E+00  0.75172428368E+02  0.15927543573E+03  0.17612414548E+03  0.00000000000E+00 0.  1.
         21    1    1    2  502  501  0.84306030151E+02  0.32433330744E+02  0.21399504955E+03  0.23227851578E+03  0.00000000000E+00 0.  1.
<scales pt_clust_5="13000.00000" pt_clust_6="13000.00000" pt_clust_7="13000.00000" pt_clust_8="13000.00000" pt_clust_9="90.32955"></scales>
<clustering>
<clus scale="   90.330">  1  9  2 -1</clus>
<clus scale="   91.351">  5  6 -1 -1</clus>
<clus scale="   98.660">  7  8 -1 -1</clus>
<clus scale="  151.285">  2  5  1 -1</clus>
<clus scale="  151.285">  2  5  1 -1</clus>
</clustering>
</event>
<event>
 9    1  0.1175034E-005  0.1699468E+03  0.7546771E-02  0.1189268E+00
         -1   -1    0    0    0  501 -0.00000000000E+00  0.00000000000E+00  0.28735813614E+03  0.28735813614E+03  0.00000000000E+00 0.  1.
          1   -1    0    0  502    0  0.00000000000E+00 -0.00000000000E+00 -0.66833816195E+03  0.66833816195E+03  0.00000000000E+00 0. -1.
         23    2    1    2    0    0  0.12846684952E+03 -0.52516484087E+02  0.17788560237E+03  0.24354313674E+03  0.91696561539E+02 0.  0.
         23    2    1    2    0    0 -0.23990107925E+02 -0.92260908119E+02 -0.51040068395E+03  0.52715388122E+03  0.91075550312E+02 0.  0.
        -13    1    4    4    0    0  0.46084869855E+01 -0.10113458363E+03 -0.41465444552E+03  0.42683457140E+03  0.00000000000E+00 0. -1.
         13    1    4    4    0    0 -0.28598594911E+02  0.88736755144E+01 -0.95746238432E+02  0.10031930982E+03  0.00000000000E+00 0.  1.
        -13    1    3    3    0    0  0.11887400861E+03 -0.24587119192E+02  0.90815626793E+02  0.15160156471E+03  0.00000000000E+00 0. -1.
         13    1    3    3    0    0  0.95928409041E+01 -0.27929364895E+02  0.87069975577E+02  0.91941572029E+02  0.00000000000E+00 0.  1.
         21    1    1    2  502  501 -0.10447674159E+03  0.14477739221E+03 -0.48464944236E+02  0.18499928013E+03  0.00000000000E+00 0. -1.
<scales pt_clust_5="13000.00000" pt_clust_6="13000.00000" pt_clust_7="13000.00000" pt_clust_8="13000.00000" pt_clust_9="143.08615"></scales>
<clustering>
<clus scale="   91.076">  5  6 -1 -1</clus>
<clus scale="   91.697">  7  8 -1 -1</clus>
<clus scale="  131.842">  2  5  1 -1</clus>
<clus scale="  143.086">  2  9  1 -1</clus>
<clus scale="  131.842">  2  5  1 -1</clus>
</clustering>
</event>
<event>
 9    1  0.1175034E-005  0.1379076E+03  0.7546771E-02  0.1218633E+00
         -1   -1    0    0    0  501 -0.00000000000E+00  0.00000000000E+00  0.35305306613E+03  0.35305306613E+03  0.00000000000E+00 0.  1.
          1   -1    0    0  502    0  0.00000000000E+00 -0.00000000000E+00 -0.30280116402E+03  0.30280116402E+03  0.00000000000E+00 0. -1.
         23    2    1    2    0    0 -0.54786483814E+01  0.11454255387E+03  0.15583643887E+03  0.21251464008E+03  0.87905997154E+02 0.  0.
         23    2    1    2    0    0 -0.17238595829E+01 -0.95406271601E+02 -0.25669036057E+03  0.29085666180E+03  0.97991469787E+02 0.  0.
        -11    1    4    4    0    0  0.37369088775E+02 -0.85667620809E+02 -0.20516267788E+03  0.22544869581E+03  0.00000000000E+00 0. -1.
         11    1    4    4    0    0 -0.39092948358E+02 -0.97386507922E+01 -0.51527682697E+02  0.65407965988E+02  0.00000000000E+00 0.  1.
        -13    1    3    3    0    0  0.21225339845E+00  0.44319015496E+02  0.13020858350E+03  0.13754452153E+03  0.00000000000E+00 0. -1.
         13    1    3    3    0    0 -0.56909017798E+01  0.70223538373E+02  0.25627855364E+02  0.74970118550E+02  0.00000000000E+00 0.  1.
         21    1    1    2  502  501  0.72025079643E+01 -0.19136282268E+02  0.15110582382E+03  0.15248292826E+03  0.00000000000E+00 0. -1.
<scales pt_clust_5="13000.00000" pt_clust_6="13000.00000" pt_clust_7="13000.00000" pt_clust_8="13000.00000" pt_clust_9="20.44684"></scales>
<clustering>
<clus scale="   20.447">  1  9  2 -1</clus>
<clus scale="   87.906">  7  8 -1 -1</clus>
<clus scale="   97.991">  5  6 -1 -1</clus>
<clus scale="  130.934">  1  7  2 -1</clus>
<clus scale="  137.908">  2  5  1 -1</clus>
</clustering>
</event>
<event>
 9    1  0.1175034E-005  0.1253750E+03  0.7546771E-02  0.1242559E+00
          1   -1    0    0  502    0  0.00000000000E+00  0.00000000000E+00  0.18767988740E+03  0.18767988740E+03  0.00000000000E+00 0. -1.
         -1   -1    0    0    0  501 -0.00000000000E+00 -0.00000000000E+00 -0.29093361382E+03  0.29093361382E+03  0.00000000000E+00 0.  1.
         23    2    1    2    0    0 -0.62426620495E+01  0.91941706917E+02 -0.90555701503E+02  0.16562440846E+03  0.10362847728E+03 0.  0.
         23    2    1    2    0    0  0.24753455570E+02 -0.63301324733E+02  0.12964455158E+03  0.16661856959E+03  0.79587980893E+02 0.  0.
        -13    1    3    3    0    0 -0.46987333226E+02  0.61652459808E+02 -0.22496853838E+02  0.80715201274E+02  0.00000000000E+00 0.  1.
         13    1    3    3    0    0  0.40744671176E+02  0.30289247108E+02 -0.68058847665E+02  0.84909207187E+02  0.00000000000E+00 0. -1.
        -13    1    4    4    0    0  0.46800408114E+02 -0.66750632470E+02  0.10980641672E+03  0.13676028037E+03  0.00000000000E+00 0. -1.
         13    1    4    4    0    0 -0.22046952544E+02  0.34493077370E+01  0.19838134865E+02  0.29858289222E+02  0.00000000000E+00 0.  1.
         21    1    1    2  502  501 -0.18510793520E+02 -0.28640382184E+02 -0.14234257650E+03  0.14637052317E+03  0.00000000000E+00 0. -1.
<scales pt_clust_5="13000.00000" pt_clust_6="13000.00000" pt_clust_7="13000.00000" pt_clust_8="13000.00000" pt_clust_9="34.10163"></scales>
<clustering>
<clus scale="   34.102">  2  9  1 -1</clus>
<clus scale="   79.588">  7  8 -1 -1</clus>
<clus scale="  103.628">  5  6 -1 -1</clus>
<clus scale="  106.369">  1  7  2 -1</clus>
<clus scale="  106.369">  1  5  2 -1</clus>
</clustering>
</event>
<event>
 9    1  0.1175034E-005  0.1137262E+03  0.7546771E-02  0.1254078E+00
          2   -1    0    0  502    0  0.00000000000E+00  0.00000000000E+00  0.28327003486E+03  0.28327003486E+03  0.00000000000E+00 0. -1.
         -2   -1    0    0    0  501 -0.00000000000E+00 -0.00000000000E+00 -0.85713764605E+02  0.85713764605E+02  0.00000000000E+00 0.  1.
         23    2    1    2    0    0  0.60765527391E+02  0.29667300073E+02  0.11317531698E+03  0.16022638161E+03  0.91056262709E+02 0.  0.
         23    2    1    2    0    0 -0.47454292970E+02 -0.49893670158E+02  0.11978335340E+03  0.16586656868E+03  0.91773518040E+02 0.  0.
        -13    1    4    4    0    0 -0.19069932670E+01 -0.37342730180E+02  0.31178913298E+00  0.37392690904E+02  0.00000000000E+00 0.  1.
         13    1    4    4    0    0 -0.45547299703E+02 -0.12550939978E+02  0.11947156426E+03  0.12847387778E+03  0.00000000000E+00 0. -1.
        -13    1    3    3    0    0  0.30213810063E+02 -0.31379533171E+02  0.31376867006E+02  0.53684794902E+02  0.00000000000E+00 0. -1.
         13    1    3    3    0    0  0.30551717328E+02  0.61046833243E+02  0.81798449970E+02  0.10654158671E+03  0.00000000000E+00 0.  1.
         21    1    1    2  502  501 -0.13311234422E+02  0.20226370085E+02 -0.35402400116E+02  0.42890849171E+02  0.00000000000E+00 0.  1.
<scales pt_clust_5="13000.00000" pt_clust_6="13000.00000" pt_clust_7="13000.00000" pt_clust_8="13000.00000" pt_clust_9="24.21353"></scales>
<clustering>
<clus scale="   24.214">  2  9  1 -1</clus>
<clus scale="   91.056">  7  8 -1 -1</clus>
<clus scale="   91.774">  5  6 -1 -1</clus>
<clus scale="  113.148">  2  7  1 -1</clus>
<clus scale="  113.726">  1  5  2 -1</clus>
</clustering>
</event>
<event>
 9    1  0.1175034E-005  0.1069312E+03  0.7546771E-02  0.1266737E+00
          1   -1    0    0  502    0  0.00000000000E+00  0.00000000000E+00  0.17065213196E+03  0.17065213196E+03  0.00000000000E+00 0. -1.
         -1   -1    0    0    0  501 -0.00000000000E+00 -0.00000000000E+00 -0.11745025447E+03  0.11745025447E+03  0.00000000000E+00 0.  1.
         23    2    1    2    0    0 -0.51519055883E+02 -0.98978373625E+01 -0.51067949538E+02  0.11755578170E+03  0.91974159614E+02 0.  0.
         23    2    1    2    0    0  0.63923720418E+02 -0.93356874149E+01  0.91372442647E+02  0.14427596139E+03  0.91067187667E+02 0.  0.
        -11    1    4    4    0    0  0.58345433993E+02  0.17417374939E+02  0.98710200913E+02  0.11597956019E+03  0.00000000000E+00 0. -1.
         11    1    4    4    0    0  0.55782864246E+01 -0.26753062354E+02 -0.73377582668E+01  0.28296401204E+02  0.00000000000E+00 0.  1.
        -11    1    3    3    0    0 -0.81590614353E+01 -0.46250475022E+02 -0.35495142765E+02  0.58869192989E+02  0.00000000000E+00 0.  1.
         11    1    3    3    0    0 -0.43359994447E+02  0.36352637660E+02 -0.15572806773E+02  0.58686588707E+02  0.00000000000E+00 0. -1.
         21    1    1    2  502  501 -0.12404664535E+02  0.19233524777E+02  0.12897384387E+02  0.26270643342E+02  0.00000000000E+00 0.  1.
<scales pt_clust_5="13000.00000" pt_clust_6="13000.00000" pt_clust_7="13000.00000" pt_clust_8="13000.00000" pt_clust_9="22.88677"></scales>
<clustering>
<clus scale="   22.887">  1  9  2 -1</clus>
<clus scale="   91.067">  5  6 -1 -1</clus>
<clus scale="   91.974">  7  8 -1 -1</clus>
<clus scale="  106.152">  1  5  2 -1</clus>
<clus scale="   22.887">  1  5  2 -1</clus>
</clustering>
</event>
<event>
 9    1  0.1175034E-005  0.9597019E+02  0.7546771E-02  0.1289549E+00
          2   -1    0    0  502    0  0.00000000000E+00  0.00000000000E+00  0.22062810010E+03  0.22062810010E+03  0.00000000000E+00 0. -1.
         -2   -1    0    0    0  501 -0.00000000000E+00 -0.00000000000E+00 -0.92582264608E+02  0.92582264608E+02  0.00000000000E+00 0.  1.
         23    2    1    2    0    0 -0.30368669404E+02  0.32963834781E+02 -0.19242683747E+02  0.10418189136E+03  0.92058215955E+02 0.  0.
         23    2    1    2    0    0  0.14750226225E+02 -0.18223848545E+02  0.15888948319E+03  0.18461975920E+03  0.91043450006E+02 0.  0.
        -11    1    4    4    0    0  0.21642070305E+02  0.15699665403E+02  0.14479672394E+03  0.14724452439E+03  0.00000000000E+00 0. -1.
         11    1    4    4    0    0 -0.68918440804E+01 -0.33923513949E+02  0.14092759252E+02  0.37375234806E+02  0.00000000000E+00 0.  1.
        -13    1    3    3    0    0 -0.24749150457E+02 -0.21454524998E+02  0.18594841332E+02  0.37664110442E+02  0.00000000000E+00 0. -1.
         13    1    3    3    0    0 -0.56195189469E+01  0.54418359779E+02 -0.37837525079E+02  0.66517780919E+02  0.00000000000E+00 0.  1.
         21    1    1    2  502  501  0.15618443179E+02 -0.14739986235E+02 -0.11600963953E+02  0.24408714145E+02  0.00000000000E+00 0.  1.
<scales pt_clust_5="13000.00000" pt_clust_6="13000.00000" pt_clust_7="13000.00000" pt_clust_8="13000.00000" pt_clust_9="21.47564"></scales>
<clustering>
<clus scale="   21.476">  2  9  1 -1</clus>
<clus scale="   91.043">  5  6 -1 -1</clus>
<clus scale="   92.058">  7  8 -1 -1</clus>
<clus scale="   94.997">  1  5  2 -1</clus>
<clus scale="   94.997">  1  5  2 -1</clus>
</clustering>
</event>
<event>
 9    1  0.1175034E-005  0.1503479E+03  0.7546771E-02  0.1201172E+00
         -2   -1    0    0    0  501 -0.00000000000E+00  0.00000000000E+00  0.11905854500E+03  0.11905854500E+03  0.00000000000E+00 0.  1.
          2   -1    0    0  502    0  0.00000000000E+00 -0.00000000000E+00 -0.42565292299E+03  0.42565292299E+03  0.00000000000E+00 0. -1.
         23    2    1    2    0    0  0.41308382371E+02 -0.91192047775E+02  0.24497205084E+02  0.14183804136E+03  0.97445086532E+02 0.  0.
         23    2    1    2    0    0 -0.23016188604E+02  0.11534760808E+03 -0.34000530251E+03  0.37128941421E+03  0.91746431755E+02 0.  0.
        -11    1    3    3    0    0  0.61201933388E+02 -0.97330978655E+02  0.32586307418E+02  0.11950256687E+03  0.00000000000E+00 0.  1.
         11    1    3    3    0    0 -0.19893551017E+02  0.61389308801E+01 -0.80891023339E+01  0.22335474497E+02  0.00000000000E+00 0. -1.
        -13    1    4    4    0    0 -0.18655005428E+02 -0.11045409873E+02 -0.66854305070E+02  0.70281636386E+02  0.00000000000E+00 0.  1.
         13    1    4    4    0    0 -0.43611831760E+01  0.12639301795E+03 -0.27315099744E+03  0.30100777782E+03  0.00000000000E+00 0. -1.
         21    1    1    2  502  501 -0.18292193767E+02 -0.24155560305E+02  0.89137194384E+01  0.31584012422E+02  0.00000000000E+00 0.  1.
<scales pt_clust_5="13000.00000" pt_clust_6="13000.00000" pt_clust_7="13000.00000" pt_clust_8="13000.00000" pt_clust_9="30.30009"></scales>
<clustering>
<clus scale="   30.300">  1  9  2 -1</clus>
<clus scale="   91.746">  7  8 -1 -1</clus>
<clus scale="   97.445">  5  6 -1 -1</clus>
<clus scale="  146.719">  2  7  1 -1</clus>
<clus scale="  146.719">  2  5  1 -1</clus>
</clustering>
</event>
<event>
 9    1  0.1175034E-005  0.1155630E+03  0.7546771E-02  0.1251288E+00
          1   -1    0    0  502    0  0.00000000000E+00  0.00000000000E+00  0.34267766453E+03  0.34267766453E+03  0.00000000000E+00 0. -1.
         -1   -1    0    0    0  501 -0.00000000000E+00 -0.00000000000E+00 -0.64661539768E+02  0.64661539768E+02  0.00000000000E+00 0.  1.
         23    2    1    2    0    0 -0.57257416510E+02 -0.35916017475E+02  0.68187309571E+02  0.13356010346E+03  0.92846216903E+02 0.  0.
         23    2    1    2    0    0  0.73968263101E+02 -0.63404694149E+01  0.19188389739E+03  0.22492336266E+03  0.90882250703E+02 0.  0.
        -13    1    4    4    0    0  0.87718441792E+02  0.17266941017E+02  0.13656122757E+03  0.16322267354E+03  0.00000000000E+00 0. -1.
         13    1    4    4    0    0 -0.13750178691E+02 -0.23607410432E+02  0.55322669823E+02  0.61700689118E+02  0.00000000000E+00 0.  1.
        -13    1    3    3    0    0 -0.49968195215E+02  0.16660600696E+02  0.60021803286E+02  0.79856202128E+02  0.00000000000E+00 0.  1.
         13    1    3    3    0    0 -0.72892212951E+01 -0.52576618172E+02  0.81655062854E+01  0.53703901333E+02  0.00000000000E+00 0. -1.
         21    1    1    2  502  501 -0.16710846590E+02  0.42256486890E+02  0.17944917800E+02  0.48855738178E+02  0.00000000000E+00 0.  1.
<scales pt_clust_5="13000.00000" pt_clust_6="13000.00000" pt_clust_7="13000.00000" pt_clust_8="13000.00000" pt_clust_9="45.44076"></scales>
<clustering>
<clus scale="   45.441">  2  9  1 -1</clus>
<clus scale="   90.882">  5  6 -1 -1</clus>
<clus scale="   92.846">  7  8 -1 -1</clus>
<clus scale="  113.991">  1  5  2 -1</clus>
<clus scale="  113.991">  1  5  2 -1</clus>
</clustering>
</event>
<event>
 9    1  0.1175034E-005  0.9937427E+02  0.7546771E-02  0.1285407E+00
         -1   -1    0    0    0  501 -0.00000000000E+00  0.00000000000E+00  0.39624086541E+03  0.39624086541E+03  0.00000000000E+00 0.  1.
          1   -1    0    0  502    0  0.00000000000E+00 -0.00000000000E+00 -0.21332370662E+03  0.21332370662E+03  0.00000000000E+00 0. -1.
         23    2    1    2    0    0  0.28175673826E+02  0.47680828459E+02  0.17270972601E+03  0.20609580413E+03  0.97874925398E+02 0.  0.
         23    2    1    2    0    0  0.19365716422E+01  0.21133806333E+02 -0.17791323359E+03  0.20090621854E+03  0.90883452207E+02 0.  0.
        -13    1    4    4    0    0  0.43498160585E+02  0.14068814651E+00 -0.59804984889E+02  0.73950970142E+02  0.00000000000E+00 0.  1.
         13    1    4    4    0    0 -0.41561588943E+02  0.20993118187E+02 -0.11810824870E+03  0.12695524840E+03  0.00000000000E+00 0. -1.
        -13    1    3    3    0    0  0.50361268027E+01 -0.26042616109E+02  0.14996064050E+02  0.30470680399E+02  0.00000000000E+00 0.  1.
         13    1    3    3    0    0  0.23139547024E+02  0.73723444568E+02  0.15771366196E+03  0.17562512373E+03  0.00000000000E+00 0. -1.
         21    1    1    2  502  501 -0.30112245469E+02 -0.68814634792E+02  0.18812066636E+03  0.20256254936E+03  0.00000000000E+00 0.  1.
<scales pt_clust_5="13000.00000" pt_clust_6="13000.00000" pt_clust_7="13000.00000" pt_clust_8="13000.00000" pt_clust_9="75.11459"></scales>
<clustering>
<clus scale="   75.115">  1  9  2 -1</clus>
<clus scale="   90.883">  5  6 -1 -1</clus>
<clus scale="   92.496">  2  5  1 -1</clus>
<clus scale="   97.875">  7  8 -1 -1</clus>
<clus scale="   92.496">  2  5  1 -1</clus>
</clustering>
</event>
<event>
 9    1  0.1175034E-005  0.1110300E+03  0.7546771E-02  0.1258888E+00
          1   -1    0    0  502    0  0.00000000000E+00  0.00000000000E+00  0.17364526631E+03  0.17364526631E+03  0.00000000000E+00 0. -1.
         -1   -1    0    0    0  501 -0.00000000000E+00 -0.00000000000E+00 -0.20538534727E+03  0.20538534727E+03  0.00000000000E+00 0.  1.
         23    2    1    2    0    0 -0.56249325228E+01 -0.40371206700E+02 -0.11858399212E+03  0.15495967232E+03  0.91043191186E+02 0.  0.
         23    2    1    2    0    0 -0.17839908300E+02  0.65186451771E+02  0.12793050494E+03  0.17064338909E+03  0.90473290661E+02 0.  0.
        -11    1    4    4    0    0  0.28699229703E+02  0.27745675539E+02  0.14541793878E+02  0.42484492063E+02  0.00000000000E+00 0.  1.
         11    1    4    4    0    0 -0.46539138003E+02  0.37440776232E+02  0.11338871106E+03  0.12815889702E+03  0.00000000000E+00 0. -1.
        -13    1    3    3    0    0 -0.19224205441E+02 -0.65604709717E+02 -0.65749269773E+02  0.94849957762E+02  0.00000000000E+00 0.  1.
         13    1    3    3    0    0  0.13599272918E+02  0.25233503016E+02 -0.52834722350E+02  0.60109714558E+02  0.00000000000E+00 0. -1.
         21    1    1    2  502  501  0.23464840823E+02 -0.24815245071E+02 -0.41086593781E+02  0.53427552174E+02  0.00000000000E+00 0.  1.
<scales pt_clust_5="13000.00000" pt_clust_6="13000.00000" pt_clust_7="13000.00000" pt_clust_8="13000.00000" pt_clust_9="34.15253"></scales>
<clustering>
<clus scale="   34.153">  2  9  1 -1</clus>
<clus scale="   90.473">  5  6 -1 -1</clus>
<clus scale="   91.043">  7  8 -1 -1</clus>
<clus scale="  110.563">  1  5  2 -1</clus>
<clus scale="  110.563">  1  5  2 -1</clus>
</clustering>
</event>
<event>
 9    1  0.1175034E-005  0.1091932E+03  0.7546771E-02  0.1269172E+00
          1   -1    0    0  502    0  0.00000000000E+00  0.00000000000E+00  0.28096796847E+03  0.28096796847E+03  0.00000000000E+00 0. -1.
         -1   -1    0    0    0  501 -0.00000000000E+00 -0.00000000000E+00 -0.49451286195E+02  0.49451286195E+02  0.00000000000E+00 0.  1.
         23    2    1    2    0    0  0.53375001127E+02 -0.44985939331E+00  0.77160197480E+02  0.12723988500E+03  0.85948816986E+02 0.  0.
         23    2    1    2    0    0 -0.31659653726E+02 -0.43316096561E+01  0.14316762737E+03  0.17828741736E+03  0.10133280390E+03 0.  0.
        -11    1    3    3    0    0  0.32419340971E+02  0.34347625905E+02  0.72257969809E+02  0.86324893717E+02  0.00000000000E+00 0. -1.
         11    1    3    3    0    0  0.20955660156E+02 -0.34797485299E+02  0.49022276709E+01  0.40914991285E+02  0.00000000000E+00 0.  1.
        -13    1    4    4    0    0  0.41687586673E+01 -0.47488380309E+02  0.46919135067E+02  0.66887443131E+02  0.00000000000E+00 0.  1.
         13    1    4    4    0    0 -0.35828412393E+02  0.43156770653E+02  0.96248492304E+02  0.11139997423E+03  0.00000000000E+00 0. -1.
         21    1    1    2  502  501 -0.21715347401E+02  0.47814690494E+01  0.11188857426E+02  0.24891952304E+02  0.00000000000E+00 0.  1.
<scales pt_clust_5="13000.00000" pt_clust_6="13000.00000" pt_clust_7="13000.00000" pt_clust_8="13000.00000" pt_clust_9="22.23553"></scales>
<clustering>
<clus scale="   22.236">  2  9  1 -1</clus>
<clus scale="   85.949">  5  6 -1 -1</clus>
<clus scale="   95.090">  2  5  1 -1</clus>
<clus scale="  101.333">  7  8 -1 -1</clus>
<clus scale="  109.193">  1  5  2 -1</clus>
</clustering>
</event>
<event>
 9    1  0.1175034E-005  0.4715343E+03  0.7546771E-02  0.1021503E+00
          1   -1    0    0  502    0  0.00000000000E+00  0.00000000000E+00  0.67470656561E+03  0.67470656561E+03  0.00000000000E+00 0. -1.
         -1   -1    0    0    0  501 -0.00000000000E+00 -0.00000000000E+00 -0.37920578309E+03  0.37920578309E+03  0.00000000000E+00 0.  1.
         23    2    1    2    0    0 -0.20841828413E+03 -0.43628061481E+03  0.13722316355E+03  0.51088634078E+03  0.91628055542E+02 0.  0.
         23    2    1    2    0    0  0.23606791504E+03  0.37750468127E+03  0.14268247103E+03  0.47622540095E+03  0.90523478041E+02 0.  0.
        -11    1    3    3    0    0 -0.16041125104E+03 -0.39867932561E+03  0.10716577888E+03  0.44290120602E+03  0.00000000000E+00 0. -1.
         11    1    3    3    0    0 -0.48007033095E+02 -0.37601289205E+02  0.30057384666E+02  0.67985134768E+02  0.00000000000E+00 0.  1.
        -13    1    4    4    0    0  0.19064393161E+03  0.23428364222E+03  0.11634844453E+03  0.32368332397E+03  0.00000000000E+00 0.  1.
         13    1    4    4    0    0  0.45423983430E+02  0.14322103905E+03  0.26334026498E+02  0.15254207698E+03  0.00000000000E+00 0. -1.
         21    1    1    2  502  501 -0.27649630905E+02  0.58775933541E+02  0.15595147944E+02  0.66800606975E+02  0.00000000000E+00 0. -1.
<scales pt_clust_5="13000.00000" pt_clust_6="13000.00000" pt_clust_7="13000.00000" pt_clust_8="13000.00000" pt_clust_9="64.95470"></scales>
<clustering>
<clus scale="   64.955">  2  9  1 -1</clus>
<clus scale="   90.523">  7  8 -1 -1</clus>
<clus scale="   91.628">  5  6 -1 -1</clus>
<clus scale="  471.321">  1  7  2 -1</clus>
<clus scale="  471.321">  1  5  2 -1</clus>
</clustering>
</event>
<event>
 9    1  0.1175034E-005  0.9511073E+02  0.7546771E-02  0.1291681E+00
          1   -1    0    0  502    0  0.00000000000E+00  0.00000000000E+00  0.65056229811E+03  0.65056229811E+03  0.00000000000E+00 0. -1.
         -1   -1    0    0    0  501 -0.00000000000E+00 -0.00000000000E+00 -0.24009501421E+02  0.24009501421E+02  0.00000000000E+00 0.  1.
         23    2    1    2    0    0 -0.32380496451E+02  0.21386325878E+02  0.21697608856E+03  0.23913700096E+03  0.92747025506E+02 0.  0.
         23    2    1    2    0    0 -0.19103403446E+02 -0.20667526588E+02  0.28601873299E+03  0.30157785313E+03  0.91380518695E+02 0.  0.
        -11    1    4    4    0    0 -0.37040753130E+02  0.26152572538E+02  0.12784743111E+03  0.13565006482E+03  0.00000000000E+00 0. -1.
         11    1    4    4    0    0  0.17937349684E+02 -0.46820099126E+02  0.15817130188E+03  0.16592778831E+03  0.00000000000E+00 0.  1.
        -11    1    3    3    0    0 -0.23349269058E+02 -0.31934647463E+02  0.50826906544E+02  0.64407953725E+02  0.00000000000E+00 0.  1.
         11    1    3    3    0    0 -0.90312273934E+01  0.53320973340E+02  0.16614918201E+03  0.17472904724E+03  0.00000000000E+00 0. -1.
         21    1    1    2  502  501  0.51483899898E+02 -0.71879928978E+00  0.12355797514E+03  0.13385694544E+03  0.00000000000E+00 0. -1.
<scales pt_clust_5="13000.00000" pt_clust_6="13000.00000" pt_clust_7="13000.00000" pt_clust_8="13000.00000" pt_clust_9="51.48892"></scales>
<clustering>
<clus scale="   51.489">  2  9  1 -1</clus>
<clus scale="   91.381">  5  6 -1 -1</clus>
<clus scale="   92.747">  7  8 -1 -1</clus>
<clus scale="   93.779">  1  5  2 -1</clus>
<clus scale="   93.779">  1  5  2 -1</clus>
</clustering>
</event>
<event>
 9    1  0.1175034E-005  0.3105190E+03  0.7546771E-02  0.1080123E+00
         -1   -1    0    0    0  501 -0.00000000000E+00  0.00000000000E+00  0.56228803777E+03  0.56228803777E+03  0.00000000000E+00 0.  1.
          1   -1    0    0  502    0  0.00000000000E+00 -0.00000000000E+00 -0.25967929183E+03  0.25967929183E+03  0.00000000000E+00 0. -1.
         23    2    1    2    0    0  0.26112782612E+03 -0.14555384127E+03  0.19197178291E+03  0.36640373201E+03  0.89581622658E+02 0.  0.
         23    2    1    2    0    0 -0.24844837279E+03  0.16226102562E+03 -0.31991755454E+02  0.31140101615E+03  0.88836288009E+02 0.  0.
        -11    1    4    4    0    0 -0.46901258176E+02  0.74990470468E+02  0.53850567513E+01  0.88613190416E+02  0.00000000000E+00 0.  1.
         11    1    4    4    0    0 -0.20154711462E+03  0.87270555147E+02 -0.37376812205E+02  0.22278782574E+03  0.00000000000E+00 0. -1.
        -13    1    3    3    0    0  0.21477066421E+03 -0.12449028473E+03  0.19458801359E+03  0.31541839552E+03  0.00000000000E+00 0.  1.
         13    1    3    3    0    0  0.46357161912E+02 -0.21063556540E+02 -0.26162306858E+01  0.50985336496E+02  0.00000000000E+00 0. -1.
         21    1    1    2  502  501 -0.12679453328E+02 -0.16707184347E+02  0.14262871850E+03  0.14416258143E+03  0.00000000000E+00 0.  1.
<scales pt_clust_5="13000.00000" pt_clust_6="13000.00000" pt_clust_7="13000.00000" pt_clust_8="13000.00000" pt_clust_9="20.97376"></scales>
<clustering>
<clus scale="   20.974">  1  9  2 -1</clus>
<clus scale="   88.836">  5  6 -1 -1</clus>
<clus scale="   89.582">  7  8 -1 -1</clus>
<clus scale="  310.305">  2  5  1 -1</clus>
<clus scale="  310.305">  2  5  1 -1</clus>
</clustering>
</event>
<event>
 9    1  0.1175034E-005  0.9880381E+02  0.7546771E-02  0.1283089E+00
          2   -1    0    0  502    0  0.00000000000E+00  0.00000000000E+00  0.25312463107E+03  0.25312463107E+03  0.00000000000E+00 0. -1.
         -2   -1    0    0    0  501 -0.00000000000E+00 -0.00000000000E+00 -0.78142798894E+02  0.78142798894E+02  0.00000000000E+00 0.  1.
         23    2    1    2    0    0  0.31360147621E+02  0.44998760414E+02  0.98970494594E+02  0.14541502854E+03  0.91334683593E+02 0.  0.
         23    2    1    2    0    0 -0.21345392304E+02 -0.10390250093E+02  0.10359900946E+03  0.14047483043E+03  0.91852273541E+02 0.  0.
        -13    1    3    3    0    0  0.48172910693E+02  0.26768474504E+02  0.10614461761E+03  0.11959874748E+03  0.00000000000E+00 0.  1.
         13    1    3    3    0    0 -0.16812763072E+02  0.18230285910E+02 -0.71741230159E+01  0.25816281056E+02  0.00000000000E+00 0. -1.
        -13    1    4    4    0    0 -0.27354613576E+02  0.25086550358E+02  0.75081303267E+01  0.37867953651E+02  0.00000000000E+00 0.  1.
         13    1    4    4    0    0  0.60092212720E+01 -0.35476800451E+02  0.96090879129E+02  0.10260687678E+03  0.00000000000E+00 0. -1.
         21    1    1    2  502  501 -0.10014755317E+02 -0.34608510321E+02 -0.27587671869E+02  0.45377571000E+02  0.00000000000E+00 0.  1.
<scales pt_clust_5="13000.00000" pt_clust_6="13000.00000" pt_clust_7="13000.00000" pt_clust_8="13000.00000" pt_clust_9="36.02838"></scales>
<clustering>
<clus scale="   36.028">  2  9  1 -1</clus>
<clus scale="   91.335">  5  6 -1 -1</clus>
<clus scale="   91.852">  7  8 -1 -1</clus>
<clus scale="   98.323">  2  5  1 -1</clus>
<clus scale="   98.804">  1  5  2 -1</clus>
</clustering>
</event>
<event>
 9    1  0.1175034E-005  0.9885458E+02  0.7546771E-02  0.1283119E+00
         -4   -1    0    0    0  501 -0.00000000000E+00  0.00000000000E+00  0.12953790533E+03  0.12953790533E+03  0.00000000000E+00 0.  1.
          4   -1    0    0  502    0  0.00000000000E+00 -0.00000000000E+00 -0.12171719423E+03  0.12171719423E+03  0.00000000000E+00 0. -1.
         23    2    1    2    0    0 -0.44032509442E+02  0.34729587747E+02  0.15915679548E+02  0.10826030925E+03  0.91224884495E+02 0.  0.
         23    2    1    2    0    0  0.28701630636E+02  0.71469669338E+01 -0.15184088287E+02  0.97840196991E+02  0.92017850837E+02 0.  0.
        -11    1    3    3    0    0 -0.65272018314E+02  0.39740809080E+02 -0.68497030887E+01  0.76724746422E+02  0.00000000000E+00 0. -1.
         11    1    3    3    0    0  0.21239508873E+02 -0.50112213329E+01  0.22765382637E+02  0.31535562830E+02  0.00000000000E+00 0.  1.
        -13    1    4    4    0    0 -0.27233247510E+02 -0.16933309514E+02 -0.18189709935E+02  0.36868038849E+02  0.00000000000E+00 0.  1.
         13    1    4    4    0    0  0.55934878145E+02  0.24080276448E+02  0.30056216487E+01  0.60972158142E+02  0.00000000000E+00 0. -1.
         21    1    1    2  502  501  0.15330878806E+02 -0.41876554681E+02  0.70891198365E+01  0.45154593310E+02  0.00000000000E+00 0.  1.
<scales pt_clust_5="13000.00000" pt_clust_6="13000.00000" pt_clust_7="13000.00000" pt_clust_8="13000.00000" pt_clust_9="44.59464"></scales>
<clustering>
<clus scale="   44.595">  1  9  2 -1</clus>
<clus scale="   91.225">  5  6 -1 -1</clus>
<clus scale="   92.018">  7  8 -1 -1</clus>
<clus scale="   98.117">  1  5  2 -1</clus>
<clus scale="   98.855">  2  5  1 -1</clus>
</clustering>
</event>
<event>
 9    1  0.1175034E-005  0.1156413E+03  0.7546771E-02  0.1251155E+00
         -3   -1    0    0    0  501 -0.00000000000E+00  0.00000000000E+00  0.22970378605E+03  0.22970378605E+03  0.00000000000E+00 0.  1.
          3   -1    0    0  502    0  0.00000000000E+00 -0.00000000000E+00 -0.10443991126E+03  0.10443991126E+03  0.00000000000E+00 0. -1.
         23    2    1    2    0    0 -0.36341900260E+02  0.83298013829E+02  0.11822094353E+03  0.17435835185E+03  0.90362329263E+02 0.  0.
         23    2    1    2    0    0  0.23517664749E+02 -0.33410691670E+02  0.27025522487E+02  0.10453582165E+03  0.92347194165E+02 0.  0.
        -11    1    3    3    0    0 -0.48132016273E+02  0.31556424550E+02  0.16905028116E+02  0.59985655756E+02  0.00000000000E+00 0. -1.
         11    1    3    3    0    0  0.11790116014E+02  0.51741589279E+02  0.10131591541E+03  0.11437269610E+03  0.00000000000E+00 0.  1.
        -13    1    4    4    0    0 -0.27992968919E+02 -0.35147095449E+02  0.28080247243E+02  0.52985138601E+02  0.00000000000E+00 0. -1.
         13    1    4    4    0    0  0.51510633668E+02  0.17364037792E+01 -0.10547247560E+01  0.51550683053E+02  0.00000000000E+00 0.  1.
         21    1    1    2  502  501  0.12824235511E+02 -0.49887322159E+02 -0.19982591224E+02  0.55249523805E+02  0.00000000000E+00 0.  1.
<scales pt_clust_5="13000.00000" pt_clust_6="13000.00000" pt_clust_7="13000.00000" pt_clust_8="13000.00000" pt_clust_9="51.50928"></scales>
<clustering>
<clus scale="   51.509">  2  9  1 -1</clus>
<clus scale="   90.362">  5  6 -1 -1</clus>
<clus scale="   92.347">  7  8 -1 -1</clus>
<clus scale="  114.063">  1  5  2 -1</clus>
<clus scale="   51.509">  2  5  1 -1</clus>
</clustering>
</event>
<event>
 9    1  0.1175034E-005  0.1025101E+03  0.7546771E-02  0.1275805E+00
         -3   -1    0    0    0  501 -0.00000000000E+00  0.00000000000E+00  0.30167951372E+02  0.30167951372E+02  0.00000000000E+00 0.  1.
          3   -1    0    0  502    0  0.00000000000E+00 -0.00000000000E+00 -0.60483837296E+03  0.60483837296E+03  0.00000000000E+00 0. -1.
         23    2    1    2    0    0 -0.52761935279E+02  0.95425237474E+01 -0.18325646627E+03  0.21166317505E+03  0.91342682633E+02 0.  0.
         23    2    1    2    0    0  0.36503347672E+02  0.35424287531E+02 -0.32842982962E+03  0.34426498618E+03  0.89804527689E+02 0.  0.
        -13    1    3    3    0    0 -0.16927170295E+02  0.14487408350E+02  0.24972620339E+01  0.22419866470E+02  0.00000000000E+00 0.  1.
         13    1    3    3    0    0 -0.35834764985E+02 -0.49448846027E+01 -0.18575372830E+03  0.18924330858E+03  0.00000000000E+00 0. -1.
        -13    1    4    4    0    0  0.99699807144E+01  0.62125112438E+02 -0.16584665078E+03  0.17738106349E+03  0.00000000000E+00 0.  1.
         13    1    4    4    0    0  0.26533366957E+02 -0.26700824907E+02 -0.16258317884E+03  0.16688392270E+03  0.00000000000E+00 0. -1.
         21    1    1    2  502  501  0.16258587608E+02 -0.44966811279E+02 -0.62984125709E+02  0.79078163098E+02  0.00000000000E+00 0.  1.
<scales pt_clust_5="13000.00000" pt_clust_6="13000.00000" pt_clust_7="13000.00000" pt_clust_8="13000.00000" pt_clust_9="47.81585"></scales>
<clustering>
<clus scale="   47.816">  1  9  2 -1</clus>
<clus scale="   89.805">  7  8 -1 -1</clus>
<clus scale="   91.343">  5  6 -1 -1</clus>
<clus scale="  101.142">  2  7  1 -1</clus>
<clus scale="  101.142">  2  5  1 -1</clus>
</clustering>
</event>
<event>
 9    1  0.1175034E-005  0.9886856E+02  0.7546771E-02  0.1283259E+00
          1   -1    0    0  502    0  0.00000000000E+00  0.00000000000E+00  0.10097478029E+03  0.10097478029E+03  0.00000000000E+00 0. -1.
         -1   -1    0    0    0  501 -0.00000000000E+00 -0.00000000000E+00 -0.29783902849E+03  0.29783902849E+03  0.00000000000E+00 0.  1.
         23    2    1    2    0    0  0.19267483635E+02 -0.39374317838E+02 -0.13758883277E+03  0.17047213111E+03  0.90600705016E+02 0.  0.
         23    2    1    2    0    0 -0.23100805103E+02 -0.48815216831E+02  0.21597994586E+02  0.10862285364E+03  0.91738096624E+02 0.  0.
        -11    1    4    4    0    0  0.31762512438E+02 -0.72481648671E+01  0.22826949197E+02  0.39780179738E+02  0.00000000000E+00 0. -1.
         11    1    4    4    0    0 -0.54863317541E+02 -0.41567051964E+02 -0.12289546110E+01  0.68842673903E+02  0.00000000000E+00 0.  1.
        -13    1    3    3    0    0 -0.82243207357E+01 -0.26314622185E+02  0.19631296111E+01  0.27639693743E+02  0.00000000000E+00 0. -1.
         13    1    3    3    0    0  0.27491804371E+02 -0.13059695653E+02 -0.13955196239E+03  0.14283243737E+03  0.00000000000E+00 0.  1.
         21    1    1    2  502  501  0.38333214677E+01  0.88189534670E+02 -0.80873410017E+02  0.11971882403E+03  0.00000000000E+00 0. -1.
<scales pt_clust_5="13000.00000" pt_clust_6="13000.00000" pt_clust_7="13000.00000" pt_clust_8="13000.00000" pt_clust_9="88.27281"></scales>
<clustering>
<clus scale="   88.273">  2  9  1 -1</clus>
<clus scale="   90.601">  7  8 -1 -1</clus>
<clus scale="   91.738">  5  6 -1 -1</clus>
<clus scale="   97.814">  2  7  1 -1</clus>
<clus scale="   98.869">  1  5  2 -1</clus>
</clustering>
</event>
<event>
 9    1  0.1175034E-005  0.1060277E+03  0.7546771E-02  0.1268222E+00
          1   -1    0    0  502    0  0.00000000000E+00  0.00000000000E+00  0.25399062486E+03  0.25399062486E+03  0.00000000000E+00 0. -1.
         -1   -1    0    0    0  501 -0.00000000000E+00 -0.00000000000E+00 -0.22628166286E+03  0.22628166286E+03  0.00000000000E+00 0.  1.
         23    2    1    2    0    0  0.10027083887E+03 -0.28529703403E+02 -0.14383968656E+03  0.20018115503E+03  0.92273800699E+02 0.  0.
         23    2    1    2    0    0 -0.44404686127E+02 -0.21280471307E+02  0.17628101176E+03  0.20509462751E+03  0.92542836139E+02 0.  0.
        -11    1    4    4    0    0 -0.12759468391E+02  0.35633255282E+02  0.47053030274E+02  0.60386427064E+02  0.00000000000E+00 0.  1.
         11    1    4    4    0    0 -0.31645217736E+02 -0.56913726589E+02  0.12922798148E+03  0.14470820045E+03  0.00000000000E+00 0. -1.
        -13    1    3    3    0    0  0.34473836273E+02  0.29921024667E+02 -0.24225700520E+02  0.51677825711E+02  0.00000000000E+00 0.  1.
         13    1    3    3    0    0  0.65797002601E+02 -0.58450728070E+02 -0.11961398604E+03  0.14850332932E+03  0.00000000000E+00 0. -1.
         21    1    1    2  502  501 -0.55866152748E+02  0.49810174709E+02 -0.47323631954E+01  0.74996505177E+02  0.00000000000E+00 0.  1.
<scales pt_clust_5="13000.00000" pt_clust_6="13000.00000" pt_clust_7="13000.00000" pt_clust_8="13000.00000" pt_clust_9="74.84705"></scales>
<clustering>
<clus scale="   74.847">  2  9  1 -1</clus>
<clus scale="   92.274">  7  8 -1 -1</clus>
<clus scale="   92.543">  5  6 -1 -1</clus>
<clus scale="  105.793">  2  7  1 -1</clus>
<clus scale="  106.028">  1  5  2 -1</clus>
</clustering>
</event>
<event>
 9    1  0.1175034E-005  0.9824007E+02  0.7546771E-02  0.1286209E+00
         -1   -1    0    0    0  501 -0.00000000000E+00  0.00000000000E+00  0.23297001508E+02  0.23297001508E+02  0.00000000000E+00 0.  1.
          1   -1    0    0  502    0  0.00000000000E+00 -0.00000000000E+00 -0.74057674173E+03  0.74057674173E+03  0.00000000000E+00 0. -1.
         23    2    1    2    0    0  0.17663862203E+02  0.16708726191E+02 -0.29586573886E+03  0.31040224818E+03  0.90674288985E+02 0.  0.
         23    2    1    2    0    0 -0.91532743045E+01 -0.51793909526E+02 -0.39750302215E+03  0.41016866464E+03  0.86390331260E+02 0.  0.
        -11    1    3    3    0    0  0.48785760039E+02 -0.87548227682E+01 -0.11688262152E+03  0.12695764852E+03  0.00000000000E+00 0. -1.
         11    1    3    3    0    0 -0.31121897835E+02  0.25463548959E+02 -0.17898311734E+03  0.18344459966E+03  0.00000000000E+00 0.  1.
        -11    1    4    4    0    0  0.13368663811E+02  0.20113263079E+02 -0.68054472708E+02  0.72212712034E+02  0.00000000000E+00 0.  1.
         11    1    4    4    0    0 -0.22521938116E+02 -0.71907172605E+02 -0.32944854945E+03  0.33795595260E+03  0.00000000000E+00 0. -1.
         21    1    1    2  502  501 -0.85105878987E+01  0.35085183335E+02 -0.23910979209E+02  0.43302830425E+02  0.00000000000E+00 0.  1.
<scales pt_clust_5="13000.00000" pt_clust_6="13000.00000" pt_clust_7="13000.00000" pt_clust_8="13000.00000" pt_clust_9="36.10263"></scales>
<clustering>
<clus scale="   36.103">  1  9  2 -1</clus>
<clus scale="   86.390">  7  8 -1 -1</clus>
<clus scale="   90.674">  5  6 -1 -1</clus>
<clus scale="   94.300">  2  7  1 -1</clus>
<clus scale="   94.300">  2  5  1 -1</clus>
</clustering>
</event>
<event>
 9    1  0.1175034E-005  0.9930850E+02  0.7546771E-02  0.1286176E+00
          4   -1    0    0  502    0  0.00000000000E+00  0.00000000000E+00  0.32881460372E+02  0.32881460372E+02  0.00000000000E+00 0. -1.
         -4   -1    0    0    0  501 -0.00000000000E+00 -0.00000000000E+00 -0.44762667634E+03  0.44762667634E+03  0.00000000000E+00 0.  1.
         23    2    1    2    0    0 -0.38847459375E+01  0.17612693165E+02 -0.16751506694E+03  0.19117501788E+03  0.90339867161E+02 0.  0.
         23    2    1    2    0    0  0.17256527127E+02  0.96337097867E+00 -0.10368209415E+03  0.14397178026E+03  0.98382829049E+02 0.  0.
        -13    1    3    3    0    0  0.77636713737E+01  0.43353586692E+02 -0.36659048739E+02  0.57303524557E+02  0.00000000000E+00 0.  1.
         13    1    3    3    0    0 -0.11648417311E+02 -0.25740893527E+02 -0.13085601820E+03  0.13387149333E+03  0.00000000000E+00 0. -1.
        -13    1    4    4    0    0 -0.25288726510E+02 -0.31285454663E+02 -0.70334538859E+02  0.81026210071E+02  0.00000000000E+00 0.  1.
         13    1    4    4    0    0  0.42545253637E+02  0.32248825642E+02 -0.33347555286E+02  0.62945570185E+02  0.00000000000E+00 0. -1.
         21    1    1    2  502  501 -0.13371781190E+02 -0.18576064144E+02 -0.14354805488E+03  0.14536133857E+03  0.00000000000E+00 0.  1.
<scales pt_clust_5="13000.00000" pt_clust_6="13000.00000" pt_clust_7="13000.00000" pt_clust_8="13000.00000" pt_clust_9="22.88831"></scales>
<clustering>
<clus scale="   22.888">  2  9  1 -1</clus>
<clus scale="   90.340">  5  6 -1 -1</clus>
<clus scale="   91.347">  2  5  1 -1</clus>
<clus scale="   98.383">  7  8 -1 -1</clus>
<clus scale="   99.308">  1  5  2 -1</clus>
</clustering>
</event>
<event>
 9    1  0.1175034E-005  0.9662519E+02  0.7546771E-02  0.1288131E+00
         -1   -1    0    0    0  501 -0.00000000000E+00  0.00000000000E+00  0.44231147511E+02  0.44231147511E+02  0.00000000000E+00 0.  1.
          1   -1    0    0  502    0  0.00000000000E+00 -0.00000000000E+00 -0.30060028645E+03  0.30060028645E+03  0.00000000000E+00 0. -1.
         23    2    1    2    0    0  0.16052052734E+02  0.41482526935E+02 -0.99479362544E+02  0.14165374418E+03  0.90505089521E+02 0.  0.
         23    2    1    2    0    0  0.85316258763E+00 -0.22918631196E+02 -0.14981862177E+03  0.17709310127E+03  0.91598883988E+02 0.  0.
        -11    1    4    4    0    0  0.31024585139E+02 -0.13057922332E+02 -0.12108653692E+02  0.35772247803E+02  0.00000000000E+00 0.  1.
         11    1    4    4    0    0 -0.30171422551E+02 -0.98607088640E+01 -0.13770996808E+03  0.14132085347E+03  0.00000000000E+00 0. -1.
        -13    1    3    3    0    0 -0.10149029865E+02  0.64282025935E+02 -0.74202992879E+02  0.98697851130E+02  0.00000000000E+00 0.  1.
         13    1    3    3    0    0  0.26201082598E+02 -0.22799499000E+02 -0.25276369665E+02  0.42955893047E+02  0.00000000000E+00 0. -1.
         21    1    1    2  502  501 -0.16905215322E+02 -0.18563895738E+02 -0.70711546262E+01  0.26084588511E+02  0.00000000000E+00 0.  1.
<scales pt_clust_5="13000.00000" pt_clust_6="13000.00000" pt_clust_7="13000.00000" pt_clust_8="13000.00000" pt_clust_9="25.10786"></scales>
<clustering>
<clus scale="   25.108">  1  9  2 -1</clus>
<clus scale="   90.505">  7  8 -1 -1</clus>
<clus scale="   91.599">  5  6 -1 -1</clus>
<clus scale="   95.589">  1  7  2 -1</clus>
<clus scale="   96.625">  2  5  1 -1</clus>
</clustering>
</event>
<event>
 9    1  0.1175034E-005  0.1516903E+03  0.7546771E-02  0.1198456E+00
         -1   -1    0    0    0  501 -0.00000000000E+00  0.00000000000E+00  0.35414690569E+03  0.35414690569E+03  0.00000000000E+00 0.  1.
          1   -1    0    0  502    0  0.00000000000E+00 -0.00000000000E+00 -0.87132101712E+02  0.87132101712E+02  0.00000000000E+00 0. -1.
         23    2    1    2    0    0  0.96717859940E+02 -0.36327762813E+02  0.13472351973E+03  0.19239118839E+03  0.90498021072E+02 0.  0.
         23    2    1    2    0    0 -0.12764746552E+03  0.45199353016E+02  0.66779253399E+02  0.17590034201E+03  0.90247463488E+02 0.  0.
        -11    1    4    4    0    0 -0.94503109330E+02  0.71786968756E+02  0.59619602737E+02  0.13281078114E+03  0.00000000000E+00 0.  1.
         11    1    4    4    0    0 -0.33144356194E+02 -0.26587615740E+02  0.71596506621E+01  0.43089560868E+02  0.00000000000E+00 0. -1.
        -11    1    3    3    0    0  0.42847872423E+02 -0.14121418991E+01  0.11873053178E+03  0.12623340878E+03  0.00000000000E+00 0.  1.
         11    1    3    3    0    0  0.53869987517E+02 -0.34915620914E+02  0.15992987954E+02  0.66157779608E+02  0.00000000000E+00 0. -1.
         21    1    1    2  502  501  0.30929605583E+02 -0.88715902032E+01  0.65512030850E+02  0.72987477010E+02  0.00000000000E+00 0. -1.
<scales pt_clust_5="13000.00000" pt_clust_6="13000.00000" pt_clust_7="13000.00000" pt_clust_8="13000.00000" pt_clust_9="32.17679"></scales>
<clustering>
<clus scale="   32.177">  1  9  2 -1</clus>
<clus scale="   90.247">  5  6 -1 -1</clus>
<clus scale="   90.498">  7  8 -1 -1</clus>
<clus scale="  151.541">  2  5  1 -1</clus>
<clus scale="  151.541">  2  5  1 -1</clus>
</clustering>
</event>
<event>
 9    1  0.1175034E-005  0.1514269E+03  0.7546771E-02  0.1198978E+00
          1   -1    0    0  502    0  0.00000000000E+00  0.00000000000E+00  0.62371670841E+03  0.62371670841E+03  0.00000000000E+00 0. -1.
         -1   -1    0    0    0  501 -0.00000000000E+00 -0.00000000000E+00 -0.67535855575E+02  0.67535855575E+02  0.00000000000E+00 0.  1.
         23    2    1    2    0    0 -0.97201851975E+01  0.10985357877E+03  0.76294356034E+02  0.16151251730E+03  0.90017630024E+02 0.  0.
         23    2    1    2    0    0 -0.10059181956E+02 -0.12493541345E+03  0.48093683167E+03  0.50484449878E+03  0.88643596561E+02 0.  0.
        -11    1    4    4    0    0 -0.25286563904E+02 -0.18843431504E+01  0.45383643318E+02  0.51986884346E+02  0.00000000000E+00 0.  1.
         11    1    4    4    0    0  0.15227381948E+02 -0.12305107030E+03  0.43555318835E+03  0.45285761443E+03  0.00000000000E+00 0. -1.
        -13    1    3    3    0    0 -0.11057869946E+02  0.49133203712E+02  0.86337591582E+02  0.99952628354E+02  0.00000000000E+00 0. -1.
         13    1    3    3    0    0  0.13376847486E+01  0.60720375054E+02 -0.10043235548E+02  0.61559888949E+02  0.00000000000E+00 0.  1.
         21    1    1    2  502  501  0.19779367154E+02  0.15081834681E+02 -0.10503348680E+01  0.24895547909E+02  0.00000000000E+00 0. -1.
<scales pt_clust_5="13000.00000" pt_clust_6="13000.00000" pt_clust_7="13000.00000" pt_clust_8="13000.00000" pt_clust_9="24.87338"></scales>
<clustering>
<clus scale="   24.873">  2  9  1 -1</clus>
<clus scale="   88.644">  5  6 -1 -1</clus>
<clus scale="   90.018">  7  8 -1 -1</clus>
<clus scale="  150.614">  1  5  2 -1</clus>
<clus scale="  150.614">  1  5  2 -1</clus>
</clustering>
</event>
<event>
 9    1  0.1175034E-005  0.9752274E+02  0.7546771E-02  0.1285594E+00
          2   -1    0    0  502    0  0.00000000000E+00  0.00000000000E+00  0.99547463927E+02  0.99547463927E+02  0.00000000000E+00 0. -1.
         -2   -1    0    0    0  501 -0.00000000000E+00 -0.00000000000E+00 -0.13992249515E+03  0.13992249515E+03  0.00000000000E+00 0.  1.
         23    2    1    2    0    0 -0.16815290462E+02 -0.43848688778E+02 -0.43890750904E+02  0.11203014664E+03  0.91754532532E+02 0.  0.
         23    2    1    2    0    0  0.78122654743E+00  0.26902775356E+02  0.21472164767E+02  0.98000228414E+02  0.91753045032E+02 0.  0.
        -11    1    3    3    0    0  0.99612051308E+01 -0.64590769920E+02 -0.42838957872E+02  0.78143262525E+02  0.00000000000E+00 0.  1.
         11    1    3    3    0    0 -0.26776495593E+02  0.20742081142E+02 -0.10517930320E+01  0.33886884113E+02  0.00000000000E+00 0. -1.
        -11    1    4    4    0    0 -0.25213447054E+02  0.12857685482E+02  0.49663632933E+02  0.57162176519E+02  0.00000000000E+00 0. -1.
         11    1    4    4    0    0  0.25994673602E+02  0.14045089874E+02 -0.28191468166E+02  0.40838051895E+02  0.00000000000E+00 0.  1.
         21    1    1    2  502  501  0.16034063915E+02  0.16945913422E+02 -0.17956445085E+02  0.29439584022E+02  0.00000000000E+00 0.  1.
<scales pt_clust_5="13000.00000" pt_clust_6="13000.00000" pt_clust_7="13000.00000" pt_clust_8="13000.00000" pt_clust_9="23.32928"></scales>
<clustering>
<clus scale="   23.329">  2  9  1 -1</clus>
<clus scale="   91.753">  7  8 -1 -1</clus>
<clus scale="   91.755">  5  6 -1 -1</clus>
<clus scale="   97.521">  1  7  2 -1</clus>
<clus scale="   97.521">  1  5  2 -1</clus>
</clustering>
</event>
<event>
 9    1  0.1175034E-005  0.1058429E+03  0.7546771E-02  0.1269288E+00
          1   -1    0    0  502    0  0.00000000000E+00  0.00000000000E+00  0.24252069274E+03  0.24252069274E+03  0.00000000000E+00 0. -1.
         -1   -1    0    0    0  501 -0.00000000000E+00 -0.00000000000E+00 -0.23383570212E+03  0.23383570212E+03  0.00000000000E+00 0.  1.
         23    2    1    2    0    0  0.13302952767E+02  0.78127951234E+02 -0.11584598257E+03  0.16736560334E+03  0.91159246317E+02 0.  0.
         23    2    1    2    0    0  0.50898874452E+02 -0.24538801418E+02  0.17996227928E+03  0.20865983273E+03  0.89216902188E+02 0.  0.
        -13    1    4    4    0    0  0.58594011589E+02  0.22142288028E+01  0.54183832636E+02  0.79837639760E+02  0.00000000000E+00 0.  1.
         13    1    4    4    0    0 -0.76951371372E+01 -0.26753030221E+02  0.12577844665E+03  0.12882219297E+03  0.00000000000E+00 0. -1.
        -13    1    3    3    0    0 -0.18795894175E+02  0.82074374800E+02 -0.62035375614E+02  0.10458430314E+03  0.00000000000E+00 0.  1.
         13    1    3    3    0    0  0.32098846942E+02 -0.39464235661E+01 -0.53810606952E+02  0.62781300198E+02  0.00000000000E+00 0. -1.
         21    1    1    2  502  501 -0.64201827219E+02 -0.53589149816E+02 -0.55431306092E+02  0.10033095879E+03  0.00000000000E+00 0. -1.
<scales pt_clust_5="13000.00000" pt_clust_6="13000.00000" pt_clust_7="13000.00000" pt_clust_8="13000.00000" pt_clust_9="83.62817"></scales>
<clustering>
<clus scale="   83.628">  2  9  1 -1</clus>
<clus scale="   89.217">  5  6 -1 -1</clus>
<clus scale="   91.159">  7  8 -1 -1</clus>
<clus scale="  104.175">  1  5  2 -1</clus>
<clus scale="  104.175">  1  5  2 -1</clus>
</clustering>
</event>
<event>
 9    1  0.1175034E-005  0.1167134E+03  0.7546771E-02  0.1248762E+00
         -2   -1    0    0    0  501 -0.00000000000E+00  0.00000000000E+00  0.95221398434E+02  0.95221398434E+02  0.00000000000E+00 0.  1.
          2   -1    0    0  502    0  0.00000000000E+00 -0.00000000000E+00 -0.38102758145E+03  0.38102758145E+03  0.00000000000E+00 0. -1.
         23    2    1    2    0    0  0.55456424048E+02  0.36377486745E+02 -0.81948166132E+02  0.13937506741E+03  0.91165623863E+02 0.  0.
         23    2    1    2    0    0 -0.51327226245E+02 -0.56836280166E+02 -0.25519013214E+03  0.28146093060E+03  0.90738112251E+02 0.  0.
        -13    1    3    3    0    0  0.53457765949E+02  0.64158406133E+02 -0.51520415714E+02  0.98124344855E+02  0.00000000000E+00 0.  1.
         13    1    3    3    0    0  0.19986580995E+01 -0.27780919388E+02 -0.30427750417E+02  0.41250722560E+02  0.00000000000E+00 0. -1.
        -13    1    4    4    0    0 -0.70083964507E+02 -0.16530228466E+02 -0.18328757506E+03  0.19692472091E+03  0.00000000000E+00 0.  1.
         13    1    4    4    0    0  0.18756738262E+02 -0.40306051700E+02 -0.71902557079E+02  0.84536209688E+02  0.00000000000E+00 0. -1.
         21    1    1    2  502  501 -0.41291978034E+01  0.20458793420E+02  0.51332115258E+02  0.55412981868E+02  0.00000000000E+00 0.  1.
<scales pt_clust_5="13000.00000" pt_clust_6="13000.00000" pt_clust_7="13000.00000" pt_clust_8="13000.00000" pt_clust_9="20.87133"></scales>
<clustering>
<clus scale="   20.871">  1  9  2 -1</clus>
<clus scale="   90.738">  7  8 -1 -1</clus>
<clus scale="   91.166">  5  6 -1 -1</clus>
<clus scale="  116.380">  2  7  1 -1</clus>
<clus scale="  116.380">  2  5  1 -1</clus>
</clustering>
</event>
<event>
 9    1  0.1175034E-005  0.9404814E+02  0.7546771E-02  0.1293499E+00
          1   -1    0    0  502    0  0.00000000000E+00  0.00000000000E+00  0.24451497144E+03  0.24451497144E+03  0.00000000000E+00 0. -1.
         -1   -1    0    0    0  501 -0.00000000000E+00 -0.00000000000E+00 -0.59509620195E+02  0.59509620195E+02  0.00000000000E+00 0.  1.
         23    2    1    2    0    0  0.55261821445E+01 -0.41588564615E+01  0.40254240563E+02  0.10128771468E+03  0.92687445134E+02 0.  0.
         23    2    1    2    0    0 -0.29454774296E+02 -0.28674245926E+02  0.10797720618E+03  0.14793806139E+03  0.92394787980E+02 0.  0.
        -13    1    3    3    0    0  0.25333705995E+02 -0.23845973572E+02 -0.16143558338E+02  0.38354160020E+02  0.00000000000E+00 0.  1.
         13    1    3    3    0    0 -0.19807523851E+02  0.19687117110E+02  0.56397798900E+02  0.62933554659E+02  0.00000000000E+00 0. -1.
        -13    1    4    4    0    0 -0.14184663637E+02  0.15108844004E+02 -0.86303710417E+01  0.22449168224E+02  0.00000000000E+00 0.  1.
         13    1    4    4    0    0 -0.15270110659E+02 -0.43783089930E+02  0.11660757722E+03  0.12548889316E+03  0.00000000000E+00 0. -1.
         21    1    1    2  502  501  0.23928592152E+02  0.32833102388E+02  0.36773904502E+02  0.54798815563E+02  0.00000000000E+00 0.  1.
<scales pt_clust_5="13000.00000" pt_clust_6="13000.00000" pt_clust_7="13000.00000" pt_clust_8="13000.00000" pt_clust_9="40.62746"></scales>
<clustering>
<clus scale="   40.627">  1  9  2 -1</clus>
<clus scale="   92.395">  7  8 -1 -1</clus>
<clus scale="   92.687">  5  6 -1 -1</clus>
<clus scale="   93.760">  1  7  2 -1</clus>
<clus scale="   40.627">  1  5  2 -1</clus>
</clustering>
</event>
<event>
 9    1  0.1175034E-005  0.1044331E+03  0.7546771E-02  0.1271565E+00
         -2   -1    0    0    0  501 -0.00000000000E+00  0.00000000000E+00  0.12141835062E+03  0.12141835062E+03  0.00000000000E+00 0.  1.
          2   -1    0    0  502    0  0.00000000000E+00 -0.00000000000E+00 -0.17395512385E+03  0.17395512385E+03  0.00000000000E+00 0. -1.
         23    2    1    2    0    0  0.42424939965E+02 -0.53121841249E+01  0.45784766997E+02  0.11110419980E+03  0.91759487207E+02 0.  0.
         23    2    1    2    0    0 -0.49695881301E+02 -0.17554058775E+02 -0.11438897393E+03  0.15539205046E+03  0.91016627007E+02 0.  0.
        -11    1    4    4    0    0 -0.32426461651E+02 -0.35365848326E+02 -0.11211627479E+02  0.49273920422E+02  0.00000000000E+00 0.  1.
         11    1    4    4    0    0 -0.17269419650E+02  0.17811789551E+02 -0.10317734645E+03  0.10611813004E+03  0.00000000000E+00 0. -1.
        -13    1    3    3    0    0  0.69933269831E+02 -0.11132258310E+01  0.45190037920E+02  0.83270889441E+02  0.00000000000E+00 0.  1.
         13    1    3    3    0    0 -0.27508329866E+02 -0.41989582939E+01  0.59472907627E+00  0.27833310357E+02  0.00000000000E+00 0. -1.
         21    1    1    2  502  501  0.72709413353E+01  0.22866242900E+02  0.16067433700E+02  0.28877224208E+02  0.00000000000E+00 0.  1.
<scales pt_clust_5="13000.00000" pt_clust_6="13000.00000" pt_clust_7="13000.00000" pt_clust_8="13000.00000" pt_clust_9="23.99441"></scales>
<clustering>
<clus scale="   23.994">  1  9  2 -1</clus>
<clus scale="   91.017">  5  6 -1 -1</clus>
<clus scale="   91.759">  7  8 -1 -1</clus>
<clus scale="  103.781">  2  5  1 -1</clus>
<clus scale="  103.781">  2  5  1 -1</clus>
</clustering>
</event>
<event>
 9    1  0.1175034E-005  0.1028988E+03  0.7546771E-02  0.1274554E+00
         -2   -1    0    0    0  501 -0.00000000000E+00  0.00000000000E+00  0.35901192210E+02  0.35901192210E+02  0.00000000000E+00 0.  1.
          2   -1    0    0  502    0  0.00000000000E+00 -0.00000000000E+00 -0.67825311236E+03  0.67825311236E+03  0.00000000000E+00 0. -1.
         23    2    1    2    0    0  0.23944234464E+02 -0.62709455032E+02 -0.11770552375E+03  0.16374918378E+03  0.91942388217E+02 0.  0.
         23    2    1    2    0    0  0.92328701063E+01 -0.16643661823E+01 -0.33585169035E+03  0.34819693561E+03  0.91415163128E+02 0.  0.
        -11    1    4    4    0    0  0.27256745303E+02 -0.39521397327E+02 -0.21446516868E+03  0.21977301834E+03  0.00000000000E+00 0.  1.
         11    1    4    4    0    0 -0.18023875196E+02  0.37857031145E+02 -0.12138652167E+03  0.12842391727E+03  0.00000000000E+00 0. -1.
        -13    1    3    3    0    0  0.59316117477E+02 -0.42280667410E+02 -0.79384067218E+02  0.10773990327E+03  0.00000000000E+00 0.  1.
         13    1    3    3    0    0 -0.35371883013E+02 -0.20428787622E+02 -0.38321456535E+02  0.56009280504E+02  0.00000000000E+00 0. -1.
         21    1    1    2  502  501 -0.33177104571E+02  0.64373821214E+02 -0.18879470604E+03  0.20220818518E+03  0.00000000000E+00 0. -1.
<scales pt_clust_5="13000.00000" pt_clust_6="13000.00000" pt_clust_7="13000.00000" pt_clust_8="13000.00000" pt_clust_9="72.42036"></scales>
<clustering>
<clus scale="   72.420">  2  9  1 -1</clus>
<clus scale="   91.415">  5  6 -1 -1</clus>
<clus scale="   91.942">  7  8 -1 -1</clus>
<clus scale="  102.428">  2  5  1 -1</clus>
<clus scale="   72.420">  2  5  1 -1</clus>
</clustering>
</event>
<event>
 9    1  0.1175034E-005  0.1052124E+03  0.7546771E-02  0.1270319E+00
         -1   -1    0    0    0  501 -0.00000000000E+00  0.00000000000E+00  0.26844423876E+03  0.26844423876E+03  0.00000000000E+00 0.  1.
          1   -1    0    0  502    0  0.00000000000E+00 -0.00000000000E+00 -0.12727669859E+03  0.12727669859E+03  0.00000000000E+00 0. -1.
         23    2    1    2    0    0  0.21151088688E+02 -0.12026917861E+02  0.17236959507E+03  0.19592959280E+03  0.89917254872E+02 0.  0.
         23    2    1    2    0    0 -0.20069734936E+02  0.53371413704E+02 -0.81221580107E+02  0.13488765001E+03  0.91358803567E+02 0.  0.
        -13    1    3    3    0    0 -0.22389520484E+02 -0.15998764697E+02  0.12563421950E+02  0.30250465623E+02  0.00000000000E+00 0. -1.
         13    1    3    3    0    0  0.43540609172E+02  0.39718468362E+01  0.15980617312E+03  0.16567912718E+03  0.00000000000E+00 0.  1.
        -13    1    4    4    0    0 -0.47209796496E+02  0.50324908238E+02 -0.82493119159E+02  0.10754755219E+03  0.00000000000E+00 0. -1.
         13    1    4    4    0    0  0.27140061560E+02  0.30465054656E+01  0.12715390523E+01  0.27340097816E+02  0.00000000000E+00 0.  1.
         21    1    1    2  502  501 -0.10813537524E+01 -0.41344495843E+02  0.50019525201E+02  0.64903694531E+02  0.00000000000E+00 0. -1.
<scales pt_clust_5="13000.00000" pt_clust_6="13000.00000" pt_clust_7="13000.00000" pt_clust_8="13000.00000" pt_clust_9="41.35863"></scales>
<clustering>
<clus scale="   41.359">  1  9  2 -1</clus>
<clus scale="   89.917">  5  6 -1 -1</clus>
<clus scale="   91.359">  7  8 -1 -1</clus>
<clus scale="  103.963">  1  5  2 -1</clus>
<clus scale="  105.212">  2  5  1 -1</clus>
</clustering>
</event>
<event>
 9    1  0.1175034E-005  0.1014722E+03  0.7546771E-02  0.1279439E+00
          3   -1    0    0  502    0  0.00000000000E+00  0.00000000000E+00  0.11625767086E+03  0.11625767086E+03  0.00000000000E+00 0. -1.
         -3   -1    0    0    0  501 -0.00000000000E+00 -0.00000000000E+00 -0.15768658118E+03  0.15768658118E+03  0.00000000000E+00 0.  1.
         23    2    1    2    0    0  0.34923706719E+02 -0.61207628301E+01 -0.27121168847E+02  0.10406122575E+03  0.94000275939E+02 0.  0.
         23    2    1    2    0    0 -0.27391038015E+02 -0.40927867260E+02  0.28291952834E+02  0.10596864100E+03  0.89462612288E+02 0.  0.
        -11    1    3    3    0    0  0.41814214671E+02 -0.44719347410E+02 -0.15228293974E+02  0.63088426186E+02  0.00000000000E+00 0.  1.
         11    1    3    3    0    0 -0.68905079518E+01  0.38598584580E+02 -0.11892874873E+02  0.40972799565E+02  0.00000000000E+00 0. -1.
        -13    1    4    4    0    0 -0.31048496157E+01 -0.65586912441E+02  0.88017515532E+01  0.66247671696E+02  0.00000000000E+00 0.  1.
         13    1    4    4    0    0 -0.24286188400E+02  0.24659045181E+02  0.19490201281E+02  0.39720969301E+02  0.00000000000E+00 0. -1.
         21    1    1    2  502  501 -0.75326687037E+01  0.47048630090E+02 -0.42599694311E+02  0.63914385287E+02  0.00000000000E+00 0. -1.
<scales pt_clust_5="13000.00000" pt_clust_6="13000.00000" pt_clust_7="13000.00000" pt_clust_8="13000.00000" pt_clust_9="47.64782"></scales>
<clustering>
<clus scale="   47.648">  2  9  1 -1</clus>
<clus scale="   89.463">  7  8 -1 -1</clus>
<clus scale="   94.000">  5  6 -1 -1</clus>
<clus scale="   97.284">  1  7  2 -1</clus>
<clus scale="   97.284">  1  5  2 -1</clus>
</clustering>
</event>
<event>
 9    1  0.1175034E-005  0.1596497E+03  0.7546771E-02  0.1189251E+00
          1   -1    0    0  502    0  0.00000000000E+00  0.00000000000E+00  0.39393978795E+03  0.39393978795E+03  0.00000000000E+00 0. -1.
         -1   -1    0    0    0  501 -0.00000000000E+00 -0.00000000000E+00 -0.97940091599E+02  0.97940091599E+02  0.00000000000E+00 0.  1.
         23    2    1    2    0    0 -0.17425202821E+02 -0.11322782078E+03  0.11499013657E+03  0.18669075490E+03  0.92230848213E+02 0.  0.
         23    2    1    2    0    0  0.76397244803E+01  0.14403973811E+03  0.20364933307E+03  0.26572155354E+03  0.91263802285E+02 0.  0.
        -11    1    4    4    0    0  0.91386555166E+00  0.27857336187E+02  0.11794052449E+03  0.12118924724E+03  0.00000000000E+00 0. -1.
         11    1    4    4    0    0  0.67258589286E+01  0.11618240192E+03  0.85708808585E+02  0.14453230630E+03  0.00000000000E+00 0.  1.
        -11    1    3    3    0    0  0.50483854501E+01 -0.27104869837E+02  0.90165705287E+02  0.94286873818E+02  0.00000000000E+00 0.  1.
         11    1    3    3    0    0 -0.22473588271E+02 -0.86122950948E+02  0.24824431284E+02  0.92403881078E+02  0.00000000000E+00 0. -1.
         21    1    1    2  502  501  0.97854783410E+01 -0.30811917323E+02 -0.22639773291E+02  0.39467571120E+02  0.00000000000E+00 0. -1.
<scales pt_clust_5="13000.00000" pt_clust_6="13000.00000" pt_clust_7="13000.00000" pt_clust_8="13000.00000" pt_clust_9="32.32847"></scales>
<clustering>
<clus scale="   32.328">  2  9  1 -1</clus>
<clus scale="   91.264">  5  6 -1 -1</clus>
<clus scale="   92.231">  7  8 -1 -1</clus>
<clus scale="  159.093">  1  5  2 -1</clus>
<clus scale="  159.093">  1  5  2 -1</clus>
</clustering>
</event>
<event>
 9    1  0.1175034E-005  0.1070499E+03  0.7546771E-02  0.1266741E+00
         -2   -1    0    0    0  501 -0.00000000000E+00  0.00000000000E+00  0.10563496404E+03  0.10563496404E+03  0.00000000000E+00 0.  1.
          2   -1    0    0  502    0  0.00000000000E+00 -0.00000000000E+00 -0.28252773829E+03  0.28252773829E+03  0.00000000000E+00 0. -1.
         23    2    1    2    0    0 -0.40378016505E+01 -0.59487248070E+02  0.35531678084E+02  0.11708111261E+03  0.94289184202E+02 0.  0.
         23    2    1    2    0    0  0.22248575232E+02  0.44665785042E+02 -0.22197417658E+03  0.24573390197E+03  0.92857870189E+02 0.  0.
        -11    1    3    3    0    0  0.41277432049E+02 -0.30594595419E+02 -0.21824668935E+01  0.51425857574E+02  0.00000000000E+00 0.  1.
         11    1    3    3    0    0 -0.45315233700E+02 -0.28892652651E+02  0.37714144977E+02  0.65655255036E+02  0.00000000000E+00 0. -1.
        -11    1    4    4    0    0  0.25692743844E+02 -0.21320169122E+02 -0.11721564515E+03  0.12187770167E+03  0.00000000000E+00 0. -1.
         11    1    4    4    0    0 -0.34441686119E+01  0.65985954164E+02 -0.10475853143E+03  0.12385620030E+03  0.00000000000E+00 0.  1.
         21    1    1    2  502  501 -0.18210773581E+02  0.14821463028E+02  0.95497242552E+01  0.25347687746E+02  0.00000000000E+00 0.  1.
<scales pt_clust_5="13000.00000" pt_clust_6="13000.00000" pt_clust_7="13000.00000" pt_clust_8="13000.00000" pt_clust_9="23.47995"></scales>
<clustering>
<clus scale="   23.480">  1  9  2 -1</clus>
<clus scale="   92.858">  7  8 -1 -1</clus>
<clus scale="   94.289">  5  6 -1 -1</clus>
<clus scale="  105.791">  2  7  1 -1</clus>
<clus scale="  105.791">  2  5  1 -1</clus>
</clustering>
</event>
<event>
 9    1  0.1175034E-005  0.1029361E+03  0.7546771E-02  0.1274563E+00
         -1   -1    0    0    0  501 -0.00000000000E+00  0.00000000000E+00  0.12341475632E+03  0.12341475632E+03  0.00000000000E+00 0.  1.
          1   -1    0    0  502    0  0.00000000000E+00 -0.00000000000E+00 -0.12757955554E+03  0.12757955554E+03  0.00000000000E+00 0. -1.
         23    2    1    2    0    0  0.22445992732E+01  0.31358729813E+02  0.20859819239E+02  0.99128717613E+02  0.91667673885E+02 0.  0.
         23    2    1    2    0    0 -0.53084318222E+01 -0.55302355263E+02 -0.49480234524E+02  0.11750338497E+03  0.90951756028E+02 0.  0.
        -11    1    3    3    0    0 -0.27669135069E+02 -0.22246730977E+02  0.67118772226E+01  0.36132359050E+02  0.00000000000E+00 0. -1.
         11    1    3    3    0    0  0.29913734342E+02  0.53605460791E+02  0.14147942017E+02  0.62996358563E+02  0.00000000000E+00 0.  1.
        -13    1    4    4    0    0  0.42861630377E+02 -0.26672082021E+02 -0.25394731899E+02  0.56510279827E+02  0.00000000000E+00 0. -1.
         13    1    4    4    0    0 -0.48170062199E+02 -0.28630273242E+02 -0.24085502625E+02  0.60993105142E+02  0.00000000000E+00 0.  1.
         21    1    1    2  502  501  0.30638325490E+01  0.23943625450E+02  0.24455616068E+02  0.34362209283E+02  0.00000000000E+00 0.  1.
<scales pt_clust_5="13000.00000" pt_clust_6="13000.00000" pt_clust_7="13000.00000" pt_clust_8="13000.00000" pt_clust_9="24.13885"></scales>
<clustering>
<clus scale="   24.139">  1  9  2 -1</clus>
<clus scale="   90.952">  7  8 -1 -1</clus>
<clus scale="   91.668">  5  6 -1 -1</clus>
<clus scale="  102.299">  2  7  1 -1</clus>
<clus scale="  102.299">  2  5  1 -1</clus>
</clustering>
</event>
<event>
 9    1  0.1175034E-005  0.2704262E+03  0.7546771E-02  0.1101055E+00
         -1   -1    0    0    0  501 -0.00000000000E+00  0.00000000000E+00  0.12319498361E+03  0.12319498361E+03  0.00000000000E+00 0.  1.
          1   -1    0    0  502    0  0.00000000000E+00 -0.00000000000E+00 -0.11163571149E+04  0.11163571149E+04  0.00000000000E+00 0. -1.
         23    2    1    2    0    0  0.13138220487E+03 -0.18321945085E+03 -0.96444666269E+02  0.26181688164E+03  0.91737968889E+02 0.  0.
         23    2    1    2    0    0 -0.18747904332E+03  0.18371852067E+03 -0.87400906044E+03  0.91721434451E+03  0.92138100224E+02 0.  0.
        -13    1    3    3    0    0  0.77679406783E+00 -0.23032268172E+02 -0.42283162044E+02  0.48155524902E+02  0.00000000000E+00 0. -1.
         13    1    3    3    0    0  0.13060541080E+03 -0.16018718268E+03 -0.54161504225E+02  0.21366135674E+03  0.00000000000E+00 0.  1.
        -13    1    4    4    0    0 -0.80338567648E+02  0.12378290139E+03 -0.58266050650E+03  0.60105720024E+03  0.00000000000E+00 0. -1.
         13    1    4    4    0    0 -0.10714047567E+03  0.59935619273E+02 -0.29134855394E+03  0.31615714426E+03  0.00000000000E+00 0.  1.
         21    1    1    2  502  501  0.56096838449E+02 -0.49906981711E+00 -0.22708404592E+02  0.60520872381E+02  0.00000000000E+00 0. -1.
<scales pt_clust_5="13000.00000" pt_clust_6="13000.00000" pt_clust_7="13000.00000" pt_clust_8="13000.00000" pt_clust_9="56.09906"></scales>
<clustering>
<clus scale="   56.099">  1  9  2 -1</clus>
<clus scale="   91.738">  5  6 -1 -1</clus>
<clus scale="   92.138">  7  8 -1 -1</clus>
<clus scale="  270.290">  1  5  2 -1</clus>
<clus scale="  270.426">  2  5  1 -1</clus>
</clustering>
</event>
<event>
 9    1  0.1175034E-005  0.9247418E+02  0.7546771E-02  0.1304692E+00
          1   -1    0    0  502    0  0.00000000000E+00  0.00000000000E+00  0.35034378559E+03  0.35034378559E+03  0.00000000000E+00 0. -1.
         -1   -1    0    0    0  501 -0.00000000000E+00 -0.00000000000E+00 -0.10180940063E+03  0.10180940063E+03  0.00000000000E+00 0.  1.
         23    2    1    2    0    0  0.18121982566E+02 -0.52958936238E+01 -0.41500481167E+02  0.92158045680E+02  0.80089716600E+02 0.  0.
         23    2    1    2    0    0  0.58975417477E+02 -0.75930565761E+01  0.80021017686E+02  0.13590598269E+03  0.92365136733E+02 0.  0.
        -13    1    4    4    0    0  0.76015206836E+02  0.12634276233E+02  0.77578893404E+02  0.10934542198E+03  0.00000000000E+00 0.  1.
         13    1    4    4    0    0 -0.17039789359E+02 -0.20227332810E+02  0.24421242815E+01  0.26560560706E+02  0.00000000000E+00 0. -1.
        -13    1    3    3    0    0 -0.18641803889E+01 -0.33835939393E+02 -0.45884053801E+02  0.57041146169E+02  0.00000000000E+00 0.  1.
         13    1    3    3    0    0  0.19986162955E+02  0.28540045770E+02  0.43835726338E+01  0.35116899511E+02  0.00000000000E+00 0. -1.
         21    1    1    2  502  501 -0.77097400043E+02  0.12888950200E+02  0.21001384844E+03  0.22408915785E+03  0.00000000000E+00 0. -1.
<scales pt_clust_5="13000.00000" pt_clust_6="13000.00000" pt_clust_7="13000.00000" pt_clust_8="13000.00000" pt_clust_9="78.16735"></scales>
<clustering>
<clus scale="   78.167">  1  9  2 -1</clus>
<clus scale="   80.090">  7  8 -1 -1</clus>
<clus scale="   80.215">  2  7  1 -1</clus>
<clus scale="   92.365">  5  6 -1 -1</clus>
<clus scale="   78.167">  1  5  2 -1</clus>
</clustering>
</event>
<event>
 9    1  0.1175034E-005  0.4079673E+03  0.7546771E-02  0.1041098E+00
          1   -1    0    0  502    0  0.00000000000E+00  0.00000000000E+00  0.18338232543E+03  0.18338232543E+03  0.00000000000E+00 0. -1.
         -1   -1    0    0    0  501 -0.00000000000E+00 -0.00000000000E+00 -0.12793706172E+04  0.12793706172E+04  0.00000000000E+00 0.  1.
         23    2    1    2    0    0 -0.36755941407E+03 -0.15645179159E+03 -0.82175056992E+03  0.91785922281E+03  0.87260917835E+02 0.  0.
         23    2    1    2    0    0  0.38454510722E+03  0.10008080245E+03 -0.21192421940E+03  0.45916639178E+03  0.89614697808E+02 0.  0.
        -11    1    3    3    0    0 -0.29949735968E+03 -0.12128668343E+03 -0.57598413831E+03  0.66042929646E+03  0.00000000000E+00 0.  1.
         11    1    3    3    0    0 -0.68062054393E+02 -0.35165108157E+02 -0.24576643161E+03  0.25742992636E+03  0.00000000000E+00 0. -1.
        -11    1    4    4    0    0  0.32214400521E+03  0.74763133399E+02 -0.13572276898E+03  0.35747301468E+03  0.00000000000E+00 0. -1.
         11    1    4    4    0    0  0.62401102010E+02  0.25317669053E+02 -0.76201450420E+02  0.10169337709E+03  0.00000000000E+00 0.  1.
         21    1    1    2  502  501 -0.16985693146E+02  0.56370989134E+02 -0.62313502498E+02  0.85727328088E+02  0.00000000000E+00 0.  1.
<scales pt_clust_5="13000.00000" pt_clust_6="13000.00000" pt_clust_7="13000.00000" pt_clust_8="13000.00000" pt_clust_9="58.87446"></scales>
<clustering>
<clus scale="   58.874">  1  9  2 -1</clus>
<clus scale="   87.261">  5  6 -1 -1</clus>
<clus scale="   89.615">  7  8 -1 -1</clus>
<clus scale="  407.457">  2  5  1 -1</clus>
<clus scale="   58.874">  1  5  2 -1</clus>
</clustering>
</event>
<event>
 9    1  0.1175034E-005  0.1066320E+03  0.7546771E-02  0.1267279E+00
         -2   -1    0    0    0  501 -0.00000000000E+00  0.00000000000E+00  0.52510713436E+02  0.52510713436E+02  0.00000000000E+00 0.  1.
          2   -1    0    0  502    0  0.00000000000E+00 -0.00000000000E+00 -0.35467307919E+03  0.35467307919E+03  0.00000000000E+00 0. -1.
         23    2    1    2    0    0 -0.27034659175E+02 -0.60002957246E+02 -0.63851236520E+02  0.12840198138E+03  0.89882482948E+02 0.  0.
         23    2    1    2    0    0  0.78370763396E+01  0.52683498503E+02 -0.23565096696E+03  0.25806471381E+03  0.90714097603E+02 0.  0.
        -11    1    4    4    0    0  0.46769893359E+02  0.24880240561E+02 -0.16013050638E+03  0.16866602613E+03  0.00000000000E+00 0. -1.
         11    1    4    4    0    0 -0.38932817020E+02  0.27803257942E+02 -0.75520460574E+02  0.89398687678E+02  0.00000000000E+00 0.  1.
        -11    1    3    3    0    0  0.21960610821E+02 -0.41155720346E+02 -0.11982419974E+01  0.46663663902E+02  0.00000000000E+00 0.  1.
         11    1    3    3    0    0 -0.48995269995E+02 -0.18847236900E+02 -0.62652994523E+02  0.81738317473E+02  0.00000000000E+00 0. -1.
         21    1    1    2  502  501  0.19197582835E+02  0.73194587434E+01 -0.26601622713E+01  0.20717097440E+02  0.00000000000E+00 0.  1.
<scales pt_clust_5="13000.00000" pt_clust_6="13000.00000" pt_clust_7="13000.00000" pt_clust_8="13000.00000" pt_clust_9="20.54560"></scales>
<clustering>
<clus scale="   20.546">  1  9  2 -1</clus>
<clus scale="   89.882">  7  8 -1 -1</clus>
<clus scale="   90.714">  5  6 -1 -1</clus>
<clus scale="  105.925">  1  7  2 -1</clus>
<clus scale="  106.632">  2  5  1 -1</clus>
</clustering>
</event>
<event>
 9    1  0.1175034E-005  0.9981857E+02  0.7546771E-02  0.1280916E+00
         -1   -1    0    0    0  501 -0.00000000000E+00  0.00000000000E+00  0.34407414696E+03  0.34407414696E+03  0.00000000000E+00 0.  1.
          1   -1    0    0  502    0  0.00000000000E+00 -0.00000000000E+00 -0.86695167580E+02  0.86695167580E+02  0.00000000000E+00 0. -1.
         23    2    1    2    0    0 -0.13884639807E+01 -0.82007017780E+02  0.56202767626E+02  0.13570193095E+03  0.92353582368E+02 0.  0.
         23    2    1    2    0    0 -0.24198074861E+02  0.31267989697E+01  0.23252585207E+02  0.98767671998E+02  0.92838820621E+02 0.  0.
        -11    1    3    3    0    0 -0.37578687418E+02 -0.78643852799E+02  0.40417929301E+02  0.96076127837E+02  0.00000000000E+00 0. -1.
         11    1    3    3    0    0  0.36190223437E+02 -0.33631649812E+01  0.15784838325E+02  0.39625803109E+02  0.00000000000E+00 0.  1.
        -11    1    4    4    0    0 -0.33656334218E+02 -0.34385939142E+02 -0.83235390421E+01  0.48830553405E+02  0.00000000000E+00 0. -1.
         11    1    4    4    0    0  0.94582593575E+01  0.37512738112E+02  0.31576124249E+02  0.49937118592E+02  0.00000000000E+00 0.  1.
         21    1    1    2  502  501  0.25586538842E+02  0.78880218810E+02  0.17792362655E+03  0.19629971160E+03  0.00000000000E+00 0.  1.
<scales pt_clust_5="13000.00000" pt_clust_6="13000.00000" pt_clust_7="13000.00000" pt_clust_8="13000.00000" pt_clust_9="82.92623"></scales>
<clustering>
<clus scale="   82.926">  1  9  2 -1</clus>
<clus scale="   92.354">  5  6 -1 -1</clus>
<clus scale="   92.839">  7  8 -1 -1</clus>
<clus scale="   99.367">  1  5  2 -1</clus>
<clus scale="   99.819">  2  5  1 -1</clus>
</clustering>
</event>
<event>
 9    1  0.1175034E-005  0.1039258E+03  0.7546771E-02  0.1273586E+00
          1   -1    0    0  502    0  0.00000000000E+00  0.00000000000E+00  0.49666143212E+03  0.49666143212E+03  0.00000000000E+00 0. -1.
         -1   -1    0    0    0  501 -0.00000000000E+00 -0.00000000000E+00 -0.83089698172E+02  0.83089698172E+02  0.00000000000E+00 0.  1.
         23    2    1    2    0    0  0.47725013557E+02 -0.68771391782E+02  0.65989819785E+02  0.13808643925E+03  0.87783979995E+02 0.  0.
         23    2    1    2    0    0 -0.49448091024E+02  0.96965924213E-01  0.35759254379E+03  0.37224309160E+03  0.90815024974E+02 0.  0.
        -11    1    4    4    0    0 -0.63354769041E+02  0.25260854269E+02  0.30256543141E+03  0.31015766604E+03  0.00000000000E+00 0. -1.
         11    1    4    4    0    0  0.13906678017E+02 -0.25163888345E+02  0.55027112380E+02  0.62085425560E+02  0.00000000000E+00 0.  1.
        -13    1    3    3    0    0  0.34242004058E+02 -0.12305793391E+02  0.71037880725E+02  0.79814333868E+02  0.00000000000E+00 0. -1.
         13    1    3    3    0    0  0.13483009499E+02 -0.56465598391E+02 -0.50480609401E+01  0.58272105385E+02  0.00000000000E+00 0.  1.
         21    1    1    2  502  501  0.17230774678E+01  0.68674425858E+02 -0.10010629628E+02  0.69421599437E+02  0.00000000000E+00 0.  1.
<scales pt_clust_5="13000.00000" pt_clust_6="13000.00000" pt_clust_7="13000.00000" pt_clust_8="13000.00000" pt_clust_9="68.69604"></scales>
<clustering>
<clus scale="   68.696">  2  9  1 -1</clus>
<clus scale="   87.784">  7  8 -1 -1</clus>
<clus scale="   90.815">  5  6 -1 -1</clus>
<clus scale="  101.288">  2  7  1 -1</clus>
<clus scale="  103.926">  1  5  2 -1</clus>
</clustering>
</event>
<event>
 9    1  0.1175034E-005  0.4185155E+03  0.7546771E-02  0.1037566E+00
         -2   -1    0    0    0  501 -0.00000000000E+00  0.00000000000E+00  0.87905431848E+02  0.87905431848E+02  0.00000000000E+00 0.  1.
          2   -1    0    0  502    0  0.00000000000E+00 -0.00000000000E+00 -0.23887547676E+04  0.23887547676E+04  0.00000000000E+00 0. -1.
         23    2    1    2    0    0  0.10266297871E+03 -0.42917292106E+03 -0.11568276597E+04  0.12416797161E+04  0.93750731398E+02 0.  0.
         23    2    1    2    0    0 -0.11396395091E+03  0.36234033823E+03 -0.10356670936E+04  0.11071719484E+04  0.94578494061E+02 0.  0.
        -11    1    4    4    0    0 -0.70311445663E+02  0.16465786500E+03 -0.36385222281E+03  0.40551738797E+03  0.00000000000E+00 0.  1.
         11    1    4    4    0    0 -0.43652505250E+02  0.19768247324E+03 -0.67181487083E+03  0.70165456039E+03  0.00000000000E+00 0. -1.
        -13    1    3    3    0    0 -0.90469214818E+01 -0.67013659450E+02 -0.11980141440E+03  0.13756836930E+03  0.00000000000E+00 0. -1.
         13    1    3    3    0    0  0.11170990019E+03 -0.36215926161E+03 -0.10370262453E+04  0.11041113468E+04  0.00000000000E+00 0.  1.
         21    1    1    2  502  501  0.11300972201E+02  0.66832582830E+02 -0.10835458235E+03  0.12780853499E+03  0.00000000000E+00 0. -1.
<scales pt_clust_5="13000.00000" pt_clust_6="13000.00000" pt_clust_7="13000.00000" pt_clust_8="13000.00000" pt_clust_9="67.78131"></scales>
<clustering>
<clus scale="   67.781">  1  9  2 -1</clus>
<clus scale="   93.751">  7  8 -1 -1</clus>
<clus scale="   94.578">  5  6 -1 -1</clus>
<clus scale="  418.329">  1  7  2 -1</clus>
<clus scale="  418.516">  2  5  1 -1</clus>
</clustering>
</event>
<event>
 9    1  0.1175034E-005  0.1863859E+03  0.7546771E-02  0.1163184E+00
         -3   -1    0    0    0  501 -0.00000000000E+00  0.00000000000E+00  0.23287110398E+03  0.23287110398E+03  0.00000000000E+00 0.  1.
          3   -1    0    0  502    0  0.00000000000E+00 -0.00000000000E+00 -0.57909780627E+03  0.57909780627E+03  0.00000000000E+00 0. -1.
         23    2    1    2    0    0 -0.15844921775E+02  0.91621443327E+02  0.31235504301E+02  0.13333339598E+03  0.90313826917E+02 0.  0.
         23    2    1    2    0    0  0.41276667950E+02 -0.16577864382E+03 -0.49720530264E+03  0.53551153601E+03  0.10184876124E+03 0.  0.
        -11    1    3    3    0    0  0.22436299795E+02  0.45216111754E+02  0.49264209056E+02  0.70532592498E+02  0.00000000000E+00 0.  1.
         11    1    3    3    0    0 -0.38281221570E+02  0.46405331573E+02 -0.18028704755E+02  0.62800803485E+02  0.00000000000E+00 0. -1.
        -13    1    4    4    0    0  0.13325531897E+02 -0.11689276669E+03 -0.43913211941E+03  0.45461907901E+03  0.00000000000E+00 0. -1.
         13    1    4    4    0    0  0.27951136052E+02 -0.48885877127E+02 -0.58073183230E+02  0.80892457000E+02  0.00000000000E+00 0.  1.
         21    1    1    2  502  501 -0.25431746174E+02  0.74157200490E+02  0.11974309605E+03  0.14312397825E+03  0.00000000000E+00 0.  1.
<scales pt_clust_5="13000.00000" pt_clust_6="13000.00000" pt_clust_7="13000.00000" pt_clust_8="13000.00000" pt_clust_9="78.39684"></scales>
<clustering>
<clus scale="   78.397">  1  9  2 -1</clus>
<clus scale="   90.314">  5  6 -1 -1</clus>
<clus scale="  101.849">  7  8 -1 -1</clus>
<clus scale="  180.342">  1  5  2 -1</clus>
<clus scale="  186.386">  2  5  1 -1</clus>
</clustering>
</event>
<event>
 9    1  0.1175034E-005  0.1141615E+03  0.7546771E-02  0.1253231E+00
         -2   -1    0    0    0  501 -0.00000000000E+00  0.00000000000E+00  0.55604488209E+03  0.55604488209E+03  0.00000000000E+00 0.  1.
          2   -1    0    0  502    0  0.00000000000E+00 -0.00000000000E+00 -0.27216932041E+03  0.27216932041E+03  0.00000000000E+00 0. -1.
         23    2    1    2    0    0  0.90654592647E+01 -0.26508212805E+02  0.37740456075E+03  0.38894912503E+03  0.89790598019E+02 0.  0.
         23    2    1    2    0    0 -0.55210747905E+02  0.46248620737E+02 -0.24993728049E+03  0.27500119871E+03  0.89274036043E+02 0.  0.
        -11    1    3    3    0    0 -0.34996330013E+02 -0.34540472751E+02  0.18849811010E+03  0.19480586461E+03  0.00000000000E+00 0.  1.
         11    1    3    3    0    0  0.44061789277E+02  0.80322599465E+01  0.18890645065E+03  0.19414326043E+03  0.00000000000E+00 0. -1.
        -11    1    4    4    0    0 -0.72061506155E+02  0.58890445135E+02 -0.19232127386E+03  0.21365490300E+03  0.00000000000E+00 0.  1.
         11    1    4    4    0    0  0.16850758250E+02 -0.12641824398E+02 -0.57616006627E+02  0.61346295710E+02  0.00000000000E+00 0. -1.
         21    1    1    2  502  501  0.46145288641E+02 -0.19740407933E+02  0.15640828142E+03  0.16426387876E+03  0.00000000000E+00 0.  1.
<scales pt_clust_5="13000.00000" pt_clust_6="13000.00000" pt_clust_7="13000.00000" pt_clust_8="13000.00000" pt_clust_9="50.19035"></scales>
<clustering>
<clus scale="   50.190">  1  9  2 -1</clus>
<clus scale="   89.274">  7  8 -1 -1</clus>
<clus scale="   89.791">  5  6 -1 -1</clus>
<clus scale="  113.756">  2  7  1 -1</clus>
<clus scale="  113.756">  2  5  1 -1</clus>
</clustering>
</event>
<event>
 9    1  0.1175034E-005  0.9322495E+02  0.7546771E-02  0.1295780E+00
         -1   -1    0    0    0  501 -0.00000000000E+00  0.00000000000E+00  0.35074032033E+03  0.35074032033E+03  0.00000000000E+00 0.  1.
          1   -1    0    0  502    0  0.00000000000E+00 -0.00000000000E+00 -0.62709832253E+02  0.62709832253E+02  0.00000000000E+00 0. -1.
         23    2    1    2    0    0 -0.14078333530E+02 -0.20397850689E+02  0.19590704658E+03  0.21820262016E+03  0.92836096200E+02 0.  0.
         23    2    1    2    0    0  0.43351524370E+01 -0.11599102308E+02 -0.46846936450E+01  0.92824148331E+02  0.91875151363E+02 0.  0.
        -13    1    3    3    0    0 -0.68420106936E+01  0.34642054904E+02  0.11330205996E+03  0.11867704862E+03  0.00000000000E+00 0.  1.
         13    1    3    3    0    0 -0.72363228361E+01 -0.55039905592E+02  0.82604986622E+02  0.99525571541E+02  0.00000000000E+00 0. -1.
        -13    1    4    4    0    0 -0.42146545717E+02 -0.90314728902E+01 -0.14056814564E+02  0.45337543539E+02  0.00000000000E+00 0.  1.
         13    1    4    4    0    0  0.46481698154E+02 -0.25676294174E+01  0.93721209192E+01  0.47486604792E+02  0.00000000000E+00 0. -1.
         21    1    1    2  502  501  0.97431810927E+01  0.31996952997E+02  0.96808135138E+02  0.10242338409E+03  0.00000000000E+00 0.  1.
<scales pt_clust_5="13000.00000" pt_clust_6="13000.00000" pt_clust_7="13000.00000" pt_clust_8="13000.00000" pt_clust_9="33.44749"></scales>
<clustering>
<clus scale="   33.447">  1  9  2 -1</clus>
<clus scale="   91.875">  7  8 -1 -1</clus>
<clus scale="   92.268">  2  7  1 -1</clus>
<clus scale="   92.836">  5  6 -1 -1</clus>
<clus scale="   92.268">  2  5  1 -1</clus>
</clustering>
</event>
<event>
 9    1  0.1175034E-005  0.1290964E+03  0.7546771E-02  0.1229081E+00
         -1   -1    0    0    0  501 -0.00000000000E+00  0.00000000000E+00  0.69927191493E+02  0.69927191493E+02  0.00000000000E+00 0.  1.
          1   -1    0    0  502    0  0.00000000000E+00 -0.00000000000E+00 -0.38140587524E+03  0.38140587524E+03  0.00000000000E+00 0. -1.
         23    2    1    2    0    0 -0.61864973989E+02  0.45013305522E+02 -0.26635870863E+02  0.12063547952E+03  0.89386669146E+02 0.  0.
         23    2    1    2    0    0  0.78606527238E+02 -0.56965223006E+02 -0.27957719833E+03  0.30946424943E+03  0.90447161898E+02 0.  0.
        -11    1    3    3    0    0 -0.67280840916E+02  0.24544613241E+02  0.15683296444E+02  0.73315178380E+02  0.00000000000E+00 0.  1.
         11    1    3    3    0    0  0.54158669268E+01  0.20468692280E+02 -0.42319167306E+02  0.47320301138E+02  0.00000000000E+00 0. -1.
        -11    1    4    4    0    0  0.95114130063E+02 -0.31901480725E+02 -0.23713823071E+03  0.25748581063E+03  0.00000000000E+00 0. -1.
         11    1    4    4    0    0 -0.16507602825E+02 -0.25063742280E+02 -0.42438967617E+02  0.51978438804E+02  0.00000000000E+00 0.  1.
         21    1    1    2  502  501 -0.16741553249E+02  0.11951917484E+02 -0.52656145556E+01  0.21233337783E+02  0.00000000000E+00 0.  1.
<scales pt_clust_5="13000.00000" pt_clust_6="13000.00000" pt_clust_7="13000.00000" pt_clust_8="13000.00000" pt_clust_9="20.57007"></scales>
<clustering>
<clus scale="   20.570">  1  9  2 -1</clus>
<clus scale="   89.387">  5  6 -1 -1</clus>
<clus scale="   90.447">  7  8 -1 -1</clus>
<clus scale="  128.356">  1  5  2 -1</clus>
<clus scale="  129.096">  2  5  1 -1</clus>
</clustering>
</event>
<event>
 9    1  0.1175034E-005  0.1111894E+03  0.7546771E-02  0.1261454E+00
          4   -1    0    0  502    0  0.00000000000E+00  0.00000000000E+00  0.80126751551E+02  0.80126751551E+02  0.00000000000E+00 0. -1.
         -4   -1    0    0    0  501 -0.00000000000E+00 -0.00000000000E+00 -0.23586530032E+03  0.23586530032E+03  0.00000000000E+00 0.  1.
         23    2    1    2    0    0 -0.18981701026E+02 -0.62251897618E+02 -0.10840493887E+03  0.15722869704E+03  0.93453885272E+02 0.  0.
         23    2    1    2    0    0  0.53333455110E+02  0.32645259014E+02 -0.29539560987E+02  0.11004760547E+03  0.85602099490E+02 0.  0.
        -13    1    3    3    0    0 -0.47735624796E+01  0.24248213218E+02 -0.14008405527E+02  0.28407713186E+02  0.00000000000E+00 0.  1.
         13    1    3    3    0    0 -0.14208138546E+02 -0.86500110836E+02 -0.94396533342E+02  0.12882098386E+03  0.00000000000E+00 0. -1.
        -13    1    4    4    0    0 -0.34872501055E+01  0.39692883007E+02  0.92293992093E+01  0.40900705183E+02  0.00000000000E+00 0.  1.
         13    1    4    4    0    0  0.56820705215E+02 -0.70476239924E+01 -0.38768960196E+02  0.69146900291E+02  0.00000000000E+00 0. -1.
         21    1    1    2  502  501 -0.34351754084E+02  0.29606638603E+02 -0.17794048908E+02  0.48715749348E+02  0.00000000000E+00 0.  1.
<scales pt_clust_5="13000.00000" pt_clust_6="13000.00000" pt_clust_7="13000.00000" pt_clust_8="13000.00000" pt_clust_9="45.34971"></scales>
<clustering>
<clus scale="   45.350">  1  9  2 -1</clus>
<clus scale="   85.602">  7  8 -1 -1</clus>
<clus scale="   93.454">  5  6 -1 -1</clus>
<clus scale="  104.677">  1  7  2 -1</clus>
<clus scale="   45.350">  1  5  2 -1</clus>
</clustering>
</event>
<event>
 9    1  0.1175034E-005  0.2604271E+03  0.7546771E-02  0.1122452E+00
         -2   -1    0    0    0  501 -0.00000000000E+00  0.00000000000E+00  0.11819887459E+03  0.11819887459E+03  0.00000000000E+00 0.  1.
          2   -1    0    0  502    0  0.00000000000E+00 -0.00000000000E+00 -0.15973107078E+04  0.15973107078E+04  0.00000000000E+00 0. -1.
         23    2    1    2    0    0 -0.10661565116E+03 -0.10990497997E+03 -0.15085650873E+03  0.23163645173E+03  0.86323564867E+02 0.  0.
         23    2    1    2    0    0 -0.94045540050E+02  0.25325607619E+03 -0.25442294240E+03  0.38208801764E+03  0.90978106560E+02 0.  0.
        -11    1    3    3    0    0 -0.11168818344E+03 -0.72309237935E+02 -0.13771161953E+03  0.19148724857E+03  0.00000000000E+00 0.  1.
         11    1    3    3    0    0  0.50725322725E+01 -0.37595742034E+02 -0.13144889191E+02  0.40149203163E+02  0.00000000000E+00 0. -1.
        -13    1    4    4    0    0 -0.38151885745E+02  0.18636612413E+03 -0.13094812282E+03  0.23094438612E+03  0.00000000000E+00 0.  1.
         13    1    4    4    0    0 -0.55893654305E+02  0.66889952050E+02 -0.12347481958E+03  0.15114363152E+03  0.00000000000E+00 0. -1.
         21    1    1    2  502  501  0.20066119121E+03 -0.14335109622E+03 -0.10738323820E+04  0.11017851130E+04  0.00000000000E+00 0. -1.
<scales pt_clust_5="13000.00000" pt_clust_6="13000.00000" pt_clust_7="13000.00000" pt_clust_8="13000.00000" pt_clust_9="244.01899"></scales>
<clustering>
<clus scale="   86.324">  5  6 -1 -1</clus>
<clus scale="   90.978">  7  8 -1 -1</clus>
<clus scale="  175.778">  1  5  2 -1</clus>
<clus scale="  244.019">  2  9  1 -1</clus>
<clus scale="  244.019">  2  5  1 -1</clus>
</clustering>
</event>
<event>
 9    1  0.1175034E-005  0.1554271E+03  0.7546771E-02  0.1196160E+00
          2   -1    0    0  502    0  0.00000000000E+00  0.00000000000E+00  0.55401125678E+02  0.55401125678E+02  0.00000000000E+00 0. -1.
         -2   -1    0    0    0  501 -0.00000000000E+00 -0.00000000000E+00 -0.48821809664E+03  0.48821809664E+03  0.00000000000E+00 0.  1.
         23    2    1    2    0    0 -0.29049113084E+02 -0.11808261144E+03 -0.19115700391E+03  0.24047514715E+03  0.80622218750E+02 0.  0.
         23    2    1    2    0    0  0.10178416577E+02  0.12732134574E+03 -0.18925072199E+03  0.24668004798E+03  0.93385679068E+02 0.  0.
        -11    1    4    4    0    0 -0.23906132960E+02  0.83021263119E+02 -0.16396088400E+03  0.18532998896E+03  0.00000000000E+00 0. -1.
         11    1    4    4    0    0  0.34084549537E+02  0.44300082623E+02 -0.25289837985E+02  0.61350059029E+02  0.00000000000E+00 0.  1.
        -13    1    3    3    0    0 -0.16498823081E+02 -0.65397987336E+02 -0.16899527706E+03  0.18195744442E+03  0.00000000000E+00 0.  1.
         13    1    3    3    0    0 -0.12550290003E+02 -0.52684624099E+02 -0.22161726853E+02  0.58517702729E+02  0.00000000000E+00 0. -1.
         21    1    1    2  502  501  0.18870696506E+02 -0.92387343069E+01 -0.52409245063E+02  0.56464027188E+02  0.00000000000E+00 0.  1.
<scales pt_clust_5="13000.00000" pt_clust_6="13000.00000" pt_clust_7="13000.00000" pt_clust_8="13000.00000" pt_clust_9="21.01089"></scales>
<clustering>
<clus scale="   21.011">  2  9  1 -1</clus>
<clus scale="   80.622">  7  8 -1 -1</clus>
<clus scale="   93.386">  5  6 -1 -1</clus>
<clus scale="  148.110">  2  7  1 -1</clus>
<clus scale="  155.427">  1  5  2 -1</clus>
</clustering>
</event>
<event>
 9    1  0.1175034E-005  0.3937768E+03  0.7546771E-02  0.1045969E+00
          2   -1    0    0  502    0  0.00000000000E+00  0.00000000000E+00  0.31747863583E+03  0.31747863583E+03  0.00000000000E+00 0. -1.
         -2   -1    0    0    0  501 -0.00000000000E+00 -0.00000000000E+00 -0.67461879997E+03  0.67461879997E+03  0.00000000000E+00 0.  1.
         23    2    1    2    0    0  0.22897181045E+03 -0.32345219024E+03 -0.17128860199E+03  0.44087153499E+03  0.89322538267E+02 0.  0.
         23    2    1    2    0    0 -0.21889470585E+03  0.30416084269E+03 -0.22088160661E+02  0.38602252373E+03  0.89982173294E+02 0.  0.
        -13    1    4    4    0    0 -0.10083223508E+03  0.20032997965E+03 -0.39884778095E+02  0.22779384518E+03  0.00000000000E+00 0. -1.
         13    1    4    4    0    0 -0.11806247077E+03  0.10383086304E+03  0.17796617434E+02  0.15822867855E+03  0.00000000000E+00 0.  1.
        -13    1    3    3    0    0  0.13364624579E+03 -0.17816291871E+03 -0.48064463953E+02  0.22784542417E+03  0.00000000000E+00 0.  1.
         13    1    3    3    0    0  0.95325564658E+02 -0.14528927153E+03 -0.12322413804E+03  0.21302611083E+03  0.00000000000E+00 0. -1.
         21    1    1    2  502  501 -0.10077104601E+02  0.19291347554E+02 -0.16376340149E+03  0.16520337707E+03  0.00000000000E+00 0.  1.
<scales pt_clust_5="13000.00000" pt_clust_6="13000.00000" pt_clust_7="13000.00000" pt_clust_8="13000.00000" pt_clust_9="21.76475"></scales>
<clustering>
<clus scale="   21.765">  2  9  1 -1</clus>
<clus scale="   89.323">  7  8 -1 -1</clus>
<clus scale="   89.982">  5  6 -1 -1</clus>
<clus scale="  393.627">  2  7  1 -1</clus>
<clus scale="  393.777">  1  5  2 -1</clus>
</clustering>
</event>
<event>
 9    1  0.1175034E-005  0.1034541E+03  0.7546771E-02  0.1273473E+00
          2   -1    0    0  502    0  0.00000000000E+00  0.00000000000E+00  0.40705094747E+03  0.40705094747E+03  0.00000000000E+00 0. -1.
         -2   -1    0    0    0  501 -0.00000000000E+00 -0.00000000000E+00 -0.35834842517E+02  0.35834842517E+02  0.00000000000E+00 0.  1.
         23    2    1    2    0    0  0.41986648090E+02 -0.46692282750E+02  0.14622425444E+03  0.18348264809E+03  0.91330726905E+02 0.  0.
         23    2    1    2    0    0 -0.18310512808E+02  0.36026473461E+02  0.20032629279E+03  0.22358822032E+03  0.90707700965E+02 0.  0.
        -11    1    4    4    0    0 -0.48788114656E+02 -0.20650902229E+01  0.12073227113E+03  0.13023373611E+03  0.00000000000E+00 0. -1.
         11    1    4    4    0    0  0.30477601848E+02  0.38091563684E+02  0.79594021668E+02  0.93354484218E+02  0.00000000000E+00 0.  1.
        -13    1    3    3    0    0  0.56438351813E+02 -0.91373771071E+01  0.39682474861E+02  0.69595100595E+02  0.00000000000E+00 0.  1.
         13    1    3    3    0    0 -0.14451703723E+02 -0.37554905643E+02  0.10654177958E+03  0.11388754749E+03  0.00000000000E+00 0. -1.
         21    1    1    2  502  501 -0.23676135282E+02  0.10665809289E+02  0.24665557718E+02  0.35814921572E+02  0.00000000000E+00 0. -1.
<scales pt_clust_5="13000.00000" pt_clust_6="13000.00000" pt_clust_7="13000.00000" pt_clust_8="13000.00000" pt_clust_9="25.96765"></scales>
<clustering>
<clus scale="   25.968">  2  9  1 -1</clus>
<clus scale="   90.708">  5  6 -1 -1</clus>
<clus scale="   91.331">  7  8 -1 -1</clus>
<clus scale="  102.905">  1  5  2 -1</clus>
<clus scale="  102.905">  1  5  2 -1</clus>
</clustering>
</event>
<event>
 9    1  0.1175034E-005  0.1115798E+03  0.7546771E-02  0.1257727E+00
         -1   -1    0    0    0  501 -0.00000000000E+00  0.00000000000E+00  0.16437971109E+03  0.16437971109E+03  0.00000000000E+00 0.  1.
          1   -1    0    0  502    0  0.00000000000E+00 -0.00000000000E+00 -0.38978587002E+03  0.38978587002E+03  0.00000000000E+00 0. -1.
         23    2    1    2    0    0  0.53182696197E+02  0.28898614122E+02  0.91918409130E+02  0.14272659365E+03  0.90875505642E+02 0.  0.
         23    2    1    2    0    0 -0.22846593462E+02  0.67891536981E+02 -0.28059297684E+03  0.30356024871E+03  0.91022954919E+02 0.  0.
        -11    1    4    4    0    0  0.11081748736E+02  0.75072164071E+02 -0.23021414226E+03  0.24239881656E+03  0.00000000000E+00 0. -1.
         11    1    4    4    0    0 -0.33928342198E+02 -0.71806270901E+01 -0.50378834578E+02  0.61161432154E+02  0.00000000000E+00 0.  1.
        -13    1    3    3    0    0  0.60296358867E+02  0.49614477449E+02  0.92198731633E+02  0.12082157663E+03  0.00000000000E+00 0.  1.
         13    1    3    3    0    0 -0.71136626693E+01 -0.20715863327E+02 -0.28032250350E+00  0.21905017020E+02  0.00000000000E+00 0. -1.
         21    1    1    2  502  501 -0.30336102736E+02 -0.96790151103E+02 -0.36731591218E+02  0.10787873874E+03  0.00000000000E+00 0.  1.
<scales pt_clust_5="13000.00000" pt_clust_6="13000.00000" pt_clust_7="13000.00000" pt_clust_8="13000.00000" pt_clust_9="101.43280"></scales>
<clustering>
<clus scale="   90.876">  7  8 -1 -1</clus>
<clus scale="   91.023">  5  6 -1 -1</clus>
<clus scale="  101.433">  1  9  2 -1</clus>
<clus scale="  111.460">  1  7  2 -1</clus>
<clus scale="  111.580">  2  5  1 -1</clus>
</clustering>
</event>
<event>
 9    1  0.1175034E-005  0.1772238E+03  0.7546771E-02  0.1203102E+00
          1   -1    0    0  502    0  0.00000000000E+00  0.00000000000E+00  0.11728698894E+04  0.11728698894E+04  0.00000000000E+00 0. -1.
         -1   -1    0    0    0  501 -0.00000000000E+00 -0.00000000000E+00 -0.10024891947E+03  0.10024891947E+03  0.00000000000E+00 0.  1.
         23    2    1    2    0    0 -0.81986694003E+01 -0.24434170094E+02 -0.36693733694E+02  0.93423840956E+02  0.81959362604E+02 0.  0.
         23    2    1    2    0    0 -0.56055806238E+02  0.14393871357E+03  0.96399553808E+03  0.98087939149E+03  0.94743741383E+02 0.  0.
        -11    1    4    4    0    0  0.27009950538E+02  0.35499784277E+02  0.23410230926E+03  0.23831421131E+03  0.00000000000E+00 0.  1.
         11    1    4    4    0    0 -0.83065756776E+02  0.10843892929E+03  0.72989322882E+03  0.74256518018E+03  0.00000000000E+00 0. -1.
        -11    1    3    3    0    0  0.15072734258E+02  0.26171813286E+02 -0.12097410288E+02  0.32534573370E+02  0.00000000000E+00 0. -1.
         11    1    3    3    0    0 -0.23271403658E+02 -0.50605983380E+02 -0.24596323406E+02  0.60889267586E+02  0.00000000000E+00 0.  1.
         21    1    1    2  502  501  0.64254475638E+02 -0.11950454347E+03  0.14531916552E+03  0.19881557640E+03  0.00000000000E+00 0.  1.
<scales pt_clust_5="13000.00000" pt_clust_6="13000.00000" pt_clust_7="13000.00000" pt_clust_8="13000.00000" pt_clust_9="149.77285"></scales>
<clustering>
<clus scale="   81.959">  7  8 -1 -1</clus>
<clus scale="   85.916">  2  7  1 -1</clus>
<clus scale="   94.744">  5  6 -1 -1</clus>
<clus scale="  149.773">  2  9  1 -1</clus>
<clus scale="  177.224">  1  5  2 -1</clus>
</clustering>
</event>
<event>
 9    1  0.1175034E-005  0.1260723E+03  0.7546771E-02  0.1236772E+00
         -1   -1    0    0    0  501 -0.00000000000E+00  0.00000000000E+00  0.31553751229E+03  0.31553751229E+03  0.00000000000E+00 0.  1.
          1   -1    0    0  502    0  0.00000000000E+00 -0.00000000000E+00 -0.87585925423E+02  0.87585925423E+02  0.00000000000E+00 0. -1.
         23    2    1    2    0    0  0.13342817734E+02  0.60848224011E+02  0.10219473204E+03  0.14798387060E+03  0.87034048221E+02 0.  0.
         23    2    1    2    0    0 -0.14851595773E+02 -0.87287548109E+02  0.57782817211E+01  0.13227308562E+03  0.98097373508E+02 0.  0.
        -11    1    3    3    0    0 -0.13673138002E+02  0.71133343315E+02  0.49032599831E+02  0.87470584085E+02  0.00000000000E+00 0.  1.
         11    1    3    3    0    0  0.27015955735E+02 -0.10285119303E+02  0.53162132214E+02  0.60513286515E+02  0.00000000000E+00 0. -1.
        -13    1    4    4    0    0 -0.44899291315E+02 -0.53741531720E+02  0.35300797724E+02  0.78423497194E+02  0.00000000000E+00 0.  1.
         13    1    4    4    0    0  0.30047695542E+02 -0.33546016389E+02 -0.29522516003E+02  0.53849588430E+02  0.00000000000E+00 0. -1.
         21    1    1    2  502  501  0.15087780392E+01  0.26439324097E+02  0.11997857310E+03  0.12286648149E+03  0.00000000000E+00 0.  1.
<scales pt_clust_5="13000.00000" pt_clust_6="13000.00000" pt_clust_7="13000.00000" pt_clust_8="13000.00000" pt_clust_9="26.48234"></scales>
<clustering>
<clus scale="   26.482">  1  9  2 -1</clus>
<clus scale="   87.034">  5  6 -1 -1</clus>
<clus scale="   98.097">  7  8 -1 -1</clus>
<clus scale="  117.669">  1  5  2 -1</clus>
<clus scale="  126.072">  2  5  1 -1</clus>
</clustering>
</event>
<event>
 9    1  0.1755726E-005  0.1747658E+03  0.7546771E-02  0.1173684E+00
         -1   -1    0    0    0  501 -0.00000000000E+00  0.00000000000E+00  0.70931744869E+03  0.70931744869E+03  0.00000000000E+00 0.  1.
          1   -1    0    0  502    0  0.00000000000E+00 -0.00000000000E+00 -0.14937795729E+03  0.14937795729E+03  0.00000000000E+00 0. -1.
         23    2    1    2    0    0 -0.10896938303E+03  0.12681377607E+03  0.56431208472E+03  0.59549645330E+03  0.90619184990E+02 0.  0.
         23    2    1    2    0    0  0.11995026712E+03 -0.80581306082E+02 -0.65850522429E+02  0.18549723543E+03  0.95872413007E+02 0.  0.
        -11    1    4    4    0    0  0.39431149414E+02 -0.59936821355E+02  0.10648121632E+02  0.72530135755E+02  0.00000000000E+00 0.  1.
         11    1    4    4    0    0  0.80519117705E+02 -0.20644484727E+02 -0.76498644061E+02  0.11296709967E+03  0.00000000000E+00 0. -1.
        -13    1    3    3    0    0 -0.10074011439E+03  0.83843598956E+02  0.50538218114E+03  0.52210101393E+03  0.00000000000E+00 0.  1.
         13    1    3    3    0    0 -0.82292686365E+01  0.42970177117E+02  0.58929903579E+02  0.73395439365E+02  0.00000000000E+00 0. -1.
         21    1    1    2  502  501 -0.10980884089E+02 -0.46232469990E+02  0.61477929112E+02  0.77701717257E+02  0.00000000000E+00 0. -1.
<scales pt_clust_5="13000.00000" pt_clust_6="13000.00000" pt_clust_7="13000.00000" pt_clust_8="13000.00000" pt_clust_9="47.51864"></scales>
<clustering>
<clus scale="   47.519">  1  9  2 -1</clus>
<clus scale="   90.619">  7  8 -1 -1</clus>
<clus scale="   95.872">  5  6 -1 -1</clus>
<clus scale="  171.940">  1  7  2 -1</clus>
<clus scale="  174.766">  2  5  1 -1</clus>
</clustering>
</event>
<event>
 9    1  0.1175034E-005  0.1091499E+03  0.7546771E-02  0.1263387E+00
          1   -1    0    0  502    0  0.00000000000E+00  0.00000000000E+00  0.65291107515E+02  0.65291107515E+02  0.00000000000E+00 0. -1.
         -1   -1    0    0    0  501 -0.00000000000E+00 -0.00000000000E+00 -0.53252934224E+03  0.53252934224E+03  0.00000000000E+00 0.  1.
         23    2    1    2    0    0 -0.10656271160E+02  0.68563323410E+02 -0.40097257697E+03  0.41783199014E+03  0.94816027498E+02 0.  0.
         23    2    1    2    0    0 -0.74741589464E+01 -0.51952021938E+02  0.37131694036E+01  0.10581512153E+03  0.91805101609E+02 0.  0.
        -11    1    3    3    0    0 -0.45859682049E+02  0.45453812821E+02 -0.32121044814E+03  0.32763594359E+03  0.00000000000E+00 0.  1.
         11    1    3    3    0    0  0.35203410890E+02  0.23109510589E+02 -0.79762128836E+02  0.90196046556E+02  0.00000000000E+00 0. -1.
        -13    1    4    4    0    0  0.19414452900E+02 -0.52133927055E+02 -0.29590259287E+02  0.63011513046E+02  0.00000000000E+00 0.  1.
         13    1    4    4    0    0 -0.26888611846E+02  0.18190511776E+00  0.33303428691E+02  0.42803608482E+02  0.00000000000E+00 0. -1.
         21    1    1    2  502  501  0.18130430106E+02 -0.16611301472E+02 -0.69978827149E+02  0.74173338078E+02  0.00000000000E+00 0. -1.
<scales pt_clust_5="13000.00000" pt_clust_6="13000.00000" pt_clust_7="13000.00000" pt_clust_8="13000.00000" pt_clust_9="24.58959"></scales>
<clustering>
<clus scale="   24.590">  2  9  1 -1</clus>
<clus scale="   91.805">  7  8 -1 -1</clus>
<clus scale="   94.816">  5  6 -1 -1</clus>
<clus scale="  106.545">  1  7  2 -1</clus>
<clus scale="  106.545">  1  5  2 -1</clus>
</clustering>
</event>
<event>
 9    1  0.1175034E-005  0.4305035E+03  0.7546771E-02  0.1063566E+00
          1   -1    0    0  502    0  0.00000000000E+00  0.00000000000E+00  0.48317944048E+03  0.48317944048E+03  0.00000000000E+00 0. -1.
         -1   -1    0    0    0  501 -0.00000000000E+00 -0.00000000000E+00 -0.10790307543E+04  0.10790307543E+04  0.00000000000E+00 0.  1.
         23    2    1    2    0    0  0.97860018687E+02  0.32846992404E+03  0.37603017764E+02  0.35661595175E+03  0.91059737772E+02 0.  0.
         23    2    1    2    0    0 -0.10582555213E+03  0.11840141942E+03  0.19296641870E+03  0.26605781275E+03  0.91284047743E+02 0.  0.
        -11    1    3    3    0    0  0.96177590215E+02  0.18670079326E+03  0.32379478987E+00  0.21001766570E+03  0.00000000000E+00 0. -1.
         11    1    3    3    0    0  0.16824284727E+01  0.14176913078E+03  0.37279222974E+02  0.14659828605E+03  0.00000000000E+00 0.  1.
        -11    1    4    4    0    0 -0.52027995143E+02  0.10341957771E+03  0.16999818650E+03  0.20567426855E+03  0.00000000000E+00 0. -1.
         11    1    4    4    0    0 -0.53797556988E+02  0.14981841713E+02  0.22968232206E+02  0.60383544196E+02  0.00000000000E+00 0.  1.
         21    1    1    2  502  501  0.79655334439E+01 -0.44687134346E+03 -0.82642075030E+03  0.93953643030E+03  0.00000000000E+00 0.  1.
<scales pt_clust_5="13000.00000" pt_clust_6="13000.00000" pt_clust_7="13000.00000" pt_clust_8="13000.00000" pt_clust_9="420.76286"></scales>
<clustering>
<clus scale="   91.060">  5  6 -1 -1</clus>
<clus scale="   91.284">  7  8 -1 -1</clus>
<clus scale="  183.169">  1  7  2 -1</clus>
<clus scale="  420.763">  2  9  1 -1</clus>
<clus scale="  183.169">  1  5  2 -1</clus>
</clustering>
</event>
<event>
 9    1  0.1175034E-005  0.1128876E+03  0.7546771E-02  0.1255923E+00
         -4   -1    0    0    0  501 -0.00000000000E+00  0.00000000000E+00  0.46577547629E+03  0.46577547629E+03  0.00000000000E+00 0.  1.
          4   -1    0    0  502    0  0.00000000000E+00 -0.00000000000E+00 -0.39469165345E+02  0.39469165345E+02  0.00000000000E+00 0. -1.
         23    2    1    2    0    0  0.44126655932E+02  0.58948220999E+02  0.26896422840E+03  0.29338956526E+03  0.91179089289E+02 0.  0.
         23    2    1    2    0    0 -0.10453906630E+02 -0.49786403627E+02  0.10623260792E+03  0.14996831414E+03  0.92828649192E+02 0.  0.
        -13    1    4    4    0    0  0.28297945700E+02  0.88244059635E+01  0.10992449810E+02  0.31614519201E+02  0.00000000000E+00 0.  1.
         13    1    4    4    0    0 -0.38751852331E+02 -0.58610809590E+02  0.95240158111E+02  0.11835379494E+03  0.00000000000E+00 0. -1.
        -13    1    3    3    0    0 -0.12394515522E+02  0.30207230201E+02  0.24459911270E+02  0.40796912025E+02  0.00000000000E+00 0. -1.
         13    1    3    3    0    0  0.56521171454E+02  0.28740990798E+02  0.24450431713E+03  0.25259265323E+03  0.00000000000E+00 0.  1.
         21    1    1    2  502  501 -0.33672749302E+02 -0.91618173721E+01  0.51109474630E+02  0.61886762236E+02  0.00000000000E+00 0. -1.
<scales pt_clust_5="13000.00000" pt_clust_6="13000.00000" pt_clust_7="13000.00000" pt_clust_8="13000.00000" pt_clust_9="34.89689"></scales>
<clustering>
<clus scale="   34.897">  2  9  1 -1</clus>
<clus scale="   91.179">  7  8 -1 -1</clus>
<clus scale="   92.829">  5  6 -1 -1</clus>
<clus scale="  111.535">  1  7  2 -1</clus>
<clus scale="   34.897">  2  5  1 -1</clus>
</clustering>
</event>
<event>
 9    1  0.1175034E-005  0.1082485E+03  0.7546771E-02  0.1267030E+00
          2   -1    0    0  502    0  0.00000000000E+00  0.00000000000E+00  0.45152694334E+03  0.45152694334E+03  0.00000000000E+00 0. -1.
         -2   -1    0    0    0  501 -0.00000000000E+00 -0.00000000000E+00 -0.75615997016E+02  0.75615997016E+02  0.00000000000E+00 0.  1.
         23    2    1    2    0    0  0.59530655066E+01  0.98865842441E+01  0.12068030759E+03  0.15197506291E+03  0.91648783793E+02 0.  0.
         23    2    1    2    0    0  0.15985975946E+02 -0.71918505842E+02  0.27915379713E+03  0.30515646162E+03  0.98822065882E+02 0.  0.
        -11    1    3    3    0    0 -0.62844795477E+01  0.49822113157E+02  0.72756503499E+02  0.88403882517E+02  0.00000000000E+00 0.  1.
         11    1    3    3    0    0  0.12237545054E+02 -0.39935528913E+02  0.47923804092E+02  0.63571180398E+02  0.00000000000E+00 0. -1.
        -11    1    4    4    0    0 -0.19599697694E+02 -0.39825677009E+02  0.35506066072E+02  0.56841124433E+02  0.00000000000E+00 0.  1.
         11    1    4    4    0    0  0.35585673640E+02 -0.32092828833E+02  0.24364773106E+03  0.24831533719E+03  0.00000000000E+00 0. -1.
         21    1    1    2  502  501 -0.21939041452E+02  0.62031921598E+02 -0.23923158403E+02  0.70011415819E+02  0.00000000000E+00 0.  1.
<scales pt_clust_5="13000.00000" pt_clust_6="13000.00000" pt_clust_7="13000.00000" pt_clust_8="13000.00000" pt_clust_9="65.79727"></scales>
<clustering>
<clus scale="   65.797">  2  9  1 -1</clus>
<clus scale="   91.649">  5  6 -1 -1</clus>
<clus scale="   98.822">  7  8 -1 -1</clus>
<clus scale="  101.742">  2  5  1 -1</clus>
<clus scale="  108.248">  1  5  2 -1</clus>
</clustering>
</event>
<event>
 9    1  0.1175034E-005  0.1163445E+03  0.7546771E-02  0.1250543E+00
         -1   -1    0    0    0  501 -0.00000000000E+00  0.00000000000E+00  0.30441862553E+03  0.30441862553E+03  0.00000000000E+00 0.  1.
          1   -1    0    0  502    0  0.00000000000E+00 -0.00000000000E+00 -0.61576728397E+02  0.61576728397E+02  0.00000000000E+00 0. -1.
         23    2    1    2    0    0 -0.59519722272E+01 -0.58085689438E+02  0.16181515622E+03  0.19583841683E+03  0.93590423838E+02 0.  0.
         23    2    1    2    0    0 -0.18476141589E+02  0.73411395828E+02  0.49736253812E+02  0.12760456226E+03  0.89881191140E+02 0.  0.
        -11    1    3    3    0    0  0.13783493093E+02 -0.79311204442E+02  0.10781928711E+03  0.13455575240E+03  0.00000000000E+00 0. -1.
         11    1    3    3    0    0 -0.19735465321E+02  0.21225515004E+02  0.53995869109E+02  0.61282664428E+02  0.00000000000E+00 0.  1.
        -13    1    4    4    0    0  0.21614573586E+02  0.54525420737E+02 -0.29879914247E+01  0.58729374172E+02  0.00000000000E+00 0. -1.
         13    1    4    4    0    0 -0.40090715175E+02  0.18885975091E+02  0.52724245236E+02  0.68875188088E+02  0.00000000000E+00 0.  1.
         21    1    1    2  502  501  0.24428113816E+02 -0.15325706390E+02  0.31290487100E+02  0.42552374833E+02  0.00000000000E+00 0.  1.
<scales pt_clust_5="13000.00000" pt_clust_6="13000.00000" pt_clust_7="13000.00000" pt_clust_8="13000.00000" pt_clust_9="28.83765"></scales>
<clustering>
<clus scale="   28.838">  1  9  2 -1</clus>
<clus scale="   89.881">  7  8 -1 -1</clus>
<clus scale="   93.590">  5  6 -1 -1</clus>
<clus scale="  113.382">  2  7  1 -1</clus>
<clus scale="  113.382">  2  5  1 -1</clus>
</clustering>
</event>
<event>
 9    1  0.1175034E-005  0.1015666E+03  0.7546771E-02  0.1277194E+00
          2   -1    0    0  502    0  0.00000000000E+00  0.00000000000E+00  0.80124577670E+02  0.80124577670E+02  0.00000000000E+00 0. -1.
         -2   -1    0    0    0  501 -0.00000000000E+00 -0.00000000000E+00 -0.22425954599E+03  0.22425954599E+03  0.00000000000E+00 0.  1.
         23    2    1    2    0    0  0.30552544628E+02 -0.43030957428E+01 -0.99221203059E+02  0.13849972254E+03  0.91571564308E+02 0.  0.
         23    2    1    2    0    0 -0.47886296817E+02 -0.14394117567E+02  0.10819637853E+02  0.10459609088E+03  0.91230420473E+02 0.  0.
        -13    1    4    4    0    0 -0.22112944994E+02 -0.94868099373E+01 -0.40414338383E+02  0.47035100149E+02  0.00000000000E+00 0.  1.
         13    1    4    4    0    0 -0.25773351823E+02 -0.49073076296E+01  0.51233976236E+02  0.57560990726E+02  0.00000000000E+00 0. -1.
        -13    1    3    3    0    0  0.26856661748E+02 -0.45130247860E+02 -0.72663029192E+02  0.89654533424E+02  0.00000000000E+00 0.  1.
         13    1    3    3    0    0  0.36958828800E+01  0.40827152117E+02 -0.26558173867E+02  0.48845189112E+02  0.00000000000E+00 0. -1.
         21    1    1    2  502  501  0.17333752189E+02  0.18697213310E+02 -0.55733403109E+02  0.61288310244E+02  0.00000000000E+00 0.  1.
<scales pt_clust_5="13000.00000" pt_clust_6="13000.00000" pt_clust_7="13000.00000" pt_clust_8="13000.00000" pt_clust_9="25.49598"></scales>
<clustering>
<clus scale="   25.496">  2  9  1 -1</clus>
<clus scale="   91.230">  5  6 -1 -1</clus>
<clus scale="   91.572">  7  8 -1 -1</clus>
<clus scale="  101.259">  1  5  2 -1</clus>
<clus scale="  101.259">  1  5  2 -1</clus>
</clustering>
</event>
<event>
 9    1  0.1175034E-005  0.9241950E+02  0.7546771E-02  0.1297864E+00
         -1   -1    0    0    0  501 -0.00000000000E+00  0.00000000000E+00  0.32520363053E+03  0.32520363053E+03  0.00000000000E+00 0.  1.
          1   -1    0    0  502    0  0.00000000000E+00 -0.00000000000E+00 -0.72780281096E+02  0.72780281096E+02  0.00000000000E+00 0. -1.
         23    2    1    2    0    0  0.25272514187E+02  0.27840209190E+02  0.16803534141E+03  0.19397747593E+03  0.89317456219E+02 0.  0.
         23    2    1    2    0    0 -0.12235942086E+02 -0.74263322733E+01 -0.22433528468E+02  0.94473247838E+02  0.90648015244E+02 0.  0.
        -11    1    4    4    0    0  0.36472522663E+02  0.75388899917E+01  0.32979671873E+01  0.37389254597E+02  0.00000000000E+00 0.  1.
         11    1    4    4    0    0 -0.48708464749E+02 -0.14965222265E+02 -0.25731495656E+02  0.57083993241E+02  0.00000000000E+00 0. -1.
        -13    1    3    3    0    0  0.45400917955E+02 -0.52833970654E+01  0.13668887043E+03  0.14412843209E+03  0.00000000000E+00 0.  1.
         13    1    3    3    0    0 -0.20128403768E+02  0.33123606256E+02  0.31346470977E+02  0.49849043846E+02  0.00000000000E+00 0. -1.
         21    1    1    2  502  501 -0.13036572101E+02 -0.20413876917E+02  0.10682153650E+03  0.10953318786E+03  0.00000000000E+00 0. -1.
<scales pt_clust_5="13000.00000" pt_clust_6="13000.00000" pt_clust_7="13000.00000" pt_clust_8="13000.00000" pt_clust_9="24.22145"></scales>
<clustering>
<clus scale="   24.221">  1  9  2 -1</clus>
<clus scale="   89.317">  7  8 -1 -1</clus>
<clus scale="   90.648">  5  6 -1 -1</clus>
<clus scale="   91.115">  1  7  2 -1</clus>
<clus scale="   92.419">  2  5  1 -1</clus>
</clustering>
</event>
<event>
 9    1  0.1175034E-005  0.1371445E+03  0.7546771E-02  0.1220304E+00
         -2   -1    0    0    0  501 -0.00000000000E+00  0.00000000000E+00  0.19876786756E+03  0.19876786756E+03  0.00000000000E+00 0.  1.
          2   -1    0    0  502    0  0.00000000000E+00 -0.00000000000E+00 -0.30767514015E+03  0.30767514015E+03  0.00000000000E+00 0. -1.
         23    2    1    2    0    0 -0.33387882280E+02  0.65852050290E+02 -0.87955715613E+01  0.11883271490E+03  0.92696325927E+02 0.  0.
         23    2    1    2    0    0  0.41456076961E+02 -0.85139223334E+02 -0.22255448933E+03  0.26339544984E+03  0.10430421186E+03 0.  0.
        -11    1    4    4    0    0 -0.12609349037E+02 -0.84621433627E+02 -0.15302042054E+03  0.17531409474E+03  0.00000000000E+00 0. -1.
         11    1    4    4    0    0  0.54065425998E+02 -0.51778970724E+00 -0.69534068784E+02  0.88081355100E+02  0.00000000000E+00 0.  1.
        -13    1    3    3    0    0  0.24564903456E+02  0.15517621576E+02 -0.27305553925E+02  0.39872601324E+02  0.00000000000E+00 0. -1.
         13    1    3    3    0    0 -0.57952785735E+02  0.50334428715E+02  0.18509982364E+02  0.78960113574E+02  0.00000000000E+00 0.  1.
         21    1    1    2  502  501 -0.80681946815E+01  0.19287173043E+02  0.12244278829E+03  0.12421484297E+03  0.00000000000E+00 0. -1.
<scales pt_clust_5="13000.00000" pt_clust_6="13000.00000" pt_clust_7="13000.00000" pt_clust_8="13000.00000" pt_clust_9="20.90672"></scales>
<clustering>
<clus scale="   20.907">  1  9  2 -1</clus>
<clus scale="   92.696">  7  8 -1 -1</clus>
<clus scale="  104.304">  5  6 -1 -1</clus>
<clus scale="  128.537">  1  7  2 -1</clus>
<clus scale="  137.145">  2  5  1 -1</clus>
</clustering>
</event>
<event>
 9    1  0.1336075E-005  0.1954249E+03  0.7546771E-02  0.1153692E+00
         -1   -1    0    0    0  501 -0.00000000000E+00  0.00000000000E+00  0.11844360053E+03  0.11844360053E+03  0.00000000000E+00 0.  1.
          1   -1    0    0  502    0  0.00000000000E+00 -0.00000000000E+00 -0.63411135913E+03  0.63411135913E+03  0.00000000000E+00 0. -1.
         23    2    1    2    0    0 -0.18320812331E+03  0.18081138432E+02 -0.19427334493E+02  0.20655314337E+03  0.91622244550E+02 0.  0.
         23    2    1    2    0    0  0.17025580932E+03  0.77467198486E-01 -0.48237317383E+03  0.51973781001E+03  0.91959043683E+02 0.  0.
        -11    1    4    4    0    0  0.29594849477E+02 -0.33009262233E+02 -0.16790150882E+03  0.17365593330E+03  0.00000000000E+00 0.  1.
         11    1    4    4    0    0  0.14066095984E+03  0.33086729431E+02 -0.31447166501E+03  0.34608187670E+03  0.00000000000E+00 0. -1.
        -13    1    3    3    0    0 -0.93651868655E+02  0.44123561570E+02 -0.40105248826E+02  0.11102248498E+03  0.00000000000E+00 0. -1.
         13    1    3    3    0    0 -0.89556254654E+02 -0.26042423138E+02  0.20677914333E+02  0.95530658387E+02  0.00000000000E+00 0.  1.
         21    1    1    2  502  501  0.12952313989E+02 -0.18158605630E+02 -0.13867250276E+02  0.26264006288E+02  0.00000000000E+00 0. -1.
<scales pt_clust_5="13000.00000" pt_clust_6="13000.00000" pt_clust_7="13000.00000" pt_clust_8="13000.00000" pt_clust_9="22.30465"></scales>
<clustering>
<clus scale="   22.305">  1  9  2 -1</clus>
<clus scale="   91.622">  7  8 -1 -1</clus>
<clus scale="   91.959">  5  6 -1 -1</clus>
<clus scale="  195.267">  1  7  2 -1</clus>
<clus scale="  195.425">  2  5  1 -1</clus>
</clustering>
</event>
<event>
 9    1  0.1175034E-005  0.1506649E+03  0.7546771E-02  0.1199680E+00
         -1   -1    0    0    0  501 -0.00000000000E+00  0.00000000000E+00  0.12914935311E+03  0.12914935311E+03  0.00000000000E+00 0.  1.
          1   -1    0    0  502    0  0.00000000000E+00 -0.00000000000E+00 -0.71074502377E+03  0.71074502377E+03  0.00000000000E+00 0. -1.
         23    2    1    2    0    0 -0.88055032113E+02 -0.79784295923E+02 -0.22547376304E+02  0.15237730977E+03  0.92688930291E+02 0.  0.
         23    2    1    2    0    0 -0.62353352173E+02  0.10515342926E+03 -0.50199456840E+03  0.52466313674E+03  0.91256101943E+02 0.  0.
        -11    1    3    3    0    0 -0.98875431204E+02 -0.53402731022E+02  0.53275742375E+01  0.11250149165E+03  0.00000000000E+00 0.  1.
         11    1    3    3    0    0  0.10820399091E+02 -0.26381564901E+02 -0.27874950541E+02  0.39875818121E+02  0.00000000000E+00 0. -1.
        -13    1    4    4    0    0  0.21108586519E+02  0.14163337599E+02 -0.49769775883E+02  0.55885625595E+02  0.00000000000E+00 0.  1.
         13    1    4    4    0    0 -0.83461938692E+02  0.90990091663E+02 -0.45222479252E+03  0.46877751115E+03  0.00000000000E+00 0. -1.
         21    1    1    2  502  501  0.15040838429E+03 -0.25369133339E+02 -0.57053725962E+02  0.16285393037E+03  0.00000000000E+00 0.  1.
<scales pt_clust_5="13000.00000" pt_clust_6="13000.00000" pt_clust_7="13000.00000" pt_clust_8="13000.00000" pt_clust_9="119.84030"></scales>
<clustering>
<clus scale="   91.256">  7  8 -1 -1</clus>
<clus scale="   92.689">  5  6 -1 -1</clus>
<clus scale="  150.700">  1  5  2 -1</clus>
<clus scale="  119.840">  1  9  2 -1</clus>
<clus scale="  150.630">  2  5  1 -1</clus>
</clustering>
</event>
<event>
 9    1  0.1175034E-005  0.1610659E+03  0.7546771E-02  0.1187536E+00
         -1   -1    0    0    0  501 -0.00000000000E+00  0.00000000000E+00  0.48305962105E+02  0.48305962105E+02  0.00000000000E+00 0.  1.
          1   -1    0    0  502    0  0.00000000000E+00 -0.00000000000E+00 -0.65317980760E+03  0.65317980760E+03  0.00000000000E+00 0. -1.
         23    2    1    2    0    0 -0.11884417457E+03  0.50747315196E+01 -0.21506589792E+03  0.26232298362E+03  0.91707778053E+02 0.  0.
         23    2    1    2    0    0  0.14265017179E+03 -0.47436740352E+00 -0.37260112958E+03  0.40943126344E+03  0.91940530665E+02 0.  0.
        -11    1    4    4    0    0  0.52503237923E+02 -0.37907470983E+01 -0.43797001493E+02  0.68477274301E+02  0.00000000000E+00 0.  1.
         11    1    4    4    0    0  0.90146933865E+02  0.33163796948E+01 -0.32880412809E+03  0.34095398914E+03  0.00000000000E+00 0. -1.
        -13    1    3    3    0    0  0.31888973698E+01  0.24245977718E+02 -0.20779355452E+02  0.32090779282E+02  0.00000000000E+00 0. -1.
         13    1    3    3    0    0 -0.12203307194E+03 -0.19171246198E+02 -0.19428654247E+03  0.23023220433E+03  0.00000000000E+00 0.  1.
         21    1    1    2  502  501 -0.23805997219E+02 -0.46003641161E+01 -0.17206817985E+02  0.29731522644E+02  0.00000000000E+00 0.  1.
<scales pt_clust_5="13000.00000" pt_clust_6="13000.00000" pt_clust_7="13000.00000" pt_clust_8="13000.00000" pt_clust_9="24.24642"></scales>
<clustering>
<clus scale="   24.246">  1  9  2 -1</clus>
<clus scale="   91.708">  7  8 -1 -1</clus>
<clus scale="   91.941">  5  6 -1 -1</clus>
<clus scale="  160.933">  1  7  2 -1</clus>
<clus scale="  161.066">  2  5  1 -1</clus>
</clustering>
</event>
<event>
 9    1  0.1175034E-005  0.9920806E+02  0.7546771E-02  0.1282179E+00
         -1   -1    0    0    0  501 -0.00000000000E+00  0.00000000000E+00  0.81342084563E+03  0.81342084563E+03  0.00000000000E+00 0.  1.
          1   -1    0    0  502    0  0.00000000000E+00 -0.00000000000E+00 -0.46879444693E+02  0.46879444693E+02  0.00000000000E+00 0. -1.
         23    2    1    2    0    0  0.47548760289E+02 -0.95972342670E+02  0.27041960472E+03  0.30408245791E+03  0.88700639395E+02 0.  0.
         23    2    1    2    0    0 -0.38181726135E+01  0.25749263095E+02  0.56108026925E+02  0.10849496906E+03  0.89137223616E+02 0.  0.
        -11    1    4    4    0    0 -0.37327824905E+02  0.35386375772E+02  0.13003378128E+02  0.53053274594E+02  0.00000000000E+00 0.  1.
         11    1    4    4    0    0  0.33509652291E+02 -0.96371126761E+01  0.43104648797E+02  0.55441694467E+02  0.00000000000E+00 0. -1.
        -13    1    3    3    0    0  0.60344277674E+02 -0.53274472832E+02  0.23083976393E+03  0.24447208003E+03  0.00000000000E+00 0. -1.
         13    1    3    3    0    0 -0.12795517385E+02 -0.42697869838E+02  0.39579840789E+02  0.59610377878E+02  0.00000000000E+00 0.  1.
         21    1    1    2  502  501 -0.43730587676E+02  0.70223079574E+02  0.44001376929E+03  0.44772286336E+03  0.00000000000E+00 0.  1.
<scales pt_clust_5="13000.00000" pt_clust_6="13000.00000" pt_clust_7="13000.00000" pt_clust_8="13000.00000" pt_clust_9="82.72633"></scales>
<clustering>
<clus scale="   82.726">  1  9  2 -1</clus>
<clus scale="   88.701">  7  8 -1 -1</clus>
<clus scale="   89.137">  5  6 -1 -1</clus>
<clus scale="   98.816">  1  7  2 -1</clus>
<clus scale="   99.208">  2  5  1 -1</clus>
</clustering>
</event>
<event>
 9    1  0.1175034E-005  0.9683425E+02  0.7546771E-02  0.1289432E+00
          1   -1    0    0  502    0  0.00000000000E+00  0.00000000000E+00  0.56814179803E+02  0.56814179803E+02  0.00000000000E+00 0. -1.
         -1   -1    0    0    0  501 -0.00000000000E+00 -0.00000000000E+00 -0.22206489433E+03  0.22206489433E+03  0.00000000000E+00 0.  1.
         23    2    1    2    0    0  0.27991539463E+01 -0.12160205386E+02 -0.90189516797E+02  0.12758916406E+03  0.89381989163E+02 0.  0.
         23    2    1    2    0    0  0.21056327687E+02  0.28875931390E+02 -0.46609351158E+02  0.11057127708E+03  0.93682374809E+02 0.  0.
        -11    1    3    3    0    0  0.30439260798E+02 -0.35900248687E+02 -0.74041211841E+02  0.87735269446E+02  0.00000000000E+00 0.  1.
         11    1    3    3    0    0 -0.27640106852E+02  0.23740043301E+02 -0.16148304956E+02  0.39853894611E+02  0.00000000000E+00 0. -1.
        -13    1    4    4    0    0 -0.26915585238E+02 -0.11252502457E+02  0.48576018171E+01  0.29574716155E+02  0.00000000000E+00 0.  1.
         13    1    4    4    0    0  0.47971912925E+02  0.40128433846E+02 -0.51466952975E+02  0.80996560922E+02  0.00000000000E+00 0. -1.
         21    1    1    2  502  501 -0.23855481634E+02 -0.16715726004E+02 -0.28451846570E+02  0.40718632996E+02  0.00000000000E+00 0. -1.
<scales pt_clust_5="13000.00000" pt_clust_6="13000.00000" pt_clust_7="13000.00000" pt_clust_8="13000.00000" pt_clust_9="29.12901"></scales>
<clustering>
<clus scale="   29.129">  2  9  1 -1</clus>
<clus scale="   89.382">  5  6 -1 -1</clus>
<clus scale="   92.680">  2  5  1 -1</clus>
<clus scale="   93.682">  7  8 -1 -1</clus>
<clus scale="   96.834">  1  5  2 -1</clus>
</clustering>
</event>
<event>
 9    1  0.1175034E-005  0.2470264E+03  0.7546771E-02  0.1115278E+00
          1   -1    0    0  502    0  0.00000000000E+00  0.00000000000E+00  0.18445887702E+04  0.18445887702E+04  0.00000000000E+00 0. -1.
         -1   -1    0    0    0  501 -0.00000000000E+00 -0.00000000000E+00 -0.21752905833E+03  0.21752905833E+03  0.00000000000E+00 0.  1.
         23    2    1    2    0    0 -0.16403650965E+03 -0.86934172083E+02  0.29336624190E+03  0.35880206979E+03  0.90607100311E+02 0.  0.
         23    2    1    2    0    0  0.23344525249E+03  0.74991874194E+02  0.15000127525E+04  0.15226993259E+04  0.91948422084E+02 0.  0.
        -13    1    3    3    0    0 -0.63788660061E+02 -0.58320052899E+02  0.20376038731E+03  0.22133349760E+03  0.00000000000E+00 0.  1.
         13    1    3    3    0    0 -0.10024784959E+03 -0.28614119183E+02  0.89605854590E+02  0.13746857220E+03  0.00000000000E+00 0. -1.
        -13    1    4    4    0    0  0.65697777007E+02 -0.20518926163E+02  0.38895153976E+03  0.39499433479E+03  0.00000000000E+00 0.  1.
         13    1    4    4    0    0  0.16774747549E+03  0.95510800356E+02  0.11110612127E+04  0.11277049911E+04  0.00000000000E+00 0. -1.
         21    1    1    2  502  501 -0.69408742839E+02  0.11942297889E+02 -0.16631928254E+03  0.18061643283E+03  0.00000000000E+00 0.  1.
<scales pt_clust_5="13000.00000" pt_clust_6="13000.00000" pt_clust_7="13000.00000" pt_clust_8="13000.00000" pt_clust_9="70.42863"></scales>
<clustering>
<clus scale="   70.429">  2  9  1 -1</clus>
<clus scale="   90.607">  5  6 -1 -1</clus>
<clus scale="   91.948">  7  8 -1 -1</clus>
<clus scale="  246.530">  2  5  1 -1</clus>
<clus scale="  247.026">  1  5  2 -1</clus>
</clustering>
</event>
<event>
 9    1  0.1175034E-005  0.1080876E+03  0.7546771E-02  0.1265939E+00
         -1   -1    0    0    0  501 -0.00000000000E+00  0.00000000000E+00  0.10842790081E+03  0.10842790081E+03  0.00000000000E+00 0.  1.
          1   -1    0    0  502    0  0.00000000000E+00 -0.00000000000E+00 -0.19174144911E+03  0.19174144911E+03  0.00000000000E+00 0. -1.
         23    2    1    2    0    0 -0.57641315310E+01  0.57179792979E+02 -0.37175635992E+02  0.11070431234E+03  0.87009556503E+02 0.  0.
         23    2    1    2    0    0 -0.28313640430E+02 -0.55135174278E+02 -0.83795557277E+02  0.13863617538E+03  0.91415228642E+02 0.  0.
        -13    1    3    3    0    0  0.76455312489E+01  0.78395805647E+02 -0.32318225627E+02  0.85140027007E+02  0.00000000000E+00 0.  1.
         13    1    3    3    0    0 -0.13409662780E+02 -0.21216012667E+02 -0.48574103657E+01  0.25564285338E+02  0.00000000000E+00 0. -1.
        -13    1    4    4    0    0 -0.40448669619E+02 -0.32905607092E+02 -0.96961165557E+02  0.11009242244E+03  0.00000000000E+00 0. -1.
         13    1    4    4    0    0  0.12135029189E+02 -0.22229567186E+02  0.13165608280E+02  0.28543752943E+02  0.00000000000E+00 0.  1.
         21    1    1    2  502  501  0.34077771961E+02 -0.20446187010E+01  0.37657644970E+02  0.50828862196E+02  0.00000000000E+00 0. -1.
<scales pt_clust_5="13000.00000" pt_clust_6="13000.00000" pt_clust_7="13000.00000" pt_clust_8="13000.00000" pt_clust_9="34.13905"></scales>
<clustering>
<clus scale="   34.139">  1  9  2 -1</clus>
<clus scale="   87.010">  5  6 -1 -1</clus>
<clus scale="   91.415">  7  8 -1 -1</clus>
<clus scale="  104.388">  1  5  2 -1</clus>
<clus scale="  108.088">  2  5  1 -1</clus>
</clustering>
</event>
<event>
 9    1  0.1175034E-005  0.1219018E+03  0.7546771E-02  0.1240217E+00
          1   -1    0    0  502    0  0.00000000000E+00  0.00000000000E+00  0.18323475904E+03  0.18323475904E+03  0.00000000000E+00 0. -1.
         -1   -1    0    0    0  501 -0.00000000000E+00 -0.00000000000E+00 -0.14509246109E+03  0.14509246109E+03  0.00000000000E+00 0.  1.
         23    2    1    2    0    0  0.73403958635E+02  0.20824272804E+02  0.28875592511E+02  0.12339525687E+03  0.92578604944E+02 0.  0.
         23    2    1    2    0    0 -0.82568288946E+02 -0.27574314425E+01  0.69249445965E+02  0.14162063042E+03  0.91846564580E+02 0.  0.
        -11    1    3    3    0    0  0.39268653527E+02  0.34160622169E+02 -0.25392531132E+02  0.57911621408E+02  0.00000000000E+00 0.  1.
         11    1    3    3    0    0  0.34135305108E+02 -0.13336349365E+02  0.54268123643E+02  0.65483635460E+02  0.00000000000E+00 0. -1.
        -13    1    4    4    0    0  0.11843149546E+02  0.21888311722E+02  0.68988389851E+01  0.25825420821E+02  0.00000000000E+00 0.  1.
         13    1    4    4    0    0 -0.94411438492E+02 -0.24645743165E+02  0.62350606980E+02  0.11579520959E+03  0.00000000000E+00 0. -1.
         21    1    1    2  502  501  0.91643303105E+01 -0.18066841362E+02 -0.59982740520E+02  0.63311332849E+02  0.00000000000E+00 0.  1.
<scales pt_clust_5="13000.00000" pt_clust_6="13000.00000" pt_clust_7="13000.00000" pt_clust_8="13000.00000" pt_clust_9="20.25823"></scales>
<clustering>
<clus scale="   20.258">  2  9  1 -1</clus>
<clus scale="   91.847">  7  8 -1 -1</clus>
<clus scale="   92.579">  5  6 -1 -1</clus>
<clus scale="  121.347">  1  7  2 -1</clus>
<clus scale="  121.347">  1  5  2 -1</clus>
</clustering>
</event>
<event>
 9    1  0.1175034E-005  0.9964085E+02  0.7546771E-02  0.1281095E+00
          2   -1    0    0  502    0  0.00000000000E+00  0.00000000000E+00  0.59244222032E+03  0.59244222032E+03  0.00000000000E+00 0. -1.
         -2   -1    0    0    0  501 -0.00000000000E+00 -0.00000000000E+00 -0.90101051315E+02  0.90101051315E+02  0.00000000000E+00 0.  1.
         23    2    1    2    0    0 -0.12112353440E+02  0.19225488048E+02  0.16074901391E+03  0.18624528710E+03  0.91272849172E+02 0.  0.
         23    2    1    2    0    0 -0.24019407902E+02 -0.48223446271E+02  0.40449864862E+03  0.41817236335E+03  0.91359378333E+02 0.  0.
        -11    1    3    3    0    0 -0.25914988579E+02  0.49360116744E+02  0.69090139134E+02  0.88777559573E+02  0.00000000000E+00 0.  1.
         11    1    3    3    0    0  0.13802635139E+02 -0.30134628697E+02  0.91658874776E+02  0.97467727524E+02  0.00000000000E+00 0. -1.
        -11    1    4    4    0    0 -0.56919507499E+02 -0.44594733975E+02  0.25503150702E+03  0.26508411911E+03  0.00000000000E+00 0. -1.
         11    1    4    4    0    0  0.32900099597E+02 -0.36287122966E+01  0.14946714160E+03  0.15308824424E+03  0.00000000000E+00 0.  1.
         21    1    1    2  502  501  0.36131761342E+02  0.28997958224E+02 -0.62906493523E+02  0.78125621189E+02  0.00000000000E+00 0.  1.
<scales pt_clust_5="13000.00000" pt_clust_6="13000.00000" pt_clust_7="13000.00000" pt_clust_8="13000.00000" pt_clust_9="46.32910"></scales>
<clustering>
<clus scale="   46.329">  2  9  1 -1</clus>
<clus scale="   91.273">  5  6 -1 -1</clus>
<clus scale="   91.359">  7  8 -1 -1</clus>
<clus scale="   99.562">  2  5  1 -1</clus>
<clus scale="   99.641">  1  5  2 -1</clus>
</clustering>
</event>
<event>
 9    1  0.1175034E-005  0.1602394E+03  0.7546771E-02  0.1188461E+00
          1   -1    0    0  502    0  0.00000000000E+00  0.00000000000E+00  0.68167662132E+03  0.68167662132E+03  0.00000000000E+00 0. -1.
         -1   -1    0    0    0  501 -0.00000000000E+00 -0.00000000000E+00 -0.43270677170E+02  0.43270677170E+02  0.00000000000E+00 0.  1.
         23    2    1    2    0    0  0.24821507198E+02 -0.13860710541E+03  0.33617697762E+03  0.37593120006E+03  0.92093810919E+02 0.  0.
         23    2    1    2    0    0 -0.13199451568E+02  0.12099593533E+03  0.27624370311E+03  0.31554283441E+03  0.91882832755E+02 0.  0.
        -11    1    4    4    0    0  0.19614967285E+02  0.10980287990E+03  0.24360139480E+03  0.26792360651E+03  0.00000000000E+00 0. -1.
         11    1    4    4    0    0 -0.32814418854E+02  0.11193055431E+02  0.32642308304E+02  0.47619227902E+02  0.00000000000E+00 0.  1.
        -13    1    3    3    0    0  0.32384051258E+02 -0.69500889559E+02  0.81341090952E+02  0.11178315393E+03  0.00000000000E+00 0.  1.
         13    1    3    3    0    0 -0.75625440599E+01 -0.69106215851E+02  0.25483588667E+03  0.26414804613E+03  0.00000000000E+00 0. -1.
         21    1    1    2  502  501 -0.11622055630E+02  0.17611170077E+02  0.25985263424E+02  0.33473264014E+02  0.00000000000E+00 0.  1.
<scales pt_clust_5="13000.00000" pt_clust_6="13000.00000" pt_clust_7="13000.00000" pt_clust_8="13000.00000" pt_clust_9="21.10037"></scales>
<clustering>
<clus scale="   21.100">  2  9  1 -1</clus>
<clus scale="   91.883">  5  6 -1 -1</clus>
<clus scale="   92.094">  7  8 -1 -1</clus>
<clus scale="  160.118">  1  5  2 -1</clus>
<clus scale="  160.118">  1  5  2 -1</clus>
</clustering>
</event>
<event>
 9    1  0.1175034E-005  0.1277293E+03  0.7546771E-02  0.1231177E+00
         -1   -1    0    0    0  501 -0.00000000000E+00  0.00000000000E+00  0.77113795637E+02  0.77113795637E+02  0.00000000000E+00 0.  1.
          1   -1    0    0  502    0  0.00000000000E+00 -0.00000000000E+00 -0.49107441846E+03  0.49107441846E+03  0.00000000000E+00 0. -1.
         23    2    1    2    0    0  0.65615658632E+02 -0.47029586369E+02 -0.26702168806E+02  0.12482516088E+03  0.91384453366E+02 0.  0.
         23    2    1    2    0    0 -0.55134092199E+02  0.71393140415E+02 -0.39511028352E+03  0.41570266228E+03  0.92519288055E+02 0.  0.
        -11    1    4    4    0    0  0.25371877517E+02  0.17517715948E+02 -0.12503718776E+03  0.12878237793E+03  0.00000000000E+00 0.  1.
         11    1    4    4    0    0 -0.80505969716E+02  0.53875424467E+02 -0.27007309576E+03  0.28692028435E+03  0.00000000000E+00 0. -1.
        -13    1    3    3    0    0  0.60005030440E+02 -0.69075224239E+02 -0.23897675336E+01  0.91529783517E+02  0.00000000000E+00 0.  1.
         13    1    3    3    0    0  0.56106281924E+01  0.22045637871E+02 -0.24312401272E+02  0.33295377359E+02  0.00000000000E+00 0. -1.
         21    1    1    2  502  501 -0.10481566433E+02 -0.24363554046E+02  0.78518295013E+01  0.27660390944E+02  0.00000000000E+00 0.  1.
<scales pt_clust_5="13000.00000" pt_clust_6="13000.00000" pt_clust_7="13000.00000" pt_clust_8="13000.00000" pt_clust_9="26.52256"></scales>
<clustering>
<clus scale="   26.523">  1  9  2 -1</clus>
<clus scale="   91.384">  7  8 -1 -1</clus>
<clus scale="   92.519">  5  6 -1 -1</clus>
<clus scale="  126.910">  1  7  2 -1</clus>
<clus scale="  127.729">  2  5  1 -1</clus>
</clustering>
</event>
<event>
 9    1  0.1175034E-005  0.1859897E+03  0.7546771E-02  0.1162855E+00
          1   -1    0    0  502    0  0.00000000000E+00  0.00000000000E+00  0.79590220357E+03  0.79590220357E+03  0.00000000000E+00 0. -1.
         -1   -1    0    0    0  501 -0.00000000000E+00 -0.00000000000E+00 -0.14152439838E+03  0.14152439838E+03  0.00000000000E+00 0.  1.
         23    2    1    2    0    0  0.95353127153E+02 -0.15887824020E+03  0.12996537609E+02  0.20449637927E+03  0.85529790583E+02 0.  0.
         23    2    1    2    0    0 -0.93135168983E+02  0.12846991617E+03  0.66783626865E+03  0.69256374414E+03  0.91981405206E+02 0.  0.
        -11    1    4    4    0    0  0.11370393960E+02  0.53752053131E+02  0.19993821818E+03  0.20734960854E+03  0.00000000000E+00 0.  1.
         11    1    4    4    0    0 -0.10450556294E+03  0.74717863040E+02  0.46789805048E+03  0.48521413560E+03  0.00000000000E+00 0. -1.
        -13    1    3    3    0    0  0.13127001179E+01 -0.81758272654E+02  0.13505782952E+02  0.82876682499E+02  0.00000000000E+00 0. -1.
         13    1    3    3    0    0  0.94040427035E+02 -0.77119967543E+02 -0.50924534282E+00  0.12161969677E+03  0.00000000000E+00 0.  1.
         21    1    1    2  502  501 -0.22179581700E+01  0.30408324026E+02 -0.26455001071E+02  0.40366478546E+02  0.00000000000E+00 0. -1.
<scales pt_clust_5="13000.00000" pt_clust_6="13000.00000" pt_clust_7="13000.00000" pt_clust_8="13000.00000" pt_clust_9="30.48910"></scales>
<clustering>
<clus scale="   30.489">  2  9  1 -1</clus>
<clus scale="   85.530">  7  8 -1 -1</clus>
<clus scale="   91.981">  5  6 -1 -1</clus>
<clus scale="  182.885">  2  7  1 -1</clus>
<clus scale="  185.990">  1  5  2 -1</clus>
</clustering>
</event>
<event>
 9    1  0.1175034E-005  0.1392927E+03  0.7546771E-02  0.1214865E+00
          2   -1    0    0  502    0  0.00000000000E+00  0.00000000000E+00  0.64202953883E+03  0.64202953883E+03  0.00000000000E+00 0. -1.
         -2   -1    0    0    0  501 -0.00000000000E+00 -0.00000000000E+00 -0.11690961982E+03  0.11690961982E+03  0.00000000000E+00 0.  1.
         23    2    1    2    0    0 -0.98069922210E+02  0.22728014554E+02  0.13126223684E+03  0.18817789029E+03  0.89704354880E+02 0.  0.
         23    2    1    2    0    0  0.52543593382E+02 -0.10566068351E+03  0.44050238842E+03  0.46528045107E+03  0.92295908339E+02 0.  0.
        -11    1    3    3    0    0 -0.38745888547E+02  0.55009242271E+02  0.66876853359E+02  0.94867139356E+02  0.00000000000E+00 0.  1.
         11    1    3    3    0    0 -0.59324033663E+02 -0.32281227717E+02  0.64385383481E+02  0.93310750929E+02  0.00000000000E+00 0. -1.
        -13    1    4    4    0    0  0.12765011800E+02 -0.10747512459E+03  0.28800250319E+03  0.30766749873E+03  0.00000000000E+00 0. -1.
         13    1    4    4    0    0  0.39778581581E+02  0.18144410787E+01  0.15249988523E+03  0.15761295234E+03  0.00000000000E+00 0.  1.
         21    1    1    2  502  501  0.45526328829E+02  0.82932668952E+02 -0.46644706253E+02  0.10548081730E+03  0.00000000000E+00 0.  1.
<scales pt_clust_5="13000.00000" pt_clust_6="13000.00000" pt_clust_7="13000.00000" pt_clust_8="13000.00000" pt_clust_9="94.60695"></scales>
<clustering>
<clus scale="   89.704">  5  6 -1 -1</clus>
<clus scale="   92.296">  7  8 -1 -1</clus>
<clus scale="   94.607">  2  9  1 -1</clus>
<clus scale="  137.589">  2  5  1 -1</clus>
<clus scale="  139.293">  1  5  2 -1</clus>
</clustering>
</event>
<event>
 9    1  0.1175034E-005  0.1473306E+03  0.7546771E-02  0.1204553E+00
         -2   -1    0    0    0  501 -0.00000000000E+00  0.00000000000E+00  0.14743327584E+03  0.14743327584E+03  0.00000000000E+00 0.  1.
          2   -1    0    0  502    0  0.00000000000E+00 -0.00000000000E+00 -0.22772921162E+03  0.22772921162E+03  0.00000000000E+00 0. -1.
         23    2    1    2    0    0 -0.86243590419E+02  0.80890168934E+02  0.61180610827E+02  0.16038787757E+03  0.89442874572E+02 0.  0.
         23    2    1    2    0    0  0.66504505040E+02 -0.75195081682E+02 -0.13695431478E+03  0.19373854345E+03  0.93279094022E+02 0.  0.
        -11    1    3    3    0    0 -0.46905411741E+02 -0.72459489061E+01  0.27045444041E+01  0.47538784025E+02  0.00000000000E+00 0. -1.
         11    1    3    3    0    0 -0.39338178678E+02  0.88136117840E+02  0.58476066423E+02  0.11284909355E+03  0.00000000000E+00 0.  1.
        -13    1    4    4    0    0  0.83470951035E+02 -0.45791749970E+02 -0.68369374306E+02  0.11721201037E+03  0.00000000000E+00 0.  1.
         13    1    4    4    0    0 -0.16966445995E+02 -0.29403331712E+02 -0.68584940474E+02  0.76526533080E+02  0.00000000000E+00 0. -1.
         21    1    1    2  502  501  0.19739085379E+02 -0.56950872519E+01 -0.45222318324E+01  0.21036066437E+02  0.00000000000E+00 0. -1.
<scales pt_clust_5="13000.00000" pt_clust_6="13000.00000" pt_clust_7="13000.00000" pt_clust_8="13000.00000" pt_clust_9="20.54423"></scales>
<clustering>
<clus scale="   20.544">  2  9  1 -1</clus>
<clus scale="   89.443">  5  6 -1 -1</clus>
<clus scale="   93.279">  7  8 -1 -1</clus>
<clus scale="  144.932">  1  5  2 -1</clus>
<clus scale="   20.544">  2  5  1 -1</clus>
</clustering>
</event>
<event>
 9    1  0.1175034E-005  0.1348011E+03  0.7546771E-02  0.1222618E+00
          1   -1    0    0  502    0  0.00000000000E+00  0.00000000000E+00  0.72324847808E+03  0.72324847808E+03  0.00000000000E+00 0. -1.
         -1   -1    0    0    0  501 -0.00000000000E+00 -0.00000000000E+00 -0.40854786376E+02  0.40854786376E+02  0.00000000000E+00 0.  1.
         23    2    1    2    0    0  0.31728773136E+02  0.77643191046E+02  0.19611831148E+03  0.23507723987E+03  0.98811620997E+02 0.  0.
         23    2    1    2    0    0 -0.51621811759E+02 -0.80495251083E+02  0.49100399560E+03  0.50838075792E+03  0.90674000886E+02 0.  0.
        -11    1    3    3    0    0  0.92208227588E+01  0.39334894128E+02  0.18488528377E+03  0.18924805316E+03  0.00000000000E+00 0. -1.
         11    1    3    3    0    0  0.22507950377E+02  0.38308296917E+02  0.11233027711E+02  0.45829186710E+02  0.00000000000E+00 0.  1.
        -11    1    4    4    0    0 -0.72888053232E+02 -0.81399183157E+02  0.43368218348E+03  0.44723453757E+03  0.00000000000E+00 0. -1.
         11    1    4    4    0    0  0.21266241474E+02  0.90393207345E+00  0.57321812119E+02  0.61146220359E+02  0.00000000000E+00 0.  1.
         21    1    1    2  502  501  0.19893038622E+02  0.28520600374E+01 -0.47286153824E+01  0.20645266661E+02  0.00000000000E+00 0.  1.
<scales pt_clust_5="13000.00000" pt_clust_6="13000.00000" pt_clust_7="13000.00000" pt_clust_8="13000.00000" pt_clust_9="20.09645"></scales>
<clustering>
<clus scale="   20.096">  2  9  1 -1</clus>
<clus scale="   90.674">  7  8 -1 -1</clus>
<clus scale="   98.812">  5  6 -1 -1</clus>
<clus scale="  128.955">  1  7  2 -1</clus>
<clus scale="  128.955">  1  5  2 -1</clus>
</clustering>
</event>
<event>
 9    1  0.1175034E-005  0.1630357E+03  0.7546771E-02  0.1209084E+00
         -1   -1    0    0    0  501 -0.00000000000E+00  0.00000000000E+00  0.25346606574E+03  0.25346606574E+03  0.00000000000E+00 0.  1.
          1   -1    0    0  502    0  0.00000000000E+00 -0.00000000000E+00 -0.57109603521E+03  0.57109603521E+03  0.00000000000E+00 0. -1.
         23    2    1    2    0    0 -0.22424185523E+02  0.12338653167E+03 -0.41958694411E+03  0.44704590252E+03  0.89831815088E+02 0.  0.
         23    2    1    2    0    0  0.43443770486E+02  0.11896369428E+02 -0.96214350620E+02  0.13665283377E+03  0.85952957555E+02 0.  0.
        -13    1    4    4    0    0  0.45688911024E+02  0.37992413663E+02 -0.92862569614E+02  0.11024680005E+03  0.00000000000E+00 0. -1.
         13    1    4    4    0    0 -0.22451405379E+01 -0.26096044235E+02 -0.33517810060E+01  0.26406033717E+02  0.00000000000E+00 0.  1.
        -13    1    3    3    0    0  0.33656278018E+02  0.32554450317E+02 -0.14809181622E+03  0.15531813582E+03  0.00000000000E+00 0.  1.
         13    1    3    3    0    0 -0.56080463541E+02  0.90832081356E+02 -0.27149512789E+03  0.29172776670E+03  0.00000000000E+00 0. -1.
         21    1    1    2  502  501 -0.21019584963E+02 -0.13528290110E+03  0.19817132526E+03  0.24086336466E+03  0.00000000000E+00 0.  1.
<scales pt_clust_5="13000.00000" pt_clust_6="13000.00000" pt_clust_7="13000.00000" pt_clust_8="13000.00000" pt_clust_9="136.05475"></scales>
<clustering>
<clus scale="   85.953">  5  6 -1 -1</clus>
<clus scale="   89.832">  7  8 -1 -1</clus>
<clus scale="   97.040">  2  5  1 -1</clus>
<clus scale="  136.055">  1  9  2 -1</clus>
<clus scale="   97.040">  2  5  1 -1</clus>
</clustering>
</event>
<event>
 9    1  0.1175034E-005  0.1328739E+03  0.7546771E-02  0.1223438E+00
          1   -1    0    0  502    0  0.00000000000E+00  0.00000000000E+00  0.23524680753E+03  0.23524680753E+03  0.00000000000E+00 0. -1.
         -1   -1    0    0    0  501 -0.00000000000E+00 -0.00000000000E+00 -0.16079332943E+03  0.16079332943E+03  0.00000000000E+00 0.  1.
         23    2    1    2    0    0 -0.17477311685E+02 -0.11608098861E+03 -0.37668675777E+02  0.15320065061E+03  0.90946456079E+02 0.  0.
         23    2    1    2    0    0 -0.13433094771E+02  0.90614567963E+02  0.14245961803E+03  0.19259654119E+03  0.91690986183E+02 0.  0.
        -11    1    3    3    0    0  0.22872435875E+02 -0.58151754881E+02 -0.51844186636E+02  0.81194794209E+02  0.00000000000E+00 0.  1.
         11    1    3    3    0    0 -0.40349747560E+02 -0.57929233727E+02  0.14175510859E+02  0.72005856404E+02  0.00000000000E+00 0. -1.
        -13    1    4    4    0    0  0.56909010636E+01  0.58444925912E+02  0.16211360556E+02  0.60918009905E+02  0.00000000000E+00 0.  1.
         13    1    4    4    0    0 -0.19123995834E+02  0.32169642051E+02  0.12624825747E+03  0.13167853128E+03  0.00000000000E+00 0. -1.
         21    1    1    2  502  501  0.30910406456E+02  0.25466420646E+02 -0.30337464147E+02  0.50242945163E+02  0.00000000000E+00 0.  1.
<scales pt_clust_5="13000.00000" pt_clust_6="13000.00000" pt_clust_7="13000.00000" pt_clust_8="13000.00000" pt_clust_9="40.04987"></scales>
<clustering>
<clus scale="   40.050">  2  9  1 -1</clus>
<clus scale="   90.946">  5  6 -1 -1</clus>
<clus scale="   91.691">  7  8 -1 -1</clus>
<clus scale="  132.361">  2  5  1 -1</clus>
<clus scale="  132.874">  1  5  2 -1</clus>
</clustering>
</event>
<event>
 9    1  0.1175034E-005  0.1079042E+03  0.7546771E-02  0.1266231E+00
         -1   -1    0    0    0  501 -0.00000000000E+00  0.00000000000E+00  0.17315500959E+03  0.17315500959E+03  0.00000000000E+00 0.  1.
          1   -1    0    0  502    0  0.00000000000E+00 -0.00000000000E+00 -0.12775823331E+03  0.12775823331E+03  0.00000000000E+00 0. -1.
         23    2    1    2    0    0 -0.75483336287E+02  0.31833234384E+02  0.79838122749E+02  0.14655306660E+03  0.91611061647E+02 0.  0.
         23    2    1    2    0    0  0.48354124116E+02 -0.14807508437E+02 -0.56295463760E+02  0.11558554620E+03  0.87369649343E+02 0.  0.
        -11    1    3    3    0    0 -0.70747034788E+02  0.45845904192E+01  0.92161049667E+02  0.11627476285E+03  0.00000000000E+00 0.  1.
         11    1    3    3    0    0 -0.47363014996E+01  0.27248643965E+02 -0.12322926917E+02  0.30278303744E+02  0.00000000000E+00 0. -1.
        -13    1    4    4    0    0  0.24587819535E+02 -0.51587539286E+02 -0.30999442217E+02  0.65013848501E+02  0.00000000000E+00 0. -1.
         13    1    4    4    0    0  0.23766304582E+02  0.36780030849E+02 -0.25296021543E+02  0.50571697704E+02  0.00000000000E+00 0.  1.
         21    1    1    2  502  501  0.27129212171E+02 -0.17025725947E+02  0.21854117291E+02  0.38774630103E+02  0.00000000000E+00 0.  1.
<scales pt_clust_5="13000.00000" pt_clust_6="13000.00000" pt_clust_7="13000.00000" pt_clust_8="13000.00000" pt_clust_9="32.02920"></scales>
<clustering>
<clus scale="   32.029">  1  9  2 -1</clus>
<clus scale="   87.370">  7  8 -1 -1</clus>
<clus scale="   91.611">  5  6 -1 -1</clus>
<clus scale="  104.327">  2  7  1 -1</clus>
<clus scale="  104.327">  2  5  1 -1</clus>
</clustering>
</event>
<event>
 9    1  0.1175034E-005  0.9656845E+02  0.7546771E-02  0.1288171E+00
          2   -1    0    0  502    0  0.00000000000E+00  0.00000000000E+00  0.20749593413E+03  0.20749593413E+03  0.00000000000E+00 0. -1.
         -2   -1    0    0    0  501 -0.00000000000E+00 -0.00000000000E+00 -0.58257525695E+02  0.58257525695E+02  0.00000000000E+00 0.  1.
         23    2    1    2    0    0  0.29485242466E+02  0.30100695196E+02  0.73606314531E+02  0.12380551757E+03  0.90191381341E+02 0.  0.
         23    2    1    2    0    0 -0.23092691053E+02 -0.71823092293E+01  0.70191198828E+02  0.11754055673E+03  0.91126945173E+02 0.  0.
        -11    1    4    4    0    0  0.33759914065E+02  0.93933624495E+01  0.24947463450E+02  0.43015613310E+02  0.00000000000E+00 0.  1.
         11    1    4    4    0    0 -0.56852605118E+02 -0.16575671679E+02  0.45243735378E+02  0.74524943417E+02  0.00000000000E+00 0. -1.
        -13    1    3    3    0    0 -0.50688718037E+01  0.20522441776E+02  0.83882381746E+02  0.86505017457E+02  0.00000000000E+00 0. -1.
         13    1    3    3    0    0  0.34554114270E+02  0.95782534200E+01 -0.10276067214E+02  0.37300500117E+02  0.00000000000E+00 0.  1.
         21    1    1    2  502  501 -0.63925514134E+01 -0.22918385967E+02  0.54408950735E+01  0.24407385524E+02  0.00000000000E+00 0. -1.
<scales pt_clust_5="13000.00000" pt_clust_6="13000.00000" pt_clust_7="13000.00000" pt_clust_8="13000.00000" pt_clust_9="23.79322"></scales>
<clustering>
<clus scale="   23.793">  2  9  1 -1</clus>
<clus scale="   90.191">  7  8 -1 -1</clus>
<clus scale="   91.127">  5  6 -1 -1</clus>
<clus scale="   95.686">  2  7  1 -1</clus>
<clus scale="   96.568">  1  5  2 -1</clus>
</clustering>
</event>
<event>
 9    1  0.1175034E-005  0.1147251E+03  0.7546771E-02  0.1263443E+00
         -1   -1    0    0    0  501 -0.00000000000E+00  0.00000000000E+00  0.32337246771E+03  0.32337246771E+03  0.00000000000E+00 0.  1.
          1   -1    0    0  502    0  0.00000000000E+00 -0.00000000000E+00 -0.15261347442E+03  0.15261347442E+03  0.00000000000E+00 0. -1.
         23    2    1    2    0    0 -0.16507804857E+00 -0.34607814399E+02  0.12676659166E+03  0.17268220989E+03  0.11203414115E+03 0.  0.
         23    2    1    2    0    0 -0.99928400241E+01 -0.29925788738E+02 -0.10492088449E+03  0.14069089137E+03  0.88261686075E+02 0.  0.
        -13    1    3    3    0    0 -0.20206905102E+02  0.96422921421E+01 -0.12180459931E+02  0.25488358435E+02  0.00000000000E+00 0. -1.
         13    1    3    3    0    0  0.20041827054E+02 -0.44250106541E+02  0.13894705159E+03  0.14719385145E+03  0.00000000000E+00 0.  1.
        -13    1    4    4    0    0  0.52529335930E+01 -0.58903697883E+02 -0.80285611755E+02  0.99714684929E+02  0.00000000000E+00 0.  1.
         13    1    4    4    0    0 -0.15245773617E+02  0.28977909145E+02 -0.24635272739E+02  0.40976206443E+02  0.00000000000E+00 0. -1.
         21    1    1    2  502  501  0.10157918073E+02  0.64533603137E+02  0.14891328612E+03  0.16261284087E+03  0.00000000000E+00 0.  1.
<scales pt_clust_5="13000.00000" pt_clust_6="13000.00000" pt_clust_7="13000.00000" pt_clust_8="13000.00000" pt_clust_9="65.32817"></scales>
<clustering>
<clus scale="   65.328">  1  9  2 -1</clus>
<clus scale="   88.262">  7  8 -1 -1</clus>
<clus scale="   91.653">  2  7  1 -1</clus>
<clus scale="  112.034">  5  6 -1 -1</clus>
<clus scale="   91.653">  2  5  1 -1</clus>
</clustering>
</event>
<event>
 9    1  0.1175034E-005  0.1069920E+03  0.7546771E-02  0.1266870E+00
         -1   -1    0    0    0  501 -0.00000000000E+00  0.00000000000E+00  0.13526179011E+03  0.13526179011E+03  0.00000000000E+00 0.  1.
          1   -1    0    0  502    0  0.00000000000E+00 -0.00000000000E+00 -0.11837657534E+03  0.11837657534E+03  0.00000000000E+00 0. -1.
         23    2    1    2    0    0 -0.15522408728E+01 -0.38549125800E+02  0.19646251894E+02  0.10108035583E+03  0.91339030922E+02 0.  0.
         23    2    1    2    0    0 -0.12852127368E+02  0.63440916018E+02 -0.25362749332E+02  0.11598036017E+03  0.92834518838E+02 0.  0.
        -11    1    4    4    0    0 -0.34452271075E+02 -0.30355800317E+01  0.12143473442E+02  0.36655663622E+02  0.00000000000E+00 0.  1.
         11    1    4    4    0    0  0.21600143707E+02  0.66476496050E+02 -0.37506222774E+02  0.79324696546E+02  0.00000000000E+00 0. -1.
        -13    1    3    3    0    0  0.10406272070E+02 -0.62613249859E+02 -0.62276635174E+01  0.63776902944E+02  0.00000000000E+00 0.  1.
         13    1    3    3    0    0 -0.11958512943E+02  0.24064124059E+02  0.25873915411E+02  0.37303452886E+02  0.00000000000E+00 0. -1.
         21    1    1    2  502  501  0.14404368241E+02 -0.24891790218E+02  0.22601712213E+02  0.36577649455E+02  0.00000000000E+00 0.  1.
<scales pt_clust_5="13000.00000" pt_clust_6="13000.00000" pt_clust_7="13000.00000" pt_clust_8="13000.00000" pt_clust_9="28.75912"></scales>
<clustering>
<clus scale="   28.759">  1  9  2 -1</clus>
<clus scale="   91.339">  7  8 -1 -1</clus>
<clus scale="   92.835">  5  6 -1 -1</clus>
<clus scale="  105.697">  1  7  2 -1</clus>
<clus scale="  106.992">  2  5  1 -1</clus>
</clustering>
</event>
<event>
 9    1  0.1175034E-005  0.1183721E+03  0.7546771E-02  0.1250926E+00
          1   -1    0    0  502    0  0.00000000000E+00  0.00000000000E+00  0.84887953382E+03  0.84887953382E+03  0.00000000000E+00 0. -1.
         -1   -1    0    0    0  501 -0.00000000000E+00 -0.00000000000E+00 -0.23992255159E+02  0.23992255159E+02  0.00000000000E+00 0.  1.
         23    2    1    2    0    0 -0.72114114347E+02  0.17760269292E+02  0.20199790706E+03  0.23161661610E+03  0.85599239150E+02 0.  0.
         23    2    1    2    0    0  0.85062925910E+02  0.17568924756E+02  0.52078531619E+03  0.53243852983E+03  0.68768263097E+02 0.  0.
        -11    1    4    4    0    0  0.85256706925E+02 -0.45252621850E+01  0.45772718032E+03  0.46562147252E+03  0.00000000000E+00 0. -1.
         11    1    4    4    0    0 -0.19378101560E+00  0.22094186941E+02  0.63058135870E+02  0.66817057307E+02  0.00000000000E+00 0.  1.
        -13    1    3    3    0    0 -0.22208638701E+02  0.13606869626E+02  0.27713247963E+01  0.26192570990E+02  0.00000000000E+00 0.  1.
         13    1    3    3    0    0 -0.49905475646E+02  0.41533996659E+01  0.19922658227E+03  0.20542404511E+03  0.00000000000E+00 0. -1.
         21    1    1    2  502  501 -0.12948811563E+02 -0.35329194048E+02  0.10210405541E+03  0.10881664305E+03  0.00000000000E+00 0.  1.
<scales pt_clust_5="13000.00000" pt_clust_6="13000.00000" pt_clust_7="13000.00000" pt_clust_8="13000.00000" pt_clust_9="37.62743"></scales>
<clustering>
<clus scale="   37.627">  2  9  1 -1</clus>
<clus scale="   68.768">  5  6 -1 -1</clus>
<clus scale="   85.599">  7  8 -1 -1</clus>
<clus scale="  106.835">  1  5  2 -1</clus>
<clus scale="  106.835">  1  5  2 -1</clus>
</clustering>
</event>
<event>
 9    1  0.1175034E-005  0.1021433E+03  0.7546771E-02  0.1279028E+00
          1   -1    0    0  502    0  0.00000000000E+00  0.00000000000E+00  0.46027971229E+03  0.46027971229E+03  0.00000000000E+00 0. -1.
         -1   -1    0    0    0  501 -0.00000000000E+00 -0.00000000000E+00 -0.32740502115E+02  0.32740502115E+02  0.00000000000E+00 0.  1.
         23    2    1    2    0    0 -0.42849218619E+02  0.47204647830E+02  0.17942523443E+03  0.21128142141E+03  0.91553754553E+02 0.  0.
         23    2    1    2    0    0  0.70823169456E+01 -0.35801885967E+02  0.20331453810E+03  0.22328980800E+03  0.84791524923E+02 0.  0.
        -11    1    4    4    0    0  0.32596104024E+02 -0.15374923077E+02  0.29918176533E+02  0.46840063452E+02  0.00000000000E+00 0.  1.
         11    1    4    4    0    0 -0.25513787078E+02 -0.20426962891E+02  0.17339636157E+03  0.17644974454E+03  0.00000000000E+00 0. -1.
        -13    1    3    3    0    0 -0.26662512674E+01 -0.25552663444E+02  0.24668694213E+02  0.35617298874E+02  0.00000000000E+00 0.  1.
         13    1    3    3    0    0 -0.40182967351E+02  0.72757311274E+02  0.15475654021E+03  0.17566412254E+03  0.00000000000E+00 0. -1.
         21    1    1    2  502  501  0.35766901673E+02 -0.11402761863E+02  0.44799437641E+02  0.58448984990E+02  0.00000000000E+00 0. -1.
<scales pt_clust_5="13000.00000" pt_clust_6="13000.00000" pt_clust_7="13000.00000" pt_clust_8="13000.00000" pt_clust_9="37.54057"></scales>
<clustering>
<clus scale="   37.541">  2  9  1 -1</clus>
<clus scale="   84.792">  5  6 -1 -1</clus>
<clus scale="   91.554">  7  8 -1 -1</clus>
<clus scale="   96.129">  1  5  2 -1</clus>
<clus scale="   96.129">  1  5  2 -1</clus>
</clustering>
</event>
<event>
 9    1  0.1175034E-005  0.1118345E+03  0.7546771E-02  0.1260827E+00
          1   -1    0    0  502    0  0.00000000000E+00  0.00000000000E+00  0.31589533081E+02  0.31589533081E+02  0.00000000000E+00 0. -1.
         -1   -1    0    0    0  501 -0.00000000000E+00 -0.00000000000E+00 -0.57001767189E+03  0.57001767189E+03  0.00000000000E+00 0.  1.
         23    2    1    2    0    0  0.24784041031E+02 -0.25115954277E+02 -0.28280220945E+03  0.29907493673E+03  0.90684443345E+02 0.  0.
         23    2    1    2    0    0 -0.19865107762E+02  0.58335591524E+02 -0.14159482181E+03  0.18365908500E+03  0.99417816284E+02 0.  0.
        -11    1    3    3    0    0  0.17033783983E+02  0.26847551808E+02 -0.42391171283E+02  0.52990114527E+02  0.00000000000E+00 0.  1.
         11    1    3    3    0    0  0.77502570482E+01 -0.51963506085E+02 -0.24041103816E+03  0.24608482221E+03  0.00000000000E+00 0. -1.
        -11    1    4    4    0    0  0.26197478422E+02 -0.10584863995E+02 -0.64655596715E+02  0.70559856916E+02  0.00000000000E+00 0.  1.
         11    1    4    4    0    0 -0.46062586184E+02  0.68920455519E+02 -0.76939225093E+02  0.11309922808E+03  0.00000000000E+00 0. -1.
         21    1    1    2  502  501 -0.49189332690E+01 -0.33219637248E+02 -0.11403110756E+03  0.11887318324E+03  0.00000000000E+00 0. -1.
<scales pt_clust_5="13000.00000" pt_clust_6="13000.00000" pt_clust_7="13000.00000" pt_clust_8="13000.00000" pt_clust_9="33.58184"></scales>
<clustering>
<clus scale="   33.582">  2  9  1 -1</clus>
<clus scale="   90.684">  5  6 -1 -1</clus>
<clus scale="   99.418">  7  8 -1 -1</clus>
<clus scale="  104.148">  2  5  1 -1</clus>
<clus scale="  111.834">  1  5  2 -1</clus>
</clustering>
</event>
<event>
 9    1  0.1175034E-005  0.9188574E+02  0.7546771E-02  0.1298574E+00
         -1   -1    0    0    0  501 -0.00000000000E+00  0.00000000000E+00  0.15992129677E+02  0.15992129677E+02  0.00000000000E+00 0.  1.
          1   -1    0    0  502    0  0.00000000000E+00 -0.00000000000E+00 -0.10258592652E+04  0.10258592652E+04  0.00000000000E+00 0. -1.
         23    2    1    2    0    0  0.11420936316E+02  0.13043625905E+02 -0.24172720014E+03  0.25889441678E+03  0.91069785281E+02 0.  0.
         23    2    1    2    0    0  0.35602276356E+02 -0.59063347963E+01 -0.39891502335E+03  0.41068132872E+03  0.90683796941E+02 0.  0.
        -11    1    3    3    0    0  0.35466227287E+02  0.15111421096E+02 -0.22778160913E+03  0.23102092932E+03  0.00000000000E+00 0. -1.
         11    1    3    3    0    0 -0.24045290971E+02 -0.20677951906E+01 -0.13945591009E+02  0.27873487464E+02  0.00000000000E+00 0.  1.
        -11    1    4    4    0    0  0.58924250371E+02 -0.25262902051E+02 -0.21750542986E+03  0.22675734502E+03  0.00000000000E+00 0. -1.
         11    1    4    4    0    0 -0.23321974015E+02  0.19356567254E+02 -0.18140959349E+03  0.18392398369E+03  0.00000000000E+00 0.  1.
         21    1    1    2  502  501 -0.47023212672E+02 -0.71372911089E+01 -0.36922491206E+03  0.37227564941E+03  0.00000000000E+00 0.  1.
<scales pt_clust_5="13000.00000" pt_clust_6="13000.00000" pt_clust_7="13000.00000" pt_clust_8="13000.00000" pt_clust_9="47.56179"></scales>
<clustering>
<clus scale="   47.562">  2  9  1 -1</clus>
<clus scale="   90.684">  7  8 -1 -1</clus>
<clus scale="   91.070">  5  6 -1 -1</clus>
<clus scale="   91.503">  2  7  1 -1</clus>
<clus scale="   47.562">  2  5  1 -1</clus>
</clustering>
</event>
<event>
 9    1  0.1175034E-005  0.1393434E+03  0.7546771E-02  0.1214401E+00
         -2   -1    0    0    0  501 -0.00000000000E+00  0.00000000000E+00  0.10100258876E+03  0.10100258876E+03  0.00000000000E+00 0.  1.
          2   -1    0    0  502    0  0.00000000000E+00 -0.00000000000E+00 -0.38947554413E+03  0.38947554413E+03  0.00000000000E+00 0. -1.
         23    2    1    2    0    0  0.56974559387E+02 -0.54313662137E+02 -0.72736549393E+02  0.14173270024E+03  0.92744155551E+02 0.  0.
         23    2    1    2    0    0 -0.40941388290E+02  0.11867017585E+03 -0.23303634311E+03  0.28020266310E+03  0.91917285037E+02 0.  0.
        -11    1    4    4    0    0  0.18295741966E+02  0.84375754662E+02 -0.11572219541E+03  0.14438015328E+03  0.00000000000E+00 0.  1.
         11    1    4    4    0    0 -0.59237130256E+02  0.34294421184E+02 -0.11731414770E+03  0.13582250982E+03  0.00000000000E+00 0. -1.
        -11    1    3    3    0    0  0.14934359977E+02 -0.17367542227E+02  0.21961064349E+02  0.31732553920E+02  0.00000000000E+00 0.  1.
         11    1    3    3    0    0  0.42040199409E+02 -0.36946119909E+02 -0.94697613742E+02  0.11000014632E+03  0.00000000000E+00 0. -1.
         21    1    1    2  502  501 -0.16033171097E+02 -0.64356513710E+02  0.17299937137E+02  0.68542769547E+02  0.00000000000E+00 0.  1.
<scales pt_clust_5="13000.00000" pt_clust_6="13000.00000" pt_clust_7="13000.00000" pt_clust_8="13000.00000" pt_clust_9="66.32363"></scales>
<clustering>
<clus scale="   66.324">  1  9  2 -1</clus>
<clus scale="   91.917">  5  6 -1 -1</clus>
<clus scale="   92.744">  7  8 -1 -1</clus>
<clus scale="  138.794">  2  5  1 -1</clus>
<clus scale="  138.794">  2  5  1 -1</clus>
</clustering>
</event>
<event>
 9    1  0.1175034E-005  0.1273613E+03  0.7546771E-02  0.1232517E+00
          2   -1    0    0  502    0  0.00000000000E+00  0.00000000000E+00  0.54364393288E+03  0.54364393288E+03  0.00000000000E+00 0. -1.
         -2   -1    0    0    0  501 -0.00000000000E+00 -0.00000000000E+00 -0.53501804856E+02  0.53501804856E+02  0.00000000000E+00 0.  1.
         23    2    1    2    0    0  0.78477711537E+02  0.76902506282E+02  0.15073750609E+03  0.20749823680E+03  0.90889910610E+02 0.  0.
         23    2    1    2    0    0 -0.41244777530E+02 -0.64131440402E+02  0.32619887960E+03  0.34812903361E+03  0.94731946415E+02 0.  0.
        -11    1    3    3    0    0  0.24454211468E+02  0.37368633933E+01  0.10069803733E+03  0.10369217584E+03  0.00000000000E+00 0. -1.
         11    1    3    3    0    0  0.54023500069E+02  0.73165642889E+02  0.50039468761E+02  0.10380606096E+03  0.00000000000E+00 0.  1.
        -13    1    4    4    0    0  0.25557372723E+02 -0.26563825641E+02  0.54263212520E+02  0.65599636936E+02  0.00000000000E+00 0.  1.
         13    1    4    4    0    0 -0.66802150253E+02 -0.37567614761E+02  0.27193566708E+03  0.28252939667E+03  0.00000000000E+00 0. -1.
         21    1    1    2  502  501 -0.37232934007E+02 -0.12771065881E+02  0.13205742332E+02  0.41518467325E+02  0.00000000000E+00 0. -1.
<scales pt_clust_5="13000.00000" pt_clust_6="13000.00000" pt_clust_7="13000.00000" pt_clust_8="13000.00000" pt_clust_9="39.36231"></scales>
<clustering>
<clus scale="   39.362">  2  9  1 -1</clus>
<clus scale="   90.890">  5  6 -1 -1</clus>
<clus scale="   94.732">  7  8 -1 -1</clus>
<clus scale="  124.530">  2  5  1 -1</clus>
<clus scale="  127.361">  1  5  2 -1</clus>
</clustering>
</event>
<event>
 9    1  0.1175034E-005  0.1017340E+03  0.7546771E-02  0.1279870E+00
          1   -1    0    0  502    0  0.00000000000E+00  0.00000000000E+00  0.27206905616E+03  0.27206905616E+03  0.00000000000E+00 0. -1.
         -1   -1    0    0    0  501 -0.00000000000E+00 -0.00000000000E+00 -0.36679915085E+03  0.36679915085E+03  0.00000000000E+00 0.  1.
         23    2    1    2    0    0  0.39356399274E+01 -0.50056445324E+02 -0.28644703842E+03  0.30450382221E+03  0.90274774662E+02 0.  0.
         23    2    1    2    0    0 -0.16414688721E+02  0.26844470380E+02  0.25029633638E+03  0.27012991054E+03  0.96601474960E+02 0.  0.
        -11    1    4    4    0    0 -0.22267104424E+02 -0.33710813409E+02  0.11116569820E+03  0.11827956433E+03  0.00000000000E+00 0.  1.
         11    1    4    4    0    0  0.58524157031E+01  0.60555283788E+02  0.13913063818E+03  0.15185034621E+03  0.00000000000E+00 0. -1.
        -13    1    3    3    0    0  0.61700373235E+01 -0.75397973120E+02 -0.18398089466E+03  0.19892685418E+03  0.00000000000E+00 0.  1.
         13    1    3    3    0    0 -0.22343973961E+01  0.25341527796E+02 -0.10246614376E+03  0.10557696804E+03  0.00000000000E+00 0. -1.
         21    1    1    2  502  501  0.12479048793E+02  0.23211974944E+02 -0.58579392651E+02  0.64234474256E+02  0.00000000000E+00 0. -1.
<scales pt_clust_5="13000.00000" pt_clust_6="13000.00000" pt_clust_7="13000.00000" pt_clust_8="13000.00000" pt_clust_9="26.35379"></scales>
<clustering>
<clus scale="   26.354">  2  9  1 -1</clus>
<clus scale="   90.275">  7  8 -1 -1</clus>
<clus scale="   95.747">  2  7  1 -1</clus>
<clus scale="   96.601">  5  6 -1 -1</clus>
<clus scale="  101.734">  1  5  2 -1</clus>
</clustering>
</event>
<event>
 9    1  0.1175034E-005  0.1054928E+03  0.7546771E-02  0.1273282E+00
         -1   -1    0    0    0  501 -0.00000000000E+00  0.00000000000E+00  0.19710239430E+03  0.19710239430E+03  0.00000000000E+00 0.  1.
          1   -1    0    0  502    0  0.00000000000E+00 -0.00000000000E+00 -0.42710299502E+03  0.42710299502E+03  0.00000000000E+00 0. -1.
         23    2    1    2    0    0  0.35097406970E+02 -0.58034746032E+02  0.14129866980E+03  0.18525936721E+03  0.98771753692E+02 0.  0.
         23    2    1    2    0    0 -0.12255373232E+02  0.33823037274E+02 -0.38923123301E+03  0.40113702021E+03  0.90087536356E+02 0.  0.
        -11    1    3    3    0    0  0.13896379859E+01 -0.72523047689E+02  0.12624856315E+03  0.14560296438E+03  0.00000000000E+00 0. -1.
         11    1    3    3    0    0  0.33707768984E+02  0.14488301657E+02  0.15050106653E+02  0.39656402826E+02  0.00000000000E+00 0.  1.
        -13    1    4    4    0    0 -0.47758946644E+02  0.11969846583E+02 -0.27847767303E+03  0.28279676198E+03  0.00000000000E+00 0. -1.
         13    1    4    4    0    0  0.35503573412E+02  0.21853190691E+02 -0.11075355999E+03  0.11834025823E+03  0.00000000000E+00 0.  1.
         21    1    1    2  502  501 -0.22842033738E+02  0.24211708758E+02  0.17931962491E+02  0.37809001905E+02  0.00000000000E+00 0. -1.
<scales pt_clust_5="13000.00000" pt_clust_6="13000.00000" pt_clust_7="13000.00000" pt_clust_8="13000.00000" pt_clust_9="33.28611"></scales>
<clustering>
<clus scale="   33.286">  1  9  2 -1</clus>
<clus scale="   90.088">  7  8 -1 -1</clus>
<clus scale="   97.410">  2  7  1 -1</clus>
<clus scale="   98.772">  5  6 -1 -1</clus>
<clus scale="   97.410">  2  5  1 -1</clus>
</clustering>
</event>
<event>
 9    1  0.1175034E-005  0.9400003E+02  0.7546771E-02  0.1293466E+00
         -3   -1    0    0    0  501 -0.00000000000E+00  0.00000000000E+00  0.83456093330E+02  0.83456093330E+02  0.00000000000E+00 0.  1.
          3   -1    0    0  502    0  0.00000000000E+00 -0.00000000000E+00 -0.28991195835E+03  0.28991195835E+03  0.00000000000E+00 0. -1.
         23    2    1    2    0    0 -0.18033832945E+02  0.38909435210E+02 -0.10106608517E+02  0.10182837400E+03  0.91802564984E+02 0.  0.
         23    2    1    2    0    0 -0.27555442282E+02 -0.11418836900E+00 -0.18807651773E+03  0.21110879649E+03  0.91841341437E+02 0.  0.
        -11    1    3    3    0    0  0.32575874902E+02  0.27063884855E+02  0.13900879526E+02  0.44574386599E+02  0.00000000000E+00 0.  1.
         11    1    3    3    0    0 -0.50609707848E+02  0.11845550356E+02 -0.24007488044E+02  0.57253987405E+02  0.00000000000E+00 0. -1.
        -11    1    4    4    0    0  0.16349211621E+02  0.35611872656E+02 -0.72305130713E+02  0.82240708424E+02  0.00000000000E+00 0.  1.
         11    1    4    4    0    0 -0.43904653903E+02 -0.35726061025E+02 -0.11577138702E+03  0.12886808807E+03  0.00000000000E+00 0. -1.
         21    1    1    2  502  501  0.45589275227E+02 -0.38795246841E+02 -0.82727387685E+01  0.60430881178E+02  0.00000000000E+00 0.  1.
<scales pt_clust_5="13000.00000" pt_clust_6="13000.00000" pt_clust_7="13000.00000" pt_clust_8="13000.00000" pt_clust_9="59.86195"></scales>
<clustering>
<clus scale="   59.862">  1  9  2 -1</clus>
<clus scale="   91.803">  5  6 -1 -1</clus>
<clus scale="   91.841">  7  8 -1 -1</clus>
<clus scale="   93.962">  1  5  2 -1</clus>
<clus scale="   94.000">  2  5  1 -1</clus>
</clustering>
</event>
<event>
 9    1  0.1175034E-005  0.2317107E+03  0.7546771E-02  0.1126275E+00
          1   -1    0    0  502    0  0.00000000000E+00  0.00000000000E+00  0.17341341241E+04  0.17341341241E+04  0.00000000000E+00 0. -1.
         -1   -1    0    0    0  501 -0.00000000000E+00 -0.00000000000E+00 -0.36275927902E+02  0.36275927902E+02  0.00000000000E+00 0.  1.
         23    2    1    2    0    0 -0.11178408694E+03 -0.18705529962E+03  0.56832492675E+03  0.61476200149E+03  0.86334980743E+02 0.  0.
         23    2    1    2    0    0  0.91707433971E+02  0.17308231878E+03  0.10407952051E+04  0.10636004527E+04  0.98099549589E+02 0.  0.
        -11    1    3    3    0    0 -0.17889963357E+02 -0.10595655493E+03  0.31206645388E+03  0.33004895692E+03  0.00000000000E+00 0. -1.
         11    1    3    3    0    0 -0.93894123588E+02 -0.81098744688E+02  0.25625847287E+03  0.28471304457E+03  0.00000000000E+00 0.  1.
        -13    1    4    4    0    0  0.48597753502E+02  0.32146259060E+02  0.15425516701E+03  0.16489323870E+03  0.00000000000E+00 0.  1.
         13    1    4    4    0    0  0.43109680469E+02  0.14093605972E+03  0.88654003808E+03  0.89870721405E+03  0.00000000000E+00 0. -1.
         21    1    1    2  502  501  0.20076652973E+02  0.13972980844E+02  0.88738064401E+02  0.92047597806E+02  0.00000000000E+00 0.  1.
<scales pt_clust_5="13000.00000" pt_clust_6="13000.00000" pt_clust_7="13000.00000" pt_clust_8="13000.00000" pt_clust_9="24.46050"></scales>
<clustering>
<clus scale="   24.461">  1  9  2 -1</clus>
<clus scale="   86.335">  5  6 -1 -1</clus>
<clus scale="   98.100">  7  8 -1 -1</clus>
<clus scale="  226.980">  2  5  1 -1</clus>
<clus scale="   24.461">  1  5  2 -1</clus>
</clustering>
</event>
<event>
 9    1  0.1175034E-005  0.1022730E+03  0.7546771E-02  0.1275713E+00
          2   -1    0    0  502    0  0.00000000000E+00  0.00000000000E+00  0.18282858718E+03  0.18282858718E+03  0.00000000000E+00 0. -1.
         -2   -1    0    0    0  501 -0.00000000000E+00 -0.00000000000E+00 -0.16424702106E+03  0.16424702106E+03  0.00000000000E+00 0.  1.
         23    2    1    2    0    0  0.98756881797E+01  0.76982022301E+02 -0.68562038958E+02  0.13775627883E+03  0.90842050811E+02 0.  0.
         23    2    1    2    0    0  0.59606089484E+01 -0.40959811404E+02  0.12127023276E+03  0.15723272171E+03  0.91117640505E+02 0.  0.
        -11    1    3    3    0    0 -0.23474733194E+02  0.20400293749E+02  0.12419580265E+02  0.33488521280E+02  0.00000000000E+00 0. -1.
         11    1    3    3    0    0  0.33350421374E+02  0.56581728552E+02 -0.80981619224E+02  0.10426775755E+03  0.00000000000E+00 0.  1.
        -13    1    4    4    0    0  0.27140015663E+02  0.13449441048E+02  0.10573821789E+02  0.32082294524E+02  0.00000000000E+00 0.  1.
         13    1    4    4    0    0 -0.21179406715E+02 -0.54409252453E+02  0.11069641097E+03  0.12515042718E+03  0.00000000000E+00 0. -1.
         21    1    1    2  502  501 -0.15836297128E+02 -0.36022210896E+02 -0.34126627690E+02  0.52086607704E+02  0.00000000000E+00 0.  1.
<scales pt_clust_5="13000.00000" pt_clust_6="13000.00000" pt_clust_7="13000.00000" pt_clust_8="13000.00000" pt_clust_9="39.34956"></scales>
<clustering>
<clus scale="   39.350">  2  9  1 -1</clus>
<clus scale="   90.842">  5  6 -1 -1</clus>
<clus scale="   91.118">  7  8 -1 -1</clus>
<clus scale="  102.028">  2  5  1 -1</clus>
<clus scale="  102.273">  1  5  2 -1</clus>
</clustering>
</event>
<event>
 9    1  0.1175034E-005  0.1111853E+03  0.7546771E-02  0.1259087E+00
          2   -1    0    0  502    0  0.00000000000E+00  0.00000000000E+00  0.41857291096E+03  0.41857291096E+03  0.00000000000E+00 0. -1.
         -2   -1    0    0    0  501 -0.00000000000E+00 -0.00000000000E+00 -0.36366211920E+02  0.36366211920E+02  0.00000000000E+00 0.  1.
         23    2    1    2    0    0  0.56886128538E+02  0.30861498860E+02  0.14637585644E+03  0.18369626053E+03  0.90166296670E+02 0.  0.
         23    2    1    2    0    0 -0.61642006254E+02 -0.93687184345E+01  0.20723204664E+03  0.23515340247E+03  0.92002672353E+02 0.  0.
        -11    1    4    4    0    0 -0.13603919074E+01 -0.40164631048E+02  0.51338213405E+02  0.65197088961E+02  0.00000000000E+00 0.  1.
         11    1    4    4    0    0 -0.60281614347E+02  0.30795912614E+02  0.15589383324E+03  0.16995631351E+03  0.00000000000E+00 0. -1.
        -13    1    3    3    0    0  0.49148105912E+01 -0.28603138112E+02  0.22222908305E+02  0.36553420175E+02  0.00000000000E+00 0.  1.
         13    1    3    3    0    0  0.51971317946E+02  0.59464636972E+02  0.12415294813E+03  0.14714284036E+03  0.00000000000E+00 0. -1.
         21    1    1    2  502  501  0.47558777167E+01 -0.21492780425E+02  0.28598795968E+02  0.36089459876E+02  0.00000000000E+00 0. -1.
<scales pt_clust_5="13000.00000" pt_clust_6="13000.00000" pt_clust_7="13000.00000" pt_clust_8="13000.00000" pt_clust_9="22.01268"></scales>
<clustering>
<clus scale="   22.013">  2  9  1 -1</clus>
<clus scale="   90.166">  7  8 -1 -1</clus>
<clus scale="   92.003">  5  6 -1 -1</clus>
<clus scale="  109.671">  2  7  1 -1</clus>
<clus scale="  111.185">  1  5  2 -1</clus>
</clustering>
</event>
<event>
 9    1  0.1175034E-005  0.9700331E+02  0.7546771E-02  0.1287465E+00
         -1   -1    0    0    0  501 -0.00000000000E+00  0.00000000000E+00  0.60742325731E+02  0.60742325731E+02  0.00000000000E+00 0.  1.
          1   -1    0    0  502    0  0.00000000000E+00 -0.00000000000E+00 -0.29220982872E+03  0.29220982872E+03  0.00000000000E+00 0. -1.
         23    2    1    2    0    0 -0.20517204621E+02  0.37552750350E+02 -0.86204139760E+02  0.13157984797E+03  0.89727018982E+02 0.  0.
         23    2    1    2    0    0 -0.14575169995E+02 -0.30466427356E+02 -0.15616563754E+03  0.18394837944E+03  0.91151857766E+02 0.  0.
        -11    1    4    4    0    0  0.21195600944E+02  0.19696790920E+02 -0.22118783198E+02  0.36420566197E+02  0.00000000000E+00 0.  1.
         11    1    4    4    0    0 -0.35770770939E+02 -0.50163218276E+02 -0.13404685434E+03  0.14752781324E+03  0.00000000000E+00 0. -1.
        -13    1    3    3    0    0 -0.34088487252E+01  0.65488971067E+02 -0.66275933878E+02  0.93235856796E+02  0.00000000000E+00 0.  1.
         13    1    3    3    0    0 -0.17108355896E+02 -0.27936220717E+02 -0.19928205882E+02  0.38343991173E+02  0.00000000000E+00 0. -1.
         21    1    1    2  502  501  0.35092374616E+02 -0.70863229941E+01  0.10902274314E+02  0.37423927038E+02  0.00000000000E+00 0. -1.
<scales pt_clust_5="13000.00000" pt_clust_6="13000.00000" pt_clust_7="13000.00000" pt_clust_8="13000.00000" pt_clust_9="35.80071"></scales>
<clustering>
<clus scale="   35.801">  1  9  2 -1</clus>
<clus scale="   89.727">  7  8 -1 -1</clus>
<clus scale="   91.152">  5  6 -1 -1</clus>
<clus scale="   95.666">  1  7  2 -1</clus>
<clus scale="   97.003">  2  5  1 -1</clus>
</clustering>
</event>
<event>
 9    1  0.1175034E-005  0.9379177E+02  0.7546771E-02  0.1293970E+00
          3   -1    0    0  502    0  0.00000000000E+00  0.00000000000E+00  0.32186437761E+03  0.32186437761E+03  0.00000000000E+00 0. -1.
         -3   -1    0    0    0  501 -0.00000000000E+00 -0.00000000000E+00 -0.81906804447E+02  0.81906804447E+02  0.00000000000E+00 0.  1.
         23    2    1    2    0    0 -0.41538885835E+02  0.27683885651E+02  0.88341444383E+01  0.10473534555E+03  0.91649189515E+02 0.  0.
         23    2    1    2    0    0  0.14547326531E+02 -0.18878703217E+01  0.24275946096E+03  0.25992860027E+03  0.91736211970E+02 0.  0.
        -13    1    3    3    0    0 -0.64093806651E+02  0.15145059816E+02 -0.17211098642E+02  0.68070630997E+02  0.00000000000E+00 0.  1.
         13    1    3    3    0    0  0.22554920815E+02  0.12538825835E+02  0.26045243080E+02  0.36664714555E+02  0.00000000000E+00 0. -1.
        -13    1    4    4    0    0 -0.21163632171E+02 -0.36782934775E+02  0.97757811376E+02  0.10657144694E+03  0.00000000000E+00 0.  1.
         13    1    4    4    0    0  0.35710958702E+02  0.34895064453E+02  0.14500164959E+03  0.15335715333E+03  0.00000000000E+00 0. -1.
         21    1    1    2  502  501  0.26991559304E+02 -0.25796015329E+02 -0.11636032232E+02  0.39107236244E+02  0.00000000000E+00 0.  1.
<scales pt_clust_5="13000.00000" pt_clust_6="13000.00000" pt_clust_7="13000.00000" pt_clust_8="13000.00000" pt_clust_9="37.33602"></scales>
<clustering>
<clus scale="   37.336">  2  9  1 -1</clus>
<clus scale="   91.649">  5  6 -1 -1</clus>
<clus scale="   91.736">  7  8 -1 -1</clus>
<clus scale="   93.707">  2  5  1 -1</clus>
<clus scale="   93.792">  1  5  2 -1</clus>
</clustering>
</event>
<event>
 9    1  0.1175034E-005  0.1534497E+03  0.7546771E-02  0.1196303E+00
         -2   -1    0    0    0  501 -0.00000000000E+00  0.00000000000E+00  0.98383749260E+03  0.98383749260E+03  0.00000000000E+00 0.  1.
          2   -1    0    0  502    0  0.00000000000E+00 -0.00000000000E+00 -0.56591622837E+02  0.56591622837E+02  0.00000000000E+00 0. -1.
         23    2    1    2    0    0  0.45643664171E+02 -0.14789810364E+03  0.34239395359E+03  0.38663621321E+03  0.91086490628E+02 0.  0.
         23    2    1    2    0    0 -0.98135633073E+02  0.65667775038E+02  0.16344818399E+03  0.22124424689E+03  0.91054098049E+02 0.  0.
        -11    1    3    3    0    0  0.11629620946E+02 -0.88656382875E+02  0.28067005023E+03  0.29456897224E+03  0.00000000000E+00 0.  1.
         11    1    3    3    0    0  0.34014043225E+02 -0.59241720761E+02  0.61723903358E+02  0.92067240976E+02  0.00000000000E+00 0. -1.
        -11    1    4    4    0    0 -0.25730662473E+02 -0.11890295538E+02  0.24806361115E+01  0.28453465076E+02  0.00000000000E+00 0.  1.
         11    1    4    4    0    0 -0.72404970600E+02  0.77558070576E+02  0.16096754788E+03  0.19279078181E+03  0.00000000000E+00 0. -1.
         21    1    1    2  502  501  0.52491968902E+02  0.82230328598E+02  0.42140373218E+03  0.43254865534E+03  0.00000000000E+00 0. -1.
<scales pt_clust_5="13000.00000" pt_clust_6="13000.00000" pt_clust_7="13000.00000" pt_clust_8="13000.00000" pt_clust_9="97.55631"></scales>
<clustering>
<clus scale="   91.054">  7  8 -1 -1</clus>
<clus scale="   91.086">  5  6 -1 -1</clus>
<clus scale="   97.556">  1  9  2 -1</clus>
<clus scale="  153.430">  2  7  1 -1</clus>
<clus scale="  153.430">  2  5  1 -1</clus>
</clustering>
</event>
<event>
 9    1  0.1175034E-005  0.9358497E+02  0.7546771E-02  0.1294851E+00
         -1   -1    0    0    0  501 -0.00000000000E+00  0.00000000000E+00  0.49477835593E+02  0.49477835593E+02  0.00000000000E+00 0.  1.
          1   -1    0    0  502    0  0.00000000000E+00 -0.00000000000E+00 -0.24592081896E+03  0.24592081896E+03  0.00000000000E+00 0. -1.
         23    2    1    2    0    0  0.18878926044E+02  0.12185246323E+02 -0.81700766122E+02  0.12418743277E+03  0.90788816474E+02 0.  0.
         23    2    1    2    0    0  0.53255226673E+01 -0.30651249844E+02 -0.97286161973E+02  0.13611759716E+03  0.89975233464E+02 0.  0.
        -13    1    4    4    0    0 -0.14460535926E+02 -0.52785757762E+02 -0.90342367810E+02  0.10562758514E+03  0.00000000000E+00 0.  1.
         13    1    4    4    0    0  0.19786058594E+02  0.22134507918E+02 -0.69437941629E+01  0.30490012018E+02  0.00000000000E+00 0. -1.
        -13    1    3    3    0    0 -0.14701756922E+02 -0.17921677316E+02  0.73912081016E+01  0.24330189716E+02  0.00000000000E+00 0.  1.
         13    1    3    3    0    0  0.33580682966E+02  0.30106923639E+02 -0.89091974224E+02  0.99857243055E+02  0.00000000000E+00 0. -1.
         21    1    1    2  502  501 -0.24204448712E+02  0.18466003521E+02 -0.17456055276E+02  0.35093624624E+02  0.00000000000E+00 0. -1.
<scales pt_clust_5="13000.00000" pt_clust_6="13000.00000" pt_clust_7="13000.00000" pt_clust_8="13000.00000" pt_clust_9="30.44419"></scales>
<clustering>
<clus scale="   30.444">  1  9  2 -1</clus>
<clus scale="   89.975">  5  6 -1 -1</clus>
<clus scale="   90.789">  7  8 -1 -1</clus>
<clus scale="   92.796">  2  5  1 -1</clus>
<clus scale="   92.796">  2  5  1 -1</clus>
</clustering>
</event>
<event>
 9    1  0.1175034E-005  0.1112946E+03  0.7546771E-02  0.1258230E+00
         -1   -1    0    0    0  501 -0.00000000000E+00  0.00000000000E+00  0.76402552456E+02  0.76402552456E+02  0.00000000000E+00 0.  1.
          1   -1    0    0  502    0  0.00000000000E+00 -0.00000000000E+00 -0.22735398427E+03  0.22735398427E+03  0.00000000000E+00 0. -1.
         23    2    1    2    0    0 -0.13816930843E+02 -0.44888800478E+02 -0.36374119255E+02  0.10877998635E+03  0.91126817633E+02 0.  0.
         23    2    1    2    0    0  0.10088263457E+02  0.75076203401E+02 -0.11409440361E+03  0.16455590843E+03  0.91229954984E+02 0.  0.
        -11    1    3    3    0    0  0.65993133442E+01  0.23394627359E+02 -0.27906389764E+02  0.37008460053E+02  0.00000000000E+00 0. -1.
         11    1    3    3    0    0 -0.20416244187E+02 -0.68283427837E+02 -0.84677294914E+01  0.71771526294E+02  0.00000000000E+00 0.  1.
        -13    1    4    4    0    0 -0.23444609832E+02  0.68254113080E+02 -0.10785370491E+03  0.12977170472E+03  0.00000000000E+00 0. -1.
         13    1    4    4    0    0  0.33532873289E+02  0.68220903205E+01 -0.62406986989E+01  0.34784203708E+02  0.00000000000E+00 0.  1.
         21    1    1    2  502  501  0.37286673857E+01 -0.30187402923E+02 -0.48290894980E+00  0.30420641952E+02  0.00000000000E+00 0. -1.
<scales pt_clust_5="13000.00000" pt_clust_6="13000.00000" pt_clust_7="13000.00000" pt_clust_8="13000.00000" pt_clust_9="30.41681"></scales>
<clustering>
<clus scale="   30.417">  1  9  2 -1</clus>
<clus scale="   91.127">  5  6 -1 -1</clus>
<clus scale="   91.230">  7  8 -1 -1</clus>
<clus scale="  111.210">  1  5  2 -1</clus>
<clus scale="  111.295">  2  5  1 -1</clus>
</clustering>
</event>
<event>
 9    1  0.1175034E-005  0.9480459E+02  0.7546771E-02  0.1293495E+00
          1   -1    0    0  502    0  0.00000000000E+00  0.00000000000E+00  0.20978513343E+03  0.20978513343E+03  0.00000000000E+00 0. -1.
         -1   -1    0    0    0  501 -0.00000000000E+00 -0.00000000000E+00 -0.11416704657E+03  0.11416704657E+03  0.00000000000E+00 0.  1.
         23    2    1    2    0    0 -0.38374986013E+02 -0.11052299848E+01 -0.34483054942E+02  0.10334471501E+03  0.89538751156E+02 0.  0.
         23    2    1    2    0    0  0.15203472686E+02  0.28066960340E+01  0.15823068102E+03  0.18412342746E+03  0.92873381535E+02 0.  0.
        -13    1    4    4    0    0  0.53097803877E+02  0.13478399286E+02  0.92543010746E+02  0.10754186562E+03  0.00000000000E+00 0. -1.
         13    1    4    4    0    0 -0.37894331191E+02 -0.10671703252E+02  0.65687670279E+02  0.76581561837E+02  0.00000000000E+00 0.  1.
        -13    1    3    3    0    0 -0.29691056649E+02  0.39141739666E+02 -0.37872994698E+02  0.62032236430E+02  0.00000000000E+00 0.  1.
         13    1    3    3    0    0 -0.86839293638E+01 -0.40246969651E+02  0.33899397563E+01  0.41312478585E+02  0.00000000000E+00 0. -1.
         21    1    1    2  502  501  0.23171513327E+02 -0.17014660493E+01 -0.28129539226E+02  0.36484037519E+02  0.00000000000E+00 0. -1.
<scales pt_clust_5="13000.00000" pt_clust_6="13000.00000" pt_clust_7="13000.00000" pt_clust_8="13000.00000" pt_clust_9="23.23390"></scales>
<clustering>
<clus scale="   23.234">  2  9  1 -1</clus>
<clus scale="   89.539">  7  8 -1 -1</clus>
<clus scale="   91.540">  2  7  1 -1</clus>
<clus scale="   92.873">  5  6 -1 -1</clus>
<clus scale="   94.805">  1  5  2 -1</clus>
</clustering>
</event>
<event>
 9    1  0.1175034E-005  0.1056080E+03  0.7546771E-02  0.1269192E+00
          2   -1    0    0  502    0  0.00000000000E+00  0.00000000000E+00  0.24072311364E+03  0.24072311364E+03  0.00000000000E+00 0. -1.
         -2   -1    0    0    0  501 -0.00000000000E+00 -0.00000000000E+00 -0.79089861270E+02  0.79089861270E+02  0.00000000000E+00 0.  1.
         23    2    1    2    0    0  0.88415838229E+01 -0.31543108581E+02 -0.36871557820E+01  0.96594823238E+02  0.90795503497E+02 0.  0.
         23    2    1    2    0    0 -0.28481655902E+01  0.59802882415E+02  0.16013183853E+03  0.19386756166E+03  0.91421709462E+02 0.  0.
        -13    1    3    3    0    0  0.31819576397E+02 -0.10318486714E+02 -0.37689323638E+02  0.50392873766E+02  0.00000000000E+00 0.  1.
         13    1    3    3    0    0 -0.22977992574E+02 -0.21224621867E+02  0.34002167856E+02  0.46201949472E+02  0.00000000000E+00 0. -1.
        -13    1    4    4    0    0 -0.38245403634E+02  0.26042930190E+02  0.12598374883E+03  0.13421195953E+03  0.00000000000E+00 0. -1.
         13    1    4    4    0    0  0.35397238044E+02  0.33759952225E+02  0.34148089703E+02  0.59655602132E+02  0.00000000000E+00 0.  1.
         21    1    1    2  502  501 -0.59934182327E+01 -0.28259773834E+02  0.51885696218E+01  0.29350590011E+02  0.00000000000E+00 0.  1.
<scales pt_clust_5="13000.00000" pt_clust_6="13000.00000" pt_clust_7="13000.00000" pt_clust_8="13000.00000" pt_clust_9="28.88833"></scales>
<clustering>
<clus scale="   28.888">  2  9  1 -1</clus>
<clus scale="   90.796">  5  6 -1 -1</clus>
<clus scale="   91.422">  7  8 -1 -1</clus>
<clus scale="  105.066">  2  5  1 -1</clus>
<clus scale="  105.608">  1  5  2 -1</clus>
</clustering>
</event>
<event>
 9    1  0.1175034E-005  0.9751965E+02  0.7546771E-02  0.1288832E+00
          1   -1    0    0  502    0  0.00000000000E+00  0.00000000000E+00  0.19948051046E+03  0.19948051046E+03  0.00000000000E+00 0. -1.
         -1   -1    0    0    0  501 -0.00000000000E+00 -0.00000000000E+00 -0.74259798314E+02  0.74259798314E+02  0.00000000000E+00 0.  1.
         23    2    1    2    0    0 -0.38232229447E+02 -0.51623252399E+01  0.12217032766E+02  0.96892619557E+02  0.88037326542E+02 0.  0.
         23    2    1    2    0    0  0.19852895734E+02 -0.10571581441E+02  0.11758614302E+03  0.15222341867E+03  0.94018999978E+02 0.  0.
        -11    1    3    3    0    0 -0.12987391855E+02  0.41238090107E+02  0.37799877467E+01  0.43399777998E+02  0.00000000000E+00 0.  1.
         11    1    3    3    0    0 -0.25244837592E+02 -0.46400415347E+02  0.84370450194E+01  0.53492841559E+02  0.00000000000E+00 0. -1.
        -13    1    4    4    0    0 -0.24199683277E+02  0.26579443257E+01 -0.16720672805E+01  0.24402564368E+02  0.00000000000E+00 0.  1.
         13    1    4    4    0    0  0.44052579010E+02 -0.13229525766E+02  0.11925821030E+03  0.12782085430E+03  0.00000000000E+00 0. -1.
         21    1    1    2  502  501  0.18379333713E+02  0.15733906681E+02 -0.45824636394E+01  0.24624270551E+02  0.00000000000E+00 0.  1.
<scales pt_clust_5="13000.00000" pt_clust_6="13000.00000" pt_clust_7="13000.00000" pt_clust_8="13000.00000" pt_clust_9="24.19413"></scales>
<clustering>
<clus scale="   24.194">  2  9  1 -1</clus>
<clus scale="   88.037">  5  6 -1 -1</clus>
<clus scale="   91.766">  2  5  1 -1</clus>
<clus scale="   94.019">  7  8 -1 -1</clus>
<clus scale="   97.520">  1  5  2 -1</clus>
</clustering>
</event>
<event>
 9    1  0.1175034E-005  0.1120257E+03  0.7546771E-02  0.1258036E+00
         -2   -1    0    0    0  501 -0.00000000000E+00  0.00000000000E+00  0.46972270024E+02  0.46972270024E+02  0.00000000000E+00 0.  1.
          2   -1    0    0  502    0  0.00000000000E+00 -0.00000000000E+00 -0.34490750156E+03  0.34490750156E+03  0.00000000000E+00 0. -1.
         23    2    1    2    0    0  0.66652515852E+02 -0.62585435660E+01 -0.14658283067E+03  0.18660262238E+03  0.94086583514E+02 0.  0.
         23    2    1    2    0    0 -0.55493273490E+02 -0.12706087225E+02 -0.14827181833E+03  0.18305833060E+03  0.91021273539E+02 0.  0.
        -11    1    4    4    0    0 -0.29676882706E+02  0.19955183282E+02 -0.78749925032E+01  0.36618877835E+02  0.00000000000E+00 0.  1.
         11    1    4    4    0    0 -0.25816390784E+02 -0.32661270507E+02 -0.14039682583E+03  0.14643945277E+03  0.00000000000E+00 0. -1.
        -13    1    3    3    0    0 -0.74441690049E+01  0.24595844897E+02 -0.88309502596E+01  0.27172723840E+02  0.00000000000E+00 0.  1.
         13    1    3    3    0    0  0.74096684857E+02 -0.30854388463E+02 -0.13775188041E+03  0.15942989855E+03  0.00000000000E+00 0. -1.
         21    1    1    2  502  501 -0.11159242362E+02  0.18964630790E+02 -0.30805825390E+01  0.22218818598E+02  0.00000000000E+00 0.  1.
<scales pt_clust_5="13000.00000" pt_clust_6="13000.00000" pt_clust_7="13000.00000" pt_clust_8="13000.00000" pt_clust_9="22.00422"></scales>
<clustering>
<clus scale="   22.004">  1  9  2 -1</clus>
<clus scale="   91.021">  5  6 -1 -1</clus>
<clus scale="   94.087">  7  8 -1 -1</clus>
<clus scale="  109.464">  2  5  1 -1</clus>
<clus scale="  109.464">  2  5  1 -1</clus>
</clustering>
</event>
<event>
 9    1  0.1175034E-005  0.1166560E+03  0.7546771E-02  0.1252052E+00
         -1   -1    0    0    0  501 -0.00000000000E+00  0.00000000000E+00  0.12504850238E+03  0.12504850238E+03  0.00000000000E+00 0.  1.
          1   -1    0    0  502    0  0.00000000000E+00 -0.00000000000E+00 -0.18278734751E+03  0.18278734751E+03  0.00000000000E+00 0. -1.
         23    2    1    2    0    0 -0.27102018932E+02 -0.30656740379E+02  0.24121152689E+02  0.10296163168E+03  0.91350492228E+02 0.  0.
         23    2    1    2    0    0  0.78748752022E+01  0.70822633596E+02 -0.98282285525E+02  0.15741187980E+03  0.10020595374E+03 0.  0.
        -11    1    3    3    0    0  0.44334747772E+01  0.29448261899E+02 -0.28661238243E+01  0.29917728745E+02  0.00000000000E+00 0. -1.
         11    1    3    3    0    0 -0.31535493709E+02 -0.60105002278E+02  0.26987276513E+02  0.73043902935E+02  0.00000000000E+00 0.  1.
        -13    1    4    4    0    0  0.23067982304E+02  0.93139123321E+02 -0.75903800310E+02  0.12234547398E+03  0.00000000000E+00 0.  1.
         13    1    4    4    0    0 -0.15193107102E+02 -0.22316489726E+02 -0.22378485215E+02  0.35066405826E+02  0.00000000000E+00 0. -1.
         21    1    1    2  502  501  0.19227143730E+02 -0.40165893217E+02  0.16422287701E+02  0.47462338409E+02  0.00000000000E+00 0.  1.
<scales pt_clust_5="13000.00000" pt_clust_6="13000.00000" pt_clust_7="13000.00000" pt_clust_8="13000.00000" pt_clust_9="44.53069"></scales>
<clustering>
<clus scale="   44.531">  1  9  2 -1</clus>
<clus scale="   91.350">  5  6 -1 -1</clus>
<clus scale="  100.206">  7  8 -1 -1</clus>
<clus scale="  109.143">  1  5  2 -1</clus>
<clus scale="  116.656">  2  5  1 -1</clus>
</clustering>
</event>
<event>
 9    1  0.1175034E-005  0.9683958E+02  0.7546771E-02  0.1288518E+00
         -1   -1    0    0    0  501 -0.00000000000E+00  0.00000000000E+00  0.18456264587E+03  0.18456264587E+03  0.00000000000E+00 0.  1.
          1   -1    0    0  502    0  0.00000000000E+00 -0.00000000000E+00 -0.11978321373E+03  0.11978321373E+03  0.00000000000E+00 0. -1.
         23    2    1    2    0    0 -0.46944260955E+02 -0.20242606098E+02  0.11993537561E+03  0.15793364537E+03  0.89134815183E+02 0.  0.
         23    2    1    2    0    0  0.25734241330E+02  0.85283189760E+01 -0.69431666952E+02  0.11828952346E+03  0.91851355920E+02 0.  0.
        -11    1    4    4    0    0 -0.94686949653E+01  0.37617115793E+02 -0.60330842672E+02  0.71725268647E+02  0.00000000000E+00 0. -1.
         11    1    4    4    0    0  0.35202936295E+02 -0.29088796817E+02 -0.91008242794E+01  0.46564254817E+02  0.00000000000E+00 0.  1.
        -11    1    3    3    0    0 -0.50711461807E+01 -0.28876872708E+02 -0.13332712310E+01  0.29349070056E+02  0.00000000000E+00 0. -1.
         11    1    3    3    0    0 -0.41873114774E+02  0.86342666102E+01  0.12126864684E+03  0.12858457531E+03  0.00000000000E+00 0.  1.
         21    1    1    2  502  501  0.21210019625E+02  0.11714287122E+02  0.14275723472E+02  0.28122690766E+02  0.00000000000E+00 0. -1.
<scales pt_clust_5="13000.00000" pt_clust_6="13000.00000" pt_clust_7="13000.00000" pt_clust_8="13000.00000" pt_clust_9="24.22993"></scales>
<clustering>
<clus scale="   24.230">  1  9  2 -1</clus>
<clus scale="   89.135">  7  8 -1 -1</clus>
<clus scale="   91.851">  5  6 -1 -1</clus>
<clus scale="   94.267">  1  7  2 -1</clus>
<clus scale="   96.840">  2  5  1 -1</clus>
</clustering>
</event>
<event>
 9    1  0.1175034E-005  0.1349068E+03  0.7546771E-02  0.1220416E+00
         -1   -1    0    0    0  501 -0.00000000000E+00  0.00000000000E+00  0.62943773158E+02  0.62943773158E+02  0.00000000000E+00 0.  1.
          1   -1    0    0  502    0  0.00000000000E+00 -0.00000000000E+00 -0.36086776704E+03  0.36086776704E+03  0.00000000000E+00 0. -1.
         23    2    1    2    0    0  0.87685931932E+02 -0.28267355133E+02 -0.84224811286E+02  0.15363639977E+03  0.89568177798E+02 0.  0.
         23    2    1    2    0    0 -0.10547651121E+03  0.16539325324E+02 -0.20351794459E+03  0.24655927708E+03  0.89292102919E+02 0.  0.
        -11    1    3    3    0    0  0.10628782563E+03 -0.20645972967E+02 -0.73351924102E+02  0.13078173743E+03  0.00000000000E+00 0.  1.
         11    1    3    3    0    0 -0.18601893693E+02 -0.76213821663E+01 -0.10872887184E+02  0.22854662343E+02  0.00000000000E+00 0. -1.
        -13    1    4    4    0    0 -0.10111264641E+03 -0.18443447789E+02 -0.16453971311E+03  0.19400320930E+03  0.00000000000E+00 0. -1.
         13    1    4    4    0    0 -0.43638648054E+01  0.34982773113E+02 -0.38978231480E+02  0.52556067775E+02  0.00000000000E+00 0.  1.
         21    1    1    2  502  501  0.17790579278E+02  0.11728029809E+02 -0.10181238006E+02  0.23615863346E+02  0.00000000000E+00 0.  1.
<scales pt_clust_5="13000.00000" pt_clust_6="13000.00000" pt_clust_7="13000.00000" pt_clust_8="13000.00000" pt_clust_9="21.30848"></scales>
<clustering>
<clus scale="   21.308">  1  9  2 -1</clus>
<clus scale="   89.292">  7  8 -1 -1</clus>
<clus scale="   89.568">  5  6 -1 -1</clus>
<clus scale="  134.724">  2  7  1 -1</clus>
<clus scale="  134.724">  2  5  1 -1</clus>
</clustering>
</event>
<event>
 9    1  0.1175034E-005  0.9887574E+02  0.7546771E-02  0.1284733E+00
          1   -1    0    0  502    0  0.00000000000E+00  0.00000000000E+00  0.82211464752E+02  0.82211464752E+02  0.00000000000E+00 0. -1.
         -1   -1    0    0    0  501 -0.00000000000E+00 -0.00000000000E+00 -0.31505175234E+03  0.31505175234E+03  0.00000000000E+00 0.  1.
         23    2    1    2    0    0  0.46813437605E+02  0.39159398416E+01 -0.14261327963E+03  0.17375609861E+03  0.87440275331E+02 0.  0.
         23    2    1    2    0    0 -0.31760752647E+02  0.18392045262E+02  0.27796971596E+02  0.10245386874E+03  0.91526558185E+02 0.  0.
        -13    1    3    3    0    0  0.52247324841E+02 -0.16915610813E+02 -0.14196593984E+03  0.15221776808E+03  0.00000000000E+00 0.  1.
         13    1    3    3    0    0 -0.54338872359E+01  0.20831550655E+02 -0.64733978761E+00  0.21538330529E+02  0.00000000000E+00 0. -1.
        -13    1    4    4    0    0  0.16181038376E+02  0.38600657788E+02 -0.30564072784E+01  0.41966396201E+02  0.00000000000E+00 0.  1.
         13    1    4    4    0    0 -0.47941791023E+02 -0.20208612526E+02  0.30853378875E+02  0.60487472544E+02  0.00000000000E+00 0. -1.
         21    1    1    2  502  501 -0.15052684958E+02 -0.22307985104E+02 -0.11802397955E+03  0.12105324974E+03  0.00000000000E+00 0. -1.
<scales pt_clust_5="13000.00000" pt_clust_6="13000.00000" pt_clust_7="13000.00000" pt_clust_8="13000.00000" pt_clust_9="26.91151"></scales>
<clustering>
<clus scale="   26.912">  2  9  1 -1</clus>
<clus scale="   87.440">  5  6 -1 -1</clus>
<clus scale="   91.527">  7  8 -1 -1</clus>
<clus scale="   95.106">  2  5  1 -1</clus>
<clus scale="   98.876">  1  5  2 -1</clus>
</clustering>
</event>
<event>
 9    1  0.1175034E-005  0.1168237E+03  0.7546771E-02  0.1249015E+00
          4   -1    0    0  502    0  0.00000000000E+00  0.00000000000E+00  0.18124917646E+03  0.18124917646E+03  0.00000000000E+00 0. -1.
         -4   -1    0    0    0  501 -0.00000000000E+00 -0.00000000000E+00 -0.11574310614E+03  0.11574310614E+03  0.00000000000E+00 0.  1.
         23    2    1    2    0    0 -0.53619502736E+02 -0.57432588383E+02 -0.11154188485E+02  0.12207561832E+03  0.92760376166E+02 0.  0.
         23    2    1    2    0    0  0.27997640566E+02  0.63177859152E+02  0.89986327428E+02  0.14547057690E+03  0.91043065932E+02 0.  0.
        -11    1    4    4    0    0 -0.91427583078E+01  0.33102458577E+02 -0.90431140772E+01  0.35512542933E+02  0.00000000000E+00 0.  1.
         11    1    4    4    0    0  0.37140398874E+02  0.30075400574E+02  0.99029441505E+02  0.10995803396E+03  0.00000000000E+00 0. -1.
        -13    1    3    3    0    0 -0.44447986638E+02  0.15030299600E+02  0.52557023304E+01  0.47213936811E+02  0.00000000000E+00 0. -1.
         13    1    3    3    0    0 -0.91715160982E+01 -0.72462887984E+02 -0.16409890815E+02  0.74861681514E+02  0.00000000000E+00 0.  1.
         21    1    1    2  502  501  0.25621862169E+02 -0.57452707682E+01 -0.13326068619E+02  0.29446087381E+02  0.00000000000E+00 0. -1.
<scales pt_clust_5="13000.00000" pt_clust_6="13000.00000" pt_clust_7="13000.00000" pt_clust_8="13000.00000" pt_clust_9="26.25810"></scales>
<clustering>
<clus scale="   26.258">  2  9  1 -1</clus>
<clus scale="   91.043">  5  6 -1 -1</clus>
<clus scale="   92.760">  7  8 -1 -1</clus>
<clus scale="  115.465">  1  5  2 -1</clus>
<clus scale="  115.465">  1  5  2 -1</clus>
</clustering>
</event>
<event>
 9    1  0.1175034E-005  0.9240409E+02  0.7546771E-02  0.1297330E+00
          1   -1    0    0  502    0  0.00000000000E+00  0.00000000000E+00  0.20296317557E+03  0.20296317557E+03  0.00000000000E+00 0. -1.
         -1   -1    0    0    0  501 -0.00000000000E+00 -0.00000000000E+00 -0.16820727313E+03  0.16820727313E+03  0.00000000000E+00 0.  1.
         23    2    1    2    0    0 -0.13376670391E+02  0.14752629583E+02 -0.11213957631E+03  0.14586278336E+03  0.91126788620E+02 0.  0.
         23    2    1    2    0    0  0.14785578758E+02  0.61183779134E+01  0.17046500607E+03  0.19379407153E+03  0.90784227585E+02 0.  0.
        -13    1    3    3    0    0 -0.38363568684E+02 -0.37876306329E+01 -0.11063592626E+02  0.40106266715E+02  0.00000000000E+00 0. -1.
         13    1    3    3    0    0  0.24986898293E+02  0.18540260216E+02 -0.10107598369E+03  0.10575651665E+03  0.00000000000E+00 0.  1.
        -13    1    4    4    0    0  0.43144636245E+02 -0.17017333369E+02  0.13534170812E+03  0.14306791125E+03  0.00000000000E+00 0. -1.
         13    1    4    4    0    0 -0.28359057487E+02  0.23135711283E+02  0.35123297949E+02  0.50726160282E+02  0.00000000000E+00 0.  1.
         21    1    1    2  502  501 -0.14089083674E+01 -0.20871007496E+02 -0.23569527318E+02  0.31513593808E+02  0.00000000000E+00 0. -1.
<scales pt_clust_5="13000.00000" pt_clust_6="13000.00000" pt_clust_7="13000.00000" pt_clust_8="13000.00000" pt_clust_9="20.91851"></scales>
<clustering>
<clus scale="   20.919">  2  9  1 -1</clus>
<clus scale="   90.784">  7  8 -1 -1</clus>
<clus scale="   91.127">  5  6 -1 -1</clus>
<clus scale="   92.066">  1  7  2 -1</clus>
<clus scale="   92.066">  1  5  2 -1</clus>
</clustering>
</event>
<event>
 9    1  0.1175034E-005  0.1152797E+03  0.7546771E-02  0.1251445E+00
         -2   -1    0    0    0  501 -0.00000000000E+00  0.00000000000E+00  0.28838987811E+02  0.28838987811E+02  0.00000000000E+00 0.  1.
          2   -1    0    0  502    0  0.00000000000E+00 -0.00000000000E+00 -0.80989648398E+03  0.80989648398E+03  0.00000000000E+00 0. -1.
         23    2    1    2    0    0 -0.61153007840E+02  0.30972801119E+02 -0.20872981524E+03  0.23870441164E+03  0.93341606943E+02 0.  0.
         23    2    1    2    0    0  0.68581115985E+02  0.26081773792E+02 -0.43549503175E+03  0.45159395162E+03  0.94326804612E+02 0.  0.
        -11    1    4    4    0    0  0.91916282646E+02  0.14820935574E+02 -0.35657324652E+03  0.36852780530E+03  0.00000000000E+00 0.  1.
         11    1    4    4    0    0 -0.23335166662E+02  0.11260838219E+02 -0.78921785230E+02  0.83066146319E+02  0.00000000000E+00 0. -1.
        -11    1    3    3    0    0 -0.41766829050E+02 -0.43196809170E+01 -0.18947355595E+03  0.19407049249E+03  0.00000000000E+00 0.  1.
         11    1    3    3    0    0 -0.19386178790E+02  0.35292482037E+02 -0.19256259296E+02  0.44633919147E+02  0.00000000000E+00 0. -1.
         21    1    1    2  502  501 -0.74281081442E+01 -0.57054574912E+02 -0.13683264918E+03  0.14843710854E+03  0.00000000000E+00 0.  1.
<scales pt_clust_5="13000.00000" pt_clust_6="13000.00000" pt_clust_7="13000.00000" pt_clust_8="13000.00000" pt_clust_9="57.53609"></scales>
<clustering>
<clus scale="   57.536">  1  9  2 -1</clus>
<clus scale="   93.342">  7  8 -1 -1</clus>
<clus scale="   94.327">  5  6 -1 -1</clus>
<clus scale="  114.475">  1  7  2 -1</clus>
<clus scale="  115.280">  2  5  1 -1</clus>
</clustering>
</event>
<event>
 9    1  0.1175034E-005  0.1065149E+03  0.7546771E-02  0.1267620E+00
         -1   -1    0    0    0  501 -0.00000000000E+00  0.00000000000E+00  0.51916088137E+02  0.51916088137E+02  0.00000000000E+00 0.  1.
          1   -1    0    0  502    0  0.00000000000E+00 -0.00000000000E+00 -0.49511010204E+03  0.49511010204E+03  0.00000000000E+00 0. -1.
         23    2    1    2    0    0 -0.26579938403E+01 -0.29154602301E+02 -0.37170700890E+02  0.10313559210E+03  0.91641876813E+02 0.  0.
         23    2    1    2    0    0 -0.70274550369E+01  0.59549307060E+02 -0.39574409757E+03  0.41037480677E+03  0.90546044501E+02 0.  0.
        -11    1    3    3    0    0 -0.20301189787E+02  0.10216124595E+01 -0.58674260214E+02  0.62095497505E+02  0.00000000000E+00 0. -1.
         11    1    3    3    0    0  0.17643195946E+02 -0.30176214760E+02  0.21503559324E+02  0.41040094591E+02  0.00000000000E+00 0.  1.
        -13    1    4    4    0    0 -0.13792424566E+02 -0.15557609612E+02 -0.27425647094E+02  0.34415640496E+02  0.00000000000E+00 0.  1.
         13    1    4    4    0    0  0.67649695291E+01  0.75106916672E+02 -0.36831845047E+03  0.37595916627E+03  0.00000000000E+00 0. -1.
         21    1    1    2  502  501  0.96854488773E+01 -0.30394704760E+02 -0.10279215451E+02  0.33515791318E+02  0.00000000000E+00 0.  1.
<scales pt_clust_5="13000.00000" pt_clust_6="13000.00000" pt_clust_7="13000.00000" pt_clust_8="13000.00000" pt_clust_9="31.90056"></scales>
<clustering>
<clus scale="   31.901">  1  9  2 -1</clus>
<clus scale="   90.546">  7  8 -1 -1</clus>
<clus scale="   91.642">  5  6 -1 -1</clus>
<clus scale="  105.574">  2  7  1 -1</clus>
<clus scale="  105.574">  2  5  1 -1</clus>
</clustering>
</event>
<event>
 9    1  0.1175034E-005  0.1625937E+03  0.7546771E-02  0.1187524E+00
         -1   -1    0    0    0  501 -0.00000000000E+00  0.00000000000E+00  0.16559167322E+03  0.16559167322E+03  0.00000000000E+00 0.  1.
          1   -1    0    0  502    0  0.00000000000E+00 -0.00000000000E+00 -0.39641121428E+03  0.39641121428E+03  0.00000000000E+00 0. -1.
         23    2    1    2    0    0  0.87754407271E+02  0.11310761007E+03 -0.92340124419E+02  0.19621492626E+03  0.97362370847E+02 0.  0.
         23    2    1    2    0    0 -0.96436599405E+02 -0.80166970809E+02 -0.22556501504E+03  0.27227663774E+03  0.86765376358E+02 0.  0.
        -13    1    3    3    0    0  0.29449260599E+02  0.10700774186E+03 -0.78609560858E+02  0.13600506912E+03  0.00000000000E+00 0.  1.
         13    1    3    3    0    0  0.58305146672E+02  0.60998682071E+01 -0.13730563561E+02  0.60209857135E+02  0.00000000000E+00 0. -1.
        -13    1    4    4    0    0 -0.85712223012E+02 -0.40174955989E+02 -0.90325452829E+02  0.13084074171E+03  0.00000000000E+00 0.  1.
         13    1    4    4    0    0 -0.10724376393E+02 -0.39992014819E+02 -0.13523956221E+03  0.14143589603E+03  0.00000000000E+00 0. -1.
         21    1    1    2  502  501  0.86821921341E+01 -0.32940639260E+02  0.87085598400E+02  0.93511323505E+02  0.00000000000E+00 0.  1.
<scales pt_clust_5="13000.00000" pt_clust_6="13000.00000" pt_clust_7="13000.00000" pt_clust_8="13000.00000" pt_clust_9="34.06562"></scales>
<clustering>
<clus scale="   34.066">  1  9  2 -1</clus>
<clus scale="   86.765">  7  8 -1 -1</clus>
<clus scale="   97.362">  5  6 -1 -1</clus>
<clus scale="  156.478">  2  7  1 -1</clus>
<clus scale="  156.478">  2  5  1 -1</clus>
</clustering>
</event>
<event>
 9    1  0.1175034E-005  0.1327136E+03  0.7546771E-02  0.1224055E+00
          2   -1    0    0  502    0  0.00000000000E+00  0.00000000000E+00  0.12675347838E+03  0.12675347838E+03  0.00000000000E+00 0. -1.
         -2   -1    0    0    0  501 -0.00000000000E+00 -0.00000000000E+00 -0.20926100194E+03  0.20926100194E+03  0.00000000000E+00 0.  1.
         23    2    1    2    0    0  0.55693024110E+02  0.51162168813E+02 -0.91280520871E+02  0.15073524529E+03  0.93111225046E+02 0.  0.
         23    2    1    2    0    0 -0.84755011606E+02 -0.53070964617E+02  0.38755031684E+02  0.14348013213E+03  0.95313464724E+02 0.  0.
        -11    1    3    3    0    0  0.55624807038E+02 -0.87452085016E+01 -0.25652211469E+02  0.61875954805E+02  0.00000000000E+00 0.  1.
         11    1    3    3    0    0  0.68217071564E-01  0.59907377315E+02 -0.65628309402E+02  0.88859290484E+02  0.00000000000E+00 0. -1.
        -11    1    4    4    0    0 -0.83504169441E+02 -0.77356772955E+02  0.32004012303E+02  0.11824243502E+03  0.00000000000E+00 0. -1.
         11    1    4    4    0    0 -0.12508421653E+01  0.24285808338E+02  0.67510193816E+01  0.25237697110E+02  0.00000000000E+00 0.  1.
         21    1    1    2  502  501  0.29061987497E+02  0.19087958041E+01 -0.29982034370E+02  0.41799102904E+02  0.00000000000E+00 0.  1.
<scales pt_clust_5="13000.00000" pt_clust_6="13000.00000" pt_clust_7="13000.00000" pt_clust_8="13000.00000" pt_clust_9="29.12461"></scales>
<clustering>
<clus scale="   29.125">  2  9  1 -1</clus>
<clus scale="   93.111">  5  6 -1 -1</clus>
<clus scale="   95.313">  7  8 -1 -1</clus>
<clus scale="  131.141">  2  5  1 -1</clus>
<clus scale="  132.714">  1  5  2 -1</clus>
</clustering>
</event>
<event>
 9    1  0.1175034E-005  0.9200961E+02  0.7546771E-02  0.1300164E+00
         -1   -1    0    0    0  501 -0.00000000000E+00  0.00000000000E+00  0.74281955042E+02  0.74281955042E+02  0.00000000000E+00 0.  1.
          1   -1    0    0  502    0  0.00000000000E+00 -0.00000000000E+00 -0.18164367653E+03  0.18164367653E+03  0.00000000000E+00 0. -1.
         23    2    1    2    0    0 -0.15854577911E+02  0.47965093900E+01 -0.59206070688E+02  0.10768030060E+03  0.88404265667E+02 0.  0.
         23    2    1    2    0    0 -0.95973681748E+01 -0.11120692167E+01 -0.68837457315E+02  0.11524360708E+03  0.91919243198E+02 0.  0.
        -11    1    4    4    0    0  0.17643949178E+02 -0.26608899421E+02 -0.71021533028E+02  0.77867840760E+02  0.00000000000E+00 0. -1.
         11    1    4    4    0    0 -0.27241317353E+02  0.25496830204E+02  0.21840757122E+01  0.37375766324E+02  0.00000000000E+00 0.  1.
        -13    1    3    3    0    0  0.17784338067E+01  0.36932116613E+02  0.12317619024E+01  0.36995422713E+02  0.00000000000E+00 0.  1.
         13    1    3    3    0    0 -0.17633011718E+02 -0.32135607223E+02 -0.60437832590E+02  0.70684877888E+02  0.00000000000E+00 0. -1.
         21    1    1    2  502  501  0.25451946086E+02 -0.36844401734E+01  0.20681806515E+02  0.33001723889E+02  0.00000000000E+00 0. -1.
<scales pt_clust_5="13000.00000" pt_clust_6="13000.00000" pt_clust_7="13000.00000" pt_clust_8="13000.00000" pt_clust_9="25.71724"></scales>
<clustering>
<clus scale="   25.717">  1  9  2 -1</clus>
<clus scale="   88.404">  7  8 -1 -1</clus>
<clus scale="   88.498">  1  7  2 -1</clus>
<clus scale="   91.919">  5  6 -1 -1</clus>
<clus scale="   92.010">  2  5  1 -1</clus>
</clustering>
</event>
<event>
 9    1  0.1175034E-005  0.1197303E+03  0.7546771E-02  0.1244126E+00
          3   -1    0    0  502    0  0.00000000000E+00  0.00000000000E+00  0.15104752462E+03  0.15104752462E+03  0.00000000000E+00 0. -1.
         -3   -1    0    0    0  501 -0.00000000000E+00 -0.00000000000E+00 -0.12503906344E+03  0.12503906344E+03  0.00000000000E+00 0.  1.
         23    2    1    2    0    0 -0.80485522961E+02 -0.39492793906E+02  0.18915595362E+02  0.12866228215E+03  0.90324874326E+02 0.  0.
         23    2    1    2    0    0  0.55568614993E+02  0.35153005372E+02  0.25623245473E+02  0.11607050172E+03  0.92153165451E+02 0.  0.
        -11    1    3    3    0    0 -0.63197401257E+02  0.12893389759E+02  0.31949023752E+02  0.71978407483E+02  0.00000000000E+00 0. -1.
         11    1    3    3    0    0 -0.17288121704E+02 -0.52386183665E+02 -0.13033428390E+02  0.56683874662E+02  0.00000000000E+00 0.  1.
        -13    1    4    4    0    0  0.56939595196E+02  0.56468558039E+01  0.51363369528E+02  0.76890833074E+02  0.00000000000E+00 0. -1.
         13    1    4    4    0    0 -0.13709802033E+01  0.29506149568E+02 -0.25740124055E+02  0.39179668649E+02  0.00000000000E+00 0.  1.
         21    1    1    2  502  501  0.24916907968E+02  0.43397885338E+01 -0.18530379656E+02  0.31353804193E+02  0.00000000000E+00 0. -1.
<scales pt_clust_5="13000.00000" pt_clust_6="13000.00000" pt_clust_7="13000.00000" pt_clust_8="13000.00000" pt_clust_9="25.29202"></scales>
<clustering>
<clus scale="   25.292">  2  9  1 -1</clus>
<clus scale="   90.325">  5  6 -1 -1</clus>
<clus scale="   92.153">  7  8 -1 -1</clus>
<clus scale="  118.329">  2  5  1 -1</clus>
<clus scale="  119.730">  1  5  2 -1</clus>
</clustering>
</event>
<event>
 9    1  0.1175034E-005  0.2895828E+03  0.7546771E-02  0.1090650E+00
          2   -1    0    0  502    0  0.00000000000E+00  0.00000000000E+00  0.29869321759E+03  0.29869321759E+03  0.00000000000E+00 0. -1.
         -2   -1    0    0    0  501 -0.00000000000E+00 -0.00000000000E+00 -0.43537308876E+03  0.43537308876E+03  0.00000000000E+00 0.  1.
         23    2    1    2    0    0  0.66885083758E+01  0.29866721794E+03 -0.22283438321E+03  0.38443530056E+03  0.94278813965E+02 0.  0.
         23    2    1    2    0    0  0.10036445024E+02 -0.26501316694E+03  0.11252210426E+03  0.30372273708E+03  0.96195468679E+02 0.  0.
        -11    1    4    4    0    0  0.36830466508E+02 -0.19883341846E+03  0.11433655364E+03  0.23230165531E+03  0.00000000000E+00 0.  1.
         11    1    4    4    0    0 -0.26794021484E+02 -0.66179748475E+02 -0.18144493746E+01  0.71421081776E+02  0.00000000000E+00 0. -1.
        -13    1    3    3    0    0  0.22331988240E+02  0.24119043486E+03 -0.13212019864E+03  0.27591174396E+03  0.00000000000E+00 0. -1.
         13    1    3    3    0    0 -0.15643479864E+02  0.57476783078E+02 -0.90714184568E+02  0.10852355660E+03  0.00000000000E+00 0.  1.
         21    1    1    2  502  501 -0.16724953400E+02 -0.33654051003E+02 -0.26367592225E+02  0.45908268699E+02  0.00000000000E+00 0. -1.
<scales pt_clust_5="13000.00000" pt_clust_6="13000.00000" pt_clust_7="13000.00000" pt_clust_8="13000.00000" pt_clust_9="37.58084"></scales>
<clustering>
<clus scale="   37.581">  2  9  1 -1</clus>
<clus scale="   94.279">  7  8 -1 -1</clus>
<clus scale="   96.195">  5  6 -1 -1</clus>
<clus scale="  288.952">  2  7  1 -1</clus>
<clus scale="  289.583">  1  5  2 -1</clus>
</clustering>
</event>
<event>
 9    1  0.1175034E-005  0.1017793E+03  0.7546771E-02  0.1280386E+00
         -2   -1    0    0    0  501 -0.00000000000E+00  0.00000000000E+00  0.91394405004E+02  0.91394405004E+02  0.00000000000E+00 0.  1.
          2   -1    0    0  502    0  0.00000000000E+00 -0.00000000000E+00 -0.15076164253E+03  0.15076164253E+03  0.00000000000E+00 0. -1.
         23    2    1    2    0    0  0.15344669280E+02 -0.41603950626E+02 -0.10721266337E+02  0.10371681723E+03  0.93144431076E+02 0.  0.
         23    2    1    2    0    0  0.10922726866E+02  0.40659323921E+02 -0.56923629720E+02  0.11088223391E+03  0.85335125193E+02 0.  0.
        -11    1    3    3    0    0  0.28059838492E+02  0.21430201449E+02  0.90378148754E+01  0.36445715359E+02  0.00000000000E+00 0.  1.
         11    1    3    3    0    0 -0.12715169212E+02 -0.63034152075E+02 -0.19759081213E+02  0.67271101866E+02  0.00000000000E+00 0. -1.
        -11    1    4    4    0    0  0.27724897006E+02 -0.39646542810E+01 -0.56654507130E+02  0.63199063092E+02  0.00000000000E+00 0. -1.
         11    1    4    4    0    0 -0.16802170140E+02  0.44623978202E+02 -0.26912259033E+00  0.47683170815E+02  0.00000000000E+00 0.  1.
         21    1    1    2  502  501 -0.26267396146E+02  0.94462670440E+00  0.82776585320E+01  0.27556996402E+02  0.00000000000E+00 0.  1.
<scales pt_clust_5="13000.00000" pt_clust_6="13000.00000" pt_clust_7="13000.00000" pt_clust_8="13000.00000" pt_clust_9="26.28438"></scales>
<clustering>
<clus scale="   26.284">  1  9  2 -1</clus>
<clus scale="   85.335">  7  8 -1 -1</clus>
<clus scale="   93.144">  5  6 -1 -1</clus>
<clus scale="   94.685">  2  7  1 -1</clus>
<clus scale="   94.685">  2  5  1 -1</clus>
</clustering>
</event>
<event>
 9    1  0.1175034E-005  0.1666559E+03  0.7546771E-02  0.1199368E+00
          2   -1    0    0  502    0  0.00000000000E+00  0.00000000000E+00  0.11121637486E+03  0.11121637486E+03  0.00000000000E+00 0. -1.
         -2   -1    0    0    0  501 -0.00000000000E+00 -0.00000000000E+00 -0.64451361295E+03  0.64451361295E+03  0.00000000000E+00 0.  1.
         23    2    1    2    0    0  0.50840862780E+02 -0.40463969950E+02 -0.21245064269E+03  0.24017802186E+03  0.91258316962E+02 0.  0.
         23    2    1    2    0    0 -0.13898532597E+03 -0.52405244002E+02 -0.22816484135E+01  0.17221865452E+03  0.87125361461E+02 0.  0.
        -11    1    3    3    0    0  0.14140192695E+02 -0.59154993427E+02 -0.17205281204E+03  0.18248678974E+03  0.00000000000E+00 0.  1.
         11    1    3    3    0    0  0.36700670085E+02  0.18691023476E+02 -0.40397830646E+02  0.57691232126E+02  0.00000000000E+00 0. -1.
        -11    1    4    4    0    0 -0.64847409674E+02 -0.36092229775E+01 -0.39455396693E+02  0.75993034945E+02  0.00000000000E+00 0.  1.
         11    1    4    4    0    0 -0.74137916296E+02 -0.48796021025E+02  0.37173748280E+02  0.96225619570E+02  0.00000000000E+00 0. -1.
         21    1    1    2  502  501  0.88144463190E+02  0.92869213953E+02 -0.31856494698E+03  0.34333331143E+03  0.00000000000E+00 0.  1.
<scales pt_clust_5="13000.00000" pt_clust_6="13000.00000" pt_clust_7="13000.00000" pt_clust_8="13000.00000" pt_clust_9="142.06821"></scales>
<clustering>
<clus scale="   87.125">  7  8 -1 -1</clus>
<clus scale="   91.258">  5  6 -1 -1</clus>
<clus scale="  112.028">  2  5  1 -1</clus>
<clus scale="  142.068">  2  9  1 -1</clus>
<clus scale="  166.656">  1  5  2 -1</clus>
</clustering>
</event>
<event>
 9    1  0.1175034E-005  0.9259823E+02  0.7546771E-02  0.1297565E+00
         -1   -1    0    0    0  501 -0.00000000000E+00  0.00000000000E+00  0.34139050976E+02  0.34139050976E+02  0.00000000000E+00 0.  1.
          1   -1    0    0  502    0  0.00000000000E+00 -0.00000000000E+00 -0.59942574218E+03  0.59942574218E+03  0.00000000000E+00 0. -1.
         23    2    1    2    0    0 -0.11517822848E+02 -0.20991196198E+02 -0.22340438338E+03  0.24241292856E+03  0.91001202502E+02 0.  0.
         23    2    1    2    0    0 -0.12269962598E+02 -0.90389124653E+01 -0.34011512318E+03  0.35280099623E+03  0.92509415757E+02 0.  0.
        -11    1    4    4    0    0 -0.20366687893E+02  0.39515901603E+02 -0.16847514067E+03  0.17424173288E+03  0.00000000000E+00 0. -1.
         11    1    4    4    0    0  0.80967252943E+01 -0.48554814068E+02 -0.17163998252E+03  0.17855926335E+03  0.00000000000E+00 0.  1.
        -13    1    3    3    0    0  0.30884191247E+02 -0.13264238468E+02 -0.32683581248E+02  0.46882723623E+02  0.00000000000E+00 0.  1.
         13    1    3    3    0    0 -0.42402014095E+02 -0.77269577295E+01 -0.19072080214E+03  0.19553020494E+03  0.00000000000E+00 0. -1.
         21    1    1    2  502  501  0.23787785446E+02  0.30030108663E+02 -0.17671846364E+01  0.38350868364E+02  0.00000000000E+00 0.  1.
<scales pt_clust_5="13000.00000" pt_clust_6="13000.00000" pt_clust_7="13000.00000" pt_clust_8="13000.00000" pt_clust_9="38.31013"></scales>
<clustering>
<clus scale="   38.310">  1  9  2 -1</clus>
<clus scale="   91.001">  7  8 -1 -1</clus>
<clus scale="   91.091">  1  7  2 -1</clus>
<clus scale="   92.509">  5  6 -1 -1</clus>
<clus scale="   92.598">  2  5  1 -1</clus>
</clustering>
</event>
<event>
 9    1  0.1175034E-005  0.1040458E+03  0.7546771E-02  0.1274592E+00
         -1   -1    0    0    0  501 -0.00000000000E+00  0.00000000000E+00  0.13319736641E+03  0.13319736641E+03  0.00000000000E+00 0.  1.
          1   -1    0    0  502    0  0.00000000000E+00 -0.00000000000E+00 -0.13946051541E+03  0.13946051541E+03  0.00000000000E+00 0. -1.
         23    2    1    2    0    0 -0.25836833695E+02 -0.12366963590E+02  0.54008558033E+02  0.10769603989E+03  0.88662443590E+02 0.  0.
         23    2    1    2    0    0  0.42517874249E+02  0.24430289771E+02 -0.82609260012E+02  0.13458508724E+03  0.94256284559E+02 0.  0.
        -11    1    3    3    0    0 -0.53292811908E+02 -0.13434440210E+02  0.58031229824E+02  0.79926413780E+02  0.00000000000E+00 0.  1.
         11    1    3    3    0    0  0.27455978213E+02  0.10674766204E+01 -0.40226717911E+01  0.27769626110E+02  0.00000000000E+00 0. -1.
        -13    1    4    4    0    0  0.39009574683E+02 -0.29750366290E+02 -0.54908772830E+02  0.73632903956E+02  0.00000000000E+00 0.  1.
         13    1    4    4    0    0  0.35082995660E+01  0.54180656061E+02 -0.27700487182E+02  0.60952183285E+02  0.00000000000E+00 0. -1.
         21    1    1    2  502  501 -0.16681040554E+02 -0.12063326181E+02  0.22337552979E+02  0.30376754692E+02  0.00000000000E+00 0.  1.
<scales pt_clust_5="13000.00000" pt_clust_6="13000.00000" pt_clust_7="13000.00000" pt_clust_8="13000.00000" pt_clust_9="20.58594"></scales>
<clustering>
<clus scale="   20.586">  1  9  2 -1</clus>
<clus scale="   88.662">  5  6 -1 -1</clus>
<clus scale="   94.256">  7  8 -1 -1</clus>
<clus scale="   99.007">  1  5  2 -1</clus>
<clus scale="  104.046">  2  5  1 -1</clus>
</clustering>
</event>
<event>
 9    1  0.1175034E-005  0.1030176E+03  0.7546771E-02  0.1274212E+00
          2   -1    0    0  502    0  0.00000000000E+00  0.00000000000E+00  0.87144712020E+02  0.87144712020E+02  0.00000000000E+00 0. -1.
         -2   -1    0    0    0  501 -0.00000000000E+00 -0.00000000000E+00 -0.17998920621E+03  0.17998920621E+03  0.00000000000E+00 0.  1.
         23    2    1    2    0    0 -0.29843486943E+02 -0.35264761376E+02 -0.45006113528E+02  0.11086275813E+03  0.90170747899E+02 0.  0.
         23    2    1    2    0    0  0.51756626927E+02  0.18961909901E+02 -0.50917761212E+01  0.10554403846E+03  0.89862758766E+02 0.  0.
        -11    1    3    3    0    0 -0.52319053493E+02 -0.52394693631E-01 -0.42348651452E+01  0.52490191335E+02  0.00000000000E+00 0.  1.
         11    1    3    3    0    0  0.22475566550E+02 -0.35212366683E+02 -0.40771248383E+02  0.58372566791E+02  0.00000000000E+00 0. -1.
        -13    1    4    4    0    0  0.73790887294E+02  0.15919875488E+02 -0.20813651760E+02  0.78305463300E+02  0.00000000000E+00 0. -1.
         13    1    4    4    0    0 -0.22034260366E+02  0.30420344127E+01  0.15721875639E+02  0.27238575162E+02  0.00000000000E+00 0.  1.
         21    1    1    2  502  501 -0.21913139984E+02  0.16302851476E+02 -0.42746604536E+02  0.50727121637E+02  0.00000000000E+00 0.  1.
<scales pt_clust_5="13000.00000" pt_clust_6="13000.00000" pt_clust_7="13000.00000" pt_clust_8="13000.00000" pt_clust_9="27.31243"></scales>
<clustering>
<clus scale="   27.312">  2  9  1 -1</clus>
<clus scale="   89.863">  7  8 -1 -1</clus>
<clus scale="   90.171">  5  6 -1 -1</clus>
<clus scale="  102.748">  1  7  2 -1</clus>
<clus scale="  102.748">  1  5  2 -1</clus>
</clustering>
</event>
<event>
 9    1  0.1175034E-005  0.2384272E+03  0.7546771E-02  0.1120850E+00
          2   -1    0    0  502    0  0.00000000000E+00  0.00000000000E+00  0.48453038964E+03  0.48453038964E+03  0.00000000000E+00 0.  1.
         -2   -1    0    0    0  501 -0.00000000000E+00 -0.00000000000E+00 -0.25335068441E+03  0.25335068441E+03  0.00000000000E+00 0. -1.
         23    2    1    2    0    0 -0.17788272309E+03 -0.78804377343E+02 -0.14556898442E+03  0.25948998163E+03  0.91062222028E+02 0.  0.
         23    2    1    2    0    0  0.21485564913E+03  0.67453864867E+02  0.36408239131E+03  0.43769383812E+03  0.91142385414E+02 0.  0.
        -11    1    4    4    0    0  0.63429846704E+02 -0.21157167337E+02  0.11495239682E+03  0.13298505448E+03  0.00000000000E+00 0. -1.
         11    1    4    4    0    0  0.15142580242E+03  0.88611032204E+02  0.24912999449E+03  0.30470878364E+03  0.00000000000E+00 0.  1.
        -13    1    3    3    0    0 -0.15120263341E+03 -0.69057939212E+02 -0.72980180534E+02  0.18154157119E+03  0.00000000000E+00 0.  1.
         13    1    3    3    0    0 -0.26680089678E+02 -0.97464381312E+01 -0.72588803883E+02  0.77948410444E+02  0.00000000000E+00 0. -1.
         21    1    1    2  502  501 -0.36972926041E+02  0.11350512476E+02  0.12666298343E+02  0.40697254296E+02  0.00000000000E+00 0.  1.
<scales pt_clust_5="13000.00000" pt_clust_6="13000.00000" pt_clust_7="13000.00000" pt_clust_8="13000.00000" pt_clust_9="38.67598"></scales>
<clustering>
<clus scale="   38.676">  2  9  1 -1</clus>
<clus scale="   91.062">  7  8 -1 -1</clus>
<clus scale="   91.142">  5  6 -1 -1</clus>
<clus scale="  238.397">  2  7  1 -1</clus>
<clus scale="  238.427">  1  5  2 -1</clus>
</clustering>
</event>
<event>
 9    1  0.1175034E-005  0.1032259E+03  0.7546771E-02  0.1274289E+00
          2   -1    0    0  502    0  0.00000000000E+00  0.00000000000E+00  0.51032046384E+03  0.51032046384E+03  0.00000000000E+00 0. -1.
         -2   -1    0    0    0  501 -0.00000000000E+00 -0.00000000000E+00 -0.10230241917E+03  0.10230241917E+03  0.00000000000E+00 0.  1.
         23    2    1    2    0    0  0.91755978946E+01  0.36722376749E+02  0.43294650417E+02  0.10893149952E+03  0.92514432834E+02 0.  0.
         23    2    1    2    0    0 -0.38319595888E+02 -0.29928010844E+02  0.42447835763E+03  0.43686181164E+03  0.91116898049E+02 0.  0.
        -13    1    4    4    0    0  0.22955365914E+02  0.10351440150E+02  0.59824214251E+02  0.64907917453E+02  0.00000000000E+00 0.  1.
         13    1    4    4    0    0 -0.61274961801E+02 -0.40279450994E+02  0.36465414338E+03  0.37195389418E+03  0.00000000000E+00 0. -1.
        -13    1    3    3    0    0  0.31569493781E+02  0.42222641810E+02 -0.74019295203E+01  0.53236951261E+02  0.00000000000E+00 0.  1.
         13    1    3    3    0    0 -0.22393895886E+02 -0.55002650602E+01  0.50696579938E+02  0.55694548262E+02  0.00000000000E+00 0. -1.
         21    1    1    2  502  501  0.29143997993E+02 -0.67943659058E+01 -0.59754963372E+02  0.66829571858E+02  0.00000000000E+00 0. -1.
<scales pt_clust_5="13000.00000" pt_clust_6="13000.00000" pt_clust_7="13000.00000" pt_clust_8="13000.00000" pt_clust_9="29.92551"></scales>
<clustering>
<clus scale="   29.926">  2  9  1 -1</clus>
<clus scale="   91.117">  5  6 -1 -1</clus>
<clus scale="   92.514">  7  8 -1 -1</clus>
<clus scale="  101.975">  1  5  2 -1</clus>
<clus scale="  101.975">  1  5  2 -1</clus>
</clustering>
</event>
<event>
 9    1  0.1175034E-005  0.1492059E+03  0.7546771E-02  0.1202901E+00
         -2   -1    0    0    0  501 -0.00000000000E+00  0.00000000000E+00  0.65841469222E+02  0.65841469222E+02  0.00000000000E+00 0.  1.
          2   -1    0    0  502    0  0.00000000000E+00 -0.00000000000E+00 -0.45301951894E+03  0.45301951894E+03  0.00000000000E+00 0. -1.
         23    2    1    2    0    0 -0.75207130410E+02 -0.75632140961E+02 -0.14535889415E+03  0.20002903650E+03  0.86637602241E+02 0.  0.
         23    2    1    2    0    0  0.99061856659E+02  0.74133031948E+02 -0.24928778452E+03  0.29379047187E+03  0.94124831896E+02 0.  0.
        -11    1    4    4    0    0  0.31629139359E+02  0.49425293571E+02 -0.36250043377E+02  0.68973384330E+02  0.00000000000E+00 0.  1.
         11    1    4    4    0    0  0.67432717300E+02  0.24707738378E+02 -0.21303774114E+03  0.22481708754E+03  0.00000000000E+00 0. -1.
        -13    1    3    3    0    0 -0.91640458204E+02 -0.59000144333E+02 -0.95301840480E+02  0.14478063203E+03  0.00000000000E+00 0.  1.
         13    1    3    3    0    0  0.16433327794E+02 -0.16631996629E+02 -0.50057053671E+02  0.55248404470E+02  0.00000000000E+00 0. -1.
         21    1    1    2  502  501 -0.23854726250E+02  0.14991090130E+01  0.74686289468E+01  0.25041479801E+02  0.00000000000E+00 0. -1.
<scales pt_clust_5="13000.00000" pt_clust_6="13000.00000" pt_clust_7="13000.00000" pt_clust_8="13000.00000" pt_clust_9="23.90178"></scales>
<clustering>
<clus scale="   23.902">  1  9  2 -1</clus>
<clus scale="   86.638">  7  8 -1 -1</clus>
<clus scale="   94.125">  5  6 -1 -1</clus>
<clus scale="  144.599">  1  7  2 -1</clus>
<clus scale="  149.206">  2  5  1 -1</clus>
</clustering>
</event>
<event>
 9    1  0.1175034E-005  0.1737878E+03  0.7546771E-02  0.1202603E+00
          1   -1    0    0  502    0  0.00000000000E+00  0.00000000000E+00  0.77497266957E+02  0.77497266957E+02  0.00000000000E+00 0. -1.
         -1   -1    0    0    0  501 -0.00000000000E+00 -0.00000000000E+00 -0.81866860304E+03  0.81866860304E+03  0.00000000000E+00 0.  1.
         23    2    1    2    0    0 -0.78707613159E+01 -0.93034407140E+01 -0.28310623529E+03  0.29771137920E+03  0.91293055316E+02 0.  0.
         23    2    1    2    0    0  0.12789440869E+03  0.74774531509E+02 -0.74608767262E+02  0.19135388974E+03  0.95402477065E+02 0.  0.
        -11    1    3    3    0    0 -0.35014873696E+02 -0.38058967972E+02 -0.18001341314E+03  0.18729483531E+03  0.00000000000E+00 0. -1.
         11    1    3    3    0    0  0.27144112380E+02  0.28755527258E+02 -0.10309282215E+03  0.11041654388E+03  0.00000000000E+00 0.  1.
        -13    1    4    4    0    0  0.45041566515E+02 -0.20474946591E+02 -0.14675651087E+02  0.51607566179E+02  0.00000000000E+00 0.  1.
         13    1    4    4    0    0  0.82852842174E+02  0.95249478101E+02 -0.59933116174E+02  0.13974632356E+03  0.00000000000E+00 0. -1.
         21    1    1    2  502  501 -0.12002364737E+03 -0.65471090795E+02 -0.38345633353E+03  0.40710060106E+03  0.00000000000E+00 0.  1.
<scales pt_clust_5="13000.00000" pt_clust_6="13000.00000" pt_clust_7="13000.00000" pt_clust_8="13000.00000" pt_clust_9="145.26036"></scales>
<clustering>
<clus scale="   91.293">  5  6 -1 -1</clus>
<clus scale="   92.103">  2  5  1 -1</clus>
<clus scale="   95.402">  7  8 -1 -1</clus>
<clus scale="  145.260">  2  9  1 -1</clus>
<clus scale="  173.788">  1  5  2 -1</clus>
</clustering>
</event>
<event>
 9    1  0.1175034E-005  0.1154090E+03  0.7546771E-02  0.1252922E+00
         -1   -1    0    0    0  501 -0.00000000000E+00  0.00000000000E+00  0.14641307487E+03  0.14641307487E+03  0.00000000000E+00 0.  1.
          1   -1    0    0  502    0  0.00000000000E+00 -0.00000000000E+00 -0.22571304023E+03  0.22571304023E+03  0.00000000000E+00 0. -1.
         23    2    1    2    0    0 -0.64170991389E+02 -0.59081409830E+02 -0.61583634800E+02  0.14074158383E+03  0.91690349664E+02 0.  0.
         23    2    1    2    0    0  0.64012596203E+02  0.92821183140E+01 -0.92336994137E+02  0.14167255906E+03  0.85797571708E+02 0.  0.
        -11    1    3    3    0    0 -0.25197011965E+02  0.23807232809E+02 -0.21250901453E+02  0.40660479075E+02  0.00000000000E+00 0.  1.
         11    1    3    3    0    0 -0.38973979424E+02 -0.82888642639E+02 -0.40332733347E+02  0.10008110476E+03  0.00000000000E+00 0. -1.
        -13    1    4    4    0    0  0.13074537264E+02  0.16931978046E+02  0.12562940880E+02  0.24808524519E+02  0.00000000000E+00 0.  1.
         13    1    4    4    0    0  0.50938058939E+02 -0.76498597322E+01 -0.10489993502E+03  0.11686403454E+03  0.00000000000E+00 0. -1.
         21    1    1    2  502  501  0.15839518583E+00  0.49799291516E+02  0.74620663575E+02  0.89711972205E+02  0.00000000000E+00 0. -1.
<scales pt_clust_5="13000.00000" pt_clust_6="13000.00000" pt_clust_7="13000.00000" pt_clust_8="13000.00000" pt_clust_9="49.79954"></scales>
<clustering>
<clus scale="   49.800">  1  9  2 -1</clus>
<clus scale="   85.798">  7  8 -1 -1</clus>
<clus scale="   91.690">  5  6 -1 -1</clus>
<clus scale="  110.785">  2  7  1 -1</clus>
<clus scale="  110.785">  2  5  1 -1</clus>
</clustering>
</event>
<event>
 9    1  0.1175034E-005  0.1426373E+03  0.7546771E-02  0.1209932E+00
         -1   -1    0    0    0  501 -0.00000000000E+00  0.00000000000E+00  0.10630126354E+03  0.10630126354E+03  0.00000000000E+00 0.  1.
          1   -1    0    0  502    0  0.00000000000E+00 -0.00000000000E+00 -0.31705480234E+03  0.31705480234E+03  0.00000000000E+00 0. -1.
         23    2    1    2    0    0 -0.12200972996E+03 -0.28905702344E+02 -0.15913095838E+02  0.15624109327E+03  0.91848455474E+02 0.  0.
         23    2    1    2    0    0  0.68316581892E+02  0.50530978897E+02 -0.12923208136E+03  0.17962175088E+03  0.91337327237E+02 0.  0.
        -13    1    4    4    0    0  0.70076843342E+01  0.50995586985E+02 -0.98272933103E+02  0.11093794172E+03  0.00000000000E+00 0. -1.
         13    1    4    4    0    0  0.61308897557E+02 -0.46460808870E+00 -0.30959148259E+02  0.68683809164E+02  0.00000000000E+00 0.  1.
        -13    1    3    3    0    0 -0.86777633541E+02 -0.50050543902E+02  0.19427875128E+02  0.10204340723E+03  0.00000000000E+00 0.  1.
         13    1    3    3    0    0 -0.35232096423E+02  0.21144841557E+02 -0.35340970966E+02  0.54197686036E+02  0.00000000000E+00 0. -1.
         21    1    1    2  502  501  0.53693148072E+02 -0.21625276552E+02 -0.65608361609E+02  0.87493221731E+02  0.00000000000E+00 0. -1.
<scales pt_clust_5="13000.00000" pt_clust_6="13000.00000" pt_clust_7="13000.00000" pt_clust_8="13000.00000" pt_clust_9="57.88443"></scales>
<clustering>
<clus scale="   57.884">  2  9  1 -1</clus>
<clus scale="   91.337">  5  6 -1 -1</clus>
<clus scale="   91.848">  7  8 -1 -1</clus>
<clus scale="  142.309">  2  5  1 -1</clus>
<clus scale="   57.884">  2  5  1 -1</clus>
</clustering>
</event>
<event>
 9    1  0.1175034E-005  0.9333167E+02  0.7546771E-02  0.1296690E+00
          1   -1    0    0  502    0  0.00000000000E+00  0.00000000000E+00  0.27134245990E+02  0.27134245990E+02  0.00000000000E+00 0. -1.
         -1   -1    0    0    0  501 -0.00000000000E+00 -0.00000000000E+00 -0.42208430566E+03  0.42208430566E+03  0.00000000000E+00 0.  1.
         23    2    1    2    0    0 -0.14245861684E+02  0.11074037208E+01 -0.18821592943E+03  0.20780482778E+03  0.86910525482E+02 0.  0.
         23    2    1    2    0    0  0.31661553392E+02  0.10004412415E+02 -0.12747103966E+03  0.15950269712E+03  0.89942771830E+02 0.  0.
        -11    1    4    4    0    0 -0.16708915120E+02 -0.28732324049E+02 -0.53741216677E+02  0.63189023253E+02  0.00000000000E+00 0.  1.
         11    1    4    4    0    0  0.48370468512E+02  0.38736736464E+02 -0.73729822981E+02  0.96313673862E+02  0.00000000000E+00 0. -1.
        -13    1    3    3    0    0  0.16883493216E+02 -0.25887723622E+02 -0.14435075062E+03  0.14762237561E+03  0.00000000000E+00 0.  1.
         13    1    3    3    0    0 -0.31129354900E+02  0.26995127343E+02 -0.43865178814E+02  0.60182452170E+02  0.00000000000E+00 0. -1.
         21    1    1    2  502  501 -0.17415691709E+02 -0.11111816135E+02 -0.79263090578E+02  0.81911026752E+02  0.00000000000E+00 0.  1.
<scales pt_clust_5="13000.00000" pt_clust_6="13000.00000" pt_clust_7="13000.00000" pt_clust_8="13000.00000" pt_clust_9="20.65862"></scales>
<clustering>
<clus scale="   20.659">  2  9  1 -1</clus>
<clus scale="   86.911">  7  8 -1 -1</clus>
<clus scale="   89.943">  5  6 -1 -1</clus>
<clus scale="   90.413">  2  7  1 -1</clus>
<clus scale="   93.332">  1  5  2 -1</clus>
</clustering>
</event>
<event>
 9    1  0.1175034E-005  0.1032149E+03  0.7546771E-02  0.1273901E+00
         -2   -1    0    0    0  501 -0.00000000000E+00  0.00000000000E+00  0.32633095062E+02  0.32633095062E+02  0.00000000000E+00 0.  1.
          2   -1    0    0  502    0  0.00000000000E+00 -0.00000000000E+00 -0.40886271779E+03  0.40886271779E+03  0.00000000000E+00 0. -1.
         23    2    1    2    0    0 -0.51052351707E+02  0.22268474094E+02 -0.13574500422E+03  0.17281998532E+03  0.91311629054E+02 0.  0.
         23    2    1    2    0    0  0.30274056572E+02 -0.19876228441E+02 -0.19230273119E+03  0.21615007525E+03  0.91809213307E+02 0.  0.
        -13    1    3    3    0    0 -0.73922514431E+02  0.29720480641E+02 -0.12010551747E+03  0.14412904092E+03  0.00000000000E+00 0.  1.
         13    1    3    3    0    0  0.22870162724E+02 -0.74520065475E+01 -0.15639486751E+02  0.28690944398E+02  0.00000000000E+00 0. -1.
        -13    1    4    4    0    0  0.19598660691E+02  0.20033838922E+02 -0.10848956513E+02  0.30052654796E+02  0.00000000000E+00 0.  1.
         13    1    4    4    0    0  0.10675395880E+02 -0.39910067363E+02 -0.18145377468E+03  0.18609742046E+03  0.00000000000E+00 0. -1.
         21    1    1    2  502  501  0.20778295135E+02 -0.23922456531E+01 -0.48181887306E+02  0.52525752278E+02  0.00000000000E+00 0.  1.
<scales pt_clust_5="13000.00000" pt_clust_6="13000.00000" pt_clust_7="13000.00000" pt_clust_8="13000.00000" pt_clust_9="20.91555"></scales>
<clustering>
<clus scale="   20.916">  2  9  1 -1</clus>
<clus scale="   91.312">  5  6 -1 -1</clus>
<clus scale="   91.809">  7  8 -1 -1</clus>
<clus scale="  102.773">  1  5  2 -1</clus>
<clus scale="   20.916">  2  5  1 -1</clus>
</clustering>
</event>
<event>
 9    1  0.1175034E-005  0.1568631E+03  0.7546771E-02  0.1193213E+00
          1   -1    0    0  502    0  0.00000000000E+00  0.00000000000E+00  0.20016636780E+03  0.20016636780E+03  0.00000000000E+00 0. -1.
         -1   -1    0    0    0  501 -0.00000000000E+00 -0.00000000000E+00 -0.17278831364E+03  0.17278831364E+03  0.00000000000E+00 0.  1.
         23    2    1    2    0    0  0.70598471599E+02  0.11113414221E+03  0.12748096860E+02  0.16110019868E+03  0.91955523410E+02 0.  0.
         23    2    1    2    0    0 -0.16921992311E+02 -0.12756753027E+03  0.14743703246E+02  0.15571863316E+03  0.86435451775E+02 0.  0.
        -11    1    3    3    0    0  0.33087735939E+02  0.11770521625E+03  0.13503112931E+02  0.12301077295E+03  0.00000000000E+00 0.  1.
         11    1    3    3    0    0  0.37510735660E+02 -0.65710740397E+01 -0.75501607031E+00  0.38089425738E+02  0.00000000000E+00 0. -1.
        -13    1    4    4    0    0 -0.44221731664E+02 -0.58884115769E+02 -0.16516323037E+02  0.75469792420E+02  0.00000000000E+00 0.  1.
         13    1    4    4    0    0  0.27299739352E+02 -0.68683414505E+02  0.31260026283E+02  0.80248840739E+02  0.00000000000E+00 0. -1.
         21    1    1    2  502  501 -0.53676479288E+02  0.16433388063E+02 -0.11374594453E+00  0.56135849598E+02  0.00000000000E+00 0.  1.
<scales pt_clust_5="13000.00000" pt_clust_6="13000.00000" pt_clust_7="13000.00000" pt_clust_8="13000.00000" pt_clust_9="56.13573"></scales>
<clustering>
<clus scale="   56.136">  2  9  1 -1</clus>
<clus scale="   86.435">  7  8 -1 -1</clus>
<clus scale="   91.956">  5  6 -1 -1</clus>
<clus scale="  153.692">  1  7  2 -1</clus>
<clus scale="  153.692">  1  5  2 -1</clus>
</clustering>
</event>
<event>
 9    1  0.1175034E-005  0.1191481E+03  0.7546771E-02  0.1245596E+00
         -2   -1    0    0    0  501 -0.00000000000E+00  0.00000000000E+00  0.92566002466E+02  0.92566002466E+02  0.00000000000E+00 0.  1.
          2   -1    0    0  502    0  0.00000000000E+00 -0.00000000000E+00 -0.23653602602E+03  0.23653602602E+03  0.00000000000E+00 0. -1.
         23    2    1    2    0    0 -0.46742756591E+02 -0.40798624429E+02 -0.96392521720E+01  0.11094717703E+03  0.91471021962E+02 0.  0.
         23    2    1    2    0    0  0.48281632604E+02  0.67625424801E+02 -0.14528976685E+03  0.18913511784E+03  0.88083269268E+02 0.  0.
        -11    1    3    3    0    0 -0.42268514157E+02  0.99767581454E+01  0.24245955249E+02  0.49739615379E+02  0.00000000000E+00 0.  1.
         11    1    3    3    0    0 -0.44742424342E+01 -0.50775382574E+02 -0.33885207421E+02  0.61207561648E+02  0.00000000000E+00 0. -1.
        -13    1    4    4    0    0  0.74109929403E+02  0.45569573584E+02 -0.10052926364E+03  0.13294735997E+03  0.00000000000E+00 0. -1.
         13    1    4    4    0    0 -0.25828296800E+02  0.22055851217E+02 -0.44760503203E+02  0.56187757878E+02  0.00000000000E+00 0.  1.
         21    1    1    2  502  501 -0.15388760126E+01 -0.26826800372E+02  0.10958995464E+02  0.29019733616E+02  0.00000000000E+00 0.  1.
<scales pt_clust_5="13000.00000" pt_clust_6="13000.00000" pt_clust_7="13000.00000" pt_clust_8="13000.00000" pt_clust_9="26.87090"></scales>
<clustering>
<clus scale="   26.871">  1  9  2 -1</clus>
<clus scale="   88.083">  7  8 -1 -1</clus>
<clus scale="   91.471">  5  6 -1 -1</clus>
<clus scale="  116.568">  2  7  1 -1</clus>
<clus scale="  116.568">  2  5  1 -1</clus>
</clustering>
</event>
<event>
 9    1  0.1175034E-005  0.1261986E+03  0.7546771E-02  0.1234632E+00
         -2   -1    0    0    0  501 -0.00000000000E+00  0.00000000000E+00  0.56058060154E+02  0.56058060154E+02  0.00000000000E+00 0.  1.
          2   -1    0    0  502    0  0.00000000000E+00 -0.00000000000E+00 -0.10338317830E+04  0.10338317830E+04  0.00000000000E+00 0. -1.
         23    2    1    2    0    0 -0.17139355042E+02  0.12189398936E+03 -0.56021475636E+03  0.58028954451E+03  0.87997045937E+02 0.  0.
         23    2    1    2    0    0 -0.14888391701E+02 -0.59180584911E+02 -0.42451009250E+03  0.43883967539E+03  0.92991592188E+02 0.  0.
        -13    1    3    3    0    0  0.26531063842E+02  0.12572346526E+02 -0.17641936339E+03  0.17884561226E+03  0.00000000000E+00 0.  1.
         13    1    3    3    0    0 -0.43670418884E+02  0.10932164283E+03 -0.38379539297E+03  0.40144393225E+03  0.00000000000E+00 0. -1.
        -13    1    4    4    0    0  0.33520130992E+02  0.15429450591E+01 -0.12495821774E+03  0.12938522343E+03  0.00000000000E+00 0.  1.
         13    1    4    4    0    0 -0.48408522693E+02 -0.60723529970E+02 -0.29955187477E+03  0.30945445196E+03  0.00000000000E+00 0. -1.
         21    1    1    2  502  501  0.32027746743E+02 -0.62713404446E+02  0.69511259663E+01  0.70760623307E+02  0.00000000000E+00 0.  1.
<scales pt_clust_5="13000.00000" pt_clust_6="13000.00000" pt_clust_7="13000.00000" pt_clust_8="13000.00000" pt_clust_9="70.41838"></scales>
<clustering>
<clus scale="   70.418">  1  9  2 -1</clus>
<clus scale="   87.997">  5  6 -1 -1</clus>
<clus scale="   92.992">  7  8 -1 -1</clus>
<clus scale="  122.565">  1  5  2 -1</clus>
<clus scale="  126.199">  2  5  1 -1</clus>
</clustering>
</event>
<event>
 9    1  0.1175034E-005  0.9970888E+02  0.7546771E-02  0.1281656E+00
         -2   -1    0    0    0  501 -0.00000000000E+00  0.00000000000E+00  0.11000286579E+03  0.11000286579E+03  0.00000000000E+00 0.  1.
          2   -1    0    0  502    0  0.00000000000E+00 -0.00000000000E+00 -0.11813047860E+03  0.11813047860E+03  0.00000000000E+00 0. -1.
         23    2    1    2    0    0  0.22143814746E+02  0.29525961679E+02  0.18422289480E+02  0.99199273311E+02  0.90216318541E+02 0.  0.
         23    2    1    2    0    0 -0.42470066883E+02 -0.17662603205E+02 -0.21065983169E+02  0.10476861704E+03  0.91744282305E+02 0.  0.
        -11    1    3    3    0    0  0.49984114718E+01 -0.22124544989E+02 -0.21851962239E+02  0.31495838803E+02  0.00000000000E+00 0. -1.
         11    1    3    3    0    0  0.17145403274E+02  0.51650506668E+02  0.40274251720E+02  0.67703434507E+02  0.00000000000E+00 0.  1.
        -11    1    4    4    0    0  0.15579278548E+02 -0.26065350754E+02  0.17042203095E+02  0.34821733391E+02  0.00000000000E+00 0.  1.
         11    1    4    4    0    0 -0.58049345431E+02  0.84027475493E+01 -0.38108186263E+02  0.69946883645E+02  0.00000000000E+00 0. -1.
         21    1    1    2  502  501  0.20326252137E+02 -0.11863358474E+02 -0.54839191245E+01  0.24165454044E+02  0.00000000000E+00 0.  1.
<scales pt_clust_5="13000.00000" pt_clust_6="13000.00000" pt_clust_7="13000.00000" pt_clust_8="13000.00000" pt_clust_9="23.53499"></scales>
<clustering>
<clus scale="   23.535">  2  9  1 -1</clus>
<clus scale="   90.216">  5  6 -1 -1</clus>
<clus scale="   91.744">  7  8 -1 -1</clus>
<clus scale="   98.305">  1  5  2 -1</clus>
<clus scale="   23.535">  2  5  1 -1</clus>
</clustering>
</event>
<event>
 9    1  0.1175034E-005  0.2521524E+03  0.7546771E-02  0.1151893E+00
         -1   -1    0    0    0  501 -0.00000000000E+00  0.00000000000E+00  0.12225679499E+03  0.12225679499E+03  0.00000000000E+00 0.  1.
          1   -1    0    0  502    0  0.00000000000E+00 -0.00000000000E+00 -0.74460608490E+03  0.74460608490E+03  0.00000000000E+00 0. -1.
         23    2    1    2    0    0 -0.22142073241E+03  0.22363792009E+02 -0.27877779966E+03  0.36713303672E+03  0.86846560852E+02 0.  0.
         23    2    1    2    0    0 -0.24448760636E+02 -0.91016916394E+00 -0.18055580882E+03  0.20394921849E+03  0.91631399197E+02 0.  0.
        -13    1    4    4    0    0 -0.51572149044E+02 -0.13635543285E+02 -0.62589508348E+02  0.82237832857E+02  0.00000000000E+00 0. -1.
         13    1    4    4    0    0  0.27123388408E+02  0.12725374121E+02 -0.11796630047E+03  0.12171138563E+03  0.00000000000E+00 0.  1.
        -13    1    3    3    0    0 -0.96764838657E+02  0.14798107288E+02 -0.19055880405E+03  0.21423136040E+03  0.00000000000E+00 0. -1.
         13    1    3    3    0    0 -0.12465589375E+03  0.75656847203E+01 -0.88218995608E+02  0.15290167631E+03  0.00000000000E+00 0.  1.
         21    1    1    2  502  501  0.24586949305E+03 -0.21453622845E+02 -0.16301568144E+03  0.29578062468E+03  0.00000000000E+00 0. -1.
<scales pt_clust_5="13000.00000" pt_clust_6="13000.00000" pt_clust_7="13000.00000" pt_clust_8="13000.00000" pt_clust_9="236.72452"></scales>
<clustering>
<clus scale="   86.847">  7  8 -1 -1</clus>
<clus scale="   91.631">  5  6 -1 -1</clus>
<clus scale="   94.841">  2  5  1 -1</clus>
<clus scale="  236.725">  1  9  2 -1</clus>
<clus scale="   94.841">  2  5  1 -1</clus>
</clustering>
</event>
<event>
 9    1  0.1175034E-005  0.1004199E+03  0.7546771E-02  0.1281119E+00
         -1   -1    0    0    0  501 -0.00000000000E+00  0.00000000000E+00  0.65082420488E+02  0.65082420488E+02  0.00000000000E+00 0.  1.
          1   -1    0    0  502    0  0.00000000000E+00 -0.00000000000E+00 -0.26712546140E+03  0.26712546140E+03  0.00000000000E+00 0. -1.
         23    2    1    2    0    0 -0.23563088483E+02 -0.82817644958E+01 -0.11192490898E+02  0.94899310328E+02  0.90866938356E+02 0.  0.
         23    2    1    2    0    0  0.33257074917E+02 -0.24213735786E+02 -0.16591251108E+03  0.19521538093E+03  0.94285447373E+02 0.  0.
        -11    1    4    4    0    0 -0.14475458539E+02  0.28255319810E+02 -0.56889464789E+02  0.65148393698E+02  0.00000000000E+00 0. -1.
         11    1    4    4    0    0  0.47732533456E+02 -0.52469055596E+02 -0.10902304629E+03  0.13006698723E+03  0.00000000000E+00 0.  1.
        -11    1    3    3    0    0 -0.38822609446E+02 -0.37457041157E+02  0.11179665743E+02  0.55092738746E+02  0.00000000000E+00 0.  1.
         11    1    3    3    0    0  0.15259520963E+02  0.29175276662E+02 -0.22372156641E+02  0.39806571581E+02  0.00000000000E+00 0. -1.
         21    1    1    2  502  501 -0.96939864344E+01  0.32495500282E+02 -0.24938038934E+02  0.42093190630E+02  0.00000000000E+00 0. -1.
<scales pt_clust_5="13000.00000" pt_clust_6="13000.00000" pt_clust_7="13000.00000" pt_clust_8="13000.00000" pt_clust_9="33.91063"></scales>
<clustering>
<clus scale="   33.911">  1  9  2 -1</clus>
<clus scale="   90.867">  7  8 -1 -1</clus>
<clus scale="   94.285">  5  6 -1 -1</clus>
<clus scale="   97.217">  1  7  2 -1</clus>
<clus scale="  100.420">  2  5  1 -1</clus>
</clustering>
</event>
<event>
 9    1  0.1175034E-005  0.9544842E+02  0.7546771E-02  0.1290532E+00
          1   -1    0    0  502    0  0.00000000000E+00  0.00000000000E+00  0.14457179594E+03  0.14457179594E+03  0.00000000000E+00 0. -1.
         -1   -1    0    0    0  501 -0.00000000000E+00 -0.00000000000E+00 -0.97450454945E+02  0.97450454945E+02  0.00000000000E+00 0.  1.
         23    2    1    2    0    0 -0.32519707853E+02  0.30177173625E+02  0.94935434920E+01  0.10109712373E+03  0.90345491595E+02 0.  0.
         23    2    1    2    0    0  0.18156803465E+02 -0.89480020971E+01  0.56560931102E+02  0.10905924738E+03  0.91022218485E+02 0.  0.
        -11    1    4    4    0    0  0.46102449444E+02  0.19728625807E+02  0.17475568335E+02  0.53104143055E+02  0.00000000000E+00 0.  1.
         11    1    4    4    0    0 -0.27945645980E+02 -0.28676627904E+02  0.39085362767E+02  0.55955104323E+02  0.00000000000E+00 0. -1.
        -11    1    3    3    0    0  0.13899796630E+02 -0.21710105777E+02 -0.11717776377E+02  0.28316767514E+02  0.00000000000E+00 0.  1.
         11    1    3    3    0    0 -0.46419504483E+02  0.51887279402E+02  0.21211319869E+02  0.72780356215E+02  0.00000000000E+00 0. -1.
         21    1    1    2  502  501  0.14362904388E+02 -0.21229171528E+02 -0.18933133598E+02  0.31865879779E+02  0.00000000000E+00 0.  1.
<scales pt_clust_5="13000.00000" pt_clust_6="13000.00000" pt_clust_7="13000.00000" pt_clust_8="13000.00000" pt_clust_9="25.63144"></scales>
<clustering>
<clus scale="   25.631">  2  9  1 -1</clus>
<clus scale="   90.345">  7  8 -1 -1</clus>
<clus scale="   91.022">  5  6 -1 -1</clus>
<clus scale="   94.803">  2  7  1 -1</clus>
<clus scale="   95.448">  1  5  2 -1</clus>
</clustering>
</event>
<event>
 9    1  0.1175034E-005  0.1241848E+03  0.7546771E-02  0.1236649E+00
          3   -1    0    0  502    0  0.00000000000E+00  0.00000000000E+00  0.55203191651E+02  0.55203191651E+02  0.00000000000E+00 0. -1.
         -3   -1    0    0    0  501 -0.00000000000E+00 -0.00000000000E+00 -0.35996453429E+03  0.35996453429E+03  0.00000000000E+00 0.  1.
         23    2    1    2    0    0  0.28957011993E+02 -0.77676449890E+02 -0.13007999232E+03  0.17857971717E+03  0.89987618975E+02 0.  0.
         23    2    1    2    0    0 -0.49986248642E+02  0.73719520346E+02 -0.10569757767E+03  0.16436164950E+03  0.88935826124E+02 0.  0.
        -13    1    4    4    0    0 -0.37040514816E+02  0.72028126976E+01 -0.85807771245E+02  0.93738219818E+02  0.00000000000E+00 0.  1.
         13    1    4    4    0    0 -0.12945733826E+02  0.66516707648E+02 -0.19889806424E+02  0.70623429683E+02  0.00000000000E+00 0. -1.
        -13    1    3    3    0    0 -0.22932472828E+02  0.10935656551E+01 -0.80165739885E+01  0.24317887539E+02  0.00000000000E+00 0. -1.
         13    1    3    3    0    0  0.51889484821E+02 -0.78770015546E+02 -0.12206341834E+03  0.15426182963E+03  0.00000000000E+00 0.  1.
         21    1    1    2  502  501  0.21029236649E+02  0.39569295444E+01 -0.68983772644E+02  0.72226359272E+02  0.00000000000E+00 0.  1.
<scales pt_clust_5="13000.00000" pt_clust_6="13000.00000" pt_clust_7="13000.00000" pt_clust_8="13000.00000" pt_clust_9="21.39827"></scales>
<clustering>
<clus scale="   21.398">  2  9  1 -1</clus>
<clus scale="   88.936">  5  6 -1 -1</clus>
<clus scale="   89.988">  7  8 -1 -1</clus>
<clus scale="  123.425">  1  5  2 -1</clus>
<clus scale="  123.425">  1  5  2 -1</clus>
</clustering>
</event>
<event>
 9    1  0.1175034E-005  0.2155985E+03  0.7546771E-02  0.1137666E+00
          1   -1    0    0  502    0  0.00000000000E+00  0.00000000000E+00  0.71433421566E+03  0.71433421566E+03  0.00000000000E+00 0. -1.
         -1   -1    0    0    0  501 -0.00000000000E+00 -0.00000000000E+00 -0.12279563512E+03  0.12279563512E+03  0.00000000000E+00 0.  1.
         23    2    1    2    0    0 -0.21440025149E+03  0.37793523257E+02  0.80171573347E+02  0.24933941559E+03  0.91361068055E+02 0.  0.
         23    2    1    2    0    0  0.17218049785E+03 -0.73580079430E+02  0.47984134682E+03  0.52409543961E+03  0.96789254391E+02 0.  0.
        -11    1    3    3    0    0 -0.55391413682E+02 -0.29838244709E+02  0.15139828563E+02  0.64712780545E+02  0.00000000000E+00 0. -1.
         11    1    3    3    0    0 -0.15900883781E+03  0.67631767966E+02  0.65031744784E+02  0.18462663505E+03  0.00000000000E+00 0.  1.
        -11    1    4    4    0    0  0.27208531786E+02  0.61471057296E+01  0.17225647616E+02  0.32784356736E+02  0.00000000000E+00 0.  1.
         11    1    4    4    0    0  0.14497196607E+03 -0.79727185159E+02  0.46261569921E+03  0.49131108287E+03  0.00000000000E+00 0. -1.
         21    1    1    2  502  501  0.42219753633E+02  0.35786556173E+02  0.31525660373E+02  0.63694995577E+02  0.00000000000E+00 0. -1.
<scales pt_clust_5="13000.00000" pt_clust_6="13000.00000" pt_clust_7="13000.00000" pt_clust_8="13000.00000" pt_clust_9="55.34605"></scales>
<clustering>
<clus scale="   55.346">  2  9  1 -1</clus>
<clus scale="   91.361">  5  6 -1 -1</clus>
<clus scale="   96.789">  7  8 -1 -1</clus>
<clus scale="  213.217">  2  5  1 -1</clus>
<clus scale="  215.598">  1  5  2 -1</clus>
</clustering>
</event>
<event>
 9    1  0.1175034E-005  0.9756442E+02  0.7546771E-02  0.1285756E+00
         -2   -1    0    0    0  501 -0.00000000000E+00  0.00000000000E+00  0.70224975488E+02  0.70224975488E+02  0.00000000000E+00 0.  1.
          2   -1    0    0  502    0  0.00000000000E+00 -0.00000000000E+00 -0.23036114859E+03  0.23036114859E+03  0.00000000000E+00 0. -1.
         23    2    1    2    0    0 -0.26619467274E+02 -0.20178739838E+02 -0.28198910810E+02  0.10166256951E+03  0.91784104778E+02 0.  0.
         23    2    1    2    0    0  0.35165391163E+02 -0.20462197854E+02 -0.11904674834E+03  0.15543925876E+03  0.91290353251E+02 0.  0.
        -11    1    3    3    0    0 -0.18283623242E+02 -0.56613963723E+02 -0.23604133118E+02  0.64004584739E+02  0.00000000000E+00 0.  1.
         11    1    3    3    0    0 -0.83358440325E+01  0.36435223885E+02 -0.45947776922E+01  0.37657984775E+02  0.00000000000E+00 0. -1.
        -13    1    4    4    0    0  0.37362710599E+02  0.18435012612E+00 -0.12761910880E+03  0.13297609958E+03  0.00000000000E+00 0. -1.
         13    1    4    4    0    0 -0.21973194356E+01 -0.20646547980E+02  0.85723604661E+01  0.22463159176E+02  0.00000000000E+00 0.  1.
         21    1    1    2  502  501 -0.85459238891E+01  0.40640937692E+02 -0.12890513951E+02  0.43484295804E+02  0.00000000000E+00 0. -1.
<scales pt_clust_5="13000.00000" pt_clust_6="13000.00000" pt_clust_7="13000.00000" pt_clust_8="13000.00000" pt_clust_9="41.52973"></scales>
<clustering>
<clus scale="   41.530">  1  9  2 -1</clus>
<clus scale="   91.290">  7  8 -1 -1</clus>
<clus scale="   91.784">  5  6 -1 -1</clus>
<clus scale="   97.100">  2  7  1 -1</clus>
<clus scale="   97.100">  2  5  1 -1</clus>
</clustering>
</event>
<event>
 9    1  0.1175034E-005  0.1263578E+03  0.7546771E-02  0.1238331E+00
          2   -1    0    0  502    0  0.00000000000E+00  0.00000000000E+00  0.51906466360E+03  0.51906466360E+03  0.00000000000E+00 0. -1.
         -2   -1    0    0    0  501 -0.00000000000E+00 -0.00000000000E+00 -0.42017513457E+02  0.42017513457E+02  0.00000000000E+00 0.  1.
         23    2    1    2    0    0  0.63809308725E+02  0.18566096114E+02  0.19850916292E+03  0.22830688245E+03  0.91114307359E+02 0.  0.
         23    2    1    2    0    0 -0.69695920763E+02  0.42450674895E+01  0.28139393196E+03  0.30904434843E+03  0.10700617920E+03 0.  0.
        -11    1    4    4    0    0 -0.18896270605E+02 -0.15912958187E+02  0.24822706783E+01  0.24828470528E+02  0.00000000000E+00 0.  1.
         11    1    4    4    0    0 -0.50799650158E+02  0.20158025677E+02  0.27891166128E+03  0.28421587790E+03  0.00000000000E+00 0. -1.
        -11    1    3    3    0    0  0.19617180467E+02  0.29716247081E+02  0.17186132280E+03  0.17551126284E+03  0.00000000000E+00 0. -1.
         11    1    3    3    0    0  0.44192128258E+02 -0.11150150967E+02  0.26647840119E+02  0.52795619606E+02  0.00000000000E+00 0.  1.
         21    1    1    2  502  501  0.58866120376E+01 -0.22811163604E+02 -0.28559447307E+01  0.23730946179E+02  0.00000000000E+00 0.  1.
<scales pt_clust_5="13000.00000" pt_clust_6="13000.00000" pt_clust_7="13000.00000" pt_clust_8="13000.00000" pt_clust_9="23.55847"></scales>
<clustering>
<clus scale="   23.558">  2  9  1 -1</clus>
<clus scale="   91.114">  7  8 -1 -1</clus>
<clus scale="  107.006">  5  6 -1 -1</clus>
<clus scale="  113.216">  2  7  1 -1</clus>
<clus scale="  126.358">  1  5  2 -1</clus>
</clustering>
</event>
<event>
 9    1  0.1175034E-005  0.1052254E+03  0.7546771E-02  0.1270164E+00
         -1   -1    0    0    0  501 -0.00000000000E+00  0.00000000000E+00  0.44785013385E+02  0.44785013385E+02  0.00000000000E+00 0.  1.
          1   -1    0    0  502    0  0.00000000000E+00 -0.00000000000E+00 -0.43106650045E+03  0.43106650045E+03  0.00000000000E+00 0. -1.
         23    2    1    2    0    0  0.65226623758E+02  0.29302030983E+01 -0.11809534379E+03  0.16266610503E+03  0.90833104991E+02 0.  0.
         23    2    1    2    0    0 -0.41129182044E+02 -0.22125450503E+02 -0.26225819151E+03  0.28181209480E+03  0.91964953024E+02 0.  0.
        -13    1    3    3    0    0  0.29926472499E+02  0.21963013139E+02  0.86144948539E+00  0.37130981641E+02  0.00000000000E+00 0.  1.
         13    1    3    3    0    0  0.35300151258E+02 -0.19032810041E+02 -0.11895679327E+03  0.12553512338E+03  0.00000000000E+00 0. -1.
        -13    1    4    4    0    0  0.26782087296E+02  0.66290927443E+01 -0.49999547748E+02  0.57106740806E+02  0.00000000000E+00 0.  1.
         13    1    4    4    0    0 -0.67911269340E+02 -0.28754543248E+02 -0.21225864376E+03  0.22470535399E+03  0.00000000000E+00 0. -1.
         21    1    1    2  502  501 -0.24097441714E+02  0.19195247405E+02 -0.59279517687E+01  0.31373314015E+02  0.00000000000E+00 0. -1.
<scales pt_clust_5="13000.00000" pt_clust_6="13000.00000" pt_clust_7="13000.00000" pt_clust_8="13000.00000" pt_clust_9="30.80818"></scales>
<clustering>
<clus scale="   30.808">  1  9  2 -1</clus>
<clus scale="   90.833">  5  6 -1 -1</clus>
<clus scale="   91.965">  7  8 -1 -1</clus>
<clus scale="  104.238">  1  5  2 -1</clus>
<clus scale="  105.225">  2  5  1 -1</clus>
</clustering>
</event>
<event>
 9    1  0.1175034E-005  0.9964709E+02  0.7546771E-02  0.1281733E+00
         -1   -1    0    0    0  501 -0.00000000000E+00  0.00000000000E+00  0.10640418449E+03  0.10640418449E+03  0.00000000000E+00 0.  1.
          1   -1    0    0  502    0  0.00000000000E+00 -0.00000000000E+00 -0.14442524004E+03  0.14442524004E+03  0.00000000000E+00 0. -1.
         23    2    1    2    0    0  0.52722645929E+02 -0.23745415657E+02  0.14248297960E+02  0.10600809441E+03  0.87699372448E+02 0.  0.
         23    2    1    2    0    0 -0.40318955041E+02 -0.41183129750E+01 -0.57949865884E+02  0.11379703090E+03  0.89157157022E+02 0.  0.
        -13    1    4    4    0    0  0.26690375823E+02 -0.14056380013E+02 -0.16586462235E+02  0.34424826944E+02  0.00000000000E+00 0.  1.
         13    1    4    4    0    0 -0.67009330864E+02  0.99380670384E+01 -0.41363403649E+02  0.79372203956E+02  0.00000000000E+00 0. -1.
        -13    1    3    3    0    0  0.74575895796E+02 -0.22295528166E+02 -0.33544886443E+01  0.77909610473E+02  0.00000000000E+00 0.  1.
         13    1    3    3    0    0 -0.21853249867E+02 -0.14498874913E+01  0.17602786604E+02  0.28098483940E+02  0.00000000000E+00 0. -1.
         21    1    1    2  502  501 -0.12403690889E+02  0.27863728632E+02  0.56805123722E+01  0.31024299214E+02  0.00000000000E+00 0.  1.
<scales pt_clust_5="13000.00000" pt_clust_6="13000.00000" pt_clust_7="13000.00000" pt_clust_8="13000.00000" pt_clust_9="30.49982"></scales>
<clustering>
<clus scale="   30.500">  1  9  2 -1</clus>
<clus scale="   87.699">  7  8 -1 -1</clus>
<clus scale="   89.157">  5  6 -1 -1</clus>
<clus scale="   98.345">  1  7  2 -1</clus>
<clus scale="   99.647">  2  5  1 -1</clus>
</clustering>
</event>
<event>
 9    1  0.1175034E-005  0.1631920E+03  0.7546771E-02  0.1185782E+00
          1   -1    0    0  502    0  0.00000000000E+00  0.00000000000E+00  0.27980579566E+03  0.27980579566E+03  0.00000000000E+00 0. -1.
         -1   -1    0    0    0  501 -0.00000000000E+00 -0.00000000000E+00 -0.21910451477E+03  0.21910451477E+03  0.00000000000E+00 0.  1.
         23    2    1    2    0    0  0.17177794461E+03  0.10163254706E+02 -0.53215867521E+01  0.19263697671E+03  0.86427608503E+02 0.  0.
         23    2    1    2    0    0 -0.12081742836E+03 -0.28102351171E+02  0.14455051187E+03  0.21095609338E+03  0.90669894211E+02 0.  0.
        -11    1    3    3    0    0  0.65602413060E+02  0.13185264092E+02 -0.43448604972E+02  0.79782887028E+02  0.00000000000E+00 0.  1.
         11    1    3    3    0    0  0.10617553155E+03 -0.30220093860E+01  0.38127018220E+02  0.11285408969E+03  0.00000000000E+00 0. -1.
        -13    1    4    4    0    0 -0.34054372069E+02  0.21206195122E+02  0.65438781908E+01  0.40647574471E+02  0.00000000000E+00 0. -1.
         13    1    4    4    0    0 -0.86763056291E+02 -0.49308546293E+02  0.13800663367E+03  0.17030851891E+03  0.00000000000E+00 0.  1.
         21    1    1    2  502  501 -0.50960516250E+02  0.17939096465E+02 -0.78527644222E+02  0.95317240337E+02  0.00000000000E+00 0.  1.
<scales pt_clust_5="13000.00000" pt_clust_6="13000.00000" pt_clust_7="13000.00000" pt_clust_8="13000.00000" pt_clust_9="54.02578"></scales>
<clustering>
<clus scale="   54.026">  2  9  1 -1</clus>
<clus scale="   86.428">  5  6 -1 -1</clus>
<clus scale="   90.670">  7  8 -1 -1</clus>
<clus scale="  160.874">  2  5  1 -1</clus>
<clus scale="  163.192">  1  5  2 -1</clus>
</clustering>
</event>
<event>
 9    1  0.1175034E-005  0.1089833E+03  0.7546771E-02  0.1266526E+00
         -1   -1    0    0    0  501 -0.00000000000E+00  0.00000000000E+00  0.95923641416E+02  0.95923641416E+02  0.00000000000E+00 0.  1.
          1   -1    0    0  502    0  0.00000000000E+00 -0.00000000000E+00 -0.17351729790E+03  0.17351729790E+03  0.00000000000E+00 0. -1.
         23    2    1    2    0    0  0.16307104634E+02  0.54409811906E+02 -0.51944833485E+02  0.11745309966E+03  0.88716490020E+02 0.  0.
         23    2    1    2    0    0 -0.20131752111E+01 -0.39032746762E+02 -0.52520113870E+02  0.11788744634E+03  0.98038153030E+02 0.  0.
        -11    1    3    3    0    0 -0.22254710152E+02  0.62101283143E+02 -0.30749855383E+02  0.72783206154E+02  0.00000000000E+00 0. -1.
         11    1    3    3    0    0  0.38561814786E+02 -0.76914712366E+01 -0.21194978103E+02  0.44669893509E+02  0.00000000000E+00 0.  1.
        -11    1    4    4    0    0  0.23597985005E+02 -0.61654563306E+02 -0.51453431582E+02  0.83699496380E+02  0.00000000000E+00 0.  1.
         11    1    4    4    0    0 -0.25611160216E+02  0.22621816544E+02 -0.10666822876E+01  0.34187949960E+02  0.00000000000E+00 0. -1.
         21    1    1    2  502  501 -0.14293929423E+02 -0.15377065145E+02  0.26871290873E+02  0.34100393311E+02  0.00000000000E+00 0. -1.
<scales pt_clust_5="13000.00000" pt_clust_6="13000.00000" pt_clust_7="13000.00000" pt_clust_8="13000.00000" pt_clust_9="20.99454"></scales>
<clustering>
<clus scale="   20.995">  1  9  2 -1</clus>
<clus scale="   88.716">  5  6 -1 -1</clus>
<clus scale="   98.038">  7  8 -1 -1</clus>
<clus scale="  100.680">  1  5  2 -1</clus>
<clus scale="  108.983">  2  5  1 -1</clus>
</clustering>
</event>
<event>
 9    1  0.1175034E-005  0.1837707E+03  0.7546771E-02  0.1195576E+00
         -2   -1    0    0    0  501 -0.00000000000E+00  0.00000000000E+00  0.64165500470E+02  0.64165500470E+02  0.00000000000E+00 0.  1.
          2   -1    0    0  502    0  0.00000000000E+00 -0.00000000000E+00 -0.94108311135E+03  0.94108311135E+03  0.00000000000E+00 0. -1.
         23    2    1    2    0    0 -0.62688021464E+01 -0.15473054373E+01 -0.70610109727E+02  0.11498947434E+03  0.90526789287E+02 0.  0.
         23    2    1    2    0    0  0.24076159639E+02  0.15823885470E+03 -0.61642575536E+03  0.64343040947E+03  0.91666697061E+02 0.  0.
        -13    1    3    3    0    0  0.33336781065E+02 -0.12653241831E+02 -0.29137174737E+01  0.35776182722E+02  0.00000000000E+00 0.  1.
         13    1    3    3    0    0 -0.39605583212E+02  0.11105936393E+02 -0.67696392254E+02  0.79213291617E+02  0.00000000000E+00 0. -1.
        -13    1    4    4    0    0 -0.53855642691E+00  0.78988926803E+02 -0.14848512860E+03  0.16818850738E+03  0.00000000000E+00 0.  1.
         13    1    4    4    0    0  0.24614716066E+02  0.79249927895E+02 -0.46794062677E+03  0.47524190208E+03  0.00000000000E+00 0. -1.
         21    1    1    2  502  501 -0.17807357493E+02 -0.15669154926E+03 -0.18988174579E+03  0.24682872802E+03  0.00000000000E+00 0.  1.
<scales pt_clust_5="13000.00000" pt_clust_6="13000.00000" pt_clust_7="13000.00000" pt_clust_8="13000.00000" pt_clust_9="159.27616"></scales>
<clustering>
<clus scale="   90.527">  5  6 -1 -1</clus>
<clus scale="   90.757">  1  5  2 -1</clus>
<clus scale="   91.667">  7  8 -1 -1</clus>
<clus scale="  159.276">  1  9  2 -1</clus>
<clus scale="  183.771">  2  5  1 -1</clus>
</clustering>
</event>
<event>
 9    1  0.1175034E-005  0.1409388E+03  0.7546771E-02  0.1212120E+00
          1   -1    0    0  502    0  0.00000000000E+00  0.00000000000E+00  0.36860449410E+03  0.36860449410E+03  0.00000000000E+00 0. -1.
         -1   -1    0    0    0  501 -0.00000000000E+00 -0.00000000000E+00 -0.21134331506E+03  0.21134331506E+03  0.00000000000E+00 0.  1.
         23    2    1    2    0    0 -0.42624419116E+02  0.11934259534E+02 -0.10565207520E+03  0.14724661891E+03  0.92519933691E+02 0.  0.
         23    2    1    2    0    0  0.10754408090E+03  0.43180510739E+02  0.30397671281E+03  0.33815803599E+03  0.92296963792E+02 0.  0.
        -11    1    4    4    0    0  0.79110708726E+02  0.66301143397E+02  0.26626907575E+03  0.28557585078E+03  0.00000000000E+00 0. -1.
         11    1    4    4    0    0  0.28433372176E+02 -0.23120632658E+02  0.37707637067E+02  0.52582185205E+02  0.00000000000E+00 0.  1.
        -13    1    3    3    0    0 -0.17198135823E+02  0.48287036182E+02 -0.29571060136E+02  0.59176526905E+02  0.00000000000E+00 0. -1.
         13    1    3    3    0    0 -0.25426283293E+02 -0.36352776649E+02 -0.76081015062E+02  0.88070092001E+02  0.00000000000E+00 0.  1.
         21    1    1    2  502  501 -0.64919661786E+02 -0.55114770272E+02 -0.41063458572E+02  0.94543154265E+02  0.00000000000E+00 0.  1.
<scales pt_clust_5="13000.00000" pt_clust_6="13000.00000" pt_clust_7="13000.00000" pt_clust_8="13000.00000" pt_clust_9="85.15985"></scales>
<clustering>
<clus scale="   85.160">  2  9  1 -1</clus>
<clus scale="   92.297">  5  6 -1 -1</clus>
<clus scale="   92.520">  7  8 -1 -1</clus>
<clus scale="  140.793">  1  5  2 -1</clus>
<clus scale="  140.793">  1  5  2 -1</clus>
</clustering>
</event>
<event>
 9    1  0.1175034E-005  0.1525297E+03  0.7546771E-02  0.1197757E+00
         -3   -1    0    0    0  501 -0.00000000000E+00  0.00000000000E+00  0.24266912047E+03  0.24266912047E+03  0.00000000000E+00 0.  1.
          3   -1    0    0  502    0  0.00000000000E+00 -0.00000000000E+00 -0.15301583648E+03  0.15301583648E+03  0.00000000000E+00 0. -1.
         23    2    1    2    0    0  0.78426345816E+02 -0.38814694614E+02  0.54959616712E+02  0.13868201804E+03  0.92492542523E+02 0.  0.
         23    2    1    2    0    0 -0.14478039515E+03  0.42393236876E+02 -0.11129859532E+02  0.17628453061E+03  0.90519680766E+02 0.  0.
        -11    1    4    4    0    0 -0.30351954312E+02  0.37758946060E+02 -0.34406904089E+02  0.59420654549E+02  0.00000000000E+00 0. -1.
         11    1    4    4    0    0 -0.11442844084E+03  0.46342908159E+01  0.23277044557E+02  0.11686387606E+03  0.00000000000E+00 0.  1.
        -13    1    3    3    0    0  0.25743876528E+02 -0.63199294159E+02  0.20873221226E+02  0.71362380322E+02  0.00000000000E+00 0.  1.
         13    1    3    3    0    0  0.52682469288E+02  0.24384599545E+02  0.34086395486E+02  0.67319637718E+02  0.00000000000E+00 0. -1.
         21    1    1    2  502  501  0.66354049337E+02 -0.35785422617E+01  0.45823526811E+02  0.80718408294E+02  0.00000000000E+00 0.  1.
<scales pt_clust_5="13000.00000" pt_clust_6="13000.00000" pt_clust_7="13000.00000" pt_clust_8="13000.00000" pt_clust_9="66.45048"></scales>
<clustering>
<clus scale="   66.450">  1  9  2 -1</clus>
<clus scale="   90.520">  5  6 -1 -1</clus>
<clus scale="   92.493">  7  8 -1 -1</clus>
<clus scale="  151.342">  2  5  1 -1</clus>
<clus scale="  151.342">  2  5  1 -1</clus>
</clustering>
</event>
<event>
 9    1  0.1175034E-005  0.1730085E+03  0.7546771E-02  0.1193341E+00
         -2   -1    0    0    0  501 -0.00000000000E+00  0.00000000000E+00  0.12283595948E+03  0.12283595948E+03  0.00000000000E+00 0.  1.
          2   -1    0    0  502    0  0.00000000000E+00 -0.00000000000E+00 -0.59976269885E+03  0.59976269885E+03  0.00000000000E+00 0. -1.
         23    2    1    2    0    0  0.67829865267E+02  0.10878347439E+03 -0.27603590340E+03  0.31800038121E+03  0.92161204190E+02 0.  0.
         23    2    1    2    0    0  0.65137203914E+02 -0.32267508803E+02 -0.22207340781E+03  0.24973176743E+03  0.88120994925E+02 0.  0.
        -11    1    4    4    0    0  0.31031843896E+02 -0.46507467462E+02 -0.19771467120E+03  0.20546778598E+03  0.00000000000E+00 0. -1.
         11    1    4    4    0    0  0.34105360019E+02  0.14239958659E+02 -0.24358736610E+02  0.44263981451E+02  0.00000000000E+00 0.  1.
        -11    1    3    3    0    0  0.71710548396E+02  0.59919224160E+02 -0.23882959749E+03  0.25646109415E+03  0.00000000000E+00 0. -1.
         11    1    3    3    0    0 -0.38806831290E+01  0.48864250227E+02 -0.37206305914E+02  0.61539287058E+02  0.00000000000E+00 0.  1.
         21    1    1    2  502  501 -0.13296706918E+03 -0.76515965584E+02  0.21182571843E+02  0.15486650970E+03  0.00000000000E+00 0.  1.
<scales pt_clust_5="13000.00000" pt_clust_6="13000.00000" pt_clust_7="13000.00000" pt_clust_8="13000.00000" pt_clust_9="146.41802"></scales>
<clustering>
<clus scale="   88.121">  5  6 -1 -1</clus>
<clus scale="   92.161">  7  8 -1 -1</clus>
<clus scale="  114.234">  2  5  1 -1</clus>
<clus scale="  146.418">  1  9  2 -1</clus>
<clus scale="  114.234">  2  5  1 -1</clus>
</clustering>
</event>
<event>
 9    1  0.1175034E-005  0.1329845E+03  0.7546771E-02  0.1223241E+00
         -1   -1    0    0    0  501 -0.00000000000E+00  0.00000000000E+00  0.62473464889E+03  0.62473464889E+03  0.00000000000E+00 0.  1.
          1   -1    0    0  502    0  0.00000000000E+00 -0.00000000000E+00 -0.74066075631E+02  0.74066075631E+02  0.00000000000E+00 0. -1.
         23    2    1    2    0    0  0.12745285410E+02  0.43497808427E+02  0.40202432580E+03  0.41470017233E+03  0.91094306911E+02 0.  0.
         23    2    1    2    0    0 -0.19572129298E+02 -0.10538225304E+03  0.20678763920E+02  0.14179294432E+03  0.90493868749E+02 0.  0.
        -13    1    4    4    0    0 -0.30170550669E+01 -0.37409219353E+02 -0.35810161555E+02  0.51874078155E+02  0.00000000000E+00 0. -1.
         13    1    4    4    0    0 -0.16555074231E+02 -0.67973033686E+02  0.56488925475E+02  0.89918866166E+02  0.00000000000E+00 0.  1.
        -13    1    3    3    0    0 -0.83677700831E+01 -0.25839918887E+02  0.15090933076E+03  0.15333410285E+03  0.00000000000E+00 0. -1.
         13    1    3    3    0    0  0.21113055493E+02  0.69337727314E+02  0.25111499504E+03  0.26136606948E+03  0.00000000000E+00 0.  1.
         21    1    1    2  502  501  0.68268438881E+01  0.61884444612E+02  0.12796548354E+03  0.14230760788E+03  0.00000000000E+00 0. -1.
<scales pt_clust_5="13000.00000" pt_clust_6="13000.00000" pt_clust_7="13000.00000" pt_clust_8="13000.00000" pt_clust_9="62.25986"></scales>
<clustering>
<clus scale="   62.260">  1  9  2 -1</clus>
<clus scale="   90.494">  5  6 -1 -1</clus>
<clus scale="   91.094">  7  8 -1 -1</clus>
<clus scale="  132.574">  2  5  1 -1</clus>
<clus scale="  132.574">  2  5  1 -1</clus>
</clustering>
</event>
<event>
 9    1  0.1175034E-005  0.1023987E+03  0.7546771E-02  0.1277496E+00
          1   -1    0    0  502    0  0.00000000000E+00  0.00000000000E+00  0.51431264826E+03  0.51431264826E+03  0.00000000000E+00 0. -1.
         -1   -1    0    0    0  501 -0.00000000000E+00 -0.00000000000E+00 -0.32878218527E+02  0.32878218527E+02  0.00000000000E+00 0.  1.
         23    2    1    2    0    0  0.29179677756E+02 -0.23350049392E+02  0.96295990112E+02  0.13678996360E+03  0.89676630341E+02 0.  0.
         23    2    1    2    0    0 -0.42439700798E+02  0.46199668099E+01  0.36656361970E+03  0.38087687671E+03  0.94211653329E+02 0.  0.
        -11    1    4    4    0    0  0.70798418975E+01  0.40479132086E+02  0.11980407383E+03  0.12665583445E+03  0.00000000000E+00 0.  1.
         11    1    4    4    0    0 -0.49519542696E+02 -0.35859165276E+02  0.24675954588E+03  0.25422104225E+03  0.00000000000E+00 0. -1.
        -13    1    3    3    0    0  0.39406739805E+02  0.25679387543E+02  0.44874738763E+02  0.65008186143E+02  0.00000000000E+00 0.  1.
         13    1    3    3    0    0 -0.10227062049E+02 -0.49029436936E+02  0.51421251350E+02  0.71781777456E+02  0.00000000000E+00 0. -1.
         21    1    1    2  502  501  0.13260023043E+02  0.18730082583E+02  0.18574819916E+02  0.29524026480E+02  0.00000000000E+00 0.  1.
<scales pt_clust_5="13000.00000" pt_clust_6="13000.00000" pt_clust_7="13000.00000" pt_clust_8="13000.00000" pt_clust_9="22.94873"></scales>
<clustering>
<clus scale="   22.949">  2  9  1 -1</clus>
<clus scale="   89.677">  7  8 -1 -1</clus>
<clus scale="   94.212">  5  6 -1 -1</clus>
<clus scale="   98.242">  2  7  1 -1</clus>
<clus scale="  102.399">  1  5  2 -1</clus>
</clustering>
</event>
<event>
 9    1  0.1175034E-005  0.9974873E+02  0.7546771E-02  0.1282291E+00
         -1   -1    0    0    0  501 -0.00000000000E+00  0.00000000000E+00  0.38082222203E+02  0.38082222203E+02  0.00000000000E+00 0.  1.
          1   -1    0    0  502    0  0.00000000000E+00 -0.00000000000E+00 -0.46003616161E+03  0.46003616161E+03  0.00000000000E+00 0. -1.
         23    2    1    2    0    0  0.21894775403E+02  0.36997864584E+02 -0.13119273854E+03  0.16551543758E+03  0.91299519487E+02 0.  0.
         23    2    1    2    0    0  0.24471937307E+02 -0.40707652427E+02 -0.25477006812E+03  0.27378971464E+03  0.88300801534E+02 0.  0.
        -11    1    3    3    0    0 -0.11480078192E+02  0.30818825660E+02 -0.12714898105E+03  0.13133337578E+03  0.00000000000E+00 0.  1.
         11    1    3    3    0    0  0.33374853595E+02  0.61790389234E+01 -0.40437574856E+01  0.34182061803E+02  0.00000000000E+00 0. -1.
        -13    1    4    4    0    0  0.53444479228E+02 -0.17554564952E+02 -0.10098767288E+03  0.11559837881E+03  0.00000000000E+00 0.  1.
         13    1    4    4    0    0 -0.28972541921E+02 -0.23153087474E+02 -0.15378239524E+03  0.15819133583E+03  0.00000000000E+00 0. -1.
         21    1    1    2  502  501 -0.46366712710E+02  0.37097878430E+01 -0.35991132741E+02  0.58813231584E+02  0.00000000000E+00 0.  1.
<scales pt_clust_5="13000.00000" pt_clust_6="13000.00000" pt_clust_7="13000.00000" pt_clust_8="13000.00000" pt_clust_9="46.51489"></scales>
<clustering>
<clus scale="   46.515">  1  9  2 -1</clus>
<clus scale="   88.301">  7  8 -1 -1</clus>
<clus scale="   91.300">  5  6 -1 -1</clus>
<clus scale="   97.012">  2  7  1 -1</clus>
<clus scale="   97.012">  2  5  1 -1</clus>
</clustering>
</event>
<event>
 9    1  0.1175034E-005  0.9936758E+02  0.7546771E-02  0.1283339E+00
          1   -1    0    0  502    0  0.00000000000E+00  0.00000000000E+00  0.72750100410E+03  0.72750100410E+03  0.00000000000E+00 0. -1.
         -1   -1    0    0    0  501 -0.00000000000E+00 -0.00000000000E+00 -0.22363454226E+02  0.22363454226E+02  0.00000000000E+00 0.  1.
         23    2    1    2    0    0  0.32172862533E+02 -0.41826126719E+02  0.16968200868E+03  0.19954841434E+03  0.90791341201E+02 0.  0.
         23    2    1    2    0    0 -0.42576672708E+01  0.37836855350E+02  0.46009750269E+03  0.46985483358E+03  0.87316076999E+02 0.  0.
        -11    1    3    3    0    0  0.39628763690E+02  0.18482961229E+02  0.80898253208E+02  0.91959698452E+02  0.00000000000E+00 0.  1.
         11    1    3    3    0    0 -0.74559011572E+01 -0.60309087948E+02  0.88783755472E+02  0.10758871589E+03  0.00000000000E+00 0. -1.
        -11    1    4    4    0    0 -0.75590621781E+01 -0.26321517847E+02  0.85208959710E+02  0.89501556063E+02  0.00000000000E+00 0. -1.
         11    1    4    4    0    0  0.33013949073E+01  0.64158373197E+02  0.37488854298E+03  0.38035327752E+03  0.00000000000E+00 0.  1.
         21    1    1    2  502  501 -0.27915195262E+02  0.39892713694E+01  0.75358038496E+02  0.80461210397E+02  0.00000000000E+00 0.  1.
<scales pt_clust_5="13000.00000" pt_clust_6="13000.00000" pt_clust_7="13000.00000" pt_clust_8="13000.00000" pt_clust_9="28.19880"></scales>
<clustering>
<clus scale="   28.199">  2  9  1 -1</clus>
<clus scale="   87.316">  7  8 -1 -1</clus>
<clus scale="   90.791">  5  6 -1 -1</clus>
<clus scale="   96.203">  1  7  2 -1</clus>
<clus scale="   96.203">  1  5  2 -1</clus>
</clustering>
</event>
<event>
 9    1  0.1175034E-005  0.9183294E+02  0.7546771E-02  0.1302253E+00
         -2   -1    0    0    0  501 -0.00000000000E+00  0.00000000000E+00  0.71652744809E+02  0.71652744809E+02  0.00000000000E+00 0.  1.
          2   -1    0    0  502    0  0.00000000000E+00 -0.00000000000E+00 -0.30392436002E+03  0.30392436002E+03  0.00000000000E+00 0. -1.
         23    2    1    2    0    0  0.14452495608E+02  0.27742967196E+02  0.11425207417E+02  0.91022673096E+02  0.84711538735E+02 0.  0.
         23    2    1    2    0    0 -0.10610350187E+01 -0.98517773763E+01 -0.24563661827E+03  0.26212256384E+03  0.90954422253E+02 0.  0.
        -11    1    4    4    0    0 -0.99868132014E+01 -0.47308127137E+02 -0.17631909585E+03  0.18282838645E+03  0.00000000000E+00 0. -1.
         11    1    4    4    0    0  0.89257781826E+01  0.37456349761E+02 -0.69317522416E+02  0.79294177387E+02  0.00000000000E+00 0.  1.
        -11    1    3    3    0    0 -0.21340980221E+02  0.44111917559E+02 -0.30219040446E+01  0.49096136422E+02  0.00000000000E+00 0.  1.
         11    1    3    3    0    0  0.35793475829E+02 -0.16368950363E+02  0.14447111461E+02  0.41926536674E+02  0.00000000000E+00 0. -1.
         21    1    1    2  502  501 -0.13391460590E+02 -0.17891189820E+02  0.19397956429E+01  0.22431867890E+02  0.00000000000E+00 0.  1.
<scales pt_clust_5="13000.00000" pt_clust_6="13000.00000" pt_clust_7="13000.00000" pt_clust_8="13000.00000" pt_clust_9="22.34784"></scales>
<clustering>
<clus scale="   22.348">  1  9  2 -1</clus>
<clus scale="   84.712">  7  8 -1 -1</clus>
<clus scale="   85.654">  1  7  2 -1</clus>
<clus scale="   90.954">  5  6 -1 -1</clus>
<clus scale="   91.833">  2  5  1 -1</clus>
</clustering>
</event>
<event>
 9    1  0.1175034E-005  0.1186156E+03  0.7546771E-02  0.1245550E+00
          3   -1    0    0  502    0  0.00000000000E+00  0.00000000000E+00  0.42648327570E+03  0.42648327570E+03  0.00000000000E+00 0. -1.
         -3   -1    0    0    0  501 -0.00000000000E+00 -0.00000000000E+00 -0.54351272843E+02  0.54351272843E+02  0.00000000000E+00 0.  1.
         23    2    1    2    0    0 -0.62651366257E+02  0.17001690575E+02  0.10327287176E+03  0.15297028064E+03  0.92305847810E+02 0.  0.
         23    2    1    2    0    0  0.54036273494E+02 -0.66767654480E+02  0.23658248146E+03  0.26792552336E+03  0.91842130811E+02 0.  0.
        -11    1    4    4    0    0  0.42481642477E+02 -0.41171248056E+02  0.23205779525E+03  0.23947981533E+03  0.00000000000E+00 0. -1.
         11    1    4    4    0    0  0.11554631016E+02 -0.25596406424E+02  0.45246862133E+01  0.28445708025E+02  0.00000000000E+00 0.  1.
        -11    1    3    3    0    0 -0.61541142479E+02  0.37726261886E+02  0.10963328425E+03  0.13126324721E+03  0.00000000000E+00 0.  1.
         11    1    3    3    0    0 -0.11102237787E+01 -0.20724571311E+02 -0.63604124928E+01  0.21707033421E+02  0.00000000000E+00 0. -1.
         21    1    1    2  502  501  0.86150927638E+01  0.49765963905E+02  0.32276649630E+02  0.59938744548E+02  0.00000000000E+00 0. -1.
<scales pt_clust_5="13000.00000" pt_clust_6="13000.00000" pt_clust_7="13000.00000" pt_clust_8="13000.00000" pt_clust_9="50.50615"></scales>
<clustering>
<clus scale="   50.506">  2  9  1 -1</clus>
<clus scale="   91.842">  5  6 -1 -1</clus>
<clus scale="   92.306">  7  8 -1 -1</clus>
<clus scale="  118.255">  1  5  2 -1</clus>
<clus scale="  118.255">  1  5  2 -1</clus>
</clustering>
</event>
<event>
 9    1  0.1175034E-005  0.3334123E+03  0.7546771E-02  0.1069671E+00
         -2   -1    0    0    0  501 -0.00000000000E+00  0.00000000000E+00  0.26713584835E+03  0.26713584835E+03  0.00000000000E+00 0.  1.
          2   -1    0    0  502    0  0.00000000000E+00 -0.00000000000E+00 -0.54890781130E+03  0.54890781130E+03  0.00000000000E+00 0. -1.
         23    2    1    2    0    0 -0.81669431736E+02  0.31982738677E+03 -0.12977158721E+03  0.36586598177E+03  0.89765240282E+02 0.  0.
         23    2    1    2    0    0  0.13842009476E+03 -0.28424316107E+03 -0.18291995990E+03  0.37640169562E+03  0.90907796646E+02 0.  0.
        -13    1    4    4    0    0  0.38993690804E+02 -0.96581006045E+02 -0.11091537346E+03  0.15215327378E+03  0.00000000000E+00 0.  1.
         13    1    4    4    0    0  0.99426403952E+02 -0.18766215502E+03 -0.72004586435E+02  0.22424842184E+03  0.00000000000E+00 0. -1.
        -13    1    3    3    0    0 -0.29554807289E+01  0.10562405022E+03 -0.50181018022E+01  0.10578447994E+03  0.00000000000E+00 0. -1.
         13    1    3    3    0    0 -0.78713951007E+02  0.21420333655E+03 -0.12475348541E+03  0.26008150183E+03  0.00000000000E+00 0.  1.
         21    1    1    2  502  501 -0.56750663020E+02 -0.35584225702E+02  0.30919584158E+02  0.73775982248E+02  0.00000000000E+00 0.  1.
<scales pt_clust_5="13000.00000" pt_clust_6="13000.00000" pt_clust_7="13000.00000" pt_clust_8="13000.00000" pt_clust_9="66.98414"></scales>
<clustering>
<clus scale="   66.984">  1  9  2 -1</clus>
<clus scale="   89.765">  7  8 -1 -1</clus>
<clus scale="   90.908">  5  6 -1 -1</clus>
<clus scale="  333.103">  1  7  2 -1</clus>
<clus scale="  333.412">  2  5  1 -1</clus>
</clustering>
</event>
<event>
 9    1  0.1175034E-005  0.1011518E+03  0.7546771E-02  0.1278794E+00
          2   -1    0    0  502    0  0.00000000000E+00  0.00000000000E+00  0.46816802092E+03  0.46816802092E+03  0.00000000000E+00 0. -1.
         -2   -1    0    0    0  501 -0.00000000000E+00 -0.00000000000E+00 -0.30380028601E+02  0.30380028601E+02  0.00000000000E+00 0.  1.
         23    2    1    2    0    0 -0.43475250121E+02  0.14621405055E+02  0.14849693117E+03  0.18073398665E+03  0.92247235757E+02 0.  0.
         23    2    1    2    0    0  0.40410160966E+02  0.59389990126E+01  0.27567311582E+03  0.29296303831E+03  0.90351658575E+02 0.  0.
        -13    1    4    4    0    0  0.40113723261E+02 -0.29474370049E+02  0.22914998603E+03  0.23449427580E+03  0.00000000000E+00 0. -1.
         13    1    4    4    0    0  0.29643770524E+00  0.35413369061E+02  0.46523129790E+02  0.58468762507E+02  0.00000000000E+00 0.  1.
        -13    1    3    3    0    0 -0.55011564086E+02  0.35144335785E+02  0.58326470878E+02  0.87540697541E+02  0.00000000000E+00 0.  1.
         13    1    3    3    0    0  0.11536313965E+02 -0.20522930730E+02  0.90170460292E+02  0.93193289109E+02  0.00000000000E+00 0. -1.
         21    1    1    2  502  501  0.30650891550E+01 -0.20560404068E+02  0.13617945323E+02  0.24851024562E+02  0.00000000000E+00 0.  1.
<scales pt_clust_5="13000.00000" pt_clust_6="13000.00000" pt_clust_7="13000.00000" pt_clust_8="13000.00000" pt_clust_9="20.78762"></scales>
<clustering>
<clus scale="   20.788">  2  9  1 -1</clus>
<clus scale="   90.352">  5  6 -1 -1</clus>
<clus scale="   92.247">  7  8 -1 -1</clus>
<clus scale="   99.426">  1  5  2 -1</clus>
<clus scale="   99.426">  1  5  2 -1</clus>
</clustering>
</event>
<event>
 9    1  0.1175034E-005  0.1877702E+03  0.7546771E-02  0.1160839E+00
         -2   -1    0    0    0  501 -0.00000000000E+00  0.00000000000E+00  0.14723225141E+03  0.14723225141E+03  0.00000000000E+00 0.  1.
          2   -1    0    0  502    0  0.00000000000E+00 -0.00000000000E+00 -0.78902642666E+03  0.78902642666E+03  0.00000000000E+00 0. -1.
         23    2    1    2    0    0  0.65908700836E+02  0.16814064967E+03 -0.27851429693E+03  0.34375309853E+03  0.89335011258E+02 0.  0.
         23    2    1    2    0    0  0.14878317637E+02 -0.15971933686E+03 -0.44211005479E+03  0.47931698654E+03  0.92476170653E+02 0.  0.
        -11    1    3    3    0    0  0.42905831183E+02  0.15007933511E+02 -0.79679906364E+02  0.91733504762E+02  0.00000000000E+00 0.  1.
         11    1    3    3    0    0  0.23002869653E+02  0.15313271616E+03 -0.19883439057E+03  0.25201959377E+03  0.00000000000E+00 0. -1.
        -11    1    4    4    0    0  0.49162528186E+02 -0.12685753125E+03 -0.35361815714E+03  0.37888730313E+03  0.00000000000E+00 0. -1.
         11    1    4    4    0    0 -0.34284210549E+02 -0.32861805612E+02 -0.88491897647E+02  0.10042968341E+03  0.00000000000E+00 0.  1.
         21    1    1    2  502  501 -0.80787018473E+02 -0.84213128129E+01  0.78830176473E+02  0.11318859300E+03  0.00000000000E+00 0.  1.
<scales pt_clust_5="13000.00000" pt_clust_6="13000.00000" pt_clust_7="13000.00000" pt_clust_8="13000.00000" pt_clust_9="81.22476"></scales>
<clustering>
<clus scale="   81.225">  1  9  2 -1</clus>
<clus scale="   89.335">  5  6 -1 -1</clus>
<clus scale="   92.476">  7  8 -1 -1</clus>
<clus scale="  186.243">  1  5  2 -1</clus>
<clus scale="  187.770">  2  5  1 -1</clus>
</clustering>
</event>
<event>
 9    1  0.1175034E-005  0.1254743E+03  0.7546771E-02  0.1238820E+00
          3   -1    0    0  502    0  0.00000000000E+00  0.00000000000E+00  0.43717097872E+03  0.43717097872E+03  0.00000000000E+00 0. -1.
         -3   -1    0    0    0  501 -0.00000000000E+00 -0.00000000000E+00 -0.15364278853E+03  0.15364278853E+03  0.00000000000E+00 0.  1.
         23    2    1    2    0    0 -0.18661655523E+01 -0.47099130238E+02 -0.19168961317E+02  0.11539037263E+03  0.10356485106E+03 0.  0.
         23    2    1    2    0    0 -0.38837913420E+02  0.64111931646E+02  0.37382306839E+03  0.39172659952E+03  0.89929522471E+02 0.  0.
        -11    1    3    3    0    0  0.25342527314E+02 -0.29485282482E+02 -0.54820166406E+02  0.67207709517E+02  0.00000000000E+00 0.  1.
         11    1    3    3    0    0 -0.27208692866E+02 -0.17613847756E+02  0.35651205089E+02  0.48182663112E+02  0.00000000000E+00 0. -1.
        -13    1    4    4    0    0  0.28218367800E+02  0.30800717617E+02  0.15026113145E+03  0.15595950793E+03  0.00000000000E+00 0.  1.
         13    1    4    4    0    0 -0.67056281220E+02  0.33311214029E+02  0.22356193694E+03  0.23576709159E+03  0.00000000000E+00 0. -1.
         21    1    1    2  502  501  0.40704078972E+02 -0.17012801408E+02 -0.71125916883E+02  0.83696795095E+02  0.00000000000E+00 0.  1.
<scales pt_clust_5="13000.00000" pt_clust_6="13000.00000" pt_clust_7="13000.00000" pt_clust_8="13000.00000" pt_clust_9="44.11641"></scales>
<clustering>
<clus scale="   44.116">  2  9  1 -1</clus>
<clus scale="   89.930">  7  8 -1 -1</clus>
<clus scale="  103.565">  5  6 -1 -1</clus>
<clus scale="  114.479">  1  7  2 -1</clus>
<clus scale="  114.479">  1  5  2 -1</clus>
</clustering>
</event>
<event>
 9    1  0.1175034E-005  0.9244168E+02  0.7546771E-02  0.1300596E+00
          1   -1    0    0  502    0  0.00000000000E+00  0.00000000000E+00  0.92692178349E+02  0.92692178349E+02  0.00000000000E+00 0. -1.
         -1   -1    0    0    0  501 -0.00000000000E+00 -0.00000000000E+00 -0.33537431979E+03  0.33537431979E+03  0.00000000000E+00 0.  1.
         23    2    1    2    0    0  0.11436816048E+02  0.44463174866E+02 -0.12671665502E+03  0.15876587611E+03  0.83914945492E+02 0.  0.
         23    2    1    2    0    0 -0.21477950214E+02 -0.41229698508E+00  0.44471416979E+02  0.10262337646E+03  0.89957646336E+02 0.  0.
        -11    1    3    3    0    0  0.32311967482E+02  0.59270957691E+02 -0.10675474988E+03  0.12630790272E+03  0.00000000000E+00 0.  1.
         11    1    3    3    0    0 -0.20875151433E+02 -0.14807782825E+02 -0.19961905136E+02  0.32457973384E+02  0.00000000000E+00 0. -1.
        -13    1    4    4    0    0 -0.51377380039E+02 -0.21434945318E+02  0.23005691248E+02  0.60235818997E+02  0.00000000000E+00 0. -1.
         13    1    4    4    0    0  0.29899429825E+02  0.21022648333E+02  0.21465725730E+02  0.42387557466E+02  0.00000000000E+00 0.  1.
         21    1    1    2  502  501  0.10041134166E+02 -0.44050877881E+02 -0.16043690340E+03  0.16667724557E+03  0.00000000000E+00 0.  1.
<scales pt_clust_5="13000.00000" pt_clust_6="13000.00000" pt_clust_7="13000.00000" pt_clust_8="13000.00000" pt_clust_9="45.18079"></scales>
<clustering>
<clus scale="   45.181">  2  9  1 -1</clus>
<clus scale="   83.915">  5  6 -1 -1</clus>
<clus scale="   86.573">  2  5  1 -1</clus>
<clus scale="   89.958">  7  8 -1 -1</clus>
<clus scale="   92.442">  1  5  2 -1</clus>
</clustering>
</event>
<event>
 9    1  0.1175034E-005  0.1052901E+03  0.7546771E-02  0.1272757E+00
          2   -1    0    0  502    0  0.00000000000E+00  0.00000000000E+00  0.28738676736E+03  0.28738676736E+03  0.00000000000E+00 0. -1.
         -2   -1    0    0    0  501 -0.00000000000E+00 -0.00000000000E+00 -0.60998791472E+02  0.60998791472E+02  0.00000000000E+00 0.  1.
         23    2    1    2    0    0  0.13252188730E+02 -0.23031292813E+02  0.24377114533E+02  0.10362490910E+03  0.97148428282E+02 0.  0.
         23    2    1    2    0    0 -0.12448616583E+02  0.43280078977E+02  0.20049536906E+03  0.22443933614E+03  0.90257904367E+02 0.  0.
        -11    1    3    3    0    0  0.21067970100E+02 -0.28889349256E+00 -0.34275543106E+02  0.40233762921E+02  0.00000000000E+00 0.  1.
         11    1    3    3    0    0 -0.78157813701E+01 -0.22742399320E+02  0.58652657639E+02  0.63391146175E+02  0.00000000000E+00 0. -1.
        -11    1    4    4    0    0  0.36953847660E+02  0.17847333291E+02  0.54464685551E+02  0.68194692863E+02  0.00000000000E+00 0. -1.
         11    1    4    4    0    0 -0.49402464242E+02  0.25432745686E+02  0.14603068351E+03  0.15624464327E+03  0.00000000000E+00 0.  1.
         21    1    1    2  502  501 -0.80357214735E+00 -0.20248786165E+02  0.15154922940E+01  0.20321313595E+02  0.00000000000E+00 0. -1.
<scales pt_clust_5="13000.00000" pt_clust_6="13000.00000" pt_clust_7="13000.00000" pt_clust_8="13000.00000" pt_clust_9="20.26472"></scales>
<clustering>
<clus scale="   20.265">  2  9  1 -1</clus>
<clus scale="   90.258">  7  8 -1 -1</clus>
<clus scale="   97.148">  5  6 -1 -1</clus>
<clus scale="   98.968">  1  7  2 -1</clus>
<clus scale="   98.968">  1  5  2 -1</clus>
</clustering>
</event>
<event>
 9    1  0.1175034E-005  0.1290025E+03  0.7546771E-02  0.1243194E+00
          2   -1    0    0  502    0  0.00000000000E+00  0.00000000000E+00  0.20083577792E+03  0.20083577792E+03  0.00000000000E+00 0. -1.
         -2   -1    0    0    0  501 -0.00000000000E+00 -0.00000000000E+00 -0.13465155811E+03  0.13465155811E+03  0.00000000000E+00 0.  1.
         23    2    1    2    0    0 -0.14276025189E+02 -0.24713720898E+02  0.85222782209E+01  0.96775851246E+02  0.92078028120E+02 0.  0.
         23    2    1    2    0    0  0.15942323129E+02 -0.84194545714E+02  0.43544658148E+02  0.12887940943E+03  0.85853862614E+02 0.  0.
        -11    1    4    4    0    0  0.48534485020E+02 -0.53805505125E+02  0.10096662339E+02  0.73161268498E+02  0.00000000000E+00 0.  1.
         11    1    4    4    0    0 -0.32592161891E+02 -0.30389040589E+02  0.33447995809E+02  0.55718140927E+02  0.00000000000E+00 0. -1.
        -13    1    3    3    0    0 -0.10863355398E+02  0.29297216894E+02  0.25204020896E+02  0.40144514912E+02  0.00000000000E+00 0. -1.
         13    1    3    3    0    0 -0.34126697908E+01 -0.54010937792E+02 -0.16681742675E+02  0.56631336334E+02  0.00000000000E+00 0.  1.
         21    1    1    2  502  501 -0.16662979394E+01  0.10890826661E+03  0.14117283444E+02  0.10983207536E+03  0.00000000000E+00 0.  1.
<scales pt_clust_5="13000.00000" pt_clust_6="13000.00000" pt_clust_7="13000.00000" pt_clust_8="13000.00000" pt_clust_9="96.28479"></scales>
<clustering>
<clus scale="   85.854">  5  6 -1 -1</clus>
<clus scale="   92.078">  7  8 -1 -1</clus>
<clus scale="   96.400">  2  7  1 -1</clus>
<clus scale="   96.285">  2  9  1 -1</clus>
<clus scale="  129.003">  1  5  2 -1</clus>
</clustering>
</event>
<event>
 9    1  0.1175034E-005  0.1026037E+03  0.7546771E-02  0.1278593E+00
          2   -1    0    0  502    0  0.00000000000E+00  0.00000000000E+00  0.44785627061E+03  0.44785627061E+03  0.00000000000E+00 0. -1.
         -2   -1    0    0    0  501 -0.00000000000E+00 -0.00000000000E+00 -0.33314622860E+02  0.33314622860E+02  0.00000000000E+00 0.  1.
         23    2    1    2    0    0 -0.30776631113E+02 -0.21289492682E+02  0.11413992165E+03  0.15272443980E+03  0.94320672584E+02 0.  0.
         23    2    1    2    0    0  0.15772526106E+02  0.49238051577E+02  0.22183038195E+03  0.24371333598E+03  0.86685139889E+02 0.  0.
        -11    1    3    3    0    0 -0.91667906911E+01 -0.38082534309E+02  0.11868512073E+03  0.12498186810E+03  0.00000000000E+00 0. -1.
         11    1    3    3    0    0 -0.21609840422E+02  0.16793041626E+02 -0.45451990756E+01  0.27742571704E+02  0.00000000000E+00 0.  1.
        -11    1    4    4    0    0 -0.11893136359E+02  0.21431983838E+02  0.72259386993E+01  0.25553684936E+02  0.00000000000E+00 0.  1.
         11    1    4    4    0    0  0.27665662465E+02  0.27806067739E+02  0.21460444325E+03  0.21815965105E+03  0.00000000000E+00 0. -1.
         21    1    1    2  502  501  0.15004105007E+02 -0.27948558894E+02  0.78571344144E+02  0.84733117681E+02  0.00000000000E+00 0. -1.
<scales pt_clust_5="13000.00000" pt_clust_6="13000.00000" pt_clust_7="13000.00000" pt_clust_8="13000.00000" pt_clust_9="31.72137"></scales>
<clustering>
<clus scale="   31.721">  1  9  2 -1</clus>
<clus scale="   86.685">  7  8 -1 -1</clus>
<clus scale="   94.321">  5  6 -1 -1</clus>
<clus scale="   95.632">  1  7  2 -1</clus>
<clus scale="   31.721">  1  5  2 -1</clus>
</clustering>
</event>
<event>
 9    1  0.1175034E-005  0.9492220E+02  0.7546771E-02  0.1291528E+00
          2   -1    0    0  502    0  0.00000000000E+00  0.00000000000E+00  0.16351874613E+03  0.16351874613E+03  0.00000000000E+00 0. -1.
         -2   -1    0    0    0  501 -0.00000000000E+00 -0.00000000000E+00 -0.14420605489E+03  0.14420605489E+03  0.00000000000E+00 0.  1.
         23    2    1    2    0    0 -0.37589804176E+02  0.30991669457E+02 -0.69175284344E+02  0.12597946513E+03  0.93338784629E+02 0.  0.
         23    2    1    2    0    0  0.61152071585E+01 -0.70021902118E+01  0.10306524037E+03  0.13957138635E+03  0.93655227778E+02 0.  0.
        -11    1    4    4    0    0 -0.27732616357E+01  0.33505007406E+02  0.90026290285E+02  0.96098956518E+02  0.00000000000E+00 0. -1.
         11    1    4    4    0    0  0.88884687943E+01 -0.40507197618E+02  0.13038950080E+02  0.43472429833E+02  0.00000000000E+00 0.  1.
        -13    1    3    3    0    0 -0.48650795841E+02  0.50824398297E+02 -0.22154169265E+02  0.73761959126E+02  0.00000000000E+00 0.  1.
         13    1    3    3    0    0  0.11060991665E+02 -0.19832728840E+02 -0.47021115079E+02  0.52217506002E+02  0.00000000000E+00 0. -1.
         21    1    1    2  502  501  0.31474597018E+02 -0.23989479245E+02 -0.14577264784E+02  0.42173949548E+02  0.00000000000E+00 0. -1.
<scales pt_clust_5="13000.00000" pt_clust_6="13000.00000" pt_clust_7="13000.00000" pt_clust_8="13000.00000" pt_clust_9="39.57455"></scales>
<clustering>
<clus scale="   39.575">  2  9  1 -1</clus>
<clus scale="   93.339">  7  8 -1 -1</clus>
<clus scale="   93.655">  5  6 -1 -1</clus>
<clus scale="   94.610">  2  7  1 -1</clus>
<clus scale="   94.922">  1  5  2 -1</clus>
</clustering>
</event>
<event>
 9    1  0.1377724E-005  0.9660409E+02  0.7546771E-02  0.1288307E+00
          2   -1    0    0  502    0  0.00000000000E+00  0.00000000000E+00  0.12051996378E+03  0.12051996378E+03  0.00000000000E+00 0. -1.
         -2   -1    0    0    0  501 -0.00000000000E+00 -0.00000000000E+00 -0.20032706223E+03  0.20032706223E+03  0.00000000000E+00 0.  1.
         23    2    1    2    0    0 -0.24966594552E+02 -0.29710477768E+02 -0.13266132958E+03  0.16539560887E+03  0.90833010159E+02 0.  0.
         23    2    1    2    0    0 -0.23821489335E+01  0.33358114631E+02  0.73878674289E+02  0.12076300070E+03  0.89482989320E+02 0.  0.
        -11    1    4    4    0    0 -0.33451595778E+02  0.46339568986E+02  0.27431830388E+02  0.63394559959E+02  0.00000000000E+00 0.  1.
         11    1    4    4    0    0  0.31069446845E+02 -0.12981454356E+02  0.46446843901E+02  0.57368440739E+02  0.00000000000E+00 0. -1.
        -13    1    3    3    0    0 -0.54427417954E+02 -0.17065691452E+02 -0.11599843689E+03  0.12926414434E+03  0.00000000000E+00 0.  1.
         13    1    3    3    0    0  0.29460823402E+02 -0.12644786316E+02 -0.16662892686E+02  0.36131464531E+02  0.00000000000E+00 0. -1.
         21    1    1    2  502  501  0.27348743485E+02 -0.36476368628E+01 -0.21024443164E+02  0.34688416442E+02  0.00000000000E+00 0. -1.
<scales pt_clust_5="13000.00000" pt_clust_6="13000.00000" pt_clust_7="13000.00000" pt_clust_8="13000.00000" pt_clust_9="27.59092"></scales>
<clustering>
<clus scale="   27.591">  2  9  1 -1</clus>
<clus scale="   89.483">  5  6 -1 -1</clus>
<clus scale="   90.833">  7  8 -1 -1</clus>
<clus scale="   95.336">  1  5  2 -1</clus>
<clus scale="   95.336">  1  5  2 -1</clus>
</clustering>
</event>
<event>
 9    1  0.1175034E-005  0.4560809E+03  0.7546771E-02  0.1025928E+00
         -1   -1    0    0    0  501 -0.00000000000E+00  0.00000000000E+00  0.12527920024E+03  0.12527920024E+03  0.00000000000E+00 0.  1.
          1   -1    0    0  502    0  0.00000000000E+00 -0.00000000000E+00 -0.19033598221E+04  0.19033598221E+04  0.00000000000E+00 0. -1.
         23    2    1    2    0    0  0.39373065942E+03 -0.17427183002E+03 -0.58621491522E+03  0.73320682584E+03  0.92465235198E+02 0.  0.
         23    2    1    2    0    0 -0.41311481140E+03  0.19391215961E+03 -0.11729547512E+04  0.12619790632E+04  0.92209188805E+02 0.  0.
        -11    1    4    4    0    0 -0.11546768862E+03  0.10008532271E+03 -0.35382716738E+03  0.38541344464E+03  0.00000000000E+00 0. -1.
         11    1    4    4    0    0 -0.29764712278E+03  0.93826836893E+02 -0.81912758382E+03  0.87656561853E+03  0.00000000000E+00 0.  1.
        -13    1    3    3    0    0  0.26748784677E+03 -0.95987728132E+02 -0.31706103002E+03  0.42578291286E+03  0.00000000000E+00 0. -1.
         13    1    3    3    0    0  0.12624281265E+03 -0.78284101887E+02 -0.26915388520E+03  0.30742391298E+03  0.00000000000E+00 0.  1.
         21    1    1    2  502  501  0.19384151979E+02 -0.19640329586E+02 -0.18910955463E+02  0.33453133347E+02  0.00000000000E+00 0. -1.
<scales pt_clust_5="13000.00000" pt_clust_6="13000.00000" pt_clust_7="13000.00000" pt_clust_8="13000.00000" pt_clust_9="27.59507"></scales>
<clustering>
<clus scale="   27.595">  1  9  2 -1</clus>
<clus scale="   92.209">  5  6 -1 -1</clus>
<clus scale="   92.465">  7  8 -1 -1</clus>
<clus scale="  456.029">  2  5  1 -1</clus>
<clus scale="  456.029">  2  5  1 -1</clus>
</clustering>
</event>
<event>
 9    1  0.1175034E-005  0.1230955E+03  0.7546771E-02  0.1246017E+00
         -1   -1    0    0    0  501 -0.00000000000E+00  0.00000000000E+00  0.11986886841E+03  0.11986886841E+03  0.00000000000E+00 0.  1.
          1   -1    0    0  502    0  0.00000000000E+00 -0.00000000000E+00 -0.36782503024E+03  0.36782503024E+03  0.00000000000E+00 0. -1.
         23    2    1    2    0    0  0.23017480802E+02 -0.23335314256E+02  0.35357194682E+02  0.12302052398E+03  0.11317940091E+03 0.  0.
         23    2    1    2    0    0 -0.30510217500E+02 -0.46298503598E+02 -0.27325904499E+03  0.29391958416E+03  0.92971992956E+02 0.  0.
        -11    1    4    4    0    0  0.23060078433E+02 -0.35341261226E+02 -0.57400007188E+02  0.71242773581E+02  0.00000000000E+00 0.  1.
         11    1    4    4    0    0 -0.53570295933E+02 -0.10957242371E+02 -0.21585903780E+03  0.22267681057E+03  0.00000000000E+00 0. -1.
        -13    1    3    3    0    0  0.23250945974E+02  0.39403574729E+02  0.39080423990E+02  0.60170821246E+02  0.00000000000E+00 0.  1.
         13    1    3    3    0    0 -0.23346517189E+00 -0.62738888985E+02 -0.37232293086E+01  0.62849702732E+02  0.00000000000E+00 0. -1.
         21    1    1    2  502  501  0.74927366979E+01  0.69633817854E+02 -0.10054311525E+02  0.70753790516E+02  0.00000000000E+00 0.  1.
<scales pt_clust_5="13000.00000" pt_clust_6="13000.00000" pt_clust_7="13000.00000" pt_clust_8="13000.00000" pt_clust_9="70.03577"></scales>
<clustering>
<clus scale="   70.036">  1  9  2 -1</clus>
<clus scale="   92.972">  5  6 -1 -1</clus>
<clus scale="  104.817">  2  5  1 -1</clus>
<clus scale="  113.179">  7  8 -1 -1</clus>
<clus scale="  104.817">  2  5  1 -1</clus>
</clustering>
</event>
<event>
 9    1  0.1175034E-005  0.2572476E+03  0.7546771E-02  0.1108945E+00
         -2   -1    0    0    0  501 -0.00000000000E+00  0.00000000000E+00  0.24992857840E+03  0.24992857840E+03  0.00000000000E+00 0.  1.
          2   -1    0    0  502    0  0.00000000000E+00 -0.00000000000E+00 -0.43513278980E+03  0.43513278980E+03  0.00000000000E+00 0. -1.
         23    2    1    2    0    0 -0.22120302028E+03  0.13534680534E+03 -0.11517141540E+02  0.27556720057E+03  0.92493802947E+02 0.  0.
         23    2    1    2    0    0  0.22332409517E+03 -0.69768949665E+02 -0.21644063144E+03  0.33118183693E+03  0.89963905852E+02 0.  0.
        -11    1    4    4    0    0  0.33907965551E+02  0.13386285908E+02 -0.76166787164E+01  0.37241865862E+02  0.00000000000E+00 0.  1.
         11    1    4    4    0    0  0.18941612962E+03 -0.83155235573E+02 -0.20882395272E+03  0.29393997107E+03  0.00000000000E+00 0. -1.
        -13    1    3    3    0    0 -0.15039237244E+03  0.39523593070E+02 -0.16105309392E+02  0.15633093452E+03  0.00000000000E+00 0.  1.
         13    1    3    3    0    0 -0.70810647840E+02  0.95823212268E+02  0.45881678517E+01  0.11923626605E+03  0.00000000000E+00 0. -1.
         21    1    1    2  502  501 -0.21210748911E+01 -0.65577855672E+02  0.42753561579E+02  0.78312330708E+02  0.00000000000E+00 0.  1.
<scales pt_clust_5="13000.00000" pt_clust_6="13000.00000" pt_clust_7="13000.00000" pt_clust_8="13000.00000" pt_clust_9="65.61215"></scales>
<clustering>
<clus scale="   65.612">  1  9  2 -1</clus>
<clus scale="   89.964">  5  6 -1 -1</clus>
<clus scale="   92.494">  7  8 -1 -1</clus>
<clus scale="  256.349">  2  5  1 -1</clus>
<clus scale="  256.349">  2  5  1 -1</clus>
</clustering>
</event>
<event>
 9    1  0.1175034E-005  0.1711919E+03  0.7546771E-02  0.1176786E+00
          3   -1    0    0  502    0  0.00000000000E+00  0.00000000000E+00  0.33168736973E+03  0.33168736973E+03  0.00000000000E+00 0. -1.
         -3   -1    0    0    0  501 -0.00000000000E+00 -0.00000000000E+00 -0.13350835951E+03  0.13350835951E+03  0.00000000000E+00 0.  1.
         23    2    1    2    0    0 -0.75452681072E+02 -0.11735768927E+03  0.32378567918E+02  0.17008357635E+03  0.91728495962E+02 0.  0.
         23    2    1    2    0    0  0.11198157625E+03  0.96624121252E+02  0.17993531835E+03  0.25079470998E+03  0.92979425343E+02 0.  0.
        -11    1    4    4    0    0  0.56681623295E+02  0.75188367989E+02  0.47019901164E+02  0.10524717671E+03  0.00000000000E+00 0.  1.
         11    1    4    4    0    0  0.55299952954E+02  0.21435753263E+02  0.13291541719E+03  0.14554753327E+03  0.00000000000E+00 0. -1.
        -11    1    3    3    0    0 -0.53845979857E+02 -0.10583290543E+03  0.60107194211E+02  0.13308969988E+03  0.00000000000E+00 0.  1.
         11    1    3    3    0    0 -0.21606701215E+02 -0.11524783838E+02 -0.27728626293E+02  0.36993876467E+02  0.00000000000E+00 0. -1.
         21    1    1    2  502  501 -0.36528895177E+02  0.20733568019E+02 -0.14134876047E+02  0.44317442914E+02  0.00000000000E+00 0. -1.
<scales pt_clust_5="13000.00000" pt_clust_6="13000.00000" pt_clust_7="13000.00000" pt_clust_8="13000.00000" pt_clust_9="42.00287"></scales>
<clustering>
<clus scale="   42.003">  2  9  1 -1</clus>
<clus scale="   91.728">  7  8 -1 -1</clus>
<clus scale="   92.979">  5  6 -1 -1</clus>
<clus scale="  170.516">  2  7  1 -1</clus>
<clus scale="  171.192">  1  5  2 -1</clus>
</clustering>
</event>
<event>
 9    1  0.1175034E-005  0.2098434E+03  0.7546771E-02  0.1142126E+00
         -1   -1    0    0    0  501 -0.00000000000E+00  0.00000000000E+00  0.35230258145E+02  0.35230258145E+02  0.00000000000E+00 0.  1.
          1   -1    0    0  502    0  0.00000000000E+00 -0.00000000000E+00 -0.14573919847E+04  0.14573919847E+04  0.00000000000E+00 0. -1.
         23    2    1    2    0    0 -0.29974716875E+02  0.18570479057E+03 -0.58414128224E+03  0.62092412326E+03  0.94556736038E+02 0.  0.
         23    2    1    2    0    0  0.52234966785E+02 -0.17993532247E+03 -0.80566624899E+03  0.83200429837E+03  0.89598190315E+02 0.  0.
        -11    1    4    4    0    0  0.12500858365E+02 -0.16462743575E+03 -0.64219548957E+03  0.66307881197E+03  0.00000000000E+00 0.  1.
         11    1    4    4    0    0  0.39734108420E+02 -0.15307886721E+02 -0.16347075943E+03  0.16892548640E+03  0.00000000000E+00 0. -1.
        -13    1    3    3    0    0  0.14506084740E+02  0.72502128296E+02 -0.34260423230E+03  0.35049200432E+03  0.00000000000E+00 0.  1.
         13    1    3    3    0    0 -0.44480801615E+02  0.11320266228E+03 -0.24153704995E+03  0.27043211894E+03  0.00000000000E+00 0. -1.
         21    1    1    2  502  501 -0.22260249910E+02 -0.57694681051E+01 -0.32354195317E+02  0.39693821218E+02  0.00000000000E+00 0.  1.
<scales pt_clust_5="13000.00000" pt_clust_6="13000.00000" pt_clust_7="13000.00000" pt_clust_8="13000.00000" pt_clust_9="22.99577"></scales>
<clustering>
<clus scale="   22.996">  1  9  2 -1</clus>
<clus scale="   89.598">  5  6 -1 -1</clus>
<clus scale="   94.557">  7  8 -1 -1</clus>
<clus scale="  207.656">  2  5  1 -1</clus>
<clus scale="  207.656">  2  5  1 -1</clus>
</clustering>
</event>
<event>
 9    1  0.1175034E-005  0.9976831E+02  0.7546771E-02  0.1284718E+00
          2   -1    0    0  502    0  0.00000000000E+00  0.00000000000E+00  0.30119758498E+03  0.30119758498E+03  0.00000000000E+00 0. -1.
         -2   -1    0    0    0  501 -0.00000000000E+00 -0.00000000000E+00 -0.38797166972E+03  0.38797166972E+03  0.00000000000E+00 0.  1.
         23    2    1    2    0    0  0.68984242664E+01 -0.43824062267E+02  0.84510777251E+02  0.13247378388E+03  0.91864548409E+02 0.  0.
         23    2    1    2    0    0  0.67967678284E+01 -0.59940875377E+01  0.17783297617E+03  0.20377526558E+03  0.99084137523E+02 0.  0.
        -11    1    3    3    0    0  0.26254458681E+02  0.21454250766E+02  0.29419993548E+02  0.44890060113E+02  0.00000000000E+00 0.  1.
         11    1    3    3    0    0 -0.19356034415E+02 -0.65278313034E+02  0.55090783703E+02  0.87583723772E+02  0.00000000000E+00 0. -1.
        -11    1    4    4    0    0  0.48412938162E+02 -0.20482728563E+02  0.72114345762E+02  0.89240313847E+02  0.00000000000E+00 0. -1.
         11    1    4    4    0    0 -0.41616170334E+02  0.14488641026E+02  0.10571863041E+03  0.11453495173E+03  0.00000000000E+00 0.  1.
         21    1    1    2  502  501 -0.13695192095E+02  0.49818149805E+02 -0.34911783817E+03  0.35292020524E+03  0.00000000000E+00 0.  1.
<scales pt_clust_5="13000.00000" pt_clust_6="13000.00000" pt_clust_7="13000.00000" pt_clust_8="13000.00000" pt_clust_9="51.66630"></scales>
<clustering>
<clus scale="   51.666">  2  9  1 -1</clus>
<clus scale="   91.865">  5  6 -1 -1</clus>
<clus scale="   92.602">  2  5  1 -1</clus>
<clus scale="   99.084">  7  8 -1 -1</clus>
<clus scale="   99.768">  1  5  2 -1</clus>
</clustering>
</event>
<event>
 9    1  0.1175034E-005  0.9309736E+02  0.7546771E-02  0.1296266E+00
         -1   -1    0    0    0  501 -0.00000000000E+00  0.00000000000E+00  0.52374013676E+02  0.52374013676E+02  0.00000000000E+00 0.  1.
          1   -1    0    0  502    0  0.00000000000E+00 -0.00000000000E+00 -0.34984897205E+03  0.34984897205E+03  0.00000000000E+00 0. -1.
         23    2    1    2    0    0 -0.10543882803E+02 -0.23060634544E+02 -0.45732109300E+02  0.10442351292E+03  0.90387376881E+02 0.  0.
         23    2    1    2    0    0  0.16172660795E+02  0.13719386104E+01 -0.25820330758E+03  0.27447952004E+03  0.91687631136E+02 0.  0.
        -11    1    4    4    0    0  0.46413957785E+02  0.19817836032E+02 -0.20064259221E+03  0.20689236794E+03  0.00000000000E+00 0. -1.
         11    1    4    4    0    0 -0.30241296990E+02 -0.18445897422E+02 -0.57560715368E+02  0.67587152100E+02  0.00000000000E+00 0.  1.
        -11    1    3    3    0    0  0.50570137409E+01 -0.53895526867E+02 -0.44110446270E+02  0.69828594962E+02  0.00000000000E+00 0. -1.
         11    1    3    3    0    0 -0.15600896544E+02  0.30834892323E+02 -0.16216630303E+01  0.34594917958E+02  0.00000000000E+00 0.  1.
         21    1    1    2  502  501 -0.56287779915E+01  0.21688695934E+02  0.64604585047E+01  0.23319952768E+02  0.00000000000E+00 0.  1.
<scales pt_clust_5="13000.00000" pt_clust_6="13000.00000" pt_clust_7="13000.00000" pt_clust_8="13000.00000" pt_clust_9="22.40720"></scales>
<clustering>
<clus scale="   22.407">  1  9  2 -1</clus>
<clus scale="   90.387">  7  8 -1 -1</clus>
<clus scale="   91.688">  5  6 -1 -1</clus>
<clus scale="   91.817">  1  7  2 -1</clus>
<clus scale="   93.097">  2  5  1 -1</clus>
</clustering>
</event>
<event>
 9    1  0.1175034E-005  0.1480301E+03  0.7546771E-02  0.1203439E+00
         -1   -1    0    0    0  501 -0.00000000000E+00  0.00000000000E+00  0.38866508701E+03  0.38866508701E+03  0.00000000000E+00 0.  1.
          1   -1    0    0  502    0  0.00000000000E+00 -0.00000000000E+00 -0.21292486855E+03  0.21292486855E+03  0.00000000000E+00 0. -1.
         23    2    1    2    0    0 -0.10784070190E+03  0.10264869946E+03  0.27530596941E+03  0.32647793013E+03  0.92887510381E+02 0.  0.
         23    2    1    2    0    0  0.31770638760E+02 -0.54779029243E+02  0.32912189801E+02  0.11502278589E+03  0.90204841906E+02 0.  0.
        -13    1    4    4    0    0  0.21324440836E+02  0.21854417277E+02  0.20280829778E+02  0.36655959787E+02  0.00000000000E+00 0.  1.
         13    1    4    4    0    0  0.10446197924E+02 -0.76633446520E+02  0.12631360023E+02  0.78366826098E+02  0.00000000000E+00 0. -1.
        -13    1    3    3    0    0 -0.73709092097E+02  0.10952068464E+02  0.89298182264E+02  0.11630624840E+03  0.00000000000E+00 0. -1.
         13    1    3    3    0    0 -0.34131609802E+02  0.91696630993E+02  0.18600778715E+03  0.21017168173E+03  0.00000000000E+00 0.  1.
         21    1    1    2  502  501  0.76070063140E+02 -0.47869670214E+02 -0.13247794075E+03  0.16008923954E+03  0.00000000000E+00 0. -1.
<scales pt_clust_5="13000.00000" pt_clust_6="13000.00000" pt_clust_7="13000.00000" pt_clust_8="13000.00000" pt_clust_9="89.87858"></scales>
<clustering>
<clus scale="   89.879">  2  9  1 -1</clus>
<clus scale="   90.205">  5  6 -1 -1</clus>
<clus scale="   92.888">  7  8 -1 -1</clus>
<clus scale="  146.362">  2  5  1 -1</clus>
<clus scale="   89.879">  2  5  1 -1</clus>
</clustering>
</event>
<event>
 9    1  0.1175034E-005  0.9418078E+02  0.7546771E-02  0.1294740E+00
         -2   -1    0    0    0  501 -0.00000000000E+00  0.00000000000E+00  0.53211665829E+02  0.53211665829E+02  0.00000000000E+00 0.  1.
          2   -1    0    0  502    0  0.00000000000E+00 -0.00000000000E+00 -0.37266974777E+03  0.37266974777E+03  0.00000000000E+00 0. -1.
         23    2    1    2    0    0 -0.19457980501E+01  0.26227550581E+02 -0.52845987464E+02  0.11081432612E+03  0.93784038851E+02 0.  0.
         23    2    1    2    0    0 -0.92232276638E+01  0.29048206060E+00 -0.27099689336E+03  0.28596073677E+03  0.90824415501E+02 0.  0.
        -11    1    4    4    0    0 -0.29335803725E+02  0.38219830240E+02 -0.15222521380E+03  0.15966796962E+03  0.00000000000E+00 0.  1.
         11    1    4    4    0    0  0.20112576061E+02 -0.37929348179E+02 -0.11877167956E+03  0.12629276715E+03  0.00000000000E+00 0. -1.
        -13    1    3    3    0    0  0.39318557247E+02  0.83500551619E+01  0.15634341984E+01  0.40225821206E+02  0.00000000000E+00 0.  1.
         13    1    3    3    0    0 -0.41264355297E+02  0.17877495419E+02 -0.54409421662E+02  0.70588504915E+02  0.00000000000E+00 0. -1.
         21    1    1    2  502  501  0.11169025714E+02 -0.26518032642E+02  0.43847988832E+01  0.29106350713E+02  0.00000000000E+00 0. -1.
<scales pt_clust_5="13000.00000" pt_clust_6="13000.00000" pt_clust_7="13000.00000" pt_clust_8="13000.00000" pt_clust_9="28.77418"></scales>
<clustering>
<clus scale="   28.774">  1  9  2 -1</clus>
<clus scale="   90.824">  5  6 -1 -1</clus>
<clus scale="   91.234">  2  5  1 -1</clus>
<clus scale="   93.784">  7  8 -1 -1</clus>
<clus scale="   91.234">  2  5  1 -1</clus>
</clustering>
</event>
<event>
 9    1  0.1175034E-005  0.1755398E+03  0.7546771E-02  0.1172350E+00
         -1   -1    0    0    0  501 -0.00000000000E+00  0.00000000000E+00  0.61649385425E+02  0.61649385425E+02  0.00000000000E+00 0.  1.
          1   -1    0    0  502    0  0.00000000000E+00 -0.00000000000E+00 -0.76298237578E+03  0.76298237578E+03  0.00000000000E+00 0. -1.
         23    2    1    2    0    0 -0.54146606934E+02 -0.15446131516E+03 -0.16795791216E+03  0.25216217756E+03  0.92659325543E+02 0.  0.
         23    2    1    2    0    0  0.29975595278E+02  0.14138738923E+03 -0.50406888740E+03  0.53229473875E+03  0.91451164600E+02 0.  0.
        -11    1    4    4    0    0  0.34123422702E+02  0.81832469197E+02 -0.41956236767E+03  0.42882810234E+03  0.00000000000E+00 0. -1.
         11    1    4    4    0    0 -0.41478274241E+01  0.59554920030E+02 -0.84506519730E+02  0.10346663640E+03  0.00000000000E+00 0.  1.
        -13    1    3    3    0    0  0.16417989668E+01 -0.94406578680E+02 -0.13286219101E+03  0.16299588769E+03  0.00000000000E+00 0.  1.
         13    1    3    3    0    0 -0.55788405900E+02 -0.60054736481E+02 -0.35095721147E+02  0.89166289872E+02  0.00000000000E+00 0. -1.
         21    1    1    2  502  501  0.24171011656E+02  0.13073925935E+02 -0.29306190788E+02  0.40174844895E+02  0.00000000000E+00 0. -1.
<scales pt_clust_5="13000.00000" pt_clust_6="13000.00000" pt_clust_7="13000.00000" pt_clust_8="13000.00000" pt_clust_9="27.48027"></scales>
<clustering>
<clus scale="   27.480">  1  9  2 -1</clus>
<clus scale="   91.451">  5  6 -1 -1</clus>
<clus scale="   92.659">  7  8 -1 -1</clus>
<clus scale="  174.905">  2  5  1 -1</clus>
<clus scale="  174.905">  2  5  1 -1</clus>
</clustering>
</event>
<event>
 9    1  0.1175034E-005  0.1024726E+03  0.7546771E-02  0.1275747E+00
          1   -1    0    0  502    0  0.00000000000E+00  0.00000000000E+00  0.33390114093E+03  0.33390114093E+03  0.00000000000E+00 0. -1.
         -1   -1    0    0    0  501 -0.00000000000E+00 -0.00000000000E+00 -0.10631785806E+03  0.10631785806E+03  0.00000000000E+00 0.  1.
         23    2    1    2    0    0  0.67328205332E+02 -0.15472068217E+02  0.22308847156E+02  0.11933316633E+03  0.94711392114E+02 0.  0.
         23    2    1    2    0    0 -0.32379287909E+02  0.72937516523E+01  0.24679803496E+03  0.26599939550E+03  0.93513588559E+02 0.  0.
        -11    1    4    4    0    0 -0.23199251769E+02  0.42833246123E+02  0.69064135558E+02  0.84514774309E+02  0.00000000000E+00 0.  1.
         11    1    4    4    0    0 -0.91800361407E+01 -0.35539494470E+02  0.17773389940E+03  0.18148462119E+03  0.00000000000E+00 0. -1.
        -11    1    3    3    0    0  0.17179937033E+02 -0.42852102722E+02  0.38316992669E+02  0.59997040522E+02  0.00000000000E+00 0.  1.
         11    1    3    3    0    0  0.50148268299E+02  0.27380034505E+02 -0.16008145513E+02  0.59336125806E+02  0.00000000000E+00 0. -1.
         21    1    1    2  502  501 -0.34948917423E+02  0.81783165647E+01 -0.41523599239E+02  0.54886437165E+02  0.00000000000E+00 0.  1.
<scales pt_clust_5="13000.00000" pt_clust_6="13000.00000" pt_clust_7="13000.00000" pt_clust_8="13000.00000" pt_clust_9="35.89306"></scales>
<clustering>
<clus scale="   35.893">  2  9  1 -1</clus>
<clus scale="   93.514">  5  6 -1 -1</clus>
<clus scale="   94.711">  7  8 -1 -1</clus>
<clus scale="  101.367">  1  5  2 -1</clus>
<clus scale="  101.367">  1  5  2 -1</clus>
</clustering>
</event>
<event>
 9    1  0.1175034E-005  0.1988424E+03  0.7546771E-02  0.1151030E+00
         -1   -1    0    0    0  501 -0.00000000000E+00  0.00000000000E+00  0.95808524470E+02  0.95808524470E+02  0.00000000000E+00 0.  1.
          1   -1    0    0  502    0  0.00000000000E+00 -0.00000000000E+00 -0.68725775935E+03  0.68725775935E+03  0.00000000000E+00 0. -1.
         23    2    1    2    0    0  0.58760528549E+02 -0.19336846345E+03 -0.10932460250E+03  0.24672424923E+03  0.89871152621E+02 0.  0.
         23    2    1    2    0    0 -0.41325818656E+02  0.16305232118E+03 -0.44792761422E+03  0.48742911563E+03  0.93027482230E+02 0.  0.
        -11    1    4    4    0    0 -0.47536688207E+02  0.14307431718E+03 -0.43990406588E+03  0.46502213296E+03  0.00000000000E+00 0. -1.
         11    1    4    4    0    0  0.62108695503E+01  0.19978004000E+02 -0.80235483402E+01  0.22406982670E+02  0.00000000000E+00 0.  1.
        -13    1    3    3    0    0  0.44624947079E+02 -0.46457411501E+02 -0.67538488825E+02  0.93333404834E+02  0.00000000000E+00 0. -1.
         13    1    3    3    0    0  0.14135581470E+02 -0.14691105195E+03 -0.41786113676E+02  0.15339084439E+03  0.00000000000E+00 0.  1.
         21    1    1    2  502  501 -0.17434709893E+02  0.30316142263E+02 -0.34197018157E+02  0.48912918964E+02  0.00000000000E+00 0. -1.
<scales pt_clust_5="13000.00000" pt_clust_6="13000.00000" pt_clust_7="13000.00000" pt_clust_8="13000.00000" pt_clust_9="34.97195"></scales>
<clustering>
<clus scale="   34.972">  1  9  2 -1</clus>
<clus scale="   89.871">  7  8 -1 -1</clus>
<clus scale="   93.027">  5  6 -1 -1</clus>
<clus scale="  197.385">  1  7  2 -1</clus>
<clus scale="  198.842">  2  5  1 -1</clus>
</clustering>
</event>
<event>
 9    1  0.1175034E-005  0.1069436E+03  0.7546771E-02  0.1271200E+00
         -1   -1    0    0    0  501 -0.00000000000E+00  0.00000000000E+00  0.76191714558E+02  0.76191714558E+02  0.00000000000E+00 0.  1.
          1   -1    0    0  502    0  0.00000000000E+00 -0.00000000000E+00 -0.20212685851E+03  0.20212685851E+03  0.00000000000E+00 0. -1.
         23    2    1    2    0    0  0.10034058773E+02 -0.47951840147E+02 -0.54903986085E+02  0.11580568674E+03  0.89422861089E+02 0.  0.
         23    2    1    2    0    0  0.17468144379E+02  0.29367479512E+02 -0.74489182251E+02  0.12914062881E+03  0.99805204355E+02 0.  0.
        -11    1    3    3    0    0  0.30831559790E+02 -0.66450488642E+02 -0.46350831573E+02  0.86687093084E+02  0.00000000000E+00 0.  1.
         11    1    3    3    0    0 -0.20797501017E+02  0.18498648495E+02 -0.85531545125E+01  0.29118593661E+02  0.00000000000E+00 0. -1.
        -13    1    4    4    0    0  0.24314369481E+02  0.96079041263E+01 -0.95788073904E+02  0.99291769483E+02  0.00000000000E+00 0. -1.
         13    1    4    4    0    0 -0.68462251018E+01  0.19759575386E+02  0.21298891652E+02  0.29848859328E+02  0.00000000000E+00 0.  1.
         21    1    1    2  502  501 -0.27502203152E+02  0.18584360635E+02  0.34580243893E+01  0.33372257507E+02  0.00000000000E+00 0. -1.
<scales pt_clust_5="13000.00000" pt_clust_6="13000.00000" pt_clust_7="13000.00000" pt_clust_8="13000.00000" pt_clust_9="33.19261"></scales>
<clustering>
<clus scale="   33.193">  1  9  2 -1</clus>
<clus scale="   89.423">  5  6 -1 -1</clus>
<clus scale="   97.326">  1  5  2 -1</clus>
<clus scale="   99.805">  7  8 -1 -1</clus>
<clus scale="  106.944">  2  5  1 -1</clus>
</clustering>
</event>
<event>
 9    1  0.1175034E-005  0.1062686E+03  0.7546771E-02  0.1271100E+00
         -1   -1    0    0    0  501 -0.00000000000E+00  0.00000000000E+00  0.26830547104E+03  0.26830547104E+03  0.00000000000E+00 0.  1.
          1   -1    0    0  502    0  0.00000000000E+00 -0.00000000000E+00 -0.48754165603E+02  0.48754165603E+02  0.00000000000E+00 0. -1.
         23    2    1    2    0    0  0.43810149626E+02  0.90966767450E+01  0.10662847358E+03  0.14696102886E+03  0.90696382986E+02 0.  0.
         23    2    1    2    0    0 -0.37748866479E+02  0.11007309059E+02  0.88696877167E+02  0.13803918984E+03  0.98191364886E+02 0.  0.
        -11    1    3    3    0    0 -0.44891652319E+01 -0.26581292617E+02  0.73703804043E+02  0.78479095637E+02  0.00000000000E+00 0. -1.
         11    1    3    3    0    0  0.48299314858E+02  0.35677969362E+02  0.32924669542E+02  0.68481933223E+02  0.00000000000E+00 0.  1.
        -13    1    4    4    0    0 -0.55076755335E+01 -0.28072956852E+02 -0.72723254032E+01  0.29517996426E+02  0.00000000000E+00 0. -1.
         13    1    4    4    0    0 -0.32241190946E+02  0.39080265911E+02  0.95969202570E+02  0.10852119341E+03  0.00000000000E+00 0.  1.
         21    1    1    2  502  501 -0.60612831468E+01 -0.20103985804E+02  0.24225954681E+02  0.32059417942E+02  0.00000000000E+00 0.  1.
<scales pt_clust_5="13000.00000" pt_clust_6="13000.00000" pt_clust_7="13000.00000" pt_clust_8="13000.00000" pt_clust_9="20.99784"></scales>
<clustering>
<clus scale="   20.998">  1  9  2 -1</clus>
<clus scale="   90.696">  5  6 -1 -1</clus>
<clus scale="   98.191">  7  8 -1 -1</clus>
<clus scale="   99.385">  1  5  2 -1</clus>
<clus scale="  106.269">  2  5  1 -1</clus>
</clustering>
</event>
<event>
 9    1  0.1175034E-005  0.1000187E+03  0.7546771E-02  0.1281307E+00
          1   -1    0    0  502    0  0.00000000000E+00  0.00000000000E+00  0.60286643528E+02  0.60286643528E+02  0.00000000000E+00 0. -1.
         -1   -1    0    0    0  501 -0.00000000000E+00 -0.00000000000E+00 -0.43275760516E+03  0.43275760516E+03  0.00000000000E+00 0.  1.
         23    2    1    2    0    0  0.32028599647E+02 -0.56776746225E+02 -0.13550444070E+03  0.17647611519E+03  0.92373890662E+02 0.  0.
         23    2    1    2    0    0 -0.17019478088E+02  0.22723919624E+02 -0.20318913363E+02  0.96747628096E+02  0.90228632620E+02 0.  0.
        -11    1    4    4    0    0 -0.16715962272E+02  0.50090037292E+02  0.12248776752E+02  0.54207635648E+02  0.00000000000E+00 0.  1.
         11    1    4    4    0    0 -0.30351581555E+00 -0.27366117668E+02 -0.32567690115E+02  0.42539992449E+02  0.00000000000E+00 0. -1.
        -11    1    3    3    0    0 -0.36112613368E+01 -0.60734192909E+02 -0.12514494782E+03  0.13915078642E+03  0.00000000000E+00 0.  1.
         11    1    3    3    0    0  0.35639860984E+02  0.39574466836E+01 -0.10359492884E+02  0.37325328773E+02  0.00000000000E+00 0. -1.
         21    1    1    2  502  501 -0.15009121560E+02  0.34052826602E+02 -0.21664760757E+03  0.21982050540E+03  0.00000000000E+00 0.  1.
<scales pt_clust_5="13000.00000" pt_clust_6="13000.00000" pt_clust_7="13000.00000" pt_clust_8="13000.00000" pt_clust_9="37.21382"></scales>
<clustering>
<clus scale="   37.214">  2  9  1 -1</clus>
<clus scale="   90.229">  5  6 -1 -1</clus>
<clus scale="   92.374">  7  8 -1 -1</clus>
<clus scale="   98.041">  1  5  2 -1</clus>
<clus scale="   98.041">  1  5  2 -1</clus>
</clustering>
</event>
<event>
 9    1  0.1175034E-005  0.2446611E+03  0.7546771E-02  0.1116743E+00
         -2   -1    0    0    0  501 -0.00000000000E+00  0.00000000000E+00  0.43138349978E+02  0.43138349978E+02  0.00000000000E+00 0.  1.
          2   -1    0    0  502    0  0.00000000000E+00 -0.00000000000E+00 -0.16479259780E+04  0.16479259780E+04  0.00000000000E+00 0. -1.
         23    2    1    2    0    0  0.18749691287E+03 -0.15405011837E+03 -0.65198910809E+03  0.70150745282E+03  0.90201873550E+02 0.  0.
         23    2    1    2    0    0 -0.16602680587E+03  0.14124968548E+03 -0.90887011451E+03  0.93901460195E+03  0.90482947136E+02 0.  0.
        -13    1    3    3    0    0  0.11755680649E+03 -0.66181056858E+02 -0.45692228603E+03  0.47642156806E+03  0.00000000000E+00 0. -1.
         13    1    3    3    0    0  0.69940106386E+02 -0.87869061517E+02 -0.19506682206E+03  0.22508588476E+03  0.00000000000E+00 0.  1.
        -13    1    4    4    0    0 -0.50110909627E+02  0.21778405121E+02 -0.10808267757E+03  0.12110849427E+03  0.00000000000E+00 0.  1.
         13    1    4    4    0    0 -0.11591589624E+03  0.11947128036E+03 -0.80078743694E+03  0.81790610769E+03  0.00000000000E+00 0. -1.
         21    1    1    2  502  501 -0.21470107004E+02  0.12800432896E+02 -0.43928405424E+02  0.50542273200E+02  0.00000000000E+00 0.  1.
<scales pt_clust_5="13000.00000" pt_clust_6="13000.00000" pt_clust_7="13000.00000" pt_clust_8="13000.00000" pt_clust_9="24.99633"></scales>
<clustering>
<clus scale="   24.996">  1  9  2 -1</clus>
<clus scale="   90.202">  5  6 -1 -1</clus>
<clus scale="   90.483">  7  8 -1 -1</clus>
<clus scale="  244.557">  1  5  2 -1</clus>
<clus scale="  244.661">  2  5  1 -1</clus>
</clustering>
</event>
<event>
 9    1  0.1175034E-005  0.1148498E+03  0.7546771E-02  0.1252989E+00
          3   -1    0    0  502    0  0.00000000000E+00  0.00000000000E+00  0.34379024808E+02  0.34379024808E+02  0.00000000000E+00 0. -1.
         -3   -1    0    0    0  501 -0.00000000000E+00 -0.00000000000E+00 -0.56732647768E+03  0.56732647768E+03  0.00000000000E+00 0.  1.
         23    2    1    2    0    0  0.77667752839E+02  0.34732603047E+02 -0.33661731832E+03  0.35797661609E+03  0.87163094992E+02 0.  0.
         23    2    1    2    0    0 -0.58385265882E+02 -0.28690393344E+02 -0.11582342410E+03  0.16072495258E+03  0.90473570005E+02 0.  0.
        -11    1    3    3    0    0  0.78396614588E+01  0.40727832961E+02 -0.62266022244E+02  0.74814932972E+02  0.00000000000E+00 0. -1.
         11    1    3    3    0    0  0.69828091380E+02 -0.59952299138E+01 -0.27435129608E+03  0.28316168312E+03  0.00000000000E+00 0.  1.
        -13    1    4    4    0    0 -0.21331321113E+02 -0.35152452132E+02 -0.11604148885E+03  0.12311111764E+03  0.00000000000E+00 0.  1.
         13    1    4    4    0    0 -0.37053944770E+02  0.64620587881E+01  0.21806475216E+00  0.37613834941E+02  0.00000000000E+00 0. -1.
         21    1    1    2  502  501 -0.19282486956E+02 -0.60422097035E+01 -0.80506710445E+02  0.83003933810E+02  0.00000000000E+00 0. -1.
<scales pt_clust_5="13000.00000" pt_clust_6="13000.00000" pt_clust_7="13000.00000" pt_clust_8="13000.00000" pt_clust_9="20.20699"></scales>
<clustering>
<clus scale="   20.207">  2  9  1 -1</clus>
<clus scale="   87.163">  5  6 -1 -1</clus>
<clus scale="   90.474">  7  8 -1 -1</clus>
<clus scale="  112.260">  2  5  1 -1</clus>
<clus scale="  114.850">  1  5  2 -1</clus>
</clustering>
</event>
<event>
 9    1  0.1175034E-005  0.1126681E+03  0.7546771E-02  0.1257226E+00
         -4   -1    0    0    0  501 -0.00000000000E+00  0.00000000000E+00  0.24242147151E+03  0.24242147151E+03  0.00000000000E+00 0.  1.
          4   -1    0    0  502    0  0.00000000000E+00 -0.00000000000E+00 -0.38696890368E+03  0.38696890368E+03  0.00000000000E+00 0. -1.
         23    2    1    2    0    0 -0.64229537415E+02  0.38960827703E+02  0.15237748265E+03  0.19532703784E+03  0.96386590977E+02 0.  0.
         23    2    1    2    0    0  0.96066429165E+00 -0.59167302266E+02 -0.33839838459E+03  0.35576071534E+03  0.92469061580E+02 0.  0.
        -13    1    4    4    0    0 -0.23481176857E+02 -0.73340528647E+02 -0.28651101564E+03  0.29667955928E+03  0.00000000000E+00 0. -1.
         13    1    4    4    0    0  0.24441841149E+02  0.14173226381E+02 -0.51887368947E+02  0.59081156057E+02  0.00000000000E+00 0.  1.
        -13    1    3    3    0    0 -0.70574449384E+02  0.60767410539E+02  0.14322441597E+03  0.17084105016E+03  0.00000000000E+00 0.  1.
         13    1    3    3    0    0  0.63449119690E+01 -0.21806582836E+02  0.91530666745E+01  0.24485987675E+02  0.00000000000E+00 0. -1.
         21    1    1    2  502  501  0.63268873123E+02  0.20206474563E+02  0.41473469774E+02  0.78302622023E+02  0.00000000000E+00 0. -1.
<scales pt_clust_5="13000.00000" pt_clust_6="13000.00000" pt_clust_7="13000.00000" pt_clust_8="13000.00000" pt_clust_9="66.41726"></scales>
<clustering>
<clus scale="   66.417">  1  9  2 -1</clus>
<clus scale="   92.469">  5  6 -1 -1</clus>
<clus scale="   96.387">  7  8 -1 -1</clus>
<clus scale="  109.336">  2  5  1 -1</clus>
<clus scale="  109.336">  2  5  1 -1</clus>
</clustering>
</event>
<event>
 9    1  0.1175034E-005  0.1077161E+03  0.7546771E-02  0.1267586E+00
         -1   -1    0    0    0  501 -0.00000000000E+00  0.00000000000E+00  0.77482892013E+02  0.77482892013E+02  0.00000000000E+00 0.  1.
          1   -1    0    0  502    0  0.00000000000E+00 -0.00000000000E+00 -0.28632805108E+03  0.28632805108E+03  0.00000000000E+00 0. -1.
         23    2    1    2    0    0  0.11923438090E+02 -0.45256982607E+02  0.13489986281E+02  0.10948222743E+03  0.98051086389E+02 0.  0.
         23    2    1    2    0    0 -0.27925185232E+02  0.28482819238E+02 -0.18488887912E+03  0.21028724291E+03  0.91900706988E+02 0.  0.
        -11    1    3    3    0    0 -0.39004875321E+02 -0.27807874433E+01  0.17926621284E+02  0.43017168994E+02  0.00000000000E+00 0. -1.
         11    1    3    3    0    0  0.50928313411E+02 -0.42476195163E+02 -0.44366350031E+01  0.66465058434E+02  0.00000000000E+00 0.  1.
        -13    1    4    4    0    0  0.20218907421E+02  0.39719335176E+01 -0.33445191749E+01  0.20875015729E+02  0.00000000000E+00 0.  1.
         13    1    4    4    0    0 -0.48144092654E+02  0.24510885720E+02 -0.18154435995E+03  0.18941222718E+03  0.00000000000E+00 0. -1.
         21    1    1    2  502  501  0.16001747142E+02  0.16774163369E+02 -0.37446266223E+02  0.44041472755E+02  0.00000000000E+00 0. -1.
<scales pt_clust_5="13000.00000" pt_clust_6="13000.00000" pt_clust_7="13000.00000" pt_clust_8="13000.00000" pt_clust_9="23.18250"></scales>
<clustering>
<clus scale="   23.183">  2  9  1 -1</clus>
<clus scale="   91.901">  7  8 -1 -1</clus>
<clus scale="   98.051">  5  6 -1 -1</clus>
<clus scale="  102.149">  2  7  1 -1</clus>
<clus scale="   23.183">  2  5  1 -1</clus>
</clustering>
</event>
<event>
 9    1  0.1175034E-005  0.9855791E+02  0.7546771E-02  0.1285135E+00
          3   -1    0    0  502    0  0.00000000000E+00  0.00000000000E+00  0.42907555295E+02  0.42907555295E+02  0.00000000000E+00 0. -1.
         -3   -1    0    0    0  501 -0.00000000000E+00 -0.00000000000E+00 -0.37392542403E+03  0.37392542403E+03  0.00000000000E+00 0.  1.
         23    2    1    2    0    0  0.17448674301E+01 -0.50094728319E+02 -0.13221895645E+03  0.16819510717E+03  0.91078072354E+02 0.  0.
         23    2    1    2    0    0  0.10720415898E+02  0.11379076995E+02 -0.85932023059E+02  0.12866612703E+03  0.94478828033E+02 0.  0.
        -11    1    3    3    0    0 -0.19639340873E+02  0.48777319587E+01 -0.97864353926E+02  0.99934617367E+02  0.00000000000E+00 0.  1.
         11    1    3    3    0    0  0.21384208303E+02 -0.54972460277E+02 -0.34354602527E+02  0.68260489806E+02  0.00000000000E+00 0. -1.
        -13    1    4    4    0    0 -0.66609057130E+00  0.37153306775E+02 -0.92542056991E+02  0.99723839643E+02  0.00000000000E+00 0.  1.
         13    1    4    4    0    0  0.11386506469E+02 -0.25774229781E+02  0.66100339322E+01  0.28942287383E+02  0.00000000000E+00 0. -1.
         21    1    1    2  502  501 -0.12465283328E+02  0.38715651324E+02 -0.11286688923E+03  0.11997174513E+03  0.00000000000E+00 0.  1.
<scales pt_clust_5="13000.00000" pt_clust_6="13000.00000" pt_clust_7="13000.00000" pt_clust_8="13000.00000" pt_clust_9="40.67290"></scales>
<clustering>
<clus scale="   40.673">  2  9  1 -1</clus>
<clus scale="   91.078">  5  6 -1 -1</clus>
<clus scale="   94.479">  7  8 -1 -1</clus>
<clus scale="   95.303">  2  5  1 -1</clus>
<clus scale="   98.558">  1  5  2 -1</clus>
</clustering>
</event>
<event>
 9    1  0.1175034E-005  0.2040944E+03  0.7546771E-02  0.1148698E+00
          1   -1    0    0  502    0  0.00000000000E+00  0.00000000000E+00  0.12007393480E+04  0.12007393480E+04  0.00000000000E+00 0. -1.
         -1   -1    0    0    0  501 -0.00000000000E+00 -0.00000000000E+00 -0.52727889119E+02  0.52727889119E+02  0.00000000000E+00 0.  1.
         23    2    1    2    0    0  0.12144158876E+03  0.10892806204E+03  0.25506843704E+03  0.32351457269E+03  0.11396661348E+03 0.  0.
         23    2    1    2    0    0 -0.14805672204E+03 -0.87644188076E+02  0.86222927296E+03  0.88407562245E+03  0.92455883637E+02 0.  0.
        -13    1    3    3    0    0  0.10124805537E+03  0.97701719661E+02  0.26366899498E+03  0.29886139539E+03  0.00000000000E+00 0. -1.
         13    1    3    3    0    0  0.20193533389E+02  0.11226342383E+02 -0.86005579413E+01  0.24653177299E+02  0.00000000000E+00 0.  1.
        -13    1    4    4    0    0 -0.76811802953E+02 -0.90817529488E+02  0.63047281894E+03  0.64159477254E+03  0.00000000000E+00 0. -1.
         13    1    4    4    0    0 -0.71244919087E+02  0.31733414121E+01  0.23175645402E+03  0.24248084991E+03  0.00000000000E+00 0.  1.
         21    1    1    2  502  501  0.26615133279E+02 -0.21283873968E+02  0.30713748893E+02  0.45877041988E+02  0.00000000000E+00 0. -1.
<scales pt_clust_5="13000.00000" pt_clust_6="13000.00000" pt_clust_7="13000.00000" pt_clust_8="13000.00000" pt_clust_9="34.07886"></scales>
<clustering>
<clus scale="   34.079">  2  9  1 -1</clus>
<clus scale="   92.456">  7  8 -1 -1</clus>
<clus scale="  113.967">  5  6 -1 -1</clus>
<clus scale="  192.910">  1  7  2 -1</clus>
<clus scale="  192.910">  1  5  2 -1</clus>
</clustering>
</event>
<event>
 9    1  0.1175034E-005  0.1033911E+03  0.7546771E-02  0.1276483E+00
         -1   -1    0    0    0  501 -0.00000000000E+00  0.00000000000E+00  0.97238163369E+02  0.97238163369E+02  0.00000000000E+00 0.  1.
          1   -1    0    0  502    0  0.00000000000E+00 -0.00000000000E+00 -0.16147298451E+03  0.16147298451E+03  0.00000000000E+00 0. -1.
         23    2    1    2    0    0  0.57764000605E+02 -0.18078535135E+02  0.65557547163E+01  0.10758557197E+03  0.88702672891E+02 0.  0.
         23    2    1    2    0    0 -0.28617524044E+02  0.10468015007E+02 -0.67719688363E+02  0.12084575652E+03  0.95337288902E+02 0.  0.
        -11    1    3    3    0    0  0.30736050770E+02  0.25585003422E+02  0.31108451274E+02  0.50665895410E+02  0.00000000000E+00 0. -1.
         11    1    3    3    0    0  0.27027949835E+02 -0.43663538558E+02 -0.24552696558E+02  0.56919676562E+02  0.00000000000E+00 0.  1.
        -11    1    4    4    0    0  0.35112430677E+02  0.76413675225E+00 -0.29769436083E+02  0.46040047977E+02  0.00000000000E+00 0. -1.
         11    1    4    4    0    0 -0.63729954720E+02  0.97038782551E+01 -0.37950252280E+02  0.74805708538E+02  0.00000000000E+00 0.  1.
         21    1    1    2  502  501 -0.29146476562E+02  0.76105201281E+01 -0.30708874991E+01  0.30279819396E+02  0.00000000000E+00 0. -1.
<scales pt_clust_5="13000.00000" pt_clust_6="13000.00000" pt_clust_7="13000.00000" pt_clust_8="13000.00000" pt_clust_9="30.12370"></scales>
<clustering>
<clus scale="   30.124">  1  9  2 -1</clus>
<clus scale="   88.703">  5  6 -1 -1</clus>
<clus scale="   95.337">  7  8 -1 -1</clus>
<clus scale="   97.307">  1  5  2 -1</clus>
<clus scale="  103.391">  2  5  1 -1</clus>
</clustering>
</event>
<event>
 9    1  0.1175034E-005  0.1376642E+03  0.7546771E-02  0.1216777E+00
          1   -1    0    0  502    0  0.00000000000E+00  0.00000000000E+00  0.46912201540E+03  0.46912201540E+03  0.00000000000E+00 0. -1.
         -1   -1    0    0    0  501 -0.00000000000E+00 -0.00000000000E+00 -0.78979991444E+02  0.78979991444E+02  0.00000000000E+00 0.  1.
         23    2    1    2    0    0 -0.48868301088E+02 -0.93108379388E+02  0.51322085633E+02  0.14851618112E+03  0.91464847983E+02 0.  0.
         23    2    1    2    0    0  0.89295917018E+01  0.10368031652E+03  0.32963002187E+03  0.35726182631E+03  0.90281313575E+02 0.  0.
        -11    1    3    3    0    0 -0.11880305733E+02 -0.96835835372E+02  0.53516843987E+02  0.11127611274E+03  0.00000000000E+00 0.  1.
         11    1    3    3    0    0 -0.36987995355E+02  0.37274559834E+01 -0.21947583540E+01  0.37240068377E+02  0.00000000000E+00 0. -1.
        -13    1    4    4    0    0  0.36650752605E+02  0.43844055603E+02  0.23547363443E+03  0.24230850458E+03  0.00000000000E+00 0. -1.
         13    1    4    4    0    0 -0.27721160903E+02  0.59836260920E+02  0.94156387435E+02  0.11495332173E+03  0.00000000000E+00 0.  1.
         21    1    1    2  502  501  0.39938709386E+02 -0.10571937135E+02  0.91899164590E+01  0.42323999418E+02  0.00000000000E+00 0.  1.
<scales pt_clust_5="13000.00000" pt_clust_6="13000.00000" pt_clust_7="13000.00000" pt_clust_8="13000.00000" pt_clust_9="41.31424"></scales>
<clustering>
<clus scale="   41.314">  2  9  1 -1</clus>
<clus scale="   90.281">  7  8 -1 -1</clus>
<clus scale="   91.465">  5  6 -1 -1</clus>
<clus scale="  136.881">  1  7  2 -1</clus>
<clus scale="  136.881">  1  5  2 -1</clus>
</clustering>
</event>
<event>
 9    1  0.1175034E-005  0.1287756E+03  0.7546771E-02  0.1231198E+00
         -1   -1    0    0    0  501 -0.00000000000E+00  0.00000000000E+00  0.35162619311E+02  0.35162619311E+02  0.00000000000E+00 0.  1.
          1   -1    0    0  502    0  0.00000000000E+00 -0.00000000000E+00 -0.81268628455E+03  0.81268628455E+03  0.00000000000E+00 0. -1.
         23    2    1    2    0    0  0.82535666049E+02  0.42450579571E+02 -0.41092051049E+03  0.43264815022E+03  0.98562508449E+02 0.  0.
         23    2    1    2    0    0 -0.57371901872E+02 -0.48913555084E+02 -0.37033283258E+03  0.38895393333E+03  0.91949357657E+02 0.  0.
        -11    1    4    4    0    0 -0.63886482324E+02  0.16217916888E+01 -0.15465185117E+03  0.16733591336E+03  0.00000000000E+00 0.  1.
         11    1    4    4    0    0  0.65145804516E+01 -0.50535346773E+02 -0.21568098141E+03  0.22161801997E+03  0.00000000000E+00 0. -1.
        -13    1    3    3    0    0  0.10349632068E+03  0.26119348785E+02 -0.29489474116E+03  0.31361858545E+03  0.00000000000E+00 0. -1.
         13    1    3    3    0    0 -0.20960654627E+02  0.16331230785E+02 -0.11602576932E+03  0.11902956477E+03  0.00000000000E+00 0.  1.
         21    1    1    2  502  501 -0.25163764176E+02  0.64629755134E+01  0.37296778229E+01  0.26246820315E+02  0.00000000000E+00 0. -1.
<scales pt_clust_5="13000.00000" pt_clust_6="13000.00000" pt_clust_7="13000.00000" pt_clust_8="13000.00000" pt_clust_9="25.98047"></scales>
<clustering>
<clus scale="   25.980">  1  9  2 -1</clus>
<clus scale="   91.949">  5  6 -1 -1</clus>
<clus scale="   98.563">  7  8 -1 -1</clus>
<clus scale="  123.787">  2  5  1 -1</clus>
<clus scale="  123.787">  2  5  1 -1</clus>
</clustering>
</event>
<event>
 9    1  0.1175034E-005  0.1185945E+03  0.7546771E-02  0.1245816E+00
         -1   -1    0    0    0  501 -0.00000000000E+00  0.00000000000E+00  0.56258353452E+03  0.56258353452E+03  0.00000000000E+00 0.  1.
          1   -1    0    0  502    0  0.00000000000E+00 -0.00000000000E+00 -0.74304218314E+02  0.74304218314E+02  0.00000000000E+00 0. -1.
         23    2    1    2    0    0 -0.67287613221E+01  0.52934338989E+02  0.21071592935E+03  0.23574355730E+03  0.91249665495E+02 0.  0.
         23    2    1    2    0    0 -0.47107263430E+02 -0.71446227103E+02  0.67630573753E+01  0.12442443475E+03  0.90066882828E+02 0.  0.
        -13    1    4    4    0    0 -0.19554921972E+02 -0.76121782465E+02 -0.24660710882E+02  0.82371544845E+02  0.00000000000E+00 0. -1.
         13    1    4    4    0    0 -0.27552341458E+02  0.46755553620E+01  0.31423768257E+02  0.42052889904E+02  0.00000000000E+00 0.  1.
        -13    1    3    3    0    0  0.31512859082E+02  0.21148008146E+02  0.16105309738E+03  0.16546419163E+03  0.00000000000E+00 0.  1.
         13    1    3    3    0    0 -0.38241620404E+02  0.31786330843E+02  0.49662831970E+02  0.70279365669E+02  0.00000000000E+00 0. -1.
         21    1    1    2  502  501  0.53836024752E+02  0.18511888113E+02  0.27080032949E+03  0.27671976079E+03  0.00000000000E+00 0.  1.
<scales pt_clust_5="13000.00000" pt_clust_6="13000.00000" pt_clust_7="13000.00000" pt_clust_8="13000.00000" pt_clust_9="56.92985"></scales>
<clustering>
<clus scale="   56.930">  1  9  2 -1</clus>
<clus scale="   90.067">  5  6 -1 -1</clus>
<clus scale="   91.250">  7  8 -1 -1</clus>
<clus scale="  117.687">  2  5  1 -1</clus>
<clus scale="  117.687">  2  5  1 -1</clus>
</clustering>
</event>
<event>
 9    1  0.1873046E-005  0.2371917E+03  0.7546771E-02  0.1148854E+00
          2   -1    0    0  502    0  0.00000000000E+00  0.00000000000E+00  0.57732387137E+03  0.57732387137E+03  0.00000000000E+00 0. -1.
         -2   -1    0    0    0  501 -0.00000000000E+00 -0.00000000000E+00 -0.41859341268E+03  0.41859341268E+03  0.00000000000E+00 0.  1.
         23    2    1    2    0    0  0.79671299178E+02 -0.15566497164E+02 -0.22931654929E+02  0.12457361174E+03  0.91667290776E+02 0.  0.
         23    2    1    2    0    0  0.13978254057E+03  0.58841732308E+02 -0.29520026839E+03  0.34462698837E+03  0.92860403562E+02 0.  0.
        -13    1    3    3    0    0  0.13501935900E+02  0.15057659583E+02 -0.44212758165E+02  0.48618961010E+02  0.00000000000E+00 0. -1.
         13    1    3    3    0    0  0.66169363278E+02 -0.30624156747E+02  0.21281103235E+02  0.75954650733E+02  0.00000000000E+00 0.  1.
        -13    1    4    4    0    0  0.96603565721E+01  0.42510574947E+02 -0.10406330800E+03  0.11282572199E+03  0.00000000000E+00 0. -1.
         13    1    4    4    0    0  0.13012218400E+03  0.16331157361E+02 -0.19113696039E+03  0.23180126638E+03  0.00000000000E+00 0.  1.
         21    1    1    2  502  501 -0.21945383975E+03 -0.43275235144E+02  0.47686238201E+03  0.52671668393E+03  0.00000000000E+00 0. -1.
<scales pt_clust_5="13000.00000" pt_clust_6="13000.00000" pt_clust_7="13000.00000" pt_clust_8="13000.00000" pt_clust_9="218.25865"></scales>
<clustering>
<clus scale="   91.667">  5  6 -1 -1</clus>
<clus scale="   92.860">  7  8 -1 -1</clus>
<clus scale="  122.445">  2  5  1 -1</clus>
<clus scale="  218.259">  1  9  2 -1</clus>
<clus scale="  218.259">  1  5  2 -1</clus>
</clustering>
</event>
<event>
 9    1  0.1175034E-005  0.9534866E+02  0.7546771E-02  0.1291257E+00
         -2   -1    0    0    0  501 -0.00000000000E+00  0.00000000000E+00  0.59773624725E+02  0.59773624725E+02  0.00000000000E+00 0.  1.
          2   -1    0    0  502    0  0.00000000000E+00 -0.00000000000E+00 -0.42045762057E+03  0.42045762057E+03  0.00000000000E+00 0. -1.
         23    2    1    2    0    0 -0.20146168033E+02  0.10089588067E+02 -0.68270571111E+01  0.93275315845E+02  0.90255237872E+02 0.  0.
         23    2    1    2    0    0  0.74529158793E+01 -0.25989418712E+02 -0.35388864643E+03  0.36661080055E+03  0.91843939181E+02 0.  0.
        -11    1    3    3    0    0 -0.43214246806E+02  0.31323491051E+02 -0.22858290273E+02  0.58061464439E+02  0.00000000000E+00 0. -1.
         11    1    3    3    0    0  0.23068078773E+02 -0.21233902983E+02  0.16031233161E+02  0.35213851406E+02  0.00000000000E+00 0.  1.
        -13    1    4    4    0    0  0.49529588582E+02 -0.10358213682E+02 -0.20078215147E+03  0.20706024506E+03  0.00000000000E+00 0.  1.
         13    1    4    4    0    0 -0.42076672703E+02 -0.15631205030E+02 -0.15310649497E+03  0.15955055549E+03  0.00000000000E+00 0. -1.
         21    1    1    2  502  501  0.12693252154E+02  0.15899830645E+02  0.31707697162E-01  0.20345128904E+02  0.00000000000E+00 0.  1.
<scales pt_clust_5="13000.00000" pt_clust_6="13000.00000" pt_clust_7="13000.00000" pt_clust_8="13000.00000" pt_clust_9="20.34510"></scales>
<clustering>
<clus scale="   20.345">  1  9  2 -1</clus>
<clus scale="   90.255">  5  6 -1 -1</clus>
<clus scale="   91.844">  7  8 -1 -1</clus>
<clus scale="   93.819">  1  5  2 -1</clus>
<clus scale="   95.349">  2  5  1 -1</clus>
</clustering>
</event>
<event>
 9    1  0.1175034E-005  0.9606420E+02  0.7546771E-02  0.1289406E+00
          1   -1    0    0  502    0  0.00000000000E+00  0.00000000000E+00  0.32098425299E+03  0.32098425299E+03  0.00000000000E+00 0. -1.
         -1   -1    0    0    0  501 -0.00000000000E+00 -0.00000000000E+00 -0.19950245826E+03  0.19950245826E+03  0.00000000000E+00 0.  1.
         23    2    1    2    0    0 -0.84233782938E+01  0.25286624046E+02 -0.16227617412E+03  0.18875772545E+03  0.92658273078E+02 0.  0.
         23    2    1    2    0    0  0.24468421140E+02 -0.80062256375E+01  0.29173353590E+03  0.30683590968E+03  0.91526041197E+02 0.  0.
        -11    1    3    3    0    0 -0.43748821429E+02 -0.19155457675E+00 -0.12133551016E+03  0.12898178978E+03  0.00000000000E+00 0.  1.
         11    1    3    3    0    0  0.35325443136E+02  0.25478178623E+02 -0.40940663962E+02  0.59775935662E+02  0.00000000000E+00 0. -1.
        -13    1    4    4    0    0 -0.23970583737E+02  0.25908872131E+02  0.12687851857E+03  0.13169668566E+03  0.00000000000E+00 0. -1.
         13    1    4    4    0    0  0.48439004877E+02 -0.33915097768E+02  0.16485501733E+03  0.17513922402E+03  0.00000000000E+00 0.  1.
         21    1    1    2  502  501 -0.16045042846E+02 -0.17280398408E+02 -0.79755670492E+01  0.24893076122E+02  0.00000000000E+00 0. -1.
<scales pt_clust_5="13000.00000" pt_clust_6="13000.00000" pt_clust_7="13000.00000" pt_clust_8="13000.00000" pt_clust_9="23.58083"></scales>
<clustering>
<clus scale="   23.581">  2  9  1 -1</clus>
<clus scale="   91.526">  7  8 -1 -1</clus>
<clus scale="   92.658">  5  6 -1 -1</clus>
<clus scale="   94.973">  1  7  2 -1</clus>
<clus scale="   94.973">  1  5  2 -1</clus>
</clustering>
</event>
<event>
 9    1  0.1175034E-005  0.1262777E+03  0.7546771E-02  0.1235013E+00
         -1   -1    0    0    0  501 -0.00000000000E+00  0.00000000000E+00  0.12144858643E+03  0.12144858643E+03  0.00000000000E+00 0.  1.
          1   -1    0    0  502    0  0.00000000000E+00 -0.00000000000E+00 -0.30559968166E+03  0.30559968166E+03  0.00000000000E+00 0. -1.
         23    2    1    2    0    0  0.21459043682E+02  0.86039678015E+02 -0.36052574671E+02  0.13325634564E+03  0.92704631842E+02 0.  0.
         23    2    1    2    0    0 -0.46019058161E+02 -0.72518991358E+02 -0.20045888502E+03  0.23439822712E+03  0.85918603755E+02 0.  0.
        -11    1    4    4    0    0 -0.12940240707E+02 -0.83007147534E+02 -0.16274067557E+03  0.18314519883E+03  0.00000000000E+00 0. -1.
         11    1    4    4    0    0 -0.33078817455E+02  0.10488156177E+02 -0.37718209455E+02  0.51253028288E+02  0.00000000000E+00 0.  1.
        -13    1    3    3    0    0  0.33220723443E+02  0.38869666202E+02  0.23589813679E+02  0.56311159872E+02  0.00000000000E+00 0. -1.
         13    1    3    3    0    0 -0.11761679761E+02  0.47170011813E+02 -0.59642388350E+02  0.76945185771E+02  0.00000000000E+00 0.  1.
         21    1    1    2  502  501  0.24560014479E+02 -0.13520686658E+02  0.52360364462E+02  0.59393695335E+02  0.00000000000E+00 0.  1.
<scales pt_clust_5="13000.00000" pt_clust_6="13000.00000" pt_clust_7="13000.00000" pt_clust_8="13000.00000" pt_clust_9="28.03575"></scales>
<clustering>
<clus scale="   28.036">  1  9  2 -1</clus>
<clus scale="   85.919">  5  6 -1 -1</clus>
<clus scale="   92.705">  7  8 -1 -1</clus>
<clus scale="  121.383">  2  5  1 -1</clus>
<clus scale="  121.383">  2  5  1 -1</clus>
</clustering>
</event>
<event>
 9    1  0.1175034E-005  0.1997027E+03  0.7546771E-02  0.1150274E+00
         -2   -1    0    0    0  501 -0.00000000000E+00  0.00000000000E+00  0.76562350471E+02  0.76562350471E+02  0.00000000000E+00 0.  1.
          2   -1    0    0  502    0  0.00000000000E+00 -0.00000000000E+00 -0.62200339629E+03  0.62200339629E+03  0.00000000000E+00 0. -1.
         23    2    1    2    0    0  0.82925404747E+02 -0.14336702580E+03 -0.19329193792E+03  0.27006801042E+03  0.90245388512E+02 0.  0.
         23    2    1    2    0    0 -0.10704355431E+03  0.16072820793E+03 -0.30775655822E+03  0.37507682049E+03  0.93148498638E+02 0.  0.
        -11    1    4    4    0    0 -0.37192468951E+02  0.10724565857E+03 -0.23475450005E+03  0.26075771575E+03  0.00000000000E+00 0. -1.
         11    1    4    4    0    0 -0.69851085361E+02  0.53482549357E+02 -0.73002058170E+02  0.11431910474E+03  0.00000000000E+00 0.  1.
        -13    1    3    3    0    0  0.46770649882E+02 -0.54002728565E+02 -0.14632675343E+03  0.16283521472E+03  0.00000000000E+00 0. -1.
         13    1    3    3    0    0  0.36154754865E+02 -0.89364297238E+02 -0.46965184492E+02  0.10723279570E+03  0.00000000000E+00 0.  1.
         21    1    1    2  502  501  0.24118149565E+02 -0.17361182124E+02 -0.44392549676E+02  0.53420915847E+02  0.00000000000E+00 0. -1.
<scales pt_clust_5="13000.00000" pt_clust_6="13000.00000" pt_clust_7="13000.00000" pt_clust_8="13000.00000" pt_clust_9="29.71693"></scales>
<clustering>
<clus scale="   29.717">  2  9  1 -1</clus>
<clus scale="   90.245">  7  8 -1 -1</clus>
<clus scale="   93.148">  5  6 -1 -1</clus>
<clus scale="  198.365">  1  7  2 -1</clus>
<clus scale="   29.717">  2  5  1 -1</clus>
</clustering>
</event>
<event>
 9    1  0.1175034E-005  0.9883080E+02  0.7546771E-02  0.1285828E+00
         -1   -1    0    0    0  501 -0.00000000000E+00  0.00000000000E+00  0.70260000936E+02  0.70260000936E+02  0.00000000000E+00 0.  1.
          1   -1    0    0  502    0  0.00000000000E+00 -0.00000000000E+00 -0.19437180270E+03  0.19437180270E+03  0.00000000000E+00 0. -1.
         23    2    1    2    0    0 -0.35889892985E+01  0.77283696232E+00 -0.10917737246E+02  0.97790868327E+02  0.97110137578E+02 0.  0.
         23    2    1    2    0    0  0.23725376657E+02  0.57933018972E+01 -0.11047490255E+03  0.14548719753E+03  0.91462367717E+02 0.  0.
        -11    1    4    4    0    0 -0.39779308641E+00  0.29200183690E+02  0.83308080026E+00  0.29214773497E+02  0.00000000000E+00 0.  1.
         11    1    4    4    0    0  0.24123169743E+02 -0.23406881793E+02 -0.11130798335E+03  0.11627242404E+03  0.00000000000E+00 0. -1.
        -13    1    3    3    0    0  0.20233159474E+02  0.34870644627E+02 -0.31706705812E+02  0.51289938511E+02  0.00000000000E+00 0.  1.
         13    1    3    3    0    0 -0.23822148772E+02 -0.34097807665E+02  0.20788968566E+02  0.46500929816E+02  0.00000000000E+00 0. -1.
         21    1    1    2  502  501 -0.20136387358E+02 -0.65661388595E+01 -0.27191619724E+01  0.21353737780E+02  0.00000000000E+00 0. -1.
<scales pt_clust_5="13000.00000" pt_clust_6="13000.00000" pt_clust_7="13000.00000" pt_clust_8="13000.00000" pt_clust_9="21.17990"></scales>
<clustering>
<clus scale="   21.180">  1  9  2 -1</clus>
<clus scale="   91.462">  5  6 -1 -1</clus>
<clus scale="   93.287">  2  5  1 -1</clus>
<clus scale="   97.110">  7  8 -1 -1</clus>
<clus scale="   93.287">  2  5  1 -1</clus>
</clustering>
</event>
<event>
 9    1  0.1175034E-005  0.1263288E+03  0.7546771E-02  0.1233481E+00
          1   -1    0    0  502    0  0.00000000000E+00  0.00000000000E+00  0.42951555031E+03  0.42951555031E+03  0.00000000000E+00 0. -1.
         -1   -1    0    0    0  501 -0.00000000000E+00 -0.00000000000E+00 -0.72388431924E+02  0.72388431924E+02  0.00000000000E+00 0.  1.
         23    2    1    2    0    0  0.65385851806E+02 -0.51534473876E+02  0.18638607345E+02  0.12639739656E+03  0.93261956649E+02 0.  0.
         23    2    1    2    0    0 -0.89376634647E+02  0.36464460866E+02  0.29471275159E+03  0.32336274550E+03  0.91597049618E+02 0.  0.
        -11    1    4    4    0    0 -0.92693191180E+02  0.56455378079E+02  0.21154040878E+03  0.23775740147E+03  0.00000000000E+00 0.  1.
         11    1    4    4    0    0  0.33165565323E+01 -0.19990917213E+02  0.83172342808E+02  0.85605344029E+02  0.00000000000E+00 0. -1.
        -13    1    3    3    0    0  0.66270049882E+02  0.53929312273E+01  0.20047480904E+02  0.69445696117E+02  0.00000000000E+00 0.  1.
         13    1    3    3    0    0 -0.88419807626E+00 -0.56927405104E+02 -0.14088735594E+01  0.56951700438E+02  0.00000000000E+00 0. -1.
         21    1    1    2  502  501  0.23990782841E+02  0.15070013010E+02  0.43775759457E+02  0.52143840188E+02  0.00000000000E+00 0.  1.
<scales pt_clust_5="13000.00000" pt_clust_6="13000.00000" pt_clust_7="13000.00000" pt_clust_8="13000.00000" pt_clust_9="28.33131"></scales>
<clustering>
<clus scale="   28.331">  1  9  2 -1</clus>
<clus scale="   91.597">  5  6 -1 -1</clus>
<clus scale="   93.262">  7  8 -1 -1</clus>
<clus scale="  125.105">  1  5  2 -1</clus>
<clus scale="   28.331">  1  5  2 -1</clus>
</clustering>
</event>
<event>
 9    1  0.1175034E-005  0.1057095E+03  0.7546771E-02  0.1269266E+00
          2   -1    0    0  502    0  0.00000000000E+00  0.00000000000E+00  0.27764771498E+03  0.27764771498E+03  0.00000000000E+00 0. -1.
         -2   -1    0    0    0  501 -0.00000000000E+00 -0.00000000000E+00 -0.10154387714E+03  0.10154387714E+03  0.00000000000E+00 0.  1.
         23    2    1    2    0    0  0.26742105559E+02  0.89245748569E+01 -0.42257442269E+02  0.10284654904E+03  0.89425572275E+02 0.  0.
         23    2    1    2    0    0 -0.59504499703E+02 -0.14450031943E+02  0.21815376013E+03  0.24311932698E+03  0.88126926551E+02 0.  0.
        -11    1    4    4    0    0 -0.30798754287E+02  0.32625486081E+02  0.55456666414E+02  0.71333214265E+02  0.00000000000E+00 0.  1.
         11    1    4    4    0    0 -0.28705745416E+02 -0.47075518024E+02  0.16269709372E+03  0.17178611272E+03  0.00000000000E+00 0. -1.
        -13    1    3    3    0    0 -0.12517537648E+02  0.22263337869E+02  0.16884621328E+02  0.30617566840E+02  0.00000000000E+00 0. -1.
         13    1    3    3    0    0  0.39259643207E+02 -0.13338763012E+02 -0.59142063597E+02  0.72228982202E+02  0.00000000000E+00 0.  1.
         21    1    1    2  502  501  0.32762394144E+02  0.55254570862E+01  0.20751997769E+00  0.33225716104E+02  0.00000000000E+00 0.  1.
<scales pt_clust_5="13000.00000" pt_clust_6="13000.00000" pt_clust_7="13000.00000" pt_clust_8="13000.00000" pt_clust_9="33.22507"></scales>
<clustering>
<clus scale="   33.225">  2  9  1 -1</clus>
<clus scale="   88.127">  5  6 -1 -1</clus>
<clus scale="   89.426">  7  8 -1 -1</clus>
<clus scale="  104.613">  1  5  2 -1</clus>
<clus scale="  104.613">  1  5  2 -1</clus>
</clustering>
</event>
<event>
 9    1  0.1175034E-005  0.1083619E+03  0.7546771E-02  0.1264989E+00
          2   -1    0    0  502    0  0.00000000000E+00  0.00000000000E+00  0.37653832354E+03  0.37653832354E+03  0.00000000000E+00 0. -1.
         -2   -1    0    0    0  501 -0.00000000000E+00 -0.00000000000E+00 -0.80341927692E+02  0.80341927692E+02  0.00000000000E+00 0.  1.
         23    2    1    2    0    0 -0.19151857960E+02 -0.76155043949E+02  0.18675503474E+03  0.22309169408E+03  0.93413471117E+02 0.  0.
         23    2    1    2    0    0  0.12964230058E+02  0.20269897923E+02  0.13844691398E+03  0.17052120078E+03  0.96597059480E+02 0.  0.
        -11    1    3    3    0    0  0.32326790803E+02 -0.34554648447E+02  0.39471822989E+02  0.61620369546E+02  0.00000000000E+00 0.  1.
         11    1    3    3    0    0 -0.51478648762E+02 -0.41600395503E+02  0.14728321175E+03  0.16147132454E+03  0.00000000000E+00 0. -1.
        -11    1    4    4    0    0  0.50861794915E+02  0.27365479667E+02  0.60982721245E+02  0.83992166003E+02  0.00000000000E+00 0. -1.
         11    1    4    4    0    0 -0.37897564857E+02 -0.70955817444E+01  0.77464192738E+02  0.86529034774E+02  0.00000000000E+00 0.  1.
         21    1    1    2  502  501  0.61876279021E+01  0.55885146026E+02 -0.29005552871E+02  0.63267356376E+02  0.00000000000E+00 0.  1.
<scales pt_clust_5="13000.00000" pt_clust_6="13000.00000" pt_clust_7="13000.00000" pt_clust_8="13000.00000" pt_clust_9="56.22665"></scales>
<clustering>
<clus scale="   56.227">  2  9  1 -1</clus>
<clus scale="   93.413">  5  6 -1 -1</clus>
<clus scale="   96.597">  7  8 -1 -1</clus>
<clus scale="  105.534">  2  5  1 -1</clus>
<clus scale="  108.362">  1  5  2 -1</clus>
</clustering>
</event>
<event>
 9    1  0.1175034E-005  0.1060967E+03  0.7546771E-02  0.1270320E+00
          2   -1    0    0  502    0  0.00000000000E+00  0.00000000000E+00  0.67212292294E+03  0.67212292294E+03  0.00000000000E+00 0. -1.
         -2   -1    0    0    0  501 -0.00000000000E+00 -0.00000000000E+00 -0.21883836812E+02  0.21883836812E+02  0.00000000000E+00 0.  1.
         23    2    1    2    0    0 -0.94610282576E+01  0.25022397269E+02  0.18741064456E+03  0.21316210652E+03  0.97978071718E+02 0.  0.
         23    2    1    2    0    0  0.22886436817E+02 -0.41852635227E+02  0.42162653513E+03  0.43435706781E+03  0.92853083788E+02 0.  0.
        -13    1    3    3    0    0  0.38443681733E+02  0.22445470814E+02  0.46790689729E+02  0.64583933532E+02  0.00000000000E+00 0.  1.
         13    1    3    3    0    0 -0.47904709990E+02  0.25769264551E+01  0.14061995484E+03  0.14857817298E+03  0.00000000000E+00 0. -1.
        -13    1    4    4    0    0  0.37711398918E+02  0.18181793418E+02  0.14634785447E+03  0.15221833572E+03  0.00000000000E+00 0.  1.
         13    1    4    4    0    0 -0.14824962102E+02 -0.60034428644E+02  0.27527868065E+03  0.28213873209E+03  0.00000000000E+00 0. -1.
         21    1    1    2  502  501 -0.13425408559E+02  0.16830237957E+02  0.41201906439E+02  0.46487585428E+02  0.00000000000E+00 0. -1.
<scales pt_clust_5="13000.00000" pt_clust_6="13000.00000" pt_clust_7="13000.00000" pt_clust_8="13000.00000" pt_clust_9="21.52902"></scales>
<clustering>
<clus scale="   21.529">  2  9  1 -1</clus>
<clus scale="   92.853">  7  8 -1 -1</clus>
<clus scale="   97.978">  5  6 -1 -1</clus>
<clus scale="  101.383">  1  7  2 -1</clus>
<clus scale="  101.383">  1  5  2 -1</clus>
</clustering>
</event>
<event>
 9    1  0.1175034E-005  0.1482519E+03  0.7546771E-02  0.1203542E+00
         -1   -1    0    0    0  501 -0.00000000000E+00  0.00000000000E+00  0.30244379028E+02  0.30244379028E+02  0.00000000000E+00 0.  1.
          1   -1    0    0  502    0  0.00000000000E+00 -0.00000000000E+00 -0.93564834155E+03  0.93564834155E+03  0.00000000000E+00 0. -1.
         23    2    1    2    0    0 -0.21694943687E+02  0.12970841394E+03 -0.35225368456E+03  0.38687122977E+03  0.91059029806E+02 0.  0.
         23    2    1    2    0    0  0.18668699344E+02 -0.10125175344E+03 -0.48899368199E+03  0.50877187523E+03  0.95569671403E+02 0.  0.
        -11    1    4    4    0    0 -0.12274124052E+01 -0.11160915429E+03 -0.45140257363E+03  0.46499719713E+03  0.00000000000E+00 0.  1.
         11    1    4    4    0    0  0.19896111749E+02  0.10357400846E+02 -0.37591108357E+02  0.43774678098E+02  0.00000000000E+00 0. -1.
        -13    1    3    3    0    0 -0.37482023149E+02  0.87619742382E+02 -0.13644912769E+03  0.16643462909E+03  0.00000000000E+00 0.  1.
         13    1    3    3    0    0  0.15787079462E+02  0.42088671560E+02 -0.21580455687E+03  0.22043660068E+03  0.00000000000E+00 0. -1.
         21    1    1    2  502  501  0.30262443431E+01 -0.28456660501E+02 -0.64156595979E+02  0.70249615581E+02  0.00000000000E+00 0. -1.
<scales pt_clust_5="13000.00000" pt_clust_6="13000.00000" pt_clust_7="13000.00000" pt_clust_8="13000.00000" pt_clust_9="28.61712"></scales>
<clustering>
<clus scale="   28.617">  1  9  2 -1</clus>
<clus scale="   91.059">  7  8 -1 -1</clus>
<clus scale="   95.570">  5  6 -1 -1</clus>
<clus scale="  145.385">  1  7  2 -1</clus>
<clus scale="  148.252">  2  5  1 -1</clus>
</clustering>
</event>
<event>
 9    1  0.1175034E-005  0.1926562E+03  0.7546771E-02  0.1156120E+00
          4   -1    0    0  502    0  0.00000000000E+00  0.00000000000E+00  0.25183226206E+03  0.25183226206E+03  0.00000000000E+00 0. -1.
         -4   -1    0    0    0  501 -0.00000000000E+00 -0.00000000000E+00 -0.22127523350E+03  0.22127523350E+03  0.00000000000E+00 0.  1.
         23    2    1    2    0    0 -0.12959090986E+03  0.14430394417E+03 -0.71302531306E+02  0.22562576164E+03  0.90584221179E+02 0.  0.
         23    2    1    2    0    0  0.99906108817E+02 -0.85527638427E+02  0.76670770376E+02  0.17698126126E+03  0.90264900668E+02 0.  0.
        -13    1    4    4    0    0  0.50879483772E+01 -0.22808388921E+02  0.57003896452E+02  0.61608067934E+02  0.00000000000E+00 0. -1.
         13    1    4    4    0    0  0.94818160440E+02 -0.62719249506E+02  0.19666873924E+02  0.11537319332E+03  0.00000000000E+00 0.  1.
        -13    1    3    3    0    0 -0.17394130352E+02  0.85736092945E+02 -0.27757841194E+02  0.91780886637E+02  0.00000000000E+00 0.  1.
         13    1    3    3    0    0 -0.11219677951E+03  0.58567851221E+02 -0.43544690112E+02  0.13384487501E+03  0.00000000000E+00 0. -1.
         21    1    1    2  502  501  0.29684801042E+02 -0.58776305739E+02  0.25188789485E+02  0.70500472658E+02  0.00000000000E+00 0.  1.
<scales pt_clust_5="13000.00000" pt_clust_6="13000.00000" pt_clust_7="13000.00000" pt_clust_8="13000.00000" pt_clust_9="65.84711"></scales>
<clustering>
<clus scale="   65.847">  1  9  2 -1</clus>
<clus scale="   90.265">  5  6 -1 -1</clus>
<clus scale="   90.584">  7  8 -1 -1</clus>
<clus scale="  192.506">  1  5  2 -1</clus>
<clus scale="   65.847">  1  5  2 -1</clus>
</clustering>
</event>
<event>
 9    1  0.1175034E-005  0.9844112E+02  0.7546771E-02  0.1284124E+00
         -2   -1    0    0    0  501 -0.00000000000E+00  0.00000000000E+00  0.32334110871E+02  0.32334110871E+02  0.00000000000E+00 0.  1.
          2   -1    0    0  502    0  0.00000000000E+00 -0.00000000000E+00 -0.68442662784E+03  0.68442662784E+03  0.00000000000E+00 0. -1.
         23    2    1    2    0    0  0.12349973521E+02 -0.74777527716E+01 -0.68437894374E+02  0.11847716861E+03  0.95627691927E+02 0.  0.
         23    2    1    2    0    0 -0.20227654443E+01  0.25808665139E+02 -0.54932628488E+03  0.55802058033E+03  0.94643658186E+02 0.  0.
        -11    1    3    3    0    0  0.12076427066E+02 -0.47476976782E+02 -0.14049956592E+02  0.50963758645E+02  0.00000000000E+00 0.  1.
         11    1    3    3    0    0  0.27354645499E+00  0.39999224010E+02 -0.54387937782E+02  0.67513409966E+02  0.00000000000E+00 0. -1.
        -13    1    4    4    0    0 -0.37315759202E+01  0.61762546713E+02 -0.36615090026E+03  0.37134218531E+03  0.00000000000E+00 0. -1.
         13    1    4    4    0    0  0.17088104759E+01 -0.35953881574E+02 -0.18317538462E+03  0.18667839501E+03  0.00000000000E+00 0.  1.
         21    1    1    2  502  501 -0.10327208077E+02 -0.18330912368E+02 -0.34328337719E+02  0.40262989773E+02  0.00000000000E+00 0. -1.
<scales pt_clust_5="13000.00000" pt_clust_6="13000.00000" pt_clust_7="13000.00000" pt_clust_8="13000.00000" pt_clust_9="21.03981"></scales>
<clustering>
<clus scale="   21.040">  1  9  2 -1</clus>
<clus scale="   94.644">  7  8 -1 -1</clus>
<clus scale="   95.628">  5  6 -1 -1</clus>
<clus scale="   97.485">  2  7  1 -1</clus>
<clus scale="   97.485">  2  5  1 -1</clus>
</clustering>
</event>
<event>
 9    1  0.1175034E-005  0.1149341E+03  0.7546771E-02  0.1253846E+00
          1   -1    0    0  502    0  0.00000000000E+00  0.00000000000E+00  0.28420738969E+03  0.28420738969E+03  0.00000000000E+00 0. -1.
         -1   -1    0    0    0  501 -0.00000000000E+00 -0.00000000000E+00 -0.10542118361E+03  0.10542118361E+03  0.00000000000E+00 0.  1.
         23    2    1    2    0    0  0.33144870716E+02 -0.47910830838E+02  0.99340552433E+02  0.14954045754E+03  0.95392729889E+02 0.  0.
         23    2    1    2    0    0 -0.15952752610E+02  0.69212762648E+02  0.13576692605E+03  0.17746681788E+03  0.89537234755E+02 0.  0.
        -11    1    4    4    0    0 -0.47413322416E+02  0.31636426326E+02  0.39204879494E+02  0.69180265895E+02  0.00000000000E+00 0.  1.
         11    1    4    4    0    0  0.31460569806E+02  0.37576336322E+02  0.96562046561E+02  0.10828655198E+03  0.00000000000E+00 0. -1.
        -11    1    3    3    0    0  0.45566859865E+02 -0.68052643315E+02  0.95090027169E+02  0.12549746709E+03  0.00000000000E+00 0. -1.
         11    1    3    3    0    0 -0.12421989150E+02  0.20141812477E+02  0.42505252641E+01  0.24042990440E+02  0.00000000000E+00 0.  1.
         21    1    1    2  502  501 -0.17192118106E+02 -0.21301931810E+02 -0.56321272411E+02  0.62621297893E+02  0.00000000000E+00 0.  1.
<scales pt_clust_5="13000.00000" pt_clust_6="13000.00000" pt_clust_7="13000.00000" pt_clust_8="13000.00000" pt_clust_9="27.37410"></scales>
<clustering>
<clus scale="   27.374">  2  9  1 -1</clus>
<clus scale="   89.537">  5  6 -1 -1</clus>
<clus scale="   95.393">  7  8 -1 -1</clus>
<clus scale="  110.123">  1  5  2 -1</clus>
<clus scale="  110.123">  1  5  2 -1</clus>
</clustering>
</event>
<event>
 9    1  0.1175034E-005  0.2381417E+03  0.7546771E-02  0.1121067E+00
         -2   -1    0    0    0  501 -0.00000000000E+00  0.00000000000E+00  0.12742860590E+03  0.12742860590E+03  0.00000000000E+00 0.  1.
          2   -1    0    0  502    0  0.00000000000E+00 -0.00000000000E+00 -0.14270322435E+04  0.14270322435E+04  0.00000000000E+00 0. -1.
         23    2    1    2    0    0 -0.48581120209E+02  0.24530648340E+03 -0.19573977608E+03  0.33092581232E+03  0.93072215413E+02 0.  0.
         23    2    1    2    0    0  0.18129609347E+02 -0.21326995995E+03 -0.11417463227E+04  0.11653223734E+04  0.92621865502E+02 0.  0.
        -11    1    4    4    0    0  0.81001744633E+01 -0.17754284683E+03 -0.10688401742E+04  0.10835157559E+04  0.00000000000E+00 0. -1.
         11    1    4    4    0    0  0.10029434884E+02 -0.35727113124E+02 -0.72906148458E+02  0.81806617454E+02  0.00000000000E+00 0.  1.
        -11    1    3    3    0    0 -0.43392055924E+02  0.37382545413E+02 -0.57687288328E+02  0.81290518841E+02  0.00000000000E+00 0. -1.
         11    1    3    3    0    0 -0.51890642847E+01  0.20792393799E+03 -0.13805248775E+03  0.24963529348E+03  0.00000000000E+00 0.  1.
         21    1    1    2  502  501  0.30451510862E+02 -0.32036523444E+02  0.37882461178E+02  0.58212663683E+02  0.00000000000E+00 0.  1.
<scales pt_clust_5="13000.00000" pt_clust_6="13000.00000" pt_clust_7="13000.00000" pt_clust_8="13000.00000" pt_clust_9="44.19992"></scales>
<clustering>
<clus scale="   44.200">  1  9  2 -1</clus>
<clus scale="   92.622">  5  6 -1 -1</clus>
<clus scale="   93.072">  7  8 -1 -1</clus>
<clus scale="  237.966">  2  5  1 -1</clus>
<clus scale="  237.966">  2  5  1 -1</clus>
</clustering>
</event>
<event>
 9    1  0.1175034E-005  0.9461212E+02  0.7546771E-02  0.1293000E+00
         -2   -1    0    0    0  501 -0.00000000000E+00  0.00000000000E+00  0.76880282132E+02  0.76880282132E+02  0.00000000000E+00 0.  1.
          2   -1    0    0  502    0  0.00000000000E+00 -0.00000000000E+00 -0.31779201961E+03  0.31779201961E+03  0.00000000000E+00 0. -1.
         23    2    1    2    0    0  0.22827856776E+01 -0.32592444172E+01  0.25505159118E+02  0.93324389894E+02  0.89683302921E+02 0.  0.
         23    2    1    2    0    0  0.14661782854E+01  0.27458385618E+02 -0.25858505892E+03  0.27563816959E+03  0.91400520887E+02 0.  0.
        -13    1    4    4    0    0 -0.31955675450E+02 -0.54305467222E+01 -0.37194703178E+02  0.49336619013E+02  0.00000000000E+00 0.  1.
         13    1    4    4    0    0  0.33421853735E+02  0.32888932340E+02 -0.22139035574E+03  0.22630155058E+03  0.00000000000E+00 0. -1.
        -13    1    3    3    0    0  0.16559845325E+02 -0.24081609771E+02 -0.23957879306E+02  0.37790638883E+02  0.00000000000E+00 0.  1.
         13    1    3    3    0    0 -0.14277059647E+02  0.20822365354E+02  0.49463038425E+02  0.55533751010E+02  0.00000000000E+00 0. -1.
         21    1    1    2  502  501 -0.37489639630E+01 -0.24199141201E+02 -0.78318376757E+01  0.25709742259E+02  0.00000000000E+00 0.  1.
<scales pt_clust_5="13000.00000" pt_clust_6="13000.00000" pt_clust_7="13000.00000" pt_clust_8="13000.00000" pt_clust_9="24.48782"></scales>
<clustering>
<clus scale="   24.488">  1  9  2 -1</clus>
<clus scale="   89.683">  7  8 -1 -1</clus>
<clus scale="   91.401">  5  6 -1 -1</clus>
<clus scale="   92.954">  1  7  2 -1</clus>
<clus scale="   94.612">  2  5  1 -1</clus>
</clustering>
</event>
<event>
 9    1  0.1175034E-005  0.1214241E+03  0.7546771E-02  0.1241877E+00
          1   -1    0    0  502    0  0.00000000000E+00  0.00000000000E+00  0.95106818187E+02  0.95106818187E+02  0.00000000000E+00 0. -1.
         -1   -1    0    0    0  501 -0.00000000000E+00 -0.00000000000E+00 -0.32601405282E+03  0.32601405282E+03  0.00000000000E+00 0.  1.
         23    2    1    2    0    0 -0.65809599743E+02  0.55197533605E+02 -0.16458582459E+03  0.20544257115E+03  0.87980027579E+02 0.  0.
         23    2    1    2    0    0  0.72162643590E+02 -0.31586289039E+02  0.23080412833E+02  0.12299314479E+03  0.91594035955E+02 0.  0.
        -13    1    4    4    0    0  0.28287182022E+02  0.67204288377E+01 -0.31714428689E+02  0.43024804678E+02  0.00000000000E+00 0.  1.
         13    1    4    4    0    0  0.43875461568E+02 -0.38306717876E+02  0.54794841521E+02  0.79968340108E+02  0.00000000000E+00 0. -1.
        -13    1    3    3    0    0  0.20166207436E+02  0.16010691672E+02 -0.55127836727E+02  0.60844856417E+02  0.00000000000E+00 0. -1.
         13    1    3    3    0    0 -0.85975807179E+02  0.39186841933E+02 -0.10945798786E+03  0.14459771474E+03  0.00000000000E+00 0.  1.
         21    1    1    2  502  501 -0.63530438470E+01 -0.23611244566E+02 -0.89401822880E+02  0.92685155070E+02  0.00000000000E+00 0.  1.
<scales pt_clust_5="13000.00000" pt_clust_6="13000.00000" pt_clust_7="13000.00000" pt_clust_8="13000.00000" pt_clust_9="24.45101"></scales>
<clustering>
<clus scale="   24.451">  2  9  1 -1</clus>
<clus scale="   87.980">  7  8 -1 -1</clus>
<clus scale="   91.594">  5  6 -1 -1</clus>
<clus scale="  118.722">  2  7  1 -1</clus>
<clus scale="  121.424">  1  5  2 -1</clus>
</clustering>
</event>
<event>
 9    1  0.1175034E-005  0.2871956E+03  0.7546771E-02  0.1092208E+00
          1   -1    0    0  502    0  0.00000000000E+00  0.00000000000E+00  0.47613842129E+03  0.47613842129E+03  0.00000000000E+00 0. -1.
         -1   -1    0    0    0  501 -0.00000000000E+00 -0.00000000000E+00 -0.24760700012E+03  0.24760700012E+03  0.00000000000E+00 0.  1.
         23    2    1    2    0    0  0.47332702772E+02 -0.27078243911E+03  0.13931367178E+03  0.31856295812E+03  0.80687948678E+02 0.  0.
         23    2    1    2    0    0 -0.76389472208E+02  0.26032452553E+03  0.16019854137E+03  0.32777486264E+03  0.90380185136E+02 0.  0.
        -13    1    3    3    0    0 -0.73947537113E+01 -0.16329763593E+03  0.10035308169E+03  0.19181121262E+03  0.00000000000E+00 0. -1.
         13    1    3    3    0    0  0.54727456484E+02 -0.10748480318E+03  0.38960590094E+02  0.12675174550E+03  0.00000000000E+00 0.  1.
        -13    1    4    4    0    0 -0.87014451211E+02  0.17228255409E+03  0.13515380226E+03  0.23562543035E+03  0.00000000000E+00 0. -1.
         13    1    4    4    0    0  0.10624979003E+02  0.88041971442E+02  0.25044739108E+02  0.92149432289E+02  0.00000000000E+00 0.  1.
         21    1    1    2  502  501  0.29056769436E+02  0.10457913573E+02 -0.70980791987E+02  0.77407600644E+02  0.00000000000E+00 0.  1.
<scales pt_clust_5="13000.00000" pt_clust_6="13000.00000" pt_clust_7="13000.00000" pt_clust_8="13000.00000" pt_clust_9="30.88145"></scales>
<clustering>
<clus scale="   30.881">  2  9  1 -1</clus>
<clus scale="   80.688">  5  6 -1 -1</clus>
<clus scale="   90.380">  7  8 -1 -1</clus>
<clus scale="  284.294">  2  5  1 -1</clus>
<clus scale="  287.196">  1  5  2 -1</clus>
</clustering>
</event>
<event>
 9    1  0.1175034E-005  0.1227917E+03  0.7546771E-02  0.1238702E+00
         -1   -1    0    0    0  501 -0.00000000000E+00  0.00000000000E+00  0.26565255179E+03  0.26565255179E+03  0.00000000000E+00 0.  1.
          1   -1    0    0  502    0  0.00000000000E+00 -0.00000000000E+00 -0.82843427582E+02  0.82843427582E+02  0.00000000000E+00 0. -1.
         23    2    1    2    0    0 -0.64132884787E+02 -0.46429034738E+02  0.14787091798E+03  0.19086434060E+03  0.91075276284E+02 0.  0.
         23    2    1    2    0    0  0.58916992639E+02  0.70530289638E+02  0.29227259389E+02  0.13231976542E+03  0.90601069818E+02 0.  0.
        -13    1    4    4    0    0  0.59394058061E+02  0.49101105362E+02  0.57993474690E+02  0.96445921569E+02  0.00000000000E+00 0. -1.
         13    1    4    4    0    0 -0.47706542224E+00  0.21429184277E+02 -0.28766215300E+02  0.35873843854E+02  0.00000000000E+00 0.  1.
        -13    1    3    3    0    0 -0.53003462854E+02  0.74510823205E+01  0.11481965915E+03  0.12668243694E+03  0.00000000000E+00 0.  1.
         13    1    3    3    0    0 -0.11129421933E+02 -0.53880117059E+02  0.33051258831E+02  0.64181903658E+02  0.00000000000E+00 0. -1.
         21    1    1    2  502  501  0.52158921482E+01 -0.24101254900E+02  0.57109468386E+01  0.25311873350E+02  0.00000000000E+00 0. -1.
<scales pt_clust_5="13000.00000" pt_clust_6="13000.00000" pt_clust_7="13000.00000" pt_clust_8="13000.00000" pt_clust_9="24.65920"></scales>
<clustering>
<clus scale="   24.659">  2  9  1 -1</clus>
<clus scale="   90.601">  5  6 -1 -1</clus>
<clus scale="   91.075">  7  8 -1 -1</clus>
<clus scale="  122.440">  2  5  1 -1</clus>
<clus scale="   24.659">  2  5  1 -1</clus>
</clustering>
</event>
<event>
 9    1  0.1175034E-005  0.1488638E+03  0.7546771E-02  0.1201942E+00
         -1   -1    0    0    0  501 -0.00000000000E+00  0.00000000000E+00  0.97198174050E+02  0.97198174050E+02  0.00000000000E+00 0.  1.
          1   -1    0    0  502    0  0.00000000000E+00 -0.00000000000E+00 -0.43421658577E+03  0.43421658577E+03  0.00000000000E+00 0. -1.
         23    2    1    2    0    0  0.70161885629E+02 -0.10797750415E+03 -0.58617262614E+02  0.16825543583E+03  0.91060840175E+02 0.  0.
         23    2    1    2    0    0 -0.79608730908E+02  0.82328070466E+02 -0.29625492820E+03  0.33051129554E+03  0.91407181166E+02 0.  0.
        -11    1    4    4    0    0 -0.38270022453E+02 -0.13607441935E+02 -0.10508829108E+03  0.11266457304E+03  0.00000000000E+00 0.  1.
         11    1    4    4    0    0 -0.41338708455E+02  0.95935512401E+02 -0.19116663712E+03  0.21784672250E+03  0.00000000000E+00 0. -1.
        -13    1    3    3    0    0  0.46200199769E+02 -0.10204017880E+03 -0.78314282729E+02  0.13667400421E+03  0.00000000000E+00 0.  1.
         13    1    3    3    0    0  0.23961685860E+02 -0.59373253438E+01  0.19697020115E+02  0.31581431616E+02  0.00000000000E+00 0. -1.
         21    1    1    2  502  501  0.94468452790E+01  0.25649433680E+02  0.17853779098E+02  0.32648028454E+02  0.00000000000E+00 0.  1.
<scales pt_clust_5="13000.00000" pt_clust_6="13000.00000" pt_clust_7="13000.00000" pt_clust_8="13000.00000" pt_clust_9="27.33379"></scales>
<clustering>
<clus scale="   27.334">  1  9  2 -1</clus>
<clus scale="   91.061">  7  8 -1 -1</clus>
<clus scale="   91.407">  5  6 -1 -1</clus>
<clus scale="  148.651">  1  7  2 -1</clus>
<clus scale="  148.864">  2  5  1 -1</clus>
</clustering>
</event>
<event>
 9    1  0.1175034E-005  0.1048448E+03  0.7546771E-02  0.1271227E+00
         -1   -1    0    0    0  501 -0.00000000000E+00  0.00000000000E+00  0.10638404553E+03  0.10638404553E+03  0.00000000000E+00 0.  1.
          1   -1    0    0  502    0  0.00000000000E+00 -0.00000000000E+00 -0.19437091357E+03  0.19437091357E+03  0.00000000000E+00 0. -1.
         23    2    1    2    0    0  0.53443578099E+02  0.28526141039E+02 -0.15679196954E+02  0.10951639794E+03  0.89877958573E+02 0.  0.
         23    2    1    2    0    0 -0.38864046104E+01 -0.62991175399E+02 -0.17471780374E+02  0.10968657194E+03  0.87993685199E+02 0.  0.
        -11    1    3    3    0    0 -0.86881682435E+01 -0.24944923331E+02 -0.36236458780E+01  0.26662038123E+02  0.00000000000E+00 0.  1.
         11    1    3    3    0    0  0.62131746342E+02  0.53471064370E+02 -0.12055551076E+02  0.82854359814E+02  0.00000000000E+00 0. -1.
        -13    1    4    4    0    0  0.28874359479E+02 -0.20974749887E+02 -0.38419205993E+02  0.52437621583E+02  0.00000000000E+00 0. -1.
         13    1    4    4    0    0 -0.32760764090E+02 -0.42016425512E+02  0.20947425619E+02  0.57248950354E+02  0.00000000000E+00 0.  1.
         21    1    1    2  502  501 -0.49557173488E+02  0.34465034360E+02 -0.54835890714E+02  0.81551989234E+02  0.00000000000E+00 0. -1.
<scales pt_clust_5="13000.00000" pt_clust_6="13000.00000" pt_clust_7="13000.00000" pt_clust_8="13000.00000" pt_clust_9="60.36350"></scales>
<clustering>
<clus scale="   60.363">  2  9  1 -1</clus>
<clus scale="   87.994">  7  8 -1 -1</clus>
<clus scale="   89.878">  5  6 -1 -1</clus>
<clus scale="  103.234">  2  7  1 -1</clus>
<clus scale="   60.363">  2  5  1 -1</clus>
</clustering>
</event>
<event>
 9    1  0.1175034E-005  0.3299958E+03  0.7546771E-02  0.1071302E+00
         -1   -1    0    0    0  501 -0.00000000000E+00  0.00000000000E+00  0.38202631426E+03  0.38202631426E+03  0.00000000000E+00 0.  1.
          1   -1    0    0  502    0  0.00000000000E+00 -0.00000000000E+00 -0.13119289363E+04  0.13119289363E+04  0.00000000000E+00 0. -1.
         23    2    1    2    0    0 -0.27428338415E+03  0.18180370160E+03  0.25981229972E+03  0.42952805144E+03  0.93316424890E+02 0.  0.
         23    2    1    2    0    0  0.27176947841E+03 -0.16074967695E+03 -0.11977219617E+04  0.12417621519E+04  0.87955877209E+02 0.  0.
        -11    1    3    3    0    0 -0.20191643786E+03  0.85178749914E+02  0.19019907074E+03  0.29017469536E+03  0.00000000000E+00 0.  1.
         11    1    3    3    0    0 -0.72366946284E+02  0.96624951683E+02  0.69613228985E+02  0.13935335608E+03  0.00000000000E+00 0. -1.
        -13    1    4    4    0    0  0.10724401724E+03 -0.85776401022E+02 -0.37359275706E+03  0.39803318748E+03  0.00000000000E+00 0.  1.
         13    1    4    4    0    0  0.16452546117E+03 -0.74973275928E+02 -0.82412920462E+03  0.84372896441E+03  0.00000000000E+00 0. -1.
         21    1    1    2  502  501  0.25139057316E+01 -0.21054024646E+02  0.80070399436E+01  0.22665047198E+02  0.00000000000E+00 0. -1.
<scales pt_clust_5="13000.00000" pt_clust_6="13000.00000" pt_clust_7="13000.00000" pt_clust_8="13000.00000" pt_clust_9="21.20358"></scales>
<clustering>
<clus scale="   21.204">  1  9  2 -1</clus>
<clus scale="   87.956">  7  8 -1 -1</clus>
<clus scale="   93.316">  5  6 -1 -1</clus>
<clus scale="  328.520">  2  7  1 -1</clus>
<clus scale="  328.520">  2  5  1 -1</clus>
</clustering>
</event>
<event>
 9    1  0.1175034E-005  0.9487027E+02  0.7546771E-02  0.1291491E+00
         -1   -1    0    0    0  501 -0.00000000000E+00  0.00000000000E+00  0.55232142845E+02  0.55232142845E+02  0.00000000000E+00 0.  1.
          1   -1    0    0  502    0  0.00000000000E+00 -0.00000000000E+00 -0.67803818892E+03  0.67803818892E+03  0.00000000000E+00 0. -1.
         23    2    1    2    0    0  0.11972413288E+02 -0.33238631585E+02 -0.33345999146E+03  0.34766386962E+03  0.91795724443E+02 0.  0.
         23    2    1    2    0    0  0.79439456270E+01  0.14996350411E+02 -0.32654471984E+03  0.33963709332E+03  0.91836290783E+02 0.  0.
        -11    1    3    3    0    0  0.32497023631E+02 -0.57441089250E+02 -0.24284328187E+03  0.25165133584E+03  0.00000000000E+00 0. -1.
         11    1    3    3    0    0 -0.20524610344E+02  0.24202457665E+02 -0.90616709588E+02  0.96012533782E+02  0.00000000000E+00 0.  1.
        -11    1    4    4    0    0  0.45297260803E+02  0.27524009002E+02 -0.21119375251E+03  0.21774345916E+03  0.00000000000E+00 0.  1.
         11    1    4    4    0    0 -0.37353315176E+02 -0.12527658591E+02 -0.11535096732E+03  0.12189363415E+03  0.00000000000E+00 0. -1.
         21    1    1    2  502  501 -0.19916358915E+02  0.18242281174E+02  0.37198665229E+02  0.45969368820E+02  0.00000000000E+00 0.  1.
<scales pt_clust_5="13000.00000" pt_clust_6="13000.00000" pt_clust_7="13000.00000" pt_clust_8="13000.00000" pt_clust_9="27.00819"></scales>
<clustering>
<clus scale="   27.008">  1  9  2 -1</clus>
<clus scale="   91.796">  5  6 -1 -1</clus>
<clus scale="   91.836">  7  8 -1 -1</clus>
<clus scale="   94.831">  1  5  2 -1</clus>
<clus scale="   94.870">  2  5  1 -1</clus>
</clustering>
</event>
<event>
 9    1  0.1175034E-005  0.9384291E+02  0.7546771E-02  0.1294355E+00
         -1   -1    0    0    0  501 -0.00000000000E+00  0.00000000000E+00  0.42520401243E+03  0.42520401243E+03  0.00000000000E+00 0.  1.
          1   -1    0    0  502    0  0.00000000000E+00 -0.00000000000E+00 -0.30601059077E+02  0.30601059077E+02  0.00000000000E+00 0. -1.
         23    2    1    2    0    0 -0.59141657054E+01  0.33225491236E+01  0.16767174984E+03  0.19141089716E+03  0.92077680074E+02 0.  0.
         23    2    1    2    0    0  0.11390027948E+02 -0.24392367443E+02  0.10950356048E+03  0.14496564484E+03  0.91100428652E+02 0.  0.
        -11    1    3    3    0    0  0.20694703772E+01 -0.43736538408E+02  0.67644289753E+02  0.80578641312E+02  0.00000000000E+00 0.  1.
         11    1    3    3    0    0 -0.79836360827E+01  0.47059087532E+02  0.10002746008E+03  0.11083225584E+03  0.00000000000E+00 0. -1.
        -13    1    4    4    0    0  0.15373122279E+02  0.30962392114E+02  0.65791229665E+02  0.74320175692E+02  0.00000000000E+00 0. -1.
         13    1    4    4    0    0 -0.39830943314E+01 -0.55354759558E+02  0.43712330811E+02  0.70645469147E+02  0.00000000000E+00 0.  1.
         21    1    1    2  502  501 -0.54758622424E+01  0.21069818320E+02  0.11742764304E+03  0.11942852951E+03  0.00000000000E+00 0.  1.
<scales pt_clust_5="13000.00000" pt_clust_6="13000.00000" pt_clust_7="13000.00000" pt_clust_8="13000.00000" pt_clust_9="21.76976"></scales>
<clustering>
<clus scale="   21.770">  1  9  2 -1</clus>
<clus scale="   91.100">  7  8 -1 -1</clus>
<clus scale="   92.078">  5  6 -1 -1</clus>
<clus scale="   92.884">  2  7  1 -1</clus>
<clus scale="   92.884">  2  5  1 -1</clus>
</clustering>
</event>
<event>
 9    1  0.1175034E-005  0.1498715E+03  0.7546771E-02  0.1201802E+00
         -1   -1    0    0    0  501 -0.00000000000E+00  0.00000000000E+00  0.81636147053E+02  0.81636147053E+02  0.00000000000E+00 0.  1.
          1   -1    0    0  502    0  0.00000000000E+00 -0.00000000000E+00 -0.38214594636E+03  0.38214594636E+03  0.00000000000E+00 0. -1.
         23    2    1    2    0    0  0.27118522951E+02 -0.10822963964E+03 -0.15578523516E+03  0.21527875736E+03  0.98116434369E+02 0.  0.
         23    2    1    2    0    0 -0.58758195296E+01  0.11585779576E+03 -0.16236853572E+03  0.21985458482E+03  0.92276448679E+02 0.  0.
        -11    1    3    3    0    0  0.24137495858E+01 -0.11914972150E+03 -0.14052794546E+03  0.18425684730E+03  0.00000000000E+00 0.  1.
         11    1    3    3    0    0  0.24704773366E+02  0.10920081862E+02 -0.15257289699E+02  0.31021910062E+02  0.00000000000E+00 0. -1.
        -13    1    4    4    0    0 -0.24664508866E+02 -0.27297246347E+01 -0.47998980240E+02  0.54034169728E+02  0.00000000000E+00 0.  1.
         13    1    4    4    0    0  0.18788689337E+02  0.11858752039E+03 -0.11436955548E+03  0.16582041509E+03  0.00000000000E+00 0. -1.
         21    1    1    2  502  501 -0.21242703422E+02 -0.76281561198E+01  0.17643971573E+02  0.28648751235E+02  0.00000000000E+00 0.  1.
<scales pt_clust_5="13000.00000" pt_clust_6="13000.00000" pt_clust_7="13000.00000" pt_clust_8="13000.00000" pt_clust_9="22.57080"></scales>
<clustering>
<clus scale="   22.571">  1  9  2 -1</clus>
<clus scale="   92.276">  7  8 -1 -1</clus>
<clus scale="   98.116">  5  6 -1 -1</clus>
<clus scale="  146.115">  2  7  1 -1</clus>
<clus scale="  146.115">  2  5  1 -1</clus>
</clustering>
</event>
<event>
 9    1  0.1175034E-005  0.2209602E+03  0.7546771E-02  0.1133486E+00
         -4   -1    0    0    0  501 -0.00000000000E+00  0.00000000000E+00  0.95904524684E+02  0.95904524684E+02  0.00000000000E+00 0.  1.
          4   -1    0    0  502    0  0.00000000000E+00 -0.00000000000E+00 -0.90190844242E+03  0.90190844242E+03  0.00000000000E+00 0. -1.
         23    2    1    2    0    0  0.22576093501E+03 -0.63089625351E+02 -0.47208699372E+03  0.53556745891E+03  0.94963534040E+02 0.  0.
         23    2    1    2    0    0 -0.14155072496E+03  0.10110251791E+03 -0.30981922364E+03  0.36676232307E+03  0.90930321808E+02 0.  0.
        -11    1    3    3    0    0  0.18859878515E+02 -0.30715617012E+02 -0.12598632234E+03  0.13104082403E+03  0.00000000000E+00 0.  1.
         11    1    3    3    0    0  0.20690105650E+03 -0.32374008339E+02 -0.34610067138E+03  0.40452663488E+03  0.00000000000E+00 0. -1.
        -13    1    4    4    0    0 -0.50823868894E+02  0.86102059991E+02 -0.12278367320E+03  0.15834285834E+03  0.00000000000E+00 0. -1.
         13    1    4    4    0    0 -0.90726856069E+02  0.15000457922E+02 -0.18703555044E+03  0.20841946473E+03  0.00000000000E+00 0.  1.
         21    1    1    2  502  501 -0.84210210051E+02 -0.38012892562E+02 -0.24097700380E+02  0.95483185124E+02  0.00000000000E+00 0.  1.
<scales pt_clust_5="13000.00000" pt_clust_6="13000.00000" pt_clust_7="13000.00000" pt_clust_8="13000.00000" pt_clust_9="92.39231"></scales>
<clustering>
<clus scale="   90.930">  7  8 -1 -1</clus>
<clus scale="   92.392">  1  9  2 -1</clus>
<clus scale="   94.964">  5  6 -1 -1</clus>
<clus scale="  219.257">  2  7  1 -1</clus>
<clus scale="  219.257">  2  5  1 -1</clus>
</clustering>
</event>
<event>
 9    1  0.1175034E-005  0.9924073E+02  0.7546771E-02  0.1282351E+00
          1   -1    0    0  502    0  0.00000000000E+00  0.00000000000E+00  0.69666231435E+03  0.69666231435E+03  0.00000000000E+00 0. -1.
         -1   -1    0    0    0  501 -0.00000000000E+00 -0.00000000000E+00 -0.88851753669E+02  0.88851753669E+02  0.00000000000E+00 0.  1.
         23    2    1    2    0    0  0.26208940023E+02 -0.21703400634E+01  0.11872650692E+03  0.15170744986E+03  0.90705832144E+02 0.  0.
         23    2    1    2    0    0  0.15411714098E+02  0.51289084866E+02  0.54105789122E+03  0.55106479246E+03  0.89781249081E+02 0.  0.
        -11    1    3    3    0    0  0.59653147056E+02 -0.26685368371E+01  0.87606913606E+02  0.10602165040E+03  0.00000000000E+00 0. -1.
         11    1    3    3    0    0 -0.33444207033E+02  0.49819677369E+00  0.31119593312E+02  0.45685799457E+02  0.00000000000E+00 0.  1.
        -13    1    4    4    0    0 -0.32831117262E+02  0.45171752034E+02  0.29918502898E+03  0.30435185396E+03  0.00000000000E+00 0. -1.
         13    1    4    4    0    0  0.48242831361E+02  0.61173328322E+01  0.24187286224E+03  0.24671293850E+03  0.00000000000E+00 0.  1.
         21    1    1    2  502  501 -0.41620654121E+02 -0.49118744803E+02 -0.51973837451E+02  0.82741825699E+02  0.00000000000E+00 0.  1.
<scales pt_clust_5="13000.00000" pt_clust_6="13000.00000" pt_clust_7="13000.00000" pt_clust_8="13000.00000" pt_clust_9="64.38113"></scales>
<clustering>
<clus scale="   64.381">  2  9  1 -1</clus>
<clus scale="   89.781">  7  8 -1 -1</clus>
<clus scale="   90.706">  5  6 -1 -1</clus>
<clus scale="   98.396">  1  7  2 -1</clus>
<clus scale="   98.396">  1  5  2 -1</clus>
</clustering>
</event>
<event>
 9    1  0.1175034E-005  0.1047517E+03  0.7546771E-02  0.1271860E+00
         -1   -1    0    0    0  501 -0.00000000000E+00  0.00000000000E+00  0.26205975199E+02  0.26205975199E+02  0.00000000000E+00 0.  1.
          1   -1    0    0  502    0  0.00000000000E+00 -0.00000000000E+00 -0.56980119373E+03  0.56980119373E+03  0.00000000000E+00 0. -1.
         23    2    1    2    0    0 -0.25798795125E+02  0.64159243633E+02 -0.26918604659E+03  0.29244161845E+03  0.90988934214E+02 0.  0.
         23    2    1    2    0    0  0.12356730075E+02 -0.35586921139E+02 -0.22918484746E+03  0.24840844531E+03  0.88101893643E+02 0.  0.
        -13    1    3    3    0    0 -0.42645211645E+02  0.76151873739E+02 -0.16970163956E+03  0.19083073238E+03  0.00000000000E+00 0. -1.
         13    1    3    3    0    0  0.16846416520E+02 -0.11992630106E+02 -0.99484407031E+02  0.10161088607E+03  0.00000000000E+00 0.  1.
        -13    1    4    4    0    0 -0.26408699884E+02 -0.34417504825E+02 -0.18313369626E+03  0.18820184583E+03  0.00000000000E+00 0. -1.
         13    1    4    4    0    0  0.38765429958E+02 -0.11694163135E+01 -0.46051151192E+02  0.60206599476E+02  0.00000000000E+00 0.  1.
         21    1    1    2  502  501  0.13442065050E+02 -0.28572322494E+02 -0.45224324489E+02  0.55157105172E+02  0.00000000000E+00 0.  1.
<scales pt_clust_5="13000.00000" pt_clust_6="13000.00000" pt_clust_7="13000.00000" pt_clust_8="13000.00000" pt_clust_9="31.57636"></scales>
<clustering>
<clus scale="   31.576">  1  9  2 -1</clus>
<clus scale="   88.102">  7  8 -1 -1</clus>
<clus scale="   90.989">  5  6 -1 -1</clus>
<clus scale="  102.254">  2  7  1 -1</clus>
<clus scale="  102.254">  2  5  1 -1</clus>
</clustering>
</event>
<event>
 9    1  0.1175034E-005  0.1525856E+03  0.7546771E-02  0.1197590E+00
         -1   -1    0    0    0  501 -0.00000000000E+00  0.00000000000E+00  0.88006870217E+02  0.88006870217E+02  0.00000000000E+00 0.  1.
          1   -1    0    0  502    0  0.00000000000E+00 -0.00000000000E+00 -0.72691474140E+03  0.72691474140E+03  0.00000000000E+00 0. -1.
         23    2    1    2    0    0  0.12624613047E+03 -0.89526219680E+02 -0.67674937730E+02  0.18954371804E+03  0.85987757172E+02 0.  0.
         23    2    1    2    0    0 -0.10187016395E+03  0.66452368001E+02 -0.57294423837E+03  0.59176957706E+03  0.84455222068E+02 0.  0.
        -11    1    4    4    0    0 -0.68129852523E+02  0.80048806129E+02 -0.49081137850E+03  0.50194152790E+03  0.00000000000E+00 0. -1.
         11    1    4    4    0    0 -0.33740311425E+02 -0.13596438128E+02 -0.82132859874E+02  0.89828049160E+02  0.00000000000E+00 0.  1.
        -13    1    3    3    0    0  0.51484435332E+02  0.98523817418E+01 -0.15311763254E+02  0.54609217184E+02  0.00000000000E+00 0. -1.
         13    1    3    3    0    0  0.74761695133E+02 -0.99378601422E+02 -0.52363174476E+02  0.13493450085E+03  0.00000000000E+00 0.  1.
         21    1    1    2  502  501 -0.24375966518E+02  0.23073851679E+02  0.17113049152E+01  0.33608316523E+02  0.00000000000E+00 0.  1.
<scales pt_clust_5="13000.00000" pt_clust_6="13000.00000" pt_clust_7="13000.00000" pt_clust_8="13000.00000" pt_clust_9="33.56472"></scales>
<clustering>
<clus scale="   33.565">  1  9  2 -1</clus>
<clus scale="   84.455">  5  6 -1 -1</clus>
<clus scale="   85.988">  7  8 -1 -1</clus>
<clus scale="  151.727">  2  5  1 -1</clus>
<clus scale="  151.727">  2  5  1 -1</clus>
</clustering>
</event>
<event>
 9    1  0.1175034E-005  0.2794231E+03  0.7546771E-02  0.1096071E+00
          2   -1    0    0  502    0  0.00000000000E+00  0.00000000000E+00  0.11230051387E+04  0.11230051387E+04  0.00000000000E+00 0. -1.
         -2   -1    0    0    0  501 -0.00000000000E+00 -0.00000000000E+00 -0.16572163783E+03  0.16572163783E+03  0.00000000000E+00 0.  1.
         23    2    1    2    0    0  0.13695994336E+03 -0.13098717819E+03 -0.30566239427E+02  0.21175727137E+03  0.89393400474E+02 0.  0.
         23    2    1    2    0    0 -0.15430955301E+03  0.23348060716E+03  0.87678768718E+03  0.92484885706E+03  0.90907249129E+02 0.  0.
        -11    1    3    3    0    0  0.12443172705E+03 -0.90684470888E+02 -0.54387155749E+02  0.16329387823E+03  0.00000000000E+00 0.  1.
         11    1    3    3    0    0  0.12528216307E+02 -0.40302707301E+02  0.23820916321E+02  0.48463393134E+02  0.00000000000E+00 0. -1.
        -13    1    4    4    0    0 -0.12538002391E+03  0.15318523242E+03  0.71541009586E+03  0.74229203895E+03  0.00000000000E+00 0. -1.
         13    1    4    4    0    0 -0.28929529104E+02  0.80295374744E+02  0.16137759132E+03  0.18255681812E+03  0.00000000000E+00 0.  1.
         21    1    1    2  502  501  0.17349609651E+02 -0.10249342897E+03  0.11106205313E+03  0.15212064811E+03  0.00000000000E+00 0. -1.
<scales pt_clust_5="13000.00000" pt_clust_6="13000.00000" pt_clust_7="13000.00000" pt_clust_8="13000.00000" pt_clust_9="103.95149"></scales>
<clustering>
<clus scale="   89.393">  5  6 -1 -1</clus>
<clus scale="   90.907">  7  8 -1 -1</clus>
<clus scale="  103.951">  2  9  1 -1</clus>
<clus scale="  278.934">  2  5  1 -1</clus>
<clus scale="  279.423">  1  5  2 -1</clus>
</clustering>
</event>
<event>
 9    1  0.1175034E-005  0.9713186E+02  0.7546771E-02  0.1286591E+00
         -1   -1    0    0    0  501 -0.00000000000E+00  0.00000000000E+00  0.15873974058E+03  0.15873974058E+03  0.00000000000E+00 0.  1.
          1   -1    0    0  502    0  0.00000000000E+00 -0.00000000000E+00 -0.20119607901E+03  0.20119607901E+03  0.00000000000E+00 0. -1.
         23    2    1    2    0    0  0.13187389087E+02  0.58430308305E+02 -0.62778098350E+02  0.12605292822E+03  0.91434363999E+02 0.  0.
         23    2    1    2    0    0  0.28577386144E+02 -0.87016349494E+01 -0.72452611930E+02  0.12063837064E+03  0.91716138417E+02 0.  0.
        -11    1    4    4    0    0  0.20695443209E+01 -0.42786440276E+02 -0.88140653316E+01  0.43733856826E+02  0.00000000000E+00 0.  1.
         11    1    4    4    0    0  0.26507841823E+02  0.34084805327E+02 -0.63638546598E+02  0.76904513817E+02  0.00000000000E+00 0. -1.
        -13    1    3    3    0    0 -0.22328123892E+02 -0.26231868446E+01 -0.49247873229E+02  0.54136671890E+02  0.00000000000E+00 0.  1.
         13    1    3    3    0    0  0.35515512979E+02  0.61053495149E+02 -0.13530225121E+02  0.71916256326E+02  0.00000000000E+00 0. -1.
         21    1    1    2  502  501 -0.41764775231E+02 -0.49728673355E+02  0.92774371845E+02  0.11324452073E+03  0.00000000000E+00 0.  1.
<scales pt_clust_5="13000.00000" pt_clust_6="13000.00000" pt_clust_7="13000.00000" pt_clust_8="13000.00000" pt_clust_9="64.94026"></scales>
<clustering>
<clus scale="   64.940">  1  9  2 -1</clus>
<clus scale="   91.434">  7  8 -1 -1</clus>
<clus scale="   91.716">  5  6 -1 -1</clus>
<clus scale="   96.866">  1  7  2 -1</clus>
<clus scale="   97.132">  2  5  1 -1</clus>
</clustering>
</event>
<event>
 9    1  0.1175034E-005  0.1054847E+03  0.7546771E-02  0.1269426E+00
         -1   -1    0    0    0  501 -0.00000000000E+00  0.00000000000E+00  0.23055291274E+02  0.23055291274E+02  0.00000000000E+00 0.  1.
          1   -1    0    0  502    0  0.00000000000E+00 -0.00000000000E+00 -0.66491400315E+03  0.66491400315E+03  0.00000000000E+00 0. -1.
         23    2    1    2    0    0  0.20770731139E+02  0.60800109988E+02 -0.27441336316E+03  0.29649867032E+03  0.92090667150E+02 0.  0.
         23    2    1    2    0    0 -0.19321699578E+01 -0.43611831540E+02 -0.33614594724E+03  0.35109760296E+03  0.91486085429E+02 0.  0.
        -11    1    4    4    0    0 -0.38462310527E+02 -0.45571786997E+02 -0.25815468602E+03  0.26495278638E+03  0.00000000000E+00 0. -1.
         11    1    4    4    0    0  0.36530140569E+02  0.19599554567E+01 -0.77991261224E+02  0.86144816574E+02  0.00000000000E+00 0.  1.
        -13    1    3    3    0    0  0.24828005287E+02 -0.17833348302E+02 -0.49255276104E+02  0.57970168037E+02  0.00000000000E+00 0.  1.
         13    1    3    3    0    0 -0.40572741482E+01  0.78633458290E+02 -0.22515808705E+03  0.23852850228E+03  0.00000000000E+00 0. -1.
         21    1    1    2  502  501 -0.18838561182E+02 -0.17188278448E+02 -0.31299401479E+02  0.40373021145E+02  0.00000000000E+00 0.  1.
<scales pt_clust_5="13000.00000" pt_clust_6="13000.00000" pt_clust_7="13000.00000" pt_clust_8="13000.00000" pt_clust_9="25.50154"></scales>
<clustering>
<clus scale="   25.502">  1  9  2 -1</clus>
<clus scale="   91.486">  5  6 -1 -1</clus>
<clus scale="   92.091">  7  8 -1 -1</clus>
<clus scale="  104.957">  2  5  1 -1</clus>
<clus scale="  104.957">  2  5  1 -1</clus>
</clustering>
</event>
<event>
 9    1  0.1175034E-005  0.9367343E+02  0.7546771E-02  0.1294929E+00
          1   -1    0    0  502    0  0.00000000000E+00  0.00000000000E+00  0.83624483799E+02  0.83624483799E+02  0.00000000000E+00 0. -1.
         -1   -1    0    0    0  501 -0.00000000000E+00 -0.00000000000E+00 -0.29884533864E+03  0.29884533864E+03  0.00000000000E+00 0.  1.
         23    2    1    2    0    0  0.91448156990E+01  0.12375734907E+02 -0.15182568557E+03  0.17898538796E+03  0.93530443372E+02 0.  0.
         23    2    1    2    0    0 -0.18179665639E+00  0.81776200512E+01  0.37653876070E+02  0.99977499081E+02  0.92253885661E+02 0.  0.
        -11    1    4    4    0    0  0.26222274152E+02 -0.33871753264E+02  0.14823239781E+02  0.45328046158E+02  0.00000000000E+00 0. -1.
         11    1    4    4    0    0 -0.26404070808E+02  0.42049373315E+02  0.22830636289E+02  0.54649452923E+02  0.00000000000E+00 0.  1.
        -13    1    3    3    0    0  0.38145222169E+02  0.22292999863E+02 -0.30100680555E+02  0.53461077309E+02  0.00000000000E+00 0.  1.
         13    1    3    3    0    0 -0.29000406470E+02 -0.99172649558E+01 -0.12172500501E+03  0.12552431065E+03  0.00000000000E+00 0. -1.
         21    1    1    2  502  501 -0.89630190426E+01 -0.20553354959E+02 -0.10104904534E+03  0.10350693539E+03  0.00000000000E+00 0. -1.
<scales pt_clust_5="13000.00000" pt_clust_6="13000.00000" pt_clust_7="13000.00000" pt_clust_8="13000.00000" pt_clust_9="22.42267"></scales>
<clustering>
<clus scale="   22.423">  2  9  1 -1</clus>
<clus scale="   92.254">  5  6 -1 -1</clus>
<clus scale="   92.399">  1  5  2 -1</clus>
<clus scale="   93.530">  7  8 -1 -1</clus>
<clus scale="   92.399">  1  5  2 -1</clus>
</clustering>
</event>
<event>
 9    1  0.1175034E-005  0.1199159E+03  0.7546771E-02  0.1245212E+00
         -4   -1    0    0    0  501 -0.00000000000E+00  0.00000000000E+00  0.31938753255E+02  0.31938753255E+02  0.00000000000E+00 0.  1.
          4   -1    0    0  502    0  0.00000000000E+00 -0.00000000000E+00 -0.81956678317E+03  0.81956678317E+03  0.00000000000E+00 0. -1.
         23    2    1    2    0    0 -0.82237942526E+02  0.55753275555E+02 -0.36517784437E+03  0.38764938614E+03  0.83938558644E+02 0.  0.
         23    2    1    2    0    0  0.70388332877E+02  0.42389254112E+01 -0.35399452740E+03  0.37206478600E+03  0.90264021945E+02 0.  0.
        -11    1    4    4    0    0  0.78864577167E+02  0.29304412264E+02 -0.22119779806E+03  0.23665763452E+03  0.00000000000E+00 0. -1.
         11    1    4    4    0    0 -0.84762442898E+01 -0.25065486853E+02 -0.13279672934E+03  0.13540715148E+03  0.00000000000E+00 0.  1.
        -13    1    3    3    0    0 -0.21562491151E+02  0.45528689581E+02 -0.26753272807E+03  0.27223439017E+03  0.00000000000E+00 0. -1.
         13    1    3    3    0    0 -0.60675451376E+02  0.10224585974E+02 -0.97645116301E+02  0.11541499597E+03  0.00000000000E+00 0.  1.
         21    1    1    2  502  501  0.11849609649E+02 -0.59992200967E+02 -0.68455658135E+02  0.91791364280E+02  0.00000000000E+00 0.  1.
<scales pt_clust_5="13000.00000" pt_clust_6="13000.00000" pt_clust_7="13000.00000" pt_clust_8="13000.00000" pt_clust_9="61.15127"></scales>
<clustering>
<clus scale="   61.151">  1  9  2 -1</clus>
<clus scale="   83.939">  7  8 -1 -1</clus>
<clus scale="   90.264">  5  6 -1 -1</clus>
<clus scale="  115.230">  1  7  2 -1</clus>
<clus scale="  119.916">  2  5  1 -1</clus>
</clustering>
</event>
<event>
 9    1  0.1175034E-005  0.1185132E+03  0.7546771E-02  0.1247372E+00
         -2   -1    0    0    0  501 -0.00000000000E+00  0.00000000000E+00  0.18695759392E+03  0.18695759392E+03  0.00000000000E+00 0.  1.
          2   -1    0    0  502    0  0.00000000000E+00 -0.00000000000E+00 -0.18550611172E+03  0.18550611172E+03  0.00000000000E+00 0. -1.
         23    2    1    2    0    0 -0.18603545696E+02  0.35358206057E+02  0.10003166193E+03  0.14252402565E+03  0.93329897943E+02 0.  0.
         23    2    1    2    0    0  0.24972751106E+02 -0.75276049221E+02 -0.13212117908E+03  0.17741349968E+03  0.87917131563E+02 0.  0.
        -13    1    3    3    0    0  0.35667976801E+02  0.19458749686E+02  0.22151029543E+02  0.46276512598E+02  0.00000000000E+00 0. -1.
         13    1    3    3    0    0 -0.54271522497E+02  0.15899456371E+02  0.77880632389E+02  0.96247513050E+02  0.00000000000E+00 0.  1.
        -13    1    4    4    0    0  0.40747368441E+02 -0.37746049477E+02 -0.21535831436E+02  0.59572681001E+02  0.00000000000E+00 0.  1.
         13    1    4    4    0    0 -0.15774617335E+02 -0.37529999744E+02 -0.11058534764E+03  0.11784081868E+03  0.00000000000E+00 0. -1.
         21    1    1    2  502  501 -0.63692054096E+01  0.39917843164E+02  0.33540999349E+02  0.52526180308E+02  0.00000000000E+00 0.  1.
<scales pt_clust_5="13000.00000" pt_clust_6="13000.00000" pt_clust_7="13000.00000" pt_clust_8="13000.00000" pt_clust_9="40.42278"></scales>
<clustering>
<clus scale="   40.423">  1  9  2 -1</clus>
<clus scale="   87.917">  7  8 -1 -1</clus>
<clus scale="   93.330">  5  6 -1 -1</clus>
<clus scale="  114.299">  2  7  1 -1</clus>
<clus scale="  114.299">  2  5  1 -1</clus>
</clustering>
</event>
<event>
 9    1  0.1175034E-005  0.9255331E+02  0.7546771E-02  0.1298181E+00
          1   -1    0    0  502    0  0.00000000000E+00  0.00000000000E+00  0.46752988750E+02  0.46752988750E+02  0.00000000000E+00 0. -1.
         -1   -1    0    0    0  501 -0.00000000000E+00 -0.00000000000E+00 -0.31759658267E+03  0.31759658267E+03  0.00000000000E+00 0.  1.
         23    2    1    2    0    0  0.15962647967E+01  0.37815274725E+02 -0.13115908337E+03  0.16459980426E+03  0.91966555586E+02 0.  0.
         23    2    1    2    0    0 -0.90623804635E+01  0.95791354118E+01 -0.66947842684E+02  0.11261426437E+03  0.89588349267E+02 0.  0.
        -13    1    4    4    0    0 -0.48174462962E+02 -0.57246430782E+01 -0.37564144234E+02  0.61356461372E+02  0.00000000000E+00 0.  1.
         13    1    4    4    0    0  0.39112082499E+02  0.15303778490E+02 -0.29383698450E+02  0.51257802997E+02  0.00000000000E+00 0. -1.
        -13    1    3    3    0    0 -0.22567625048E+02  0.12795081194E+02 -0.12693697829E+03  0.12956082841E+03  0.00000000000E+00 0.  1.
         13    1    3    3    0    0  0.24163889845E+02  0.25020193530E+02 -0.42221050870E+01  0.35038975842E+02  0.00000000000E+00 0. -1.
         21    1    1    2  502  501  0.74661156668E+01 -0.47394410137E+02 -0.72736667863E+02  0.87135502794E+02  0.00000000000E+00 0. -1.
<scales pt_clust_5="13000.00000" pt_clust_6="13000.00000" pt_clust_7="13000.00000" pt_clust_8="13000.00000" pt_clust_9="47.97888"></scales>
<clustering>
<clus scale="   47.979">  2  9  1 -1</clus>
<clus scale="   89.588">  5  6 -1 -1</clus>
<clus scale="   90.191">  1  5  2 -1</clus>
<clus scale="   91.967">  7  8 -1 -1</clus>
<clus scale="   90.191">  1  5  2 -1</clus>
</clustering>
</event>
<event>
 9    1  0.1175034E-005  0.2376615E+03  0.7546771E-02  0.1145154E+00
          3   -1    0    0  502    0  0.00000000000E+00  0.00000000000E+00  0.35535360292E+03  0.35535360292E+03  0.00000000000E+00 0. -1.
         -3   -1    0    0    0  501 -0.00000000000E+00 -0.00000000000E+00 -0.38640545512E+03  0.38640545512E+03  0.00000000000E+00 0.  1.
         23    2    1    2    0    0 -0.60801200874E+02  0.75652570343E+02 -0.21397430908E+02  0.13464705363E+03  0.90839867764E+02 0.  0.
         23    2    1    2    0    0  0.21816305463E+03  0.59073067196E+02  0.19776345463E+03  0.31396370461E+03  0.91531842282E+02 0.  0.
        -11    1    3    3    0    0 -0.32945633083E+02 -0.15705816668E+02  0.11314856237E+01  0.36515307423E+02  0.00000000000E+00 0. -1.
         11    1    3    3    0    0 -0.27855567790E+02  0.91358387010E+02 -0.22528916532E+02  0.98131746210E+02  0.00000000000E+00 0.  1.
        -13    1    4    4    0    0  0.48969771857E+02 -0.12235640083E+02  0.83912020475E+02  0.97923320125E+02  0.00000000000E+00 0.  1.
         13    1    4    4    0    0  0.16919328277E+03  0.71308707279E+02  0.11385143415E+03  0.21604038448E+03  0.00000000000E+00 0. -1.
         21    1    1    2  502  501 -0.15736185376E+03 -0.13472563754E+03 -0.20741787592E+03  0.29314829981E+03  0.00000000000E+00 0.  1.
<scales pt_clust_5="13000.00000" pt_clust_6="13000.00000" pt_clust_7="13000.00000" pt_clust_8="13000.00000" pt_clust_9="219.32832"></scales>
<clustering>
<clus scale="   90.840">  5  6 -1 -1</clus>
<clus scale="   91.532">  7  8 -1 -1</clus>
<clus scale="  132.936">  2  5  1 -1</clus>
<clus scale="  219.328">  2  9  1 -1</clus>
<clus scale="  237.662">  1  5  2 -1</clus>
</clustering>
</event>
<event>
 9    1  0.1175034E-005  0.1388422E+03  0.7546771E-02  0.1217494E+00
          1   -1    0    0  502    0  0.00000000000E+00  0.00000000000E+00  0.11713504474E+03  0.11713504474E+03  0.00000000000E+00 0. -1.
         -1   -1    0    0    0  501 -0.00000000000E+00 -0.00000000000E+00 -0.20093579484E+03  0.20093579484E+03  0.00000000000E+00 0.  1.
         23    2    1    2    0    0  0.80618740575E+02 -0.64791914602E+02 -0.67970339957E+02  0.15199692494E+03  0.88236752814E+02 0.  0.
         23    2    1    2    0    0 -0.85859131863E+02  0.40001803284E+02 -0.15432184476E+01  0.13698551203E+03  0.98948037840E+02 0.  0.
        -13    1    3    3    0    0  0.79142889969E+02 -0.23139818095E+02 -0.72857660026E+02  0.11003311701E+03  0.00000000000E+00 0.  1.
         13    1    3    3    0    0  0.14758506062E+01 -0.41652096508E+02  0.48873200696E+01  0.41963807930E+02  0.00000000000E+00 0. -1.
        -13    1    4    4    0    0 -0.75868757419E+02  0.68356605661E+02 -0.16436682143E+02  0.10343528610E+03  0.00000000000E+00 0.  1.
         13    1    4    4    0    0 -0.99903744442E+01 -0.28354802377E+02  0.14893463695E+02  0.33550225933E+02  0.00000000000E+00 0. -1.
         21    1    1    2  502  501  0.52403912881E+01  0.24790111318E+02 -0.14287191690E+02  0.29088402610E+02  0.00000000000E+00 0.  1.
<scales pt_clust_5="13000.00000" pt_clust_6="13000.00000" pt_clust_7="13000.00000" pt_clust_8="13000.00000" pt_clust_9="25.33794"></scales>
<clustering>
<clus scale="   25.338">  2  9  1 -1</clus>
<clus scale="   88.237">  5  6 -1 -1</clus>
<clus scale="   98.948">  7  8 -1 -1</clus>
<clus scale="  131.424">  2  5  1 -1</clus>
<clus scale="  138.842">  1  5  2 -1</clus>
</clustering>
</event>
<event>
 9    1  0.1175034E-005  0.9934535E+02  0.7546771E-02  0.1282037E+00
         -1   -1    0    0    0  501 -0.00000000000E+00  0.00000000000E+00  0.16852327746E+03  0.16852327746E+03  0.00000000000E+00 0.  1.
          1   -1    0    0  502    0  0.00000000000E+00 -0.00000000000E+00 -0.92615548305E+02  0.92615548305E+02  0.00000000000E+00 0. -1.
         23    2    1    2    0    0 -0.46415557079E+02 -0.19765484879E+02  0.35933218750E+02  0.10935203495E+03  0.90119881304E+02 0.  0.
         23    2    1    2    0    0  0.10571303323E+02  0.38963680405E+02  0.74222036911E+01  0.99699998718E+02  0.90857469654E+02 0.  0.
        -13    1    4    4    0    0  0.16653311326E+02  0.67615107460E+02  0.97628614536E+01  0.70316776083E+02  0.00000000000E+00 0.  1.
         13    1    4    4    0    0 -0.60820080021E+01 -0.28651427055E+02 -0.23406577625E+01  0.29383222635E+02  0.00000000000E+00 0. -1.
        -13    1    3    3    0    0 -0.50241281578E+02  0.58929495149E+01 -0.14512868674E+02  0.52626386782E+02  0.00000000000E+00 0. -1.
         13    1    3    3    0    0  0.38257244992E+01 -0.25658434394E+02  0.50446087424E+02  0.56725648166E+02  0.00000000000E+00 0.  1.
         21    1    1    2  502  501  0.35844253755E+02 -0.19198195526E+02  0.32552306715E+02  0.52086792099E+02  0.00000000000E+00 0.  1.
<scales pt_clust_5="13000.00000" pt_clust_6="13000.00000" pt_clust_7="13000.00000" pt_clust_8="13000.00000" pt_clust_9="40.66179"></scales>
<clustering>
<clus scale="   40.662">  1  9  2 -1</clus>
<clus scale="   90.120">  7  8 -1 -1</clus>
<clus scale="   90.857">  5  6 -1 -1</clus>
<clus scale="   98.671">  1  7  2 -1</clus>
<clus scale="   99.345">  2  5  1 -1</clus>
</clustering>
</event>
<event>
 9    1  0.1175034E-005  0.1314396E+03  0.7546771E-02  0.1226029E+00
          1   -1    0    0  502    0  0.00000000000E+00  0.00000000000E+00  0.11901711846E+03  0.11901711846E+03  0.00000000000E+00 0. -1.
         -1   -1    0    0    0  501 -0.00000000000E+00 -0.00000000000E+00 -0.24995148495E+03  0.24995148495E+03  0.00000000000E+00 0.  1.
         23    2    1    2    0    0  0.23332242181E+02  0.11226595691E+03 -0.13288089628E+03  0.19613745166E+03  0.87547294323E+02 0.  0.
         23    2    1    2    0    0 -0.40663480794E+02 -0.80586884680E+02  0.24832932811E+02  0.13007927585E+03  0.90311565155E+02 0.  0.
        -11    1    3    3    0    0 -0.11575491372E+01  0.43569123065E+02 -0.11214303161E+03  0.12031487000E+03  0.00000000000E+00 0.  1.
         11    1    3    3    0    0  0.24489791318E+02  0.68696833844E+02 -0.20737864668E+02  0.75822581663E+02  0.00000000000E+00 0. -1.
        -11    1    4    4    0    0 -0.17716823758E+02 -0.96972402677E+02  0.25689442230E+02  0.10186991787E+03  0.00000000000E+00 0. -1.
         11    1    4    4    0    0 -0.22946657036E+02  0.16385517996E+02 -0.85650941872E+00  0.28209357978E+02  0.00000000000E+00 0.  1.
         21    1    1    2  502  501  0.17331238613E+02 -0.31679072228E+02 -0.22886403023E+02  0.42751875894E+02  0.00000000000E+00 0. -1.
<scales pt_clust_5="13000.00000" pt_clust_6="13000.00000" pt_clust_7="13000.00000" pt_clust_8="13000.00000" pt_clust_9="36.11005"></scales>
<clustering>
<clus scale="   36.110">  2  9  1 -1</clus>
<clus scale="   87.547">  5  6 -1 -1</clus>
<clus scale="   90.312">  7  8 -1 -1</clus>
<clus scale="  129.556">  2  5  1 -1</clus>
<clus scale="  131.440">  1  5  2 -1</clus>
</clustering>
</event>
<event>
 9    1  0.1175034E-005  0.9838567E+02  0.7546771E-02  0.1286906E+00
          2   -1    0    0  502    0  0.00000000000E+00  0.00000000000E+00  0.23862036041E+02  0.23862036041E+02  0.00000000000E+00 0. -1.
         -2   -1    0    0    0  501 -0.00000000000E+00 -0.00000000000E+00 -0.59564901409E+03  0.59564901409E+03  0.00000000000E+00 0.  1.
         23    2    1    2    0    0  0.14443109504E+02  0.32438112294E+02 -0.37318411986E+03  0.38692040289E+03  0.95813236630E+02 0.  0.
         23    2    1    2    0    0 -0.13669447641E+02 -0.12280432184E+02 -0.11794119026E+03  0.14944477968E+03  0.89921938366E+02 0.  0.
        -11    1    4    4    0    0  0.17608423299E+02  0.11365464706E+02  0.40162283097E+01  0.21339176387E+02  0.00000000000E+00 0. -1.
         11    1    4    4    0    0 -0.31277870940E+02 -0.23645896890E+02 -0.12195741857E+03  0.12810560329E+03  0.00000000000E+00 0.  1.
        -11    1    3    3    0    0  0.25079369897E+02  0.61540643700E+02 -0.30298200383E+03  0.31018433272E+03  0.00000000000E+00 0. -1.
         11    1    3    3    0    0 -0.10636260393E+02 -0.29102531406E+02 -0.70202116035E+02  0.76736070171E+02  0.00000000000E+00 0.  1.
         21    1    1    2  502  501 -0.77366186279E+00 -0.20157680110E+02 -0.80661667926E+02  0.83145867562E+02  0.00000000000E+00 0.  1.
<scales pt_clust_5="13000.00000" pt_clust_6="13000.00000" pt_clust_7="13000.00000" pt_clust_8="13000.00000" pt_clust_9="20.17252"></scales>
<clustering>
<clus scale="   20.173">  2  9  1 -1</clus>
<clus scale="   89.922">  5  6 -1 -1</clus>
<clus scale="   92.658">  1  5  2 -1</clus>
<clus scale="   95.813">  7  8 -1 -1</clus>
<clus scale="   92.658">  1  5  2 -1</clus>
</clustering>
</event>
<event>
 9    1  0.1175034E-005  0.1292349E+03  0.7546771E-02  0.1230050E+00
          1   -1    0    0  502    0  0.00000000000E+00  0.00000000000E+00  0.82689812787E+02  0.82689812787E+02  0.00000000000E+00 0. -1.
         -1   -1    0    0    0  501 -0.00000000000E+00 -0.00000000000E+00 -0.29440094565E+03  0.29440094565E+03  0.00000000000E+00 0.  1.
         23    2    1    2    0    0 -0.51192901290E+02 -0.86796189737E+02 -0.17017630196E+03  0.21930422457E+03  0.94763270675E+02 0.  0.
         23    2    1    2    0    0  0.54279385918E+02  0.63598848510E+02 -0.16582736862E+02  0.12357761655E+03  0.89472760559E+02 0.  0.
        -13    1    3    3    0    0 -0.19749012653E+02 -0.94242120376E+02 -0.15748241721E+03  0.18458686975E+03  0.00000000000E+00 0.  1.
         13    1    3    3    0    0 -0.31443888637E+02  0.74459306391E+01 -0.12693884757E+02  0.34717354823E+02  0.00000000000E+00 0. -1.
        -13    1    4    4    0    0  0.19787202690E+02  0.64079057230E+02  0.23161178885E+02  0.70951385984E+02  0.00000000000E+00 0.  1.
         13    1    4    4    0    0  0.34492183228E+02 -0.48020871916E+00 -0.39743915747E+02  0.52626230562E+02  0.00000000000E+00 0. -1.
         21    1    1    2  502  501 -0.30864846280E+01  0.23197341226E+02 -0.24952094032E+02  0.34208917315E+02  0.00000000000E+00 0.  1.
<scales pt_clust_5="13000.00000" pt_clust_6="13000.00000" pt_clust_7="13000.00000" pt_clust_8="13000.00000" pt_clust_9="23.40177"></scales>
<clustering>
<clus scale="   23.402">  2  9  1 -1</clus>
<clus scale="   89.473">  7  8 -1 -1</clus>
<clus scale="   94.763">  5  6 -1 -1</clus>
<clus scale="  125.407">  1  7  2 -1</clus>
<clus scale="  125.407">  1  5  2 -1</clus>
</clustering>
</event>
<event>
 9    1  0.1175034E-005  0.9443982E+02  0.7546771E-02  0.1294109E+00
          2   -1    0    0  502    0  0.00000000000E+00  0.00000000000E+00  0.51154333510E+02  0.51154333510E+02  0.00000000000E+00 0. -1.
         -2   -1    0    0    0  501 -0.00000000000E+00 -0.00000000000E+00 -0.23476070618E+03  0.23476070618E+03  0.00000000000E+00 0.  1.
         23    2    1    2    0    0  0.41116303248E+01  0.16334512665E+02 -0.69662026816E+02  0.11606905649E+03  0.91298992804E+02 0.  0.
         23    2    1    2    0    0 -0.41147722803E+01  0.46062667006E+01 -0.59674251808E+02  0.11167589330E+03  0.94193098329E+02 0.  0.
        -13    1    4    4    0    0  0.81580892449E+01  0.46817016500E+02 -0.17171366457E+02  0.50529627746E+02  0.00000000000E+00 0.  1.
         13    1    4    4    0    0 -0.12272861525E+02 -0.42210749800E+02 -0.42502885351E+02  0.61146265559E+02  0.00000000000E+00 0. -1.
        -13    1    3    3    0    0 -0.34772378784E+02 -0.49237235096E+01 -0.61770815481E+02  0.71056280684E+02  0.00000000000E+00 0.  1.
         13    1    3    3    0    0  0.38884009109E+02  0.21258236174E+02 -0.78912113349E+01  0.45012775808E+02  0.00000000000E+00 0. -1.
         21    1    1    2  502  501  0.31419554830E-02 -0.20940779365E+02 -0.54270094044E+02  0.58170089890E+02  0.00000000000E+00 0.  1.
<scales pt_clust_5="13000.00000" pt_clust_6="13000.00000" pt_clust_7="13000.00000" pt_clust_8="13000.00000" pt_clust_9="20.94078"></scales>
<clustering>
<clus scale="   20.941">  2  9  1 -1</clus>
<clus scale="   91.299">  7  8 -1 -1</clus>
<clus scale="   91.554">  2  7  1 -1</clus>
<clus scale="   94.193">  5  6 -1 -1</clus>
<clus scale="   94.440">  1  5  2 -1</clus>
</clustering>
</event>
<event>
 9    1  0.1175034E-005  0.1258218E+03  0.7546771E-02  0.1234046E+00
         -2   -1    0    0    0  501 -0.00000000000E+00  0.00000000000E+00  0.77279350232E+02  0.77279350232E+02  0.00000000000E+00 0.  1.
          2   -1    0    0  502    0  0.00000000000E+00 -0.00000000000E+00 -0.40138288352E+03  0.40138288352E+03  0.00000000000E+00 0. -1.
         23    2    1    2    0    0  0.12999891411E+02  0.89239932553E+02 -0.13809382110E+03  0.18811955098E+03  0.90478170264E+02 0.  0.
         23    2    1    2    0    0 -0.40100257126E+02 -0.76125106086E+02 -0.21486551261E+03  0.24884033617E+03  0.91385239497E+02 0.  0.
        -11    1    3    3    0    0  0.45880875623E+02  0.58148365839E+02 -0.11631949967E+03  0.13790037419E+03  0.00000000000E+00 0.  1.
         11    1    3    3    0    0 -0.32880984212E+02  0.31091566714E+02 -0.21774321431E+02  0.50219176788E+02  0.00000000000E+00 0. -1.
        -11    1    4    4    0    0  0.14149745473E+02 -0.18925642869E+02 -0.13339713161E+03  0.13547394575E+03  0.00000000000E+00 0.  1.
         11    1    4    4    0    0 -0.54250002599E+02 -0.57199463217E+02 -0.81468380997E+02  0.11336639042E+03  0.00000000000E+00 0. -1.
         21    1    1    2  502  501  0.27100365714E+02 -0.13114826468E+02  0.28855800418E+02  0.41702346612E+02  0.00000000000E+00 0.  1.
<scales pt_clust_5="13000.00000" pt_clust_6="13000.00000" pt_clust_7="13000.00000" pt_clust_8="13000.00000" pt_clust_9="30.10695"></scales>
<clustering>
<clus scale="   30.107">  1  9  2 -1</clus>
<clus scale="   90.478">  5  6 -1 -1</clus>
<clus scale="   91.385">  7  8 -1 -1</clus>
<clus scale="  125.165">  1  5  2 -1</clus>
<clus scale="  125.822">  2  5  1 -1</clus>
</clustering>
</event>
<event>
 9    1  0.1474432E-005  0.9235447E+02  0.7546771E-02  0.1297677E+00
          2   -1    0    0  502    0  0.00000000000E+00  0.00000000000E+00  0.58855146129E+03  0.58855146129E+03  0.00000000000E+00 0. -1.
         -2   -1    0    0    0  501 -0.00000000000E+00 -0.00000000000E+00 -0.50662421395E+02  0.50662421395E+02  0.00000000000E+00 0.  1.
         23    2    1    2    0    0 -0.17055073449E+02  0.12937783862E+02  0.48591591361E+02  0.10479861181E+03  0.90351228570E+02 0.  0.
         23    2    1    2    0    0  0.59234094191E+01  0.17347667940E+02  0.49323387432E+03  0.50190961009E+03  0.91091018048E+02 0.  0.
        -13    1    4    4    0    0  0.47339247867E+02  0.20017932822E+02  0.26801213800E+03  0.27289600242E+03  0.00000000000E+00 0. -1.
         13    1    4    4    0    0 -0.41415838448E+02 -0.26702648826E+01  0.22522173632E+03  0.22901360767E+03  0.00000000000E+00 0.  1.
        -13    1    3    3    0    0 -0.14355882494E+02  0.36543606300E+02  0.64990255796E+02  0.75929308386E+02  0.00000000000E+00 0.  1.
         13    1    3    3    0    0 -0.26991909541E+01 -0.23605822438E+02 -0.16398664435E+02  0.28869303421E+02  0.00000000000E+00 0. -1.
         21    1    1    2  502  501  0.11131664029E+02 -0.30285451802E+02 -0.39364257853E+01  0.32505660782E+02  0.00000000000E+00 0. -1.
<scales pt_clust_5="13000.00000" pt_clust_6="13000.00000" pt_clust_7="13000.00000" pt_clust_8="13000.00000" pt_clust_9="32.26643"></scales>
<clustering>
<clus scale="   32.266">  2  9  1 -1</clus>
<clus scale="   90.351">  7  8 -1 -1</clus>
<clus scale="   91.091">  5  6 -1 -1</clus>
<clus scale="   91.625">  2  7  1 -1</clus>
<clus scale="   92.354">  1  5  2 -1</clus>
</clustering>
</event>
<event>
 9    1  0.1175034E-005  0.9739474E+02  0.7546771E-02  0.1286607E+00
          2   -1    0    0  502    0  0.00000000000E+00  0.00000000000E+00  0.10016673179E+03  0.10016673179E+03  0.00000000000E+00 0. -1.
         -2   -1    0    0    0  501 -0.00000000000E+00 -0.00000000000E+00 -0.35580229127E+03  0.35580229127E+03  0.00000000000E+00 0.  1.
         23    2    1    2    0    0 -0.32993443714E+02  0.33986483439E+02 -0.23198380412E+03  0.25442381170E+03  0.93120041893E+02 0.  0.
         23    2    1    2    0    0  0.58119069263E+01 -0.26519415576E+02  0.60243291358E+02  0.11304113287E+03  0.91716879043E+02 0.  0.
        -11    1    3    3    0    0 -0.15496736658E+02  0.65707875235E+02 -0.16487524553E+03  0.17816150062E+03  0.00000000000E+00 0.  1.
         11    1    3    3    0    0 -0.17496707056E+02 -0.31721391796E+02 -0.67108558589E+02  0.76262311079E+02  0.00000000000E+00 0. -1.
        -11    1    4    4    0    0  0.35262513047E+02 -0.33038247840E+01  0.66191981586E+02  0.75071555937E+02  0.00000000000E+00 0.  1.
         11    1    4    4    0    0 -0.29450606121E+02 -0.23215590792E+02 -0.59486902278E+01  0.37969576929E+02  0.00000000000E+00 0. -1.
         21    1    1    2  502  501  0.27181536788E+02 -0.74670678632E+01 -0.83895046726E+02  0.88504078493E+02  0.00000000000E+00 0.  1.
<scales pt_clust_5="13000.00000" pt_clust_6="13000.00000" pt_clust_7="13000.00000" pt_clust_8="13000.00000" pt_clust_9="28.18853"></scales>
<clustering>
<clus scale="   28.189">  2  9  1 -1</clus>
<clus scale="   91.717">  7  8 -1 -1</clus>
<clus scale="   93.120">  5  6 -1 -1</clus>
<clus scale="   96.054">  1  7  2 -1</clus>
<clus scale="   96.054">  1  5  2 -1</clus>
</clustering>
</event>
<event>
 9    1  0.1175034E-005  0.9733967E+02  0.7546771E-02  0.1287113E+00
         -4   -1    0    0    0  501 -0.00000000000E+00  0.00000000000E+00  0.21256772067E+03  0.21256772067E+03  0.00000000000E+00 0.  1.
          4   -1    0    0  502    0  0.00000000000E+00 -0.00000000000E+00 -0.24542942593E+03  0.24542942593E+03  0.00000000000E+00 0. -1.
         23    2    1    2    0    0 -0.46477146288E+01  0.14022525637E+01  0.11422120393E+03  0.14474685861E+03  0.88778387486E+02 0.  0.
         23    2    1    2    0    0  0.34211905828E+02  0.14640486350E+02 -0.21558884355E+03  0.23693204696E+03  0.90958490940E+02 0.  0.
        -13    1    4    4    0    0  0.47453720584E+02  0.44726730550E+02 -0.13614991612E+03  0.15096070907E+03  0.00000000000E+00 0. -1.
         13    1    4    4    0    0 -0.13241814757E+02 -0.30086244201E+02 -0.79438927429E+02  0.85971337893E+02  0.00000000000E+00 0.  1.
        -13    1    3    3    0    0  0.14918314109E+02  0.16374425662E+02 -0.52474104870E+01  0.22764297231E+02  0.00000000000E+00 0. -1.
         13    1    3    3    0    0 -0.19566028737E+02 -0.14972173098E+02  0.11946861442E+03  0.12198256137E+03  0.00000000000E+00 0.  1.
         21    1    1    2  502  501 -0.29564191199E+02 -0.16042738913E+02  0.68505934350E+02  0.76318241032E+02  0.00000000000E+00 0.  1.
<scales pt_clust_5="13000.00000" pt_clust_6="13000.00000" pt_clust_7="13000.00000" pt_clust_8="13000.00000" pt_clust_9="33.63645"></scales>
<clustering>
<clus scale="   33.636">  1  9  2 -1</clus>
<clus scale="   88.778">  7  8 -1 -1</clus>
<clus scale="   90.958">  5  6 -1 -1</clus>
<clus scale="   95.306">  1  7  2 -1</clus>
<clus scale="   97.340">  2  5  1 -1</clus>
</clustering>
</event>
<event>
 9    1  0.1175034E-005  0.1179241E+03  0.7546771E-02  0.1247432E+00
         -1   -1    0    0    0  501 -0.00000000000E+00  0.00000000000E+00  0.16811312824E+03  0.16811312824E+03  0.00000000000E+00 0.  1.
          1   -1    0    0  502    0  0.00000000000E+00 -0.00000000000E+00 -0.11300972949E+03  0.11300972949E+03  0.00000000000E+00 0. -1.
         23    2    1    2    0    0 -0.83886700221E+02  0.80599240608E+01  0.15551530884E+02  0.12613969146E+03  0.92560417025E+02 0.  0.
         23    2    1    2    0    0  0.64440783547E+02  0.50204330990E+01  0.20708611276E+01  0.11077835562E+03  0.89942961232E+02 0.  0.
        -13    1    4    4    0    0  0.16199870816E+02 -0.40787350457E+02 -0.34675215628E+01  0.44023487794E+02  0.00000000000E+00 0. -1.
         13    1    4    4    0    0  0.48240912731E+02  0.45807783556E+02  0.55383826904E+01  0.66754867825E+02  0.00000000000E+00 0.  1.
        -13    1    3    3    0    0 -0.51107056606E+02 -0.25428731080E+02  0.43327740964E+02  0.71664808214E+02  0.00000000000E+00 0. -1.
         13    1    3    3    0    0 -0.32779643615E+02  0.33488655141E+02 -0.27776210080E+02  0.54474883250E+02  0.00000000000E+00 0.  1.
         21    1    1    2  502  501  0.19445916674E+02 -0.13080357160E+02  0.37481006737E+02  0.44204810651E+02  0.00000000000E+00 0. -1.
<scales pt_clust_5="13000.00000" pt_clust_6="13000.00000" pt_clust_7="13000.00000" pt_clust_8="13000.00000" pt_clust_9="23.43586"></scales>
<clustering>
<clus scale="   23.436">  1  9  2 -1</clus>
<clus scale="   89.943">  5  6 -1 -1</clus>
<clus scale="   92.560">  7  8 -1 -1</clus>
<clus scale="  115.881">  2  5  1 -1</clus>
<clus scale="  115.881">  2  5  1 -1</clus>
</clustering>
</event>
<event>
 9    1  0.1175034E-005  0.9325813E+02  0.7546771E-02  0.1297192E+00
          3   -1    0    0  502    0  0.00000000000E+00  0.00000000000E+00  0.33154307445E+02  0.33154307445E+02  0.00000000000E+00 0. -1.
         -3   -1    0    0    0  501 -0.00000000000E+00 -0.00000000000E+00 -0.72561997915E+03  0.72561997915E+03  0.00000000000E+00 0.  1.
         23    2    1    2    0    0  0.69626625272E+01 -0.66938445316E+02 -0.22406831250E+03  0.24961769341E+03  0.87023847693E+02 0.  0.
         23    2    1    2    0    0 -0.63502750205E+01 -0.21804041748E+01 -0.10326422575E+03  0.13753851569E+03  0.90599463700E+02 0.  0.
        -13    1    4    4    0    0  0.70225407635E+01  0.38042564743E+02 -0.80759784068E+02  0.89547169323E+02  0.00000000000E+00 0.  1.
         13    1    4    4    0    0 -0.13372815784E+02 -0.40222968918E+02 -0.22504441684E+02  0.47991346367E+02  0.00000000000E+00 0. -1.
        -13    1    3    3    0    0  0.31360933239E+02 -0.76585907508E+02 -0.15454279505E+03  0.17530654541E+03  0.00000000000E+00 0. -1.
         13    1    3    3    0    0 -0.24398270712E+02  0.96474621914E+01 -0.69525517452E+02  0.74311148002E+02  0.00000000000E+00 0.  1.
         21    1    1    2  502  501 -0.61238750670E+00  0.69118849491E+02 -0.36513313346E+03  0.37161807750E+03  0.00000000000E+00 0.  1.
<scales pt_clust_5="13000.00000" pt_clust_6="13000.00000" pt_clust_7="13000.00000" pt_clust_8="13000.00000" pt_clust_9="69.12156"></scales>
<clustering>
<clus scale="   69.122">  2  9  1 -1</clus>
<clus scale="   87.024">  7  8 -1 -1</clus>
<clus scale="   89.788">  2  7  1 -1</clus>
<clus scale="   90.599">  5  6 -1 -1</clus>
<clus scale="   93.258">  1  5  2 -1</clus>
</clustering>
</event>
<event>
 9    1  0.1175034E-005  0.9477751E+02  0.7546771E-02  0.1291775E+00
         -2   -1    0    0    0  501 -0.00000000000E+00  0.00000000000E+00  0.13238125455E+03  0.13238125455E+03  0.00000000000E+00 0.  1.
          2   -1    0    0  502    0  0.00000000000E+00 -0.00000000000E+00 -0.11684923971E+03  0.11684923971E+03  0.00000000000E+00 0. -1.
         23    2    1    2    0    0  0.13028626277E+02  0.68840006557E+01  0.47409530858E+02  0.10362276870E+03  0.90955373719E+02 0.  0.
         23    2    1    2    0    0 -0.47936493959E+02 -0.19547315012E+02 -0.20775989333E+02  0.10684998245E+03  0.91133265272E+02 0.  0.
        -11    1    3    3    0    0  0.41376086721E+02 -0.13297874940E+02 -0.16306051553E+01  0.43491066938E+02  0.00000000000E+00 0. -1.
         11    1    3    3    0    0 -0.28347460443E+02  0.20181875595E+02  0.49040136013E+02  0.60131701758E+02  0.00000000000E+00 0.  1.
        -13    1    4    4    0    0 -0.29251500270E+02  0.26983568745E+02  0.17790051335E+02  0.43591847595E+02  0.00000000000E+00 0.  1.
         13    1    4    4    0    0 -0.18684993689E+02 -0.46530883756E+02 -0.38566040668E+02  0.63258134853E+02  0.00000000000E+00 0. -1.
         21    1    1    2  502  501  0.34907867681E+02  0.12663314356E+02 -0.11101526681E+02  0.38757743113E+02  0.00000000000E+00 0. -1.
<scales pt_clust_5="13000.00000" pt_clust_6="13000.00000" pt_clust_7="13000.00000" pt_clust_8="13000.00000" pt_clust_9="37.13380"></scales>
<clustering>
<clus scale="   37.134">  2  9  1 -1</clus>
<clus scale="   90.955">  5  6 -1 -1</clus>
<clus scale="   91.133">  7  8 -1 -1</clus>
<clus scale="   94.606">  1  5  2 -1</clus>
<clus scale="   37.134">  2  5  1 -1</clus>
</clustering>
</event>
<event>
 9    1  0.1175034E-005  0.1994328E+03  0.7546771E-02  0.1150648E+00
          1   -1    0    0  502    0  0.00000000000E+00  0.00000000000E+00  0.11839367606E+03  0.11839367606E+03  0.00000000000E+00 0. -1.
         -1   -1    0    0    0  501 -0.00000000000E+00 -0.00000000000E+00 -0.51965871122E+03  0.51965871122E+03  0.00000000000E+00 0.  1.
         23    2    1    2    0    0 -0.56458811135E+02 -0.14599729553E+03 -0.23000107459E+03  0.29310895092E+03  0.92247250035E+02 0.  0.
         23    2    1    2    0    0  0.88181797493E+02  0.19915765815E+03 -0.15343730130E+03  0.28052168694E+03  0.87804380311E+02 0.  0.
        -11    1    3    3    0    0 -0.51210357318E+02 -0.19742764824E+02 -0.79296284568E+02  0.96437431560E+02  0.00000000000E+00 0.  1.
         11    1    3    3    0    0 -0.52484538175E+01 -0.12625453071E+03 -0.15070479002E+03  0.19667151936E+03  0.00000000000E+00 0. -1.
        -11    1    4    4    0    0  0.14185599551E+02  0.12229665483E+03 -0.11077637098E+03  0.16561735230E+03  0.00000000000E+00 0. -1.
         11    1    4    4    0    0  0.73996197942E+02  0.76861003321E+02 -0.42660930326E+02  0.11490433463E+03  0.00000000000E+00 0.  1.
         21    1    1    2  502  501 -0.31722986358E+02 -0.53160362619E+02 -0.17826659272E+02  0.64421749418E+02  0.00000000000E+00 0. -1.
<scales pt_clust_5="13000.00000" pt_clust_6="13000.00000" pt_clust_7="13000.00000" pt_clust_8="13000.00000" pt_clust_9="61.90615"></scales>
<clustering>
<clus scale="   61.906">  1  9  2 -1</clus>
<clus scale="   87.804">  7  8 -1 -1</clus>
<clus scale="   92.247">  5  6 -1 -1</clus>
<clus scale="  197.417">  1  7  2 -1</clus>
<clus scale="   61.906">  1  5  2 -1</clus>
</clustering>
</event>
<event>
 9    1  0.2097521E-005  0.9745820E+02  0.7546771E-02  0.1286197E+00
          1   -1    0    0  502    0  0.00000000000E+00  0.00000000000E+00  0.18952210181E+03  0.18952210181E+03  0.00000000000E+00 0. -1.
         -1   -1    0    0    0  501 -0.00000000000E+00 -0.00000000000E+00 -0.14750804421E+03  0.14750804421E+03  0.00000000000E+00 0.  1.
         23    2    1    2    0    0 -0.18165440239E+02  0.13018127744E+02 -0.99387541882E+02  0.13506520136E+03  0.88686358975E+02 0.  0.
         23    2    1    2    0    0  0.16989329400E+02 -0.36985873352E+02  0.14739291366E+03  0.17723172990E+03  0.89609279347E+02 0.  0.
        -11    1    3    3    0    0  0.33449684597E+02 -0.78480819700E+01 -0.49850829393E+02  0.60544025150E+02  0.00000000000E+00 0. -1.
         11    1    3    3    0    0 -0.51615124835E+02  0.20866209714E+02 -0.49536712490E+02  0.74521176211E+02  0.00000000000E+00 0.  1.
        -13    1    4    4    0    0  0.30804642715E+02 -0.31206783851E+01  0.13516666093E+03  0.13866755523E+03  0.00000000000E+00 0. -1.
         13    1    4    4    0    0 -0.13815313315E+02 -0.33865194967E+02  0.12226252729E+02  0.38564174669E+02  0.00000000000E+00 0.  1.
         21    1    1    2  502  501  0.11761108386E+01  0.23967745608E+02 -0.59913141790E+01  0.24733214749E+02  0.00000000000E+00 0. -1.
<scales pt_clust_5="13000.00000" pt_clust_6="13000.00000" pt_clust_7="13000.00000" pt_clust_8="13000.00000" pt_clust_9="23.99658"></scales>
<clustering>
<clus scale="   23.997">  2  9  1 -1</clus>
<clus scale="   88.686">  5  6 -1 -1</clus>
<clus scale="   89.609">  7  8 -1 -1</clus>
<clus scale="   96.610">  2  5  1 -1</clus>
<clus scale="   97.458">  1  5  2 -1</clus>
</clustering>
</event>
<event>
 9    1  0.1175034E-005  0.1137758E+03  0.7546771E-02  0.1261400E+00
          2   -1    0    0  502    0  0.00000000000E+00  0.00000000000E+00  0.22123221327E+03  0.22123221327E+03  0.00000000000E+00 0. -1.
         -2   -1    0    0    0  501 -0.00000000000E+00 -0.00000000000E+00 -0.25268044660E+03  0.25268044660E+03  0.00000000000E+00 0.  1.
         23    2    1    2    0    0 -0.30065578931E+02  0.12717611141E+02 -0.20836883418E+03  0.22977349390E+03  0.91173520126E+02 0.  0.
         23    2    1    2    0    0  0.19789890028E+02 -0.30029181829E+02  0.18897483897E+03  0.22067461997E+03  0.10813143218E+03 0.  0.
        -11    1    3    3    0    0  0.30165685588E+02 -0.42138277755E+00 -0.37531692202E+02  0.48153650640E+02  0.00000000000E+00 0.  1.
         11    1    3    3    0    0 -0.60231264519E+02  0.13138993918E+02 -0.17083714198E+03  0.18161984326E+03  0.00000000000E+00 0. -1.
        -13    1    4    4    0    0 -0.13446685038E+02 -0.58796273139E+02  0.15094790355E+03  0.16255179070E+03  0.00000000000E+00 0. -1.
         13    1    4    4    0    0  0.33236575066E+02  0.28767091310E+02  0.38026935423E+02  0.58122829269E+02  0.00000000000E+00 0.  1.
         21    1    1    2  502  501  0.10275688903E+02  0.17311570688E+02 -0.12054238124E+02  0.23464545997E+02  0.00000000000E+00 0.  1.
<scales pt_clust_5="13000.00000" pt_clust_6="13000.00000" pt_clust_7="13000.00000" pt_clust_8="13000.00000" pt_clust_9="20.13157"></scales>
<clustering>
<clus scale="   20.132">  2  9  1 -1</clus>
<clus scale="   91.174">  5  6 -1 -1</clus>
<clus scale="   97.802">  2  5  1 -1</clus>
<clus scale="  108.131">  7  8 -1 -1</clus>
<clus scale="  113.776">  1  5  2 -1</clus>
</clustering>
</event>
<event>
 9    1  0.1175034E-005  0.1104650E+03  0.7546771E-02  0.1268018E+00
          1   -1    0    0  502    0  0.00000000000E+00  0.00000000000E+00  0.16065749530E+03  0.16065749530E+03  0.00000000000E+00 0. -1.
         -1   -1    0    0    0  501 -0.00000000000E+00 -0.00000000000E+00 -0.10381952569E+03  0.10381952569E+03  0.00000000000E+00 0.  1.
         23    2    1    2    0    0 -0.48736517938E+02 -0.14111060670E+02 -0.30845315587E+01  0.87170039639E+02  0.70814767258E+02 0.  0.
         23    2    1    2    0    0  0.71060915604E+02 -0.20136413242E+02  0.67580315088E+02  0.13571479080E+03  0.91631198781E+02 0.  0.
        -13    1    4    4    0    0  0.97680540909E+01 -0.41372572743E+02  0.65961709692E+00  0.42515170831E+02  0.00000000000E+00 0. -1.
         13    1    4    4    0    0  0.61292861513E+02  0.21236159501E+02  0.66920697991E+02  0.93199619969E+02  0.00000000000E+00 0.  1.
        -13    1    3    3    0    0 -0.32760753910E+02  0.89427923433E+00 -0.35324149800E+02  0.48185706295E+02  0.00000000000E+00 0.  1.
         13    1    3    3    0    0 -0.15975764028E+02 -0.15005339904E+02  0.32239618241E+02  0.38984333344E+02  0.00000000000E+00 0. -1.
         21    1    1    2  502  501 -0.22324397666E+02  0.34247473912E+02 -0.76578139258E+01  0.41592190548E+02  0.00000000000E+00 0.  1.
<scales pt_clust_5="13000.00000" pt_clust_6="13000.00000" pt_clust_7="13000.00000" pt_clust_8="13000.00000" pt_clust_9="40.88115"></scales>
<clustering>
<clus scale="   40.881">  2  9  1 -1</clus>
<clus scale="   70.815">  7  8 -1 -1</clus>
<clus scale="   91.631">  5  6 -1 -1</clus>
<clus scale="   93.920">  2  7  1 -1</clus>
<clus scale="  110.465">  1  5  2 -1</clus>
</clustering>
</event>
<event>
 9    1  0.1175034E-005  0.2098848E+03  0.7546771E-02  0.1141963E+00
          2   -1    0    0  502    0  0.00000000000E+00  0.00000000000E+00  0.96925964992E+03  0.96925964992E+03  0.00000000000E+00 0. -1.
         -2   -1    0    0    0  501 -0.00000000000E+00 -0.00000000000E+00 -0.85726423788E+02  0.85726423788E+02  0.00000000000E+00 0.  1.
         23    2    1    2    0    0 -0.17898494770E+03  0.94505213462E+02  0.34146981338E+03  0.40645484075E+03  0.87390258305E+02 0.  0.
         23    2    1    2    0    0  0.16921876891E+03 -0.67865554863E+02  0.57204488487E+03  0.60725244508E+03  0.90991518665E+02 0.  0.
        -11    1    4    4    0    0  0.92077005381E+02 -0.80577002972E+02  0.39959329426E+03  0.41790624445E+03  0.00000000000E+00 0. -1.
         11    1    4    4    0    0  0.77141763531E+02  0.12711448109E+02  0.17245159060E+03  0.18934620064E+03  0.00000000000E+00 0.  1.
        -13    1    3    3    0    0 -0.26804956216E+02  0.37826078135E+02  0.30079900280E+02  0.55264077534E+02  0.00000000000E+00 0.  1.
         13    1    3    3    0    0 -0.15217999148E+03  0.56679135327E+02  0.31138991310E+03  0.35119076322E+03  0.00000000000E+00 0. -1.
         21    1    1    2  502  501  0.97661787835E+01 -0.26639658599E+02 -0.29981472114E+02  0.41278787875E+02  0.00000000000E+00 0.  1.
<scales pt_clust_5="13000.00000" pt_clust_6="13000.00000" pt_clust_7="13000.00000" pt_clust_8="13000.00000" pt_clust_9="28.37340"></scales>
<clustering>
<clus scale="   28.373">  2  9  1 -1</clus>
<clus scale="   87.390">  7  8 -1 -1</clus>
<clus scale="   90.992">  5  6 -1 -1</clus>
<clus scale="  208.349">  2  7  1 -1</clus>
<clus scale="  209.885">  1  5  2 -1</clus>
</clustering>
</event>
<event>
 9    1  0.1175034E-005  0.1002188E+03  0.7546771E-02  0.1284137E+00
          4   -1    0    0  502    0  0.00000000000E+00  0.00000000000E+00  0.14364455095E+03  0.14364455095E+03  0.00000000000E+00 0. -1.
         -4   -1    0    0    0  501 -0.00000000000E+00 -0.00000000000E+00 -0.10717674636E+03  0.10717674636E+03  0.00000000000E+00 0.  1.
         23    2    1    2    0    0 -0.18789045820E+02  0.17057948499E+02  0.13465248661E+02  0.10298919810E+03  0.98901264671E+02 0.  0.
         23    2    1    2    0    0  0.14054150451E+02  0.15911237984E+02  0.49113452107E+02  0.10550993727E+03  0.90936950939E+02 0.  0.
        -11    1    3    3    0    0  0.10945781975E+02  0.44513302191E+02 -0.20442086268E+02  0.50190866758E+02  0.00000000000E+00 0.  1.
         11    1    3    3    0    0 -0.29734827795E+02 -0.27455353692E+02  0.33907334928E+02  0.52798331340E+02  0.00000000000E+00 0. -1.
        -11    1    4    4    0    0 -0.29217091295E+02  0.27789577554E+02  0.18889753181E+01  0.40366660403E+02  0.00000000000E+00 0.  1.
         11    1    4    4    0    0  0.43271241745E+02 -0.11878339570E+02  0.47224476789E+02  0.65143276868E+02  0.00000000000E+00 0. -1.
         21    1    1    2  502  501  0.47348953695E+01 -0.32969186483E+02 -0.26110896185E+02  0.42322161938E+02  0.00000000000E+00 0. -1.
<scales pt_clust_5="13000.00000" pt_clust_6="13000.00000" pt_clust_7="13000.00000" pt_clust_8="13000.00000" pt_clust_9="33.30745"></scales>
<clustering>
<clus scale="   33.307">  2  9  1 -1</clus>
<clus scale="   90.937">  7  8 -1 -1</clus>
<clus scale="   92.368">  1  7  2 -1</clus>
<clus scale="   98.901">  5  6 -1 -1</clus>
<clus scale="   92.368">  1  5  2 -1</clus>
</clustering>
</event>
<event>
 9    1  0.1175034E-005  0.9610921E+02  0.7546771E-02  0.1292656E+00
         -2   -1    0    0    0  501 -0.00000000000E+00  0.00000000000E+00  0.78980232777E+03  0.78980232777E+03  0.00000000000E+00 0.  1.
          2   -1    0    0  502    0  0.00000000000E+00 -0.00000000000E+00 -0.18252053612E+02  0.18252053612E+02  0.00000000000E+00 0. -1.
         23    2    1    2    0    0  0.67076896085E+01  0.34349355693E+02  0.37733201759E+03  0.38897611821E+03  0.87738803838E+02 0.  0.
         23    2    1    2    0    0  0.13153595401E+02 -0.45412952318E+01  0.20178465739E+03  0.22333945455E+03  0.94709152493E+02 0.  0.
        -13    1    4    4    0    0 -0.10017336735E+02 -0.28102670999E+02  0.14518118436E+02  0.33179555685E+02  0.00000000000E+00 0.  1.
         13    1    4    4    0    0  0.23170932136E+02  0.23561375767E+02  0.18726653896E+03  0.19015989887E+03  0.00000000000E+00 0. -1.
        -13    1    3    3    0    0 -0.38520630554E+02  0.29480177047E+02  0.21392464308E+03  0.21935512926E+03  0.00000000000E+00 0.  1.
         13    1    3    3    0    0  0.45228320163E+02  0.48691786465E+01  0.16340737451E+03  0.16962098894E+03  0.00000000000E+00 0. -1.
         21    1    1    2  502  501 -0.19861285009E+02 -0.29808060462E+02  0.19243359918E+03  0.19573880863E+03  0.00000000000E+00 0.  1.
<scales pt_clust_5="13000.00000" pt_clust_6="13000.00000" pt_clust_7="13000.00000" pt_clust_8="13000.00000" pt_clust_9="35.81887"></scales>
<clustering>
<clus scale="   35.819">  1  9  2 -1</clus>
<clus scale="   87.739">  7  8 -1 -1</clus>
<clus scale="   89.248">  1  7  2 -1</clus>
<clus scale="   94.709">  5  6 -1 -1</clus>
<clus scale="   96.109">  2  5  1 -1</clus>
</clustering>
</event>
<event>
 9    1  0.1175034E-005  0.1118176E+03  0.7546771E-02  0.1259514E+00
         -2   -1    0    0    0  501 -0.00000000000E+00  0.00000000000E+00  0.83268314844E+03  0.83268314844E+03  0.00000000000E+00 0.  1.
          2   -1    0    0  502    0  0.00000000000E+00 -0.00000000000E+00 -0.55926284697E+02  0.55926284697E+02  0.00000000000E+00 0. -1.
         23    2    1    2    0    0  0.12910163839E+03  0.13545010315E+02  0.33084449639E+03  0.36606616753E+03  0.87724898829E+02 0.  0.
         23    2    1    2    0    0 -0.44076538942E+02  0.15491585775E+02  0.48921900036E+02  0.11551277217E+03  0.93632888010E+02 0.  0.
        -11    1    3    3    0    0  0.25028868559E+02 -0.32218174154E+02  0.62568234973E+02  0.74694303897E+02  0.00000000000E+00 0.  1.
         11    1    3    3    0    0  0.10407276983E+03  0.45763184469E+02  0.26827626142E+03  0.29137186363E+03  0.00000000000E+00 0. -1.
        -13    1    4    4    0    0 -0.39266469074E+02  0.53253761990E+02  0.26088363995E+02  0.71122580771E+02  0.00000000000E+00 0. -1.
         13    1    4    4    0    0 -0.48100698680E+01 -0.37762176214E+02  0.22833536040E+02  0.44390191402E+02  0.00000000000E+00 0.  1.
         21    1    1    2  502  501 -0.85025099450E+02 -0.29036596090E+02  0.39699046731E+03  0.40703049343E+03  0.00000000000E+00 0.  1.
<scales pt_clust_5="13000.00000" pt_clust_6="13000.00000" pt_clust_7="13000.00000" pt_clust_8="13000.00000" pt_clust_9="89.84649"></scales>
<clustering>
<clus scale="   87.725">  5  6 -1 -1</clus>
<clus scale="   89.846">  1  9  2 -1</clus>
<clus scale="   93.633">  7  8 -1 -1</clus>
<clus scale="  106.919">  1  5  2 -1</clus>
<clus scale="  111.818">  2  5  1 -1</clus>
</clustering>
</event>
<event>
 9    1  0.1175034E-005  0.1019276E+03  0.7546771E-02  0.1278027E+00
         -2   -1    0    0    0  501 -0.00000000000E+00  0.00000000000E+00  0.13018161040E+03  0.13018161040E+03  0.00000000000E+00 0.  1.
          2   -1    0    0  502    0  0.00000000000E+00 -0.00000000000E+00 -0.11593891162E+03  0.11593891162E+03  0.00000000000E+00 0. -1.
         23    2    1    2    0    0  0.28237810100E+02 -0.43646804567E+02 -0.13851342474E+01  0.10622760352E+03  0.92628114980E+02 0.  0.
         23    2    1    2    0    0  0.78399427377E+01  0.39720516882E+02 -0.55112932864E+01  0.97894315598E+02  0.88959195754E+02 0.  0.
        -11    1    3    3    0    0  0.84207245574E+01 -0.36676590095E+02  0.42988716848E+02  0.57132395708E+02  0.00000000000E+00 0.  1.
         11    1    3    3    0    0  0.19817085543E+02 -0.69702144726E+01 -0.44373851096E+02  0.49095207814E+02  0.00000000000E+00 0. -1.
        -13    1    4    4    0    0 -0.12715921376E+02 -0.22638180551E+02  0.13865817640E+02  0.29435400014E+02  0.00000000000E+00 0.  1.
         13    1    4    4    0    0  0.20555864114E+02  0.62358697434E+02 -0.19377110926E+02  0.68458915584E+02  0.00000000000E+00 0. -1.
         21    1    1    2  502  501 -0.36077752838E+02  0.39262876848E+01  0.21139126313E+02  0.41998602906E+02  0.00000000000E+00 0. -1.
<scales pt_clust_5="13000.00000" pt_clust_6="13000.00000" pt_clust_7="13000.00000" pt_clust_8="13000.00000" pt_clust_9="36.29077"></scales>
<clustering>
<clus scale="   36.291">  1  9  2 -1</clus>
<clus scale="   88.959">  7  8 -1 -1</clus>
<clus scale="   92.628">  5  6 -1 -1</clus>
<clus scale="   98.605">  2  7  1 -1</clus>
<clus scale="   98.605">  2  5  1 -1</clus>
</clustering>
</event>
<event>
 9    1  0.1175034E-005  0.2545714E+03  0.7546771E-02  0.1110461E+00
          1   -1    0    0  502    0  0.00000000000E+00  0.00000000000E+00  0.79537798772E+03  0.79537798772E+03  0.00000000000E+00 0. -1.
         -1   -1    0    0    0  501 -0.00000000000E+00 -0.00000000000E+00 -0.24244243464E+03  0.24244243464E+03  0.00000000000E+00 0.  1.
         23    2    1    2    0    0  0.17233194653E+03  0.18428622250E+03 -0.61568066906E+02  0.27545115941E+03  0.91776918443E+02 0.  0.
         23    2    1    2    0    0 -0.19094266371E+03 -0.13857239805E+03  0.65264365116E+03  0.69999318967E+03  0.91571392155E+02 0.  0.
        -13    1    4    4    0    0 -0.16253054066E+03 -0.14917903869E+03  0.59951105216E+03  0.63881457708E+03  0.00000000000E+00 0. -1.
         13    1    4    4    0    0 -0.28412123051E+02  0.10606640638E+02  0.53132599000E+02  0.61178612590E+02  0.00000000000E+00 0.  1.
        -13    1    3    3    0    0  0.15870943096E+03  0.16885413602E+03 -0.24466058881E+02  0.23302143842E+03  0.00000000000E+00 0.  1.
         13    1    3    3    0    0  0.13622515568E+02  0.15432086481E+02 -0.37102008024E+02  0.42429720987E+02  0.00000000000E+00 0. -1.
         21    1    1    2  502  501  0.18610717179E+02 -0.45713824453E+02 -0.38140031173E+02  0.62376073281E+02  0.00000000000E+00 0.  1.
<scales pt_clust_5="13000.00000" pt_clust_6="13000.00000" pt_clust_7="13000.00000" pt_clust_8="13000.00000" pt_clust_9="49.35699"></scales>
<clustering>
<clus scale="   49.357">  2  9  1 -1</clus>
<clus scale="   91.571">  5  6 -1 -1</clus>
<clus scale="   91.777">  7  8 -1 -1</clus>
<clus scale="  254.497">  1  5  2 -1</clus>
<clus scale="  254.497">  1  5  2 -1</clus>
</clustering>
</event>
<event>
 9    1  0.1175034E-005  0.1110339E+03  0.7546771E-02  0.1260125E+00
         -1   -1    0    0    0  501 -0.00000000000E+00  0.00000000000E+00  0.91560667648E+02  0.91560667648E+02  0.00000000000E+00 0.  1.
          1   -1    0    0  502    0  0.00000000000E+00 -0.00000000000E+00 -0.27912978475E+03  0.27912978475E+03  0.00000000000E+00 0. -1.
         23    2    1    2    0    0 -0.86417190136E+02 -0.25023003660E+02 -0.38267756458E+02  0.13617869205E+03  0.94795218874E+02 0.  0.
         23    2    1    2    0    0  0.39170595877E+02  0.28942689308E+02 -0.15551529586E+03  0.18669735252E+03  0.91098185198E+02 0.  0.
        -11    1    3    3    0    0 -0.11304419679E+02 -0.35435586630E+02 -0.46898933545E+02  0.59858004241E+02  0.00000000000E+00 0. -1.
         11    1    3    3    0    0 -0.75112770457E+02  0.10412582970E+02  0.86311770878E+01  0.76320687810E+02  0.00000000000E+00 0.  1.
        -13    1    4    4    0    0 -0.17595010330E+02 -0.20237663288E+02 -0.28467062204E+02  0.39109091455E+02  0.00000000000E+00 0.  1.
         13    1    4    4    0    0  0.56765606207E+02  0.49180352596E+02 -0.12704823366E+03  0.14758826107E+03  0.00000000000E+00 0. -1.
         21    1    1    2  502  501  0.47246594259E+02 -0.39196856482E+01  0.62139352176E+01  0.47814407823E+02  0.00000000000E+00 0. -1.
<scales pt_clust_5="13000.00000" pt_clust_6="13000.00000" pt_clust_7="13000.00000" pt_clust_8="13000.00000" pt_clust_9="47.40891"></scales>
<clustering>
<clus scale="   47.409">  1  9  2 -1</clus>
<clus scale="   91.098">  7  8 -1 -1</clus>
<clus scale="   94.795">  5  6 -1 -1</clus>
<clus scale="  107.895">  2  7  1 -1</clus>
<clus scale="  107.895">  2  5  1 -1</clus>
</clustering>
</event>
<event>
 9    1  0.1175034E-005  0.2222984E+03  0.7546771E-02  0.1147310E+00
          1   -1    0    0  502    0  0.00000000000E+00  0.00000000000E+00  0.57458105957E+03  0.57458105957E+03  0.00000000000E+00 0. -1.
         -1   -1    0    0    0  501 -0.00000000000E+00 -0.00000000000E+00 -0.21092056758E+03  0.21092056758E+03  0.00000000000E+00 0.  1.
         23    2    1    2    0    0  0.20433042226E+03  0.76132964866E+02 -0.61573176554E+02  0.24633807271E+03  0.96664575709E+02 0.  0.
         23    2    1    2    0    0 -0.10331256409E+03  0.69072421091E+02  0.20925872336E+03  0.25999624129E+03  0.91456803629E+02 0.  0.
        -13    1    3    3    0    0  0.16473614477E+03  0.18611825523E+02 -0.25480112472E+02  0.16773083668E+03  0.00000000000E+00 0.  1.
         13    1    3    3    0    0  0.39594277486E+02  0.57521139343E+02 -0.36093064082E+02  0.78607236027E+02  0.00000000000E+00 0. -1.
        -13    1    4    4    0    0 -0.44688205375E+02  0.33182233529E+02  0.20845627253E+02  0.59435986550E+02  0.00000000000E+00 0.  1.
         13    1    4    4    0    0 -0.58624358717E+02  0.35890187561E+02  0.18841309611E+03  0.20056025474E+03  0.00000000000E+00 0. -1.
         21    1    1    2  502  501 -0.10101785816E+03 -0.14520538596E+03  0.21597494519E+03  0.27916731315E+03  0.00000000000E+00 0. -1.
<scales pt_clust_5="13000.00000" pt_clust_6="13000.00000" pt_clust_7="13000.00000" pt_clust_8="13000.00000" pt_clust_9="200.18131"></scales>
<clustering>
<clus scale="   91.457">  7  8 -1 -1</clus>
<clus scale="   96.665">  5  6 -1 -1</clus>
<clus scale="  154.301">  1  7  2 -1</clus>
<clus scale="  200.181">  1  9  2 -1</clus>
<clus scale="  154.301">  1  5  2 -1</clus>
</clustering>
</event>
<event>
 9    1  0.1175034E-005  0.1961012E+03  0.7546771E-02  0.1153194E+00
         -1   -1    0    0    0  501 -0.00000000000E+00  0.00000000000E+00  0.10920223620E+03  0.10920223620E+03  0.00000000000E+00 0.  1.
          1   -1    0    0  502    0  0.00000000000E+00 -0.00000000000E+00 -0.63007871098E+03  0.63007871098E+03  0.00000000000E+00 0. -1.
         23    2    1    2    0    0 -0.62729741041E+02 -0.18377809947E+03 -0.54157522348E+02  0.22100019914E+03  0.90546344698E+02 0.  0.
         23    2    1    2    0    0  0.52641996090E+02  0.15990794611E+03 -0.44470204995E+03  0.48427647162E+03  0.91771764476E+02 0.  0.
        -11    1    3    3    0    0 -0.60521420605E+02 -0.58804307815E+02 -0.45096095208E+02  0.95678873178E+02  0.00000000000E+00 0. -1.
         11    1    3    3    0    0 -0.22083204359E+01 -0.12497379165E+03 -0.90614271399E+01  0.12532132596E+03  0.00000000000E+00 0.  1.
        -13    1    4    4    0    0 -0.20484663966E+02  0.18369233636E+02 -0.33876845473E+02  0.43642764135E+02  0.00000000000E+00 0.  1.
         13    1    4    4    0    0  0.73126660055E+02  0.14153871247E+03 -0.41082520447E+03  0.44063370748E+03  0.00000000000E+00 0. -1.
         21    1    1    2  502  501  0.10087744951E+02  0.23870153355E+02 -0.22016902489E+02  0.34004276417E+02  0.00000000000E+00 0. -1.
<scales pt_clust_5="13000.00000" pt_clust_6="13000.00000" pt_clust_7="13000.00000" pt_clust_8="13000.00000" pt_clust_9="25.91422"></scales>
<clustering>
<clus scale="   25.914">  1  9  2 -1</clus>
<clus scale="   90.546">  5  6 -1 -1</clus>
<clus scale="   91.772">  7  8 -1 -1</clus>
<clus scale="  195.531">  1  5  2 -1</clus>
<clus scale="  196.101">  2  5  1 -1</clus>
</clustering>
</event>
<event>
 9    1  0.1175034E-005  0.1031484E+03  0.7546771E-02  0.1274605E+00
          2   -1    0    0  502    0  0.00000000000E+00  0.00000000000E+00  0.23932799871E+03  0.23932799871E+03  0.00000000000E+00 0. -1.
         -2   -1    0    0    0  501 -0.00000000000E+00 -0.00000000000E+00 -0.11739995411E+03  0.11739995411E+03  0.00000000000E+00 0.  1.
         23    2    1    2    0    0  0.13332303982E+02 -0.43529837713E+02 -0.10283505902E+02  0.10495844476E+03  0.94010252270E+02 0.  0.
         23    2    1    2    0    0 -0.49555218947E+02 -0.20593680720E+01  0.15678148149E+03  0.18857016660E+03  0.92294713129E+02 0.  0.
        -11    1    3    3    0    0  0.19520362392E+02  0.26884402076E+02 -0.83009725468E+01  0.34245025451E+02  0.00000000000E+00 0.  1.
         11    1    3    3    0    0 -0.61880584098E+01 -0.70414239788E+02 -0.19825333548E+01  0.70713419309E+02  0.00000000000E+00 0. -1.
        -13    1    4    4    0    0 -0.80047529816E+01  0.18530232705E+02 -0.45624719311E+01  0.20694485848E+02  0.00000000000E+00 0.  1.
         13    1    4    4    0    0 -0.41550465965E+02 -0.20589600777E+02  0.16134395342E+03  0.16787568075E+03  0.00000000000E+00 0. -1.
         21    1    1    2  502  501  0.36222914965E+02  0.45589205785E+02 -0.24569930986E+02  0.63199341462E+02  0.00000000000E+00 0.  1.
<scales pt_clust_5="13000.00000" pt_clust_6="13000.00000" pt_clust_7="13000.00000" pt_clust_8="13000.00000" pt_clust_9="58.22779"></scales>
<clustering>
<clus scale="   58.228">  2  9  1 -1</clus>
<clus scale="   92.295">  7  8 -1 -1</clus>
<clus scale="   94.010">  5  6 -1 -1</clus>
<clus scale="  101.587">  1  7  2 -1</clus>
<clus scale="  101.587">  1  5  2 -1</clus>
</clustering>
</event>
<event>
 9    1  0.1175034E-005  0.1042511E+03  0.7546771E-02  0.1272294E+00
         -1   -1    0    0    0  501 -0.00000000000E+00  0.00000000000E+00  0.20963639617E+03  0.20963639617E+03  0.00000000000E+00 0.  1.
          1   -1    0    0  502    0  0.00000000000E+00 -0.00000000000E+00 -0.28659690100E+03  0.28659690100E+03  0.00000000000E+00 0. -1.
         23    2    1    2    0    0 -0.48585884671E+02 -0.15180084545E+02  0.16631489179E+03  0.19625893666E+03  0.90917016183E+02 0.  0.
         23    2    1    2    0    0  0.50254531918E+02 -0.10621739917E+02 -0.25234571194E+03  0.27257382860E+03  0.89329694765E+02 0.  0.
        -11    1    3    3    0    0 -0.15176330872E+02 -0.29949262363E+02  0.90021495231E+01  0.34760869247E+02  0.00000000000E+00 0. -1.
         11    1    3    3    0    0 -0.33409553799E+02  0.14769177818E+02  0.15731274227E+03  0.16149806741E+03  0.00000000000E+00 0.  1.
        -13    1    4    4    0    0  0.55453180631E+02  0.26914451753E+02 -0.11993729864E+03  0.13484954045E+03  0.00000000000E+00 0.  1.
         13    1    4    4    0    0 -0.51986487132E+01 -0.37536191670E+02 -0.13240841330E+03  0.13772428815E+03  0.00000000000E+00 0. -1.
         21    1    1    2  502  501 -0.16686472466E+01  0.25801824462E+02  0.90703153149E+01  0.27400531913E+02  0.00000000000E+00 0. -1.
<scales pt_clust_5="13000.00000" pt_clust_6="13000.00000" pt_clust_7="13000.00000" pt_clust_8="13000.00000" pt_clust_9="25.85573"></scales>
<clustering>
<clus scale="   25.856">  1  9  2 -1</clus>
<clus scale="   89.330">  7  8 -1 -1</clus>
<clus scale="   90.917">  5  6 -1 -1</clus>
<clus scale="  102.870">  2  7  1 -1</clus>
<clus scale="  102.870">  2  5  1 -1</clus>
</clustering>
</event>
<event>
 9    1  0.1175034E-005  0.1045585E+03  0.7546771E-02  0.1271321E+00
          4   -1    0    0  502    0  0.00000000000E+00  0.00000000000E+00  0.17773062034E+03  0.17773062034E+03  0.00000000000E+00 0.  1.
         -4   -1    0    0    0  501 -0.00000000000E+00 -0.00000000000E+00 -0.13185358734E+03  0.13185358734E+03  0.00000000000E+00 0. -1.
         23    2    1    2    0    0 -0.19391044848E+02 -0.17726385164E+02 -0.71625773271E+02  0.12008578845E+03  0.92736766381E+02 0.  0.
         23    2    1    2    0    0  0.45595631199E+02  0.26967359966E+02  0.12159561394E+03  0.16141235443E+03  0.91990514443E+02 0.  0.
        -11    1    4    4    0    0  0.31329140463E+02 -0.20644783365E+02  0.93689591807E+01  0.38671688850E+02  0.00000000000E+00 0. -1.
         11    1    4    4    0    0  0.14266490735E+02  0.47612143331E+02  0.11222665476E+03  0.12274066558E+03  0.00000000000E+00 0.  1.
        -13    1    3    3    0    0 -0.55954140747E+02 -0.47608515261E+00 -0.41186362669E+02  0.69479558099E+02  0.00000000000E+00 0. -1.
         13    1    3    3    0    0  0.36563095898E+02 -0.17250300012E+02 -0.30439410602E+02  0.50606230347E+02  0.00000000000E+00 0.  1.
         21    1    1    2  502  501 -0.26204586350E+02 -0.92409748018E+01 -0.40928076695E+01  0.28086064795E+02  0.00000000000E+00 0. -1.
<scales pt_clust_5="13000.00000" pt_clust_6="13000.00000" pt_clust_7="13000.00000" pt_clust_8="13000.00000" pt_clust_9="27.78625"></scales>
<clustering>
<clus scale="   27.786">  2  9  1 -1</clus>
<clus scale="   91.991">  5  6 -1 -1</clus>
<clus scale="   92.737">  7  8 -1 -1</clus>
<clus scale="  103.897">  1  5  2 -1</clus>
<clus scale="  103.897">  1  5  2 -1</clus>
</clustering>
</event>
<event>
 9    1  0.1175034E-005  0.9204051E+02  0.7546771E-02  0.1298273E+00
         -1   -1    0    0    0  501 -0.00000000000E+00  0.00000000000E+00  0.21145901381E+03  0.21145901381E+03  0.00000000000E+00 0.  1.
          1   -1    0    0  502    0  0.00000000000E+00 -0.00000000000E+00 -0.78544603615E+02  0.78544603615E+02  0.00000000000E+00 0. -1.
         23    2    1    2    0    0 -0.10861152912E+02 -0.14904557240E+02  0.60061171293E+02  0.11118038926E+03  0.91725809832E+02 0.  0.
         23    2    1    2    0    0 -0.60841250369E+01  0.41169407189E+01 -0.11375199641E+02  0.92232553297E+02  0.91233124152E+02 0.  0.
        -11    1    4    4    0    0 -0.22130670664E+02 -0.39319124177E+02 -0.34197952269E+01  0.45248813349E+02  0.00000000000E+00 0.  1.
         11    1    4    4    0    0  0.16046545627E+02  0.43436064896E+02 -0.79554044142E+01  0.46983739949E+02  0.00000000000E+00 0. -1.
        -11    1    3    3    0    0 -0.47808950030E+02 -0.68049163103E+01  0.54717698196E+02  0.72979648430E+02  0.00000000000E+00 0.  1.
         11    1    3    3    0    0  0.36947797118E+02 -0.80996409294E+01  0.53434730964E+01  0.38200740828E+02  0.00000000000E+00 0. -1.
         21    1    1    2  502  501  0.16945277949E+02  0.10787616521E+02  0.84228438538E+02  0.86590674865E+02  0.00000000000E+00 0. -1.
<scales pt_clust_5="13000.00000" pt_clust_6="13000.00000" pt_clust_7="13000.00000" pt_clust_8="13000.00000" pt_clust_9="20.08769"></scales>
<clustering>
<clus scale="   20.088">  1  9  2 -1</clus>
<clus scale="   91.233">  5  6 -1 -1</clus>
<clus scale="   91.550">  2  5  1 -1</clus>
<clus scale="   91.726">  7  8 -1 -1</clus>
<clus scale="   91.550">  2  5  1 -1</clus>
</clustering>
</event>
<event>
 9    1  0.1175034E-005  0.9791033E+02  0.7546771E-02  0.1285217E+00
         -1   -1    0    0    0  501 -0.00000000000E+00  0.00000000000E+00  0.92582129042E+02  0.92582129042E+02  0.00000000000E+00 0.  1.
          1   -1    0    0  502    0  0.00000000000E+00 -0.00000000000E+00 -0.25213565058E+03  0.25213565058E+03  0.00000000000E+00 0. -1.
         23    2    1    2    0    0  0.13022980040E+02 -0.33318846733E+02  0.35625526862E+02  0.10780592389E+03  0.95253322803E+02 0.  0.
         23    2    1    2    0    0 -0.74282669901E+00  0.16036308031E+02 -0.19220862746E+03  0.21550363977E+03  0.96124644695E+02 0.  0.
        -11    1    4    4    0    0  0.84453126984E+01  0.52432502793E+02 -0.14944822337E+03  0.15860410500E+03  0.00000000000E+00 0.  1.
         11    1    4    4    0    0 -0.91881393974E+01 -0.36396194762E+02 -0.42760404090E+02  0.56899534767E+02  0.00000000000E+00 0. -1.
        -13    1    3    3    0    0 -0.54130678640E+01  0.30098488472E+02 -0.39154757772E+01  0.30831011377E+02  0.00000000000E+00 0.  1.
         13    1    3    3    0    0  0.18436047904E+02 -0.63417335204E+02  0.39541002639E+02  0.76974912513E+02  0.00000000000E+00 0. -1.
         21    1    1    2  502  501 -0.12280153341E+02  0.17282538701E+02 -0.29704209379E+01  0.21408215960E+02  0.00000000000E+00 0.  1.
<scales pt_clust_5="13000.00000" pt_clust_6="13000.00000" pt_clust_7="13000.00000" pt_clust_8="13000.00000" pt_clust_9="21.20114"></scales>
<clustering>
<clus scale="   21.201">  1  9  2 -1</clus>
<clus scale="   95.253">  7  8 -1 -1</clus>
<clus scale="   96.125">  5  6 -1 -1</clus>
<clus scale="   97.055">  1  7  2 -1</clus>
<clus scale="   97.910">  2  5  1 -1</clus>
</clustering>
</event>
<event>
 9    1  0.1175034E-005  0.1240367E+03  0.7546771E-02  0.1237266E+00
         -1   -1    0    0    0  501 -0.00000000000E+00  0.00000000000E+00  0.21539350508E+03  0.21539350508E+03  0.00000000000E+00 0.  1.
          1   -1    0    0  502    0  0.00000000000E+00 -0.00000000000E+00 -0.10409295680E+03  0.10409295680E+03  0.00000000000E+00 0. -1.
         23    2    1    2    0    0 -0.78239588791E+02  0.44476586294E+02  0.78855610030E+02  0.15165286922E+03  0.93170733203E+02 0.  0.
         23    2    1    2    0    0  0.74620022116E+02 -0.24528365900E+02 -0.10270718928E+02  0.12055082490E+03  0.90869275795E+02 0.  0.
        -11    1    3    3    0    0  0.16912985177E+02  0.23662577732E+02  0.33024285487E+02  0.44006477755E+02  0.00000000000E+00 0.  1.
         11    1    3    3    0    0 -0.95152573967E+02  0.20814008562E+02  0.45831324543E+02  0.10764639146E+03  0.00000000000E+00 0. -1.
        -13    1    4    4    0    0  0.79421497022E+02  0.10171446596E+02 -0.22953393611E+02  0.83295202703E+02  0.00000000000E+00 0.  1.
         13    1    4    4    0    0 -0.48014749055E+01 -0.34699812496E+02  0.12682674683E+02  0.37255622202E+02  0.00000000000E+00 0. -1.
         21    1    1    2  502  501  0.36195666746E+01 -0.19948220394E+02  0.42715657168E+02  0.47282767761E+02  0.00000000000E+00 0.  1.
<scales pt_clust_5="13000.00000" pt_clust_6="13000.00000" pt_clust_7="13000.00000" pt_clust_8="13000.00000" pt_clust_9="20.27394"></scales>
<clustering>
<clus scale="   20.274">  1  9  2 -1</clus>
<clus scale="   90.869">  7  8 -1 -1</clus>
<clus scale="   93.171">  5  6 -1 -1</clus>
<clus scale="  122.317">  2  7  1 -1</clus>
<clus scale="  122.317">  2  5  1 -1</clus>
</clustering>
</event>
<event>
 9    1  0.1175034E-005  0.1031371E+03  0.7546771E-02  0.1273913E+00
         -2   -1    0    0    0  501 -0.00000000000E+00  0.00000000000E+00  0.75740484269E+02  0.75740484269E+02  0.00000000000E+00 0.  1.
          2   -1    0    0  502    0  0.00000000000E+00 -0.00000000000E+00 -0.26550604771E+03  0.26550604771E+03  0.00000000000E+00 0. -1.
         23    2    1    2    0    0 -0.28357315798E+02  0.71200338697E+02 -0.80340055673E+02  0.14301618964E+03  0.90141446431E+02 0.  0.
         23    2    1    2    0    0  0.38599563907E+02 -0.11928409866E+02 -0.93205648871E+02  0.13593147384E+03  0.90320868585E+02 0.  0.
        -11    1    4    4    0    0  0.63825628722E+02 -0.25712363193E+02 -0.54834216137E+02  0.87986520343E+02  0.00000000000E+00 0. -1.
         11    1    4    4    0    0 -0.25226064815E+02  0.13783953326E+02 -0.38371432733E+02  0.47944953492E+02  0.00000000000E+00 0.  1.
        -13    1    3    3    0    0 -0.52758780479E+01  0.83025026910E+02 -0.33917840768E+02  0.89841025734E+02  0.00000000000E+00 0.  1.
         13    1    3    3    0    0 -0.23081437750E+02 -0.11824688214E+02 -0.46422214905E+02  0.53175163909E+02  0.00000000000E+00 0. -1.
         21    1    1    2  502  501 -0.10242248109E+02 -0.59271928830E+02 -0.16219858893E+02  0.62298868498E+02  0.00000000000E+00 0. -1.
<scales pt_clust_5="13000.00000" pt_clust_6="13000.00000" pt_clust_7="13000.00000" pt_clust_8="13000.00000" pt_clust_9="60.15035"></scales>
<clustering>
<clus scale="   60.150">  1  9  2 -1</clus>
<clus scale="   90.141">  7  8 -1 -1</clus>
<clus scale="   90.321">  5  6 -1 -1</clus>
<clus scale="  102.980">  1  7  2 -1</clus>
<clus scale="  103.137">  2  5  1 -1</clus>
</clustering>
</event>
<event>
 9    1  0.1175034E-005  0.1146860E+03  0.7546771E-02  0.1255103E+00
         -2   -1    0    0    0  501 -0.00000000000E+00  0.00000000000E+00  0.17567513360E+03  0.17567513360E+03  0.00000000000E+00 0.  1.
          2   -1    0    0  502    0  0.00000000000E+00 -0.00000000000E+00 -0.17607704421E+03  0.17607704421E+03  0.00000000000E+00 0. -1.
         23    2    1    2    0    0  0.23245082699E+02 -0.37448629803E+02  0.93553618594E+02  0.13775722861E+03  0.91005718165E+02 0.  0.
         23    2    1    2    0    0  0.22329109145E+02  0.60963266660E+02 -0.10878359607E+03  0.16061127496E+03  0.98726905510E+02 0.  0.
        -11    1    4    4    0    0  0.32889032610E+02  0.42992320199E+02 -0.45573840721E+01  0.54321246411E+02  0.00000000000E+00 0.  1.
         11    1    4    4    0    0 -0.10559923464E+02  0.17970946461E+02 -0.10422621200E+03  0.10629002854E+03  0.00000000000E+00 0. -1.
        -13    1    3    3    0    0 -0.22559344894E+02 -0.18246094052E+02 -0.30091382706E+01  0.29170171465E+02  0.00000000000E+00 0. -1.
         13    1    3    3    0    0  0.45804427592E+02 -0.19202535751E+02  0.96562756864E+02  0.10858705715E+03  0.00000000000E+00 0.  1.
         21    1    1    2  502  501 -0.45574191844E+02 -0.23514636857E+02  0.14828066871E+02  0.53383674245E+02  0.00000000000E+00 0. -1.
<scales pt_clust_5="13000.00000" pt_clust_6="13000.00000" pt_clust_7="13000.00000" pt_clust_8="13000.00000" pt_clust_9="51.28299"></scales>
<clustering>
<clus scale="   51.283">  1  9  2 -1</clus>
<clus scale="   91.006">  7  8 -1 -1</clus>
<clus scale="   98.727">  5  6 -1 -1</clus>
<clus scale="  108.111">  1  7  2 -1</clus>
<clus scale="  114.686">  2  5  1 -1</clus>
</clustering>
</event>
<event>
 9    1  0.1175034E-005  0.1371577E+03  0.7546771E-02  0.1217867E+00
         -1   -1    0    0    0  501 -0.00000000000E+00  0.00000000000E+00  0.13665962296E+03  0.13665962296E+03  0.00000000000E+00 0.  1.
          1   -1    0    0  502    0  0.00000000000E+00 -0.00000000000E+00 -0.32476907198E+03  0.32476907198E+03  0.00000000000E+00 0. -1.
         23    2    1    2    0    0  0.12392306573E+03  0.15177519190E+00  0.40740392656E+02  0.15808338005E+03  0.89295163351E+02 0.  0.
         23    2    1    2    0    0 -0.97567553804E+02 -0.44880343758E+01 -0.23951291201E+03  0.27458566918E+03  0.92148167064E+02 0.  0.
        -13    1    3    3    0    0  0.66964507703E+02  0.26993683340E+02  0.58204711801E+02  0.92739919711E+02  0.00000000000E+00 0. -1.
         13    1    3    3    0    0  0.56958558026E+02 -0.26841908148E+02 -0.17464319146E+02  0.65343460336E+02  0.00000000000E+00 0.  1.
        -13    1    4    4    0    0 -0.10856471800E+02  0.28903166517E+02 -0.11591453748E+03  0.11995597531E+03  0.00000000000E+00 0. -1.
         13    1    4    4    0    0 -0.86711082004E+02 -0.33391200893E+02 -0.12359837453E+03  0.15462969387E+03  0.00000000000E+00 0.  1.
         21    1    1    2  502  501 -0.26355511925E+02  0.43362591839E+01  0.10663070332E+02  0.28759645711E+02  0.00000000000E+00 0.  1.
<scales pt_clust_5="13000.00000" pt_clust_6="13000.00000" pt_clust_7="13000.00000" pt_clust_8="13000.00000" pt_clust_9="26.70985"></scales>
<clustering>
<clus scale="   26.710">  1  9  2 -1</clus>
<clus scale="   89.295">  5  6 -1 -1</clus>
<clus scale="   92.148">  7  8 -1 -1</clus>
<clus scale="  135.257">  1  5  2 -1</clus>
<clus scale="  137.158">  2  5  1 -1</clus>
</clustering>
</event>
<event>
 9    1  0.1175034E-005  0.1111900E+03  0.7546771E-02  0.1260796E+00
         -1   -1    0    0    0  501 -0.00000000000E+00  0.00000000000E+00  0.12279438675E+03  0.12279438675E+03  0.00000000000E+00 0.  1.
          1   -1    0    0  502    0  0.00000000000E+00 -0.00000000000E+00 -0.33602588466E+03  0.33602588466E+03  0.00000000000E+00 0. -1.
         23    2    1    2    0    0  0.28465718528E+02 -0.33407678111E+02  0.39640808101E+02  0.10228516000E+03  0.83453521202E+02 0.  0.
         23    2    1    2    0    0 -0.56308991836E+02  0.39611590250E+02 -0.28906272203E+03  0.31045385051E+03  0.89914155627E+02 0.  0.
        -11    1    3    3    0    0  0.26581295797E+02 -0.11579615076E+02 -0.22303749485E+02  0.36580186066E+02  0.00000000000E+00 0. -1.
         11    1    3    3    0    0  0.18844227314E+01 -0.21828063035E+02  0.61944557587E+02  0.65704973933E+02  0.00000000000E+00 0.  1.
        -13    1    4    4    0    0 -0.45554117220E+02  0.19107042463E+02 -0.28193164488E+03  0.28622667425E+03  0.00000000000E+00 0. -1.
         13    1    4    4    0    0 -0.10754874616E+02  0.20504547787E+02 -0.71310771498E+01  0.24227176254E+02  0.00000000000E+00 0.  1.
         21    1    1    2  502  501  0.27843273308E+02 -0.62039121394E+01  0.36190416026E+02  0.46081260904E+02  0.00000000000E+00 0.  1.
<scales pt_clust_5="13000.00000" pt_clust_6="13000.00000" pt_clust_7="13000.00000" pt_clust_8="13000.00000" pt_clust_9="28.52607"></scales>
<clustering>
<clus scale="   28.526">  1  9  2 -1</clus>
<clus scale="   83.454">  5  6 -1 -1</clus>
<clus scale="   89.914">  7  8 -1 -1</clus>
<clus scale="  106.034">  1  5  2 -1</clus>
<clus scale="  111.190">  2  5  1 -1</clus>
</clustering>
</event>
<event>
 9    1  0.1175034E-005  0.1097588E+03  0.7546771E-02  0.1261882E+00
         -1   -1    0    0    0  501 -0.00000000000E+00  0.00000000000E+00  0.18830458278E+03  0.18830458278E+03  0.00000000000E+00 0.  1.
          1   -1    0    0  502    0  0.00000000000E+00 -0.00000000000E+00 -0.24071504441E+03  0.24071504441E+03  0.00000000000E+00 0. -1.
         23    2    1    2    0    0 -0.29705503255E+02  0.26726617680E+02 -0.19272764004E+02  0.99753176444E+02  0.89344992933E+02 0.  0.
         23    2    1    2    0    0  0.61238193878E+02 -0.34673503149E+02 -0.16054971448E+03  0.19777011769E+03  0.91566590095E+02 0.  0.
        -11    1    4    4    0    0 -0.12937511729E+02 -0.25640842754E+02 -0.11306245687E+02  0.30865242886E+02  0.00000000000E+00 0.  1.
         11    1    4    4    0    0  0.74175705608E+02 -0.90326603957E+01 -0.14924346879E+03  0.16690487481E+03  0.00000000000E+00 0. -1.
        -11    1    3    3    0    0  0.29320621068E+02 -0.83768099317E+00  0.58887082569E+01  0.29917844411E+02  0.00000000000E+00 0. -1.
         11    1    3    3    0    0 -0.59026124322E+02  0.27564298673E+02 -0.25161472261E+02  0.69835332033E+02  0.00000000000E+00 0.  1.
         21    1    1    2  502  501 -0.31532690624E+02  0.79468854691E+01  0.12741201686E+03  0.13149633306E+03  0.00000000000E+00 0.  1.
<scales pt_clust_5="13000.00000" pt_clust_6="13000.00000" pt_clust_7="13000.00000" pt_clust_8="13000.00000" pt_clust_9="32.51866"></scales>
<clustering>
<clus scale="   32.519">  1  9  2 -1</clus>
<clus scale="   89.345">  7  8 -1 -1</clus>
<clus scale="   91.567">  5  6 -1 -1</clus>
<clus scale="  107.912">  1  7  2 -1</clus>
<clus scale="  109.759">  2  5  1 -1</clus>
</clustering>
</event>
<event>
 9    1  0.1175034E-005  0.1125282E+03  0.7546771E-02  0.1269145E+00
          1   -1    0    0  502    0  0.00000000000E+00  0.00000000000E+00  0.39765082206E+02  0.39765082206E+02  0.00000000000E+00 0. -1.
         -1   -1    0    0    0  501 -0.00000000000E+00 -0.00000000000E+00 -0.61913763558E+03  0.61913763558E+03  0.00000000000E+00 0.  1.
         23    2    1    2    0    0  0.22915422702E+02 -0.64832243405E+00 -0.41953591084E+03  0.43394193155E+03  0.10848816784E+03 0.  0.
         23    2    1    2    0    0  0.17330841447E+02  0.32316721122E+02 -0.47079627261E+02  0.10111897686E+03  0.81632270883E+02 0.  0.
        -13    1    3    3    0    0  0.28387993095E+02  0.51128258498E+02 -0.23877383882E+03  0.24583108647E+03  0.00000000000E+00 0.  1.
         13    1    3    3    0    0 -0.54725703934E+01 -0.51776580932E+02 -0.18076207201E+03  0.18811084509E+03  0.00000000000E+00 0. -1.
        -13    1    4    4    0    0 -0.31780863115E+02  0.23391819673E+02 -0.23316900334E+02  0.45835339304E+02  0.00000000000E+00 0.  1.
         13    1    4    4    0    0  0.49111704561E+02  0.89249014496E+01 -0.23762726928E+02  0.55283637560E+02  0.00000000000E+00 0. -1.
         21    1    1    2  502  501 -0.40246264148E+02 -0.31668398688E+02 -0.11275701527E+03  0.12384180936E+03  0.00000000000E+00 0.  1.
<scales pt_clust_5="13000.00000" pt_clust_6="13000.00000" pt_clust_7="13000.00000" pt_clust_8="13000.00000" pt_clust_9="51.21181"></scales>
<clustering>
<clus scale="   51.212">  2  9  1 -1</clus>
<clus scale="   81.632">  7  8 -1 -1</clus>
<clus scale="   86.930">  1  7  2 -1</clus>
<clus scale="  108.488">  5  6 -1 -1</clus>
<clus scale="   86.930">  1  5  2 -1</clus>
</clustering>
</event>
<event>
 9    1  0.1175034E-005  0.9471711E+02  0.7546771E-02  0.1292611E+00
         -3   -1    0    0    0  501 -0.00000000000E+00  0.00000000000E+00  0.86152260946E+02  0.86152260946E+02  0.00000000000E+00 0.  1.
          3   -1    0    0  502    0  0.00000000000E+00 -0.00000000000E+00 -0.18601710901E+03  0.18601710901E+03  0.00000000000E+00 0. -1.
         23    2    1    2    0    0  0.25063711448E+01 -0.14100351801E+01 -0.12892118056E+02  0.93509115536E+02  0.92571474466E+02 0.  0.
         23    2    1    2    0    0  0.77582334121E+01  0.27684069195E+02 -0.10745194000E+03  0.14380218488E+03  0.91140282491E+02 0.  0.
        -11    1    4    4    0    0 -0.34375612637E+02  0.38749773542E+02 -0.63035150454E+02  0.81588344060E+02  0.00000000000E+00 0. -1.
         11    1    4    4    0    0  0.42133846049E+02 -0.11065704347E+02 -0.44416789544E+02  0.62213840815E+02  0.00000000000E+00 0.  1.
        -13    1    3    3    0    0  0.43901248435E+02  0.49583648591E+01  0.10675142816E+02  0.45451773017E+02  0.00000000000E+00 0.  1.
         13    1    3    3    0    0 -0.41394877291E+02 -0.63684000392E+01 -0.23567260871E+02  0.48057342519E+02  0.00000000000E+00 0. -1.
         21    1    1    2  502  501 -0.10264604557E+02 -0.26274034015E+02  0.20479209994E+02  0.34858069541E+02  0.00000000000E+00 0. -1.
<scales pt_clust_5="13000.00000" pt_clust_6="13000.00000" pt_clust_7="13000.00000" pt_clust_8="13000.00000" pt_clust_9="28.20792"></scales>
<clustering>
<clus scale="   28.208">  1  9  2 -1</clus>
<clus scale="   91.140">  5  6 -1 -1</clus>
<clus scale="   92.571">  7  8 -1 -1</clus>
<clus scale="   93.319">  2  5  1 -1</clus>
<clus scale="   93.319">  2  5  1 -1</clus>
</clustering>
</event>
<event>
 9    1  0.1175034E-005  0.1063243E+03  0.7546771E-02  0.1268671E+00
          2   -1    0    0  502    0  0.00000000000E+00  0.00000000000E+00  0.57876262944E+03  0.57876262944E+03  0.00000000000E+00 0. -1.
         -2   -1    0    0    0  501 -0.00000000000E+00 -0.00000000000E+00 -0.48139856060E+02  0.48139856060E+02  0.00000000000E+00 0.  1.
         23    2    1    2    0    0 -0.15210295140E+02 -0.74616074401E+02  0.13035458758E+03  0.17623005734E+03  0.90916461492E+02 0.  0.
         23    2    1    2    0    0  0.22966080654E+02  0.37559698588E+02  0.39964732263E+03  0.41280802973E+03  0.93564497037E+02 0.  0.
        -11    1    3    3    0    0  0.67932620074E+01 -0.69370371812E+02  0.34557485329E+02  0.77798564809E+02  0.00000000000E+00 0.  1.
         11    1    3    3    0    0 -0.22003557147E+02 -0.52457025893E+01  0.95797102247E+02  0.98431492530E+02  0.00000000000E+00 0. -1.
        -13    1    4    4    0    0  0.84742693418E+01  0.66678667152E+02  0.31578338747E+03  0.32285756255E+03  0.00000000000E+00 0. -1.
         13    1    4    4    0    0  0.14491811312E+02 -0.29118968564E+02  0.83863935167E+02  0.89950467187E+02  0.00000000000E+00 0.  1.
         21    1    1    2  502  501 -0.77557855140E+01  0.37056375813E+02  0.62086317237E+00  0.37864398429E+02  0.00000000000E+00 0.  1.
<scales pt_clust_5="13000.00000" pt_clust_6="13000.00000" pt_clust_7="13000.00000" pt_clust_8="13000.00000" pt_clust_9="37.85931"></scales>
<clustering>
<clus scale="   37.859">  2  9  1 -1</clus>
<clus scale="   90.916">  5  6 -1 -1</clus>
<clus scale="   93.564">  7  8 -1 -1</clus>
<clus scale="  104.002">  2  5  1 -1</clus>
<clus scale="  106.324">  1  5  2 -1</clus>
</clustering>
</event>
<event>
 9    1  0.1175034E-005  0.3452554E+03  0.7546771E-02  0.1064710E+00
         -2   -1    0    0    0  501 -0.00000000000E+00  0.00000000000E+00  0.15493563309E+03  0.15493563309E+03  0.00000000000E+00 0.  1.
          2   -1    0    0  502    0  0.00000000000E+00 -0.00000000000E+00 -0.15082586523E+04  0.15082586523E+04  0.00000000000E+00 0. -1.
         23    2    1    2    0    0 -0.27728812363E+03  0.15564078974E+03 -0.10999975650E+03  0.34867329289E+03  0.91435003185E+02 0.  0.
         23    2    1    2    0    0  0.30020143669E+03 -0.14743039714E+03 -0.12423529165E+04  0.12901617636E+04  0.96020740024E+02 0.  0.
        -13    1    3    3    0    0 -0.32939383091E+02  0.48252507405E+02  0.37409226615E+01  0.58543162980E+02  0.00000000000E+00 0. -1.
         13    1    3    3    0    0 -0.24434874054E+03  0.10738828234E+03 -0.11374067916E+03  0.29013012991E+03  0.00000000000E+00 0.  1.
        -13    1    4    4    0    0  0.78037626946E+02  0.52155004138E+01 -0.29798295969E+03  0.30807615443E+03  0.00000000000E+00 0. -1.
         13    1    4    4    0    0  0.22216380974E+03 -0.15264589755E+03 -0.94436995683E+03  0.98208560919E+03  0.00000000000E+00 0.  1.
         21    1    1    2  502  501 -0.22913313064E+02 -0.82103926023E+01 -0.97034623376E+00  0.24359228930E+02  0.00000000000E+00 0. -1.
<scales pt_clust_5="13000.00000" pt_clust_6="13000.00000" pt_clust_7="13000.00000" pt_clust_8="13000.00000" pt_clust_9="24.33989"></scales>
<clustering>
<clus scale="   24.340">  1  9  2 -1</clus>
<clus scale="   91.435">  5  6 -1 -1</clus>
<clus scale="   96.021">  7  8 -1 -1</clus>
<clus scale="  344.008">  1  5  2 -1</clus>
<clus scale="  345.255">  2  5  1 -1</clus>
</clustering>
</event>
<event>
 9    1  0.1175034E-005  0.1242607E+03  0.7546771E-02  0.1241851E+00
         -2   -1    0    0    0  501 -0.00000000000E+00  0.00000000000E+00  0.36879183133E+02  0.36879183133E+02  0.00000000000E+00 0.  1.
          2   -1    0    0  502    0  0.00000000000E+00 -0.00000000000E+00 -0.56864618016E+03  0.56864618016E+03  0.00000000000E+00 0. -1.
         23    2    1    2    0    0  0.60525761222E+02  0.68358930061E+01 -0.22027908307E+03  0.25138960707E+03  0.10470798871E+03 0.  0.
         23    2    1    2    0    0 -0.60949990907E+02 -0.43137219024E+02 -0.28933913287E+03  0.31160888536E+03  0.88358602122E+02 0.  0.
        -11    1    3    3    0    0  0.47325894321E+02 -0.22069939883E+02 -0.33757068340E+02  0.62180078664E+02  0.00000000000E+00 0.  1.
         11    1    3    3    0    0  0.13199866901E+02  0.28905832889E+02 -0.18652201473E+03  0.18920952841E+03  0.00000000000E+00 0. -1.
        -13    1    4    4    0    0 -0.28667650592E+02 -0.54819256583E+02 -0.89235450609E+02  0.10858153954E+03  0.00000000000E+00 0. -1.
         13    1    4    4    0    0 -0.32282340316E+02  0.11682037560E+02 -0.20010368226E+03  0.20302734582E+03  0.00000000000E+00 0.  1.
         21    1    1    2  502  501  0.42422968521E+00  0.36301326018E+02 -0.22148781085E+02  0.42526870859E+02  0.00000000000E+00 0. -1.
<scales pt_clust_5="13000.00000" pt_clust_6="13000.00000" pt_clust_7="13000.00000" pt_clust_8="13000.00000" pt_clust_9="36.30380"></scales>
<clustering>
<clus scale="   36.304">  1  9  2 -1</clus>
<clus scale="   88.359">  7  8 -1 -1</clus>
<clus scale="  104.708">  5  6 -1 -1</clus>
<clus scale="  110.834">  2  7  1 -1</clus>
<clus scale="  110.834">  2  5  1 -1</clus>
</clustering>
</event>
<event>
 9    1  0.1175034E-005  0.1568333E+03  0.7546771E-02  0.1192347E+00
          2   -1    0    0  502    0  0.00000000000E+00  0.00000000000E+00  0.70455808748E+03  0.70455808748E+03  0.00000000000E+00 0. -1.
         -2   -1    0    0    0  501 -0.00000000000E+00 -0.00000000000E+00 -0.87009071587E+02  0.87009071587E+02  0.00000000000E+00 0.  1.
         23    2    1    2    0    0  0.89085179054E+00  0.10849218974E+03  0.51860577432E+02  0.15107444587E+03  0.91447361104E+02 0.  0.
         23    2    1    2    0    0 -0.46763755367E+02 -0.12445567856E+03  0.56938318885E+03  0.59178124188E+03  0.91278462714E+02 0.  0.
        -13    1    3    3    0    0  0.21957362854E+02  0.37591099839E+02  0.62687844070E+02  0.76321572080E+02  0.00000000000E+00 0. -1.
         13    1    3    3    0    0 -0.21066511064E+02  0.70901089899E+02 -0.10827266639E+02  0.74752873792E+02  0.00000000000E+00 0.  1.
        -13    1    4    4    0    0 -0.61131575439E+02 -0.63202836847E+02  0.42938330317E+03  0.43829406697E+03  0.00000000000E+00 0.  1.
         13    1    4    4    0    0  0.14367820072E+02 -0.61252841709E+02  0.13999988568E+03  0.15348717491E+03  0.00000000000E+00 0. -1.
         21    1    1    2  502  501  0.45872903576E+02  0.15963488817E+02 -0.36947503843E+01  0.48711471320E+02  0.00000000000E+00 0.  1.
<scales pt_clust_5="13000.00000" pt_clust_6="13000.00000" pt_clust_7="13000.00000" pt_clust_8="13000.00000" pt_clust_9="48.57115"></scales>
<clustering>
<clus scale="   48.571">  2  9  1 -1</clus>
<clus scale="   91.278">  7  8 -1 -1</clus>
<clus scale="   91.447">  5  6 -1 -1</clus>
<clus scale="  156.735">  1  7  2 -1</clus>
<clus scale="  156.735">  1  5  2 -1</clus>
</clustering>
</event>
<event>
 9    1  0.1175034E-005  0.3131531E+03  0.7546771E-02  0.1078997E+00
          2   -1    0    0  502    0  0.00000000000E+00  0.00000000000E+00  0.78980232780E+03  0.78980232780E+03  0.00000000000E+00 0. -1.
         -2   -1    0    0    0  501 -0.00000000000E+00 -0.00000000000E+00 -0.19480137378E+03  0.19480137378E+03  0.00000000000E+00 0.  1.
         23    2    1    2    0    0 -0.27572145061E+03  0.13966068231E+03  0.14804034543E+03  0.35572401817E+03  0.95374046339E+02 0.  0.
         23    2    1    2    0    0  0.27801721482E+03 -0.96895788222E+02  0.48297561683E+03  0.57292266850E+03  0.91063560915E+02 0.  0.
        -11    1    4    4    0    0  0.16526561093E+03 -0.35868762661E+02  0.34711764093E+03  0.38612167374E+03  0.00000000000E+00 0. -1.
         11    1    4    4    0    0  0.11275160389E+03 -0.61027025561E+02  0.13585797590E+03  0.18680099476E+03  0.00000000000E+00 0.  1.
        -13    1    3    3    0    0 -0.16544442916E+03  0.13416932973E+03  0.99872042957E+02  0.23526090441E+03  0.00000000000E+00 0.  1.
         13    1    3    3    0    0 -0.11027702144E+03  0.54913525862E+01  0.48168302476E+02  0.12046311375E+03  0.00000000000E+00 0. -1.
         21    1    1    2  502  501 -0.22957642074E+01 -0.42764894091E+02 -0.36015008233E+02  0.55957014913E+02  0.00000000000E+00 0.  1.
<scales pt_clust_5="13000.00000" pt_clust_6="13000.00000" pt_clust_7="13000.00000" pt_clust_8="13000.00000" pt_clust_9="42.82647"></scales>
<clustering>
<clus scale="   42.826">  2  9  1 -1</clus>
<clus scale="   91.064">  5  6 -1 -1</clus>
<clus scale="   95.374">  7  8 -1 -1</clus>
<clus scale="  311.867">  1  5  2 -1</clus>
<clus scale="  311.867">  1  5  2 -1</clus>
</clustering>
</event>
<event>
 9    1  0.1175034E-005  0.1237399E+03  0.7546771E-02  0.1237803E+00
         -2   -1    0    0    0  501 -0.00000000000E+00  0.00000000000E+00  0.50318985247E+02  0.50318985247E+02  0.00000000000E+00 0.  1.
          2   -1    0    0  502    0  0.00000000000E+00 -0.00000000000E+00 -0.45035951948E+03  0.45035951948E+03  0.00000000000E+00 0. -1.
         23    2    1    2    0    0 -0.56626355356E+02  0.36448869305E+02 -0.80872084103E+02  0.13784223522E+03  0.89023163437E+02 0.  0.
         23    2    1    2    0    0  0.73128433312E+02 -0.53002928500E+02 -0.31338991634E+03  0.33875833551E+03  0.91579976135E+02 0.  0.
        -11    1    4    4    0    0  0.47472639824E+02 -0.20929748242E+02 -0.28286945972E+03  0.28758796417E+03  0.00000000000E+00 0. -1.
         11    1    4    4    0    0  0.25655793487E+02 -0.32073180258E+02 -0.30520456622E+02  0.51170371347E+02  0.00000000000E+00 0.  1.
        -13    1    3    3    0    0 -0.25541677021E+02  0.19004773448E+02 -0.94471199829E+02  0.99691355072E+02  0.00000000000E+00 0. -1.
         13    1    3    3    0    0 -0.31084678335E+02  0.17444095857E+02  0.13599115726E+02  0.38150880147E+02  0.00000000000E+00 0.  1.
         21    1    1    2  502  501 -0.16502077956E+02  0.16554059195E+02 -0.57785337913E+01  0.24077933995E+02  0.00000000000E+00 0.  1.
<scales pt_clust_5="13000.00000" pt_clust_6="13000.00000" pt_clust_7="13000.00000" pt_clust_8="13000.00000" pt_clust_9="23.37425"></scales>
<clustering>
<clus scale="   23.374">  1  9  2 -1</clus>
<clus scale="   89.023">  7  8 -1 -1</clus>
<clus scale="   91.580">  5  6 -1 -1</clus>
<clus scale="  121.860">  1  7  2 -1</clus>
<clus scale="  123.740">  2  5  1 -1</clus>
</clustering>
</event>
<event>
 9    1  0.1175034E-005  0.1056329E+03  0.7546771E-02  0.1269670E+00
         -1   -1    0    0    0  501 -0.00000000000E+00  0.00000000000E+00  0.38096266380E+02  0.38096266380E+02  0.00000000000E+00 0.  1.
          1   -1    0    0  502    0  0.00000000000E+00 -0.00000000000E+00 -0.43342537906E+03  0.43342537906E+03  0.00000000000E+00 0. -1.
         23    2    1    2    0    0  0.49579773951E+02 -0.46052392164E+01 -0.12704632769E+03  0.16408727733E+03  0.91129045808E+02 0.  0.
         23    2    1    2    0    0 -0.49395076961E+02 -0.15556597406E+02 -0.26677561133E+03  0.28721543289E+03  0.92960189015E+02 0.  0.
        -11    1    4    4    0    0 -0.60496639617E+02 -0.44451769714E+02 -0.17737632392E+03  0.19260883552E+03  0.00000000000E+00 0.  1.
         11    1    4    4    0    0  0.11101562656E+02  0.28895172309E+02 -0.89399287409E+02  0.94606597367E+02  0.00000000000E+00 0. -1.
        -13    1    3    3    0    0 -0.35187780540E+01 -0.24851342119E+02 -0.20753317952E+00  0.25100081158E+02  0.00000000000E+00 0. -1.
         13    1    3    3    0    0  0.53098552005E+02  0.20246102903E+02 -0.12683879451E+03  0.13898719617E+03  0.00000000000E+00 0.  1.
         21    1    1    2  502  501 -0.18469698991E+00  0.20161836622E+02 -0.15071736687E+01  0.20218935220E+02  0.00000000000E+00 0.  1.
<scales pt_clust_5="13000.00000" pt_clust_6="13000.00000" pt_clust_7="13000.00000" pt_clust_8="13000.00000" pt_clust_9="20.16268"></scales>
<clustering>
<clus scale="   20.163">  1  9  2 -1</clus>
<clus scale="   91.129">  7  8 -1 -1</clus>
<clus scale="   92.960">  5  6 -1 -1</clus>
<clus scale="  104.025">  1  7  2 -1</clus>
<clus scale="  105.633">  2  5  1 -1</clus>
</clustering>
</event>
<event>
 9    1  0.1175034E-005  0.1673461E+03  0.7546771E-02  0.1180930E+00
          1   -1    0    0  502    0  0.00000000000E+00  0.00000000000E+00  0.63308308583E+02  0.63308308583E+02  0.00000000000E+00 0. -1.
         -1   -1    0    0    0  501 -0.00000000000E+00 -0.00000000000E+00 -0.65114234274E+03  0.65114234274E+03  0.00000000000E+00 0.  1.
         23    2    1    2    0    0 -0.77150418582E+02 -0.12659213081E+03 -0.25371021778E+03  0.30733675868E+03  0.90051396198E+02 0.  0.
         23    2    1    2    0    0  0.52490402948E+02  0.12411925940E+03 -0.15101118732E+03  0.22233167926E+03  0.92011759852E+02 0.  0.
        -11    1    3    3    0    0 -0.39229918023E+02 -0.12621904834E+03 -0.21971443992E+03  0.25640723418E+03  0.00000000000E+00 0.  1.
         11    1    3    3    0    0 -0.37920500559E+02 -0.37308247649E+00 -0.33995777863E+02  0.50929524499E+02  0.00000000000E+00 0. -1.
        -11    1    4    4    0    0  0.55475342333E+02  0.34941207355E+02 -0.30307756375E+02  0.72228537815E+02  0.00000000000E+00 0.  1.
         11    1    4    4    0    0 -0.29849393851E+01  0.89178052044E+02 -0.12070343095E+03  0.15010314144E+03  0.00000000000E+00 0. -1.
         21    1    1    2  502  501  0.24660015633E+02  0.24728714155E+01 -0.18311262905E+03  0.18478221338E+03  0.00000000000E+00 0.  1.
<scales pt_clust_5="13000.00000" pt_clust_6="13000.00000" pt_clust_7="13000.00000" pt_clust_8="13000.00000" pt_clust_9="24.78369"></scales>
<clustering>
<clus scale="   24.784">  2  9  1 -1</clus>
<clus scale="   90.051">  5  6 -1 -1</clus>
<clus scale="   92.012">  7  8 -1 -1</clus>
<clus scale="  166.276">  2  5  1 -1</clus>
<clus scale="  167.346">  1  5  2 -1</clus>
</clustering>
</event>
<event>
 9    1  0.1175034E-005  0.1191038E+03  0.7546771E-02  0.1250205E+00
         -3   -1    0    0    0  501 -0.00000000000E+00  0.00000000000E+00  0.12400200648E+03  0.12400200648E+03  0.00000000000E+00 0.  1.
          3   -1    0    0  502    0  0.00000000000E+00 -0.00000000000E+00 -0.16272141517E+03  0.16272141517E+03  0.00000000000E+00 0. -1.
         23    2    1    2    0    0  0.63951758060E+02 -0.37928609139E+02 -0.89226569414E+00  0.11001863583E+03  0.81085740680E+02 0.  0.
         23    2    1    2    0    0 -0.43780089995E+02  0.50619806540E+02 -0.69606030412E+02  0.13698249524E+03  0.97160400571E+02 0.  0.
        -11    1    4    4    0    0 -0.13460497211E+02  0.73578496997E+02 -0.64192126914E+02  0.98567790699E+02  0.00000000000E+00 0. -1.
         11    1    4    4    0    0 -0.30319592784E+02 -0.22958690458E+02 -0.54139034984E+01  0.38414704544E+02  0.00000000000E+00 0.  1.
        -13    1    3    3    0    0  0.30631282793E+02  0.24407738161E+02  0.25723507536E+01  0.39250861851E+02  0.00000000000E+00 0.  1.
         13    1    3    3    0    0  0.33320475267E+02 -0.62336347300E+02 -0.34646164477E+01  0.70767773978E+02  0.00000000000E+00 0. -1.
         21    1    1    2  502  501 -0.20171668065E+02 -0.12691197401E+02  0.31778887417E+02  0.39722290586E+02  0.00000000000E+00 0.  1.
<scales pt_clust_5="13000.00000" pt_clust_6="13000.00000" pt_clust_7="13000.00000" pt_clust_8="13000.00000" pt_clust_9="23.83197"></scales>
<clustering>
<clus scale="   23.832">  1  9  2 -1</clus>
<clus scale="   81.086">  7  8 -1 -1</clus>
<clus scale="   97.160">  5  6 -1 -1</clus>
<clus scale="  106.398">  1  7  2 -1</clus>
<clus scale="  119.104">  2  5  1 -1</clus>
</clustering>
</event>
<event>
 9    1  0.1175034E-005  0.1121784E+03  0.7546771E-02  0.1259517E+00
         -1   -1    0    0    0  501 -0.00000000000E+00  0.00000000000E+00  0.26837407267E+02  0.26837407267E+02  0.00000000000E+00 0.  1.
          1   -1    0    0  502    0  0.00000000000E+00 -0.00000000000E+00 -0.77985110569E+03  0.77985110569E+03  0.00000000000E+00 0. -1.
         23    2    1    2    0    0  0.15813880443E+01  0.90033196932E+02 -0.28578842889E+03  0.30930853298E+03  0.76735032075E+02 0.  0.
         23    2    1    2    0    0 -0.14049248212E+02 -0.62900582615E+02 -0.45082654576E+03  0.46331321555E+03  0.85209721731E+02 0.  0.
        -11    1    3    3    0    0 -0.21599942821E+02  0.64751120585E+02 -0.10459832094E+03  0.12490025576E+03  0.00000000000E+00 0.  1.
         11    1    3    3    0    0  0.23181330865E+02  0.25282076347E+02 -0.18119010796E+03  0.18440827722E+03  0.00000000000E+00 0. -1.
        -13    1    4    4    0    0 -0.48901518221E+02 -0.30599216029E+02 -0.20635935709E+03  0.21427051772E+03  0.00000000000E+00 0.  1.
         13    1    4    4    0    0  0.34852270010E+02 -0.32301366586E+02 -0.24446718867E+03  0.24904269784E+03  0.00000000000E+00 0. -1.
         21    1    1    2  502  501  0.12467860167E+02 -0.27132614317E+02 -0.16398723768E+02  0.34066764420E+02  0.00000000000E+00 0. -1.
<scales pt_clust_5="13000.00000" pt_clust_6="13000.00000" pt_clust_7="13000.00000" pt_clust_8="13000.00000" pt_clust_9="29.86011"></scales>
<clustering>
<clus scale="   29.860">  1  9  2 -1</clus>
<clus scale="   76.735">  5  6 -1 -1</clus>
<clus scale="   85.210">  7  8 -1 -1</clus>
<clus scale="  105.885">  1  5  2 -1</clus>
<clus scale="  112.178">  2  5  1 -1</clus>
</clustering>
</event>
<event>
 9    1  0.1175034E-005  0.3282722E+03  0.7546771E-02  0.1071980E+00
         -1   -1    0    0    0  501 -0.00000000000E+00  0.00000000000E+00  0.36157667286E+03  0.36157667286E+03  0.00000000000E+00 0.  1.
          1   -1    0    0  502    0  0.00000000000E+00 -0.00000000000E+00 -0.41174525096E+03  0.41174525096E+03  0.00000000000E+00 0. -1.
         23    2    1    2    0    0 -0.12842234230E+03 -0.31050183916E+03  0.12316640890E+02  0.34858054736E+03  0.91940242734E+02 0.  0.
         23    2    1    2    0    0  0.73329807874E+02  0.29499593110E+03 -0.12441464230E+03  0.34041537805E+03  0.89463770937E+02 0.  0.
        -11    1    4    4    0    0  0.91470123636E+02  0.24577233681E+03 -0.11799219773E+03  0.28756387774E+03  0.00000000000E+00 0.  1.
         11    1    4    4    0    0 -0.18140315762E+02  0.49223594290E+02 -0.64224445674E+01  0.52851500310E+02  0.00000000000E+00 0. -1.
        -13    1    3    3    0    0 -0.12997284852E+03 -0.21178834752E+03  0.21557870863E+02  0.24942330944E+03  0.00000000000E+00 0.  1.
         13    1    3    3    0    0  0.15505062113E+01 -0.98713491641E+02 -0.92412299724E+01  0.99157237925E+02  0.00000000000E+00 0. -1.
         21    1    1    2  502  501  0.55092534431E+02  0.15505908058E+02  0.61929423311E+02  0.84325998401E+02  0.00000000000E+00 0. -1.
<scales pt_clust_5="13000.00000" pt_clust_6="13000.00000" pt_clust_7="13000.00000" pt_clust_8="13000.00000" pt_clust_9="57.23304"></scales>
<clustering>
<clus scale="   57.233">  1  9  2 -1</clus>
<clus scale="   89.464">  5  6 -1 -1</clus>
<clus scale="   91.940">  7  8 -1 -1</clus>
<clus scale="  327.587">  2  5  1 -1</clus>
<clus scale="  327.587">  2  5  1 -1</clus>
</clustering>
</event>
<event>
 9    1  0.1175034E-005  0.9358860E+02  0.7546771E-02  0.1295839E+00
         -1   -1    0    0    0  501 -0.00000000000E+00  0.00000000000E+00  0.20547483658E+03  0.20547483658E+03  0.00000000000E+00 0.  1.
          1   -1    0    0  502    0  0.00000000000E+00 -0.00000000000E+00 -0.17285199743E+03  0.17285199743E+03  0.00000000000E+00 0. -1.
         23    2    1    2    0    0 -0.63800943058E+02  0.51235502392E+02 -0.12147863093E+02  0.12295459973E+03  0.90964971154E+02 0.  0.
         23    2    1    2    0    0 -0.11219234319E+02 -0.68858080525E+01 -0.68392798252E+02  0.11254051424E+03  0.88399699784E+02 0.  0.
        -13    1    3    3    0    0 -0.33885443037E+02  0.42088209932E+02  0.36435844783E+02  0.65170633341E+02  0.00000000000E+00 0.  1.
         13    1    3    3    0    0 -0.29915500021E+02  0.91472924598E+01 -0.48583707875E+02  0.57783966390E+02  0.00000000000E+00 0. -1.
        -13    1    4    4    0    0 -0.16513647694E+02  0.27015317203E+02  0.44950985803E+01  0.31980210052E+02  0.00000000000E+00 0.  1.
         13    1    4    4    0    0  0.52944133749E+01 -0.33901125255E+02 -0.72887896832E+02  0.80560304190E+02  0.00000000000E+00 0. -1.
         21    1    1    2  502  501  0.75020177378E+02 -0.44349694339E+02  0.11316350050E+03  0.14283172003E+03  0.00000000000E+00 0.  1.
<scales pt_clust_5="13000.00000" pt_clust_6="13000.00000" pt_clust_7="13000.00000" pt_clust_8="13000.00000" pt_clust_9="87.14885"></scales>
<clustering>
<clus scale="   87.149">  1  9  2 -1</clus>
<clus scale="   88.400">  7  8 -1 -1</clus>
<clus scale="   90.965">  5  6 -1 -1</clus>
<clus scale="   91.097">  2  7  1 -1</clus>
<clus scale="   91.097">  2  5  1 -1</clus>
</clustering>
</event>
<event>
 9    1  0.1175034E-005  0.1030164E+03  0.7546771E-02  0.1275404E+00
          1   -1    0    0  502    0  0.00000000000E+00  0.00000000000E+00  0.89283019820E+02  0.89283019820E+02  0.00000000000E+00 0. -1.
         -1   -1    0    0    0  501 -0.00000000000E+00 -0.00000000000E+00 -0.65234118349E+03  0.65234118349E+03  0.00000000000E+00 0.  1.
         23    2    1    2    0    0 -0.42476672634E+01  0.68456687426E+02 -0.35343888421E+03  0.37226379470E+03  0.94641044191E+02 0.  0.
         23    2    1    2    0    0  0.21478563413E+02 -0.32486083715E+02  0.46580358377E+02  0.11007476970E+03  0.91815308185E+02 0.  0.
        -11    1    3    3    0    0  0.38799864669E+02  0.57194338142E+02 -0.17014488136E+03  0.18364613382E+03  0.00000000000E+00 0. -1.
         11    1    3    3    0    0 -0.43047531932E+02  0.11262349283E+02 -0.18329400285E+03  0.18861766088E+03  0.00000000000E+00 0.  1.
        -13    1    4    4    0    0 -0.24649848879E+02  0.85182557510E+01  0.40346941050E+02  0.48042183369E+02  0.00000000000E+00 0.  1.
         13    1    4    4    0    0  0.46128412292E+02 -0.41004339466E+02  0.62334173275E+01  0.62032586333E+02  0.00000000000E+00 0. -1.
         21    1    1    2  502  501 -0.17230896149E+02 -0.35970603711E+02 -0.25619963784E+03  0.25928563890E+03  0.00000000000E+00 0. -1.
<scales pt_clust_5="13000.00000" pt_clust_6="13000.00000" pt_clust_7="13000.00000" pt_clust_8="13000.00000" pt_clust_9="39.88469"></scales>
<clustering>
<clus scale="   39.885">  2  9  1 -1</clus>
<clus scale="   91.815">  7  8 -1 -1</clus>
<clus scale="   94.641">  5  6 -1 -1</clus>
<clus scale="  100.427">  1  7  2 -1</clus>
<clus scale="  100.427">  1  5  2 -1</clus>
</clustering>
</event>
<event>
 9    1  0.1175034E-005  0.1065716E+03  0.7546771E-02  0.1267724E+00
          2   -1    0    0  502    0  0.00000000000E+00  0.00000000000E+00  0.26305288857E+03  0.26305288857E+03  0.00000000000E+00 0. -1.
         -2   -1    0    0    0  501 -0.00000000000E+00 -0.00000000000E+00 -0.30702136516E+03  0.30702136516E+03  0.00000000000E+00 0.  1.
         23    2    1    2    0    0 -0.65027107411E+01  0.12066335327E+02 -0.99477080051E+02  0.13578529550E+03  0.91400630876E+02 0.  0.
         23    2    1    2    0    0  0.57197044856E+02 -0.16096887747E+02  0.22924079706E+03  0.25326676082E+03  0.89789182894E+02 0.  0.
        -11    1    4    4    0    0  0.69482165303E+02  0.11313703889E+02  0.11239075294E+03  0.13261769315E+03  0.00000000000E+00 0.  1.
         11    1    4    4    0    0 -0.12285120448E+02 -0.27410591636E+02  0.11685004412E+03  0.12064906767E+03  0.00000000000E+00 0. -1.
        -13    1    3    3    0    0  0.38262758115E+02  0.26298731860E+01 -0.18054097077E+02  0.42389919944E+02  0.00000000000E+00 0. -1.
         13    1    3    3    0    0 -0.44765468856E+02  0.94364621408E+01 -0.81422982974E+02  0.93395375561E+02  0.00000000000E+00 0.  1.
         21    1    1    2  502  501 -0.50694334115E+02  0.40305524203E+01 -0.17373219360E+03  0.18102219741E+03  0.00000000000E+00 0.  1.
<scales pt_clust_5="13000.00000" pt_clust_6="13000.00000" pt_clust_7="13000.00000" pt_clust_8="13000.00000" pt_clust_9="50.85431"></scales>
<clustering>
<clus scale="   50.854">  2  9  1 -1</clus>
<clus scale="   89.789">  5  6 -1 -1</clus>
<clus scale="   91.401">  7  8 -1 -1</clus>
<clus scale="  105.193">  1  5  2 -1</clus>
<clus scale="  105.193">  1  5  2 -1</clus>
</clustering>
</event>
<event>
 9    1  0.1175034E-005  0.3424709E+03  0.7546771E-02  0.1065908E+00
         -1   -1    0    0    0  501 -0.00000000000E+00  0.00000000000E+00  0.26221641178E+03  0.26221641178E+03  0.00000000000E+00 0.  1.
          1   -1    0    0  502    0  0.00000000000E+00 -0.00000000000E+00 -0.89751219152E+03  0.89751219152E+03  0.00000000000E+00 0. -1.
         23    2    1    2    0    0 -0.18073289994E+03  0.28990596246E+03  0.63626332514E+02  0.36011921552E+03  0.94486459361E+02 0.  0.
         23    2    1    2    0    0  0.93678990204E+02 -0.25876328601E+03 -0.57230932230E+03  0.64283232290E+03  0.99806029758E+02 0.  0.
        -11    1    4    4    0    0 -0.20673318852E+02 -0.50211652324E+02 -0.91186654689E+02  0.10613011889E+03  0.00000000000E+00 0.  1.
         11    1    4    4    0    0  0.11435230906E+03 -0.20855163368E+03 -0.48112266761E+03  0.53670220401E+03  0.00000000000E+00 0. -1.
        -13    1    3    3    0    0 -0.13257777682E+03  0.25614446064E+03  0.24453315011E+02  0.28945606962E+03  0.00000000000E+00 0.  1.
         13    1    3    3    0    0 -0.48155123123E+02  0.33761501823E+02  0.39173017503E+02  0.70663145901E+02  0.00000000000E+00 0. -1.
         21    1    1    2  502  501  0.87053909737E+02 -0.31142676456E+02 -0.12661278995E+03  0.15677706489E+03  0.00000000000E+00 0. -1.
<scales pt_clust_5="13000.00000" pt_clust_6="13000.00000" pt_clust_7="13000.00000" pt_clust_8="13000.00000" pt_clust_9="92.45674"></scales>
<clustering>
<clus scale="   92.457">  2  9  1 -1</clus>
<clus scale="   94.486">  7  8 -1 -1</clus>
<clus scale="   99.806">  5  6 -1 -1</clus>
<clus scale="  340.959">  1  7  2 -1</clus>
<clus scale="   92.457">  2  5  1 -1</clus>
</clustering>
</event>
<event>
 9    1  0.1175034E-005  0.1215987E+03  0.7546771E-02  0.1241325E+00
         -1   -1    0    0    0  501 -0.00000000000E+00  0.00000000000E+00  0.72894181325E+02  0.72894181325E+02  0.00000000000E+00 0.  1.
          1   -1    0    0  502    0  0.00000000000E+00 -0.00000000000E+00 -0.40118743738E+03  0.40118743738E+03  0.00000000000E+00 0. -1.
         23    2    1    2    0    0  0.72947068568E+02  0.58538166076E+02 -0.19553036887E+03  0.23577516483E+03  0.92789069930E+02 0.  0.
         23    2    1    2    0    0 -0.32870933087E+02 -0.59365170040E+02 -0.15560261491E+03  0.19217150255E+03  0.90072143148E+02 0.  0.
        -11    1    4    4    0    0 -0.78964681253E+01 -0.50452254099E+02 -0.15751430118E+03  0.16558544389E+03  0.00000000000E+00 0. -1.
         11    1    4    4    0    0 -0.24974464962E+02 -0.89129159406E+01  0.19116862721E+01  0.26586058660E+02  0.00000000000E+00 0.  1.
        -11    1    3    3    0    0  0.73687609395E+02  0.23496512069E+01 -0.91184692995E+02  0.11726053418E+03  0.00000000000E+00 0. -1.
         11    1    3    3    0    0 -0.74054082752E+00  0.56188514869E+02 -0.10434567588E+03  0.11851463065E+03  0.00000000000E+00 0.  1.
         21    1    1    2  502  501 -0.40076135480E+02  0.82700396444E+00  0.22839727729E+02  0.46134951321E+02  0.00000000000E+00 0. -1.
<scales pt_clust_5="13000.00000" pt_clust_6="13000.00000" pt_clust_7="13000.00000" pt_clust_8="13000.00000" pt_clust_9="40.08467"></scales>
<clustering>
<clus scale="   40.085">  1  9  2 -1</clus>
<clus scale="   90.072">  5  6 -1 -1</clus>
<clus scale="   92.789">  7  8 -1 -1</clus>
<clus scale="  119.538">  2  5  1 -1</clus>
<clus scale="  119.538">  2  5  1 -1</clus>
</clustering>
</event>
<event>
 9    1  0.1175034E-005  0.1210061E+03  0.7546771E-02  0.1241532E+00
         -1   -1    0    0    0  501 -0.00000000000E+00  0.00000000000E+00  0.62390957864E+02  0.62390957864E+02  0.00000000000E+00 0.  1.
          1   -1    0    0  502    0  0.00000000000E+00 -0.00000000000E+00 -0.51977470860E+03  0.51977470860E+03  0.00000000000E+00 0. -1.
         23    2    1    2    0    0 -0.82352881312E+02  0.40452687024E+02 -0.67561460666E+02  0.14634524200E+03  0.91836604585E+02 0.  0.
         23    2    1    2    0    0  0.58606862981E+02 -0.48928624596E+02 -0.39274371977E+03  0.41043835095E+03  0.91560012100E+02 0.  0.
        -11    1    3    3    0    0 -0.75388225255E+02  0.67397316262E+02 -0.45769848899E+02  0.11099847663E+03  0.00000000000E+00 0.  1.
         11    1    3    3    0    0 -0.69646560562E+01 -0.26944629238E+02 -0.21791611766E+02  0.35346765370E+02  0.00000000000E+00 0. -1.
        -13    1    4    4    0    0  0.80277179285E+02 -0.26564148548E+02 -0.32598841073E+03  0.33677666700E+03  0.00000000000E+00 0. -1.
         13    1    4    4    0    0 -0.21670316304E+02 -0.22364476047E+02 -0.66755309039E+02  0.73661683950E+02  0.00000000000E+00 0.  1.
         21    1    1    2  502  501  0.23746018330E+02  0.84759375721E+01  0.29214297025E+01  0.25382073512E+02  0.00000000000E+00 0. -1.
<scales pt_clust_5="13000.00000" pt_clust_6="13000.00000" pt_clust_7="13000.00000" pt_clust_8="13000.00000" pt_clust_9="25.21339"></scales>
<clustering>
<clus scale="   25.213">  1  9  2 -1</clus>
<clus scale="   91.560">  7  8 -1 -1</clus>
<clus scale="   91.837">  5  6 -1 -1</clus>
<clus scale="  120.796">  2  7  1 -1</clus>
<clus scale="  120.796">  2  5  1 -1</clus>
</clustering>
</event>
<event>
 9    1  0.1175034E-005  0.1006977E+03  0.7546771E-02  0.1279036E+00
          1   -1    0    0  502    0  0.00000000000E+00  0.00000000000E+00  0.38834780588E+03  0.38834780588E+03  0.00000000000E+00 0. -1.
         -1   -1    0    0    0  501 -0.00000000000E+00 -0.00000000000E+00 -0.50286515026E+02  0.50286515026E+02  0.00000000000E+00 0.  1.
         23    2    1    2    0    0 -0.46685535945E+02  0.30322123698E+02  0.39296326818E+02  0.11393337087E+03  0.91310685268E+02 0.  0.
         23    2    1    2    0    0  0.25343412305E+02 -0.30757095022E+02  0.27688504145E+03  0.29413288739E+03  0.90887522928E+02 0.  0.
        -11    1    4    4    0    0  0.10714566081E+02 -0.62488704026E+02  0.19670761091E+03  0.20667250482E+03  0.00000000000E+00 0. -1.
         11    1    4    4    0    0  0.14628846224E+02  0.31731609004E+02  0.80177430534E+02  0.87460382568E+02  0.00000000000E+00 0.  1.
        -11    1    3    3    0    0 -0.25601833528E+02 -0.23937640262E+02 -0.11279208440E+02  0.36819628520E+02  0.00000000000E+00 0. -1.
         11    1    3    3    0    0 -0.21083702418E+02  0.54259763960E+02  0.50575535257E+02  0.77113742349E+02  0.00000000000E+00 0.  1.
         21    1    1    2  502  501  0.21342123641E+02  0.43497132433E+00  0.21879922586E+02  0.30568062646E+02  0.00000000000E+00 0. -1.
<scales pt_clust_5="13000.00000" pt_clust_6="13000.00000" pt_clust_7="13000.00000" pt_clust_8="13000.00000" pt_clust_9="21.34656"></scales>
<clustering>
<clus scale="   21.347">  2  9  1 -1</clus>
<clus scale="   90.888">  5  6 -1 -1</clus>
<clus scale="   91.311">  7  8 -1 -1</clus>
<clus scale="  100.314">  1  5  2 -1</clus>
<clus scale="  100.314">  1  5  2 -1</clus>
</clustering>
</event>
<event>
 9    1  0.1175034E-005  0.2078863E+03  0.7546771E-02  0.1143375E+00
          2   -1    0    0  502    0  0.00000000000E+00  0.00000000000E+00  0.59503013177E+03  0.59503013177E+03  0.00000000000E+00 0. -1.
         -2   -1    0    0    0  501 -0.00000000000E+00 -0.00000000000E+00 -0.10534963902E+03  0.10534963902E+03  0.00000000000E+00 0.  1.
         23    2    1    2    0    0 -0.14895928329E+03  0.14096556756E+03  0.12737470565E+03  0.25748357911E+03  0.89517141136E+02 0.  0.
         23    2    1    2    0    0  0.14351716179E+03 -0.10846248279E+03  0.35634639247E+03  0.40940616943E+03  0.90936099795E+02 0.  0.
        -13    1    4    4    0    0  0.47643649668E+02 -0.82036049171E+02  0.11986116316E+03  0.15286114337E+03  0.00000000000E+00 0.  1.
         13    1    4    4    0    0  0.95873512119E+02 -0.26426433621E+02  0.23648522930E+03  0.25654502606E+03  0.00000000000E+00 0. -1.
        -13    1    3    3    0    0 -0.13419494341E+03  0.11423447281E+03  0.64642980103E+02  0.18771391129E+03  0.00000000000E+00 0.  1.
         13    1    3    3    0    0 -0.14764339886E+02  0.26731094751E+02  0.62731725542E+02  0.69769667824E+02  0.00000000000E+00 0. -1.
         21    1    1    2  502  501  0.54421215048E+01 -0.32503084769E+02  0.59593946364E+01  0.33490022252E+02  0.00000000000E+00 0.  1.
<scales pt_clust_5="13000.00000" pt_clust_6="13000.00000" pt_clust_7="13000.00000" pt_clust_8="13000.00000" pt_clust_9="32.95553"></scales>
<clustering>
<clus scale="   32.956">  2  9  1 -1</clus>
<clus scale="   89.517">  7  8 -1 -1</clus>
<clus scale="   90.936">  5  6 -1 -1</clus>
<clus scale="  207.270">  2  7  1 -1</clus>
<clus scale="  207.886">  1  5  2 -1</clus>
</clustering>
</event>
<event>
 9    1  0.1175034E-005  0.1279568E+03  0.7546771E-02  0.1231045E+00
         -2   -1    0    0    0  501 -0.00000000000E+00  0.00000000000E+00  0.93185694316E+02  0.93185694316E+02  0.00000000000E+00 0.  1.
          2   -1    0    0  502    0  0.00000000000E+00 -0.00000000000E+00 -0.36435911518E+03  0.36435911518E+03  0.00000000000E+00 0. -1.
         23    2    1    2    0    0  0.76748395046E+02 -0.67870919304E+02 -0.28879246052E+02  0.14216538533E+03  0.94234856106E+02 0.  0.
         23    2    1    2    0    0 -0.47329770737E+02  0.64935448304E+02 -0.25429829573E+03  0.28347062654E+03  0.96079411188E+02 0.  0.
        -11    1    4    4    0    0 -0.27844088048E+02  0.34421914536E+02 -0.24079268494E+03  0.24482908030E+03  0.00000000000E+00 0. -1.
         11    1    4    4    0    0 -0.19485682690E+02  0.30513533768E+02 -0.13505610790E+02  0.38641546239E+02  0.00000000000E+00 0.  1.
        -13    1    3    3    0    0  0.43756948206E+02  0.12374828328E+01 -0.46207333156E+02  0.63649976571E+02  0.00000000000E+00 0. -1.
         13    1    3    3    0    0  0.32991446840E+02 -0.69108402137E+02  0.17328087105E+02  0.78515408763E+02  0.00000000000E+00 0.  1.
         21    1    1    2  502  501 -0.29418624309E+02  0.29354710003E+01  0.12004120924E+02  0.31908797617E+02  0.00000000000E+00 0. -1.
<scales pt_clust_5="13000.00000" pt_clust_6="13000.00000" pt_clust_7="13000.00000" pt_clust_8="13000.00000" pt_clust_9="29.56472"></scales>
<clustering>
<clus scale="   29.565">  1  9  2 -1</clus>
<clus scale="   94.235">  7  8 -1 -1</clus>
<clus scale="   96.079">  5  6 -1 -1</clus>
<clus scale="  126.578">  1  7  2 -1</clus>
<clus scale="  127.957">  2  5  1 -1</clus>
</clustering>
</event>
<event>
 9    1  0.1175034E-005  0.1262168E+03  0.7546771E-02  0.1233867E+00
         -2   -1    0    0    0  501 -0.00000000000E+00  0.00000000000E+00  0.65905983179E+02  0.65905983179E+02  0.00000000000E+00 0. -1.
          2   -1    0    0  502    0  0.00000000000E+00 -0.00000000000E+00 -0.33801989845E+03  0.33801989845E+03  0.00000000000E+00 0.  1.
         23    2    1    2    0    0  0.71340957544E+02 -0.33939624693E+02 -0.85154308625E+02  0.14668061111E+03  0.89568493620E+02 0.  0.
         23    2    1    2    0    0 -0.88536515577E+02  0.23652412401E+02 -0.19611655753E+03  0.23521429910E+03  0.92010386160E+02 0.  0.
        -11    1    4    4    0    0  0.45322930841E+01  0.33390262047E+02 -0.74475873513E+02  0.81744155850E+02  0.00000000000E+00 0.  1.
         11    1    4    4    0    0 -0.93068808661E+02 -0.97378496460E+01 -0.12164068401E+03  0.15347014325E+03  0.00000000000E+00 0. -1.
        -13    1    3    3    0    0  0.36264876970E+02 -0.61819859495E+01 -0.94125598974E+02  0.10105932235E+03  0.00000000000E+00 0.  1.
         13    1    3    3    0    0  0.35076080574E+02 -0.27757638743E+02  0.89712903493E+01  0.45621288754E+02  0.00000000000E+00 0. -1.
         21    1    1    2  502  501  0.17195558033E+02  0.10287212292E+02  0.91569508764E+01  0.22030971430E+02  0.00000000000E+00 0.  1.
<scales pt_clust_5="13000.00000" pt_clust_6="13000.00000" pt_clust_7="13000.00000" pt_clust_8="13000.00000" pt_clust_9="20.03781"></scales>
<clustering>
<clus scale="   20.038">  1  9  2 -1</clus>
<clus scale="   89.568">  7  8 -1 -1</clus>
<clus scale="   92.010">  5  6 -1 -1</clus>
<clus scale="  124.448">  1  7  2 -1</clus>
<clus scale="  126.217">  2  5  1 -1</clus>
</clustering>
</event>
<event>
 9    1  0.1175034E-005  0.1188753E+03  0.7546771E-02  0.1251861E+00
         -4   -1    0    0    0  501 -0.00000000000E+00  0.00000000000E+00  0.88140666651E+03  0.88140666651E+03  0.00000000000E+00 0.  1.
          4   -1    0    0  502    0  0.00000000000E+00 -0.00000000000E+00 -0.28769312008E+02  0.28769312008E+02  0.00000000000E+00 0. -1.
         23    2    1    2    0    0  0.66106041731E+02 -0.53253413667E+02  0.35463137281E+03  0.37753961003E+03  0.97810079938E+02 0.  0.
         23    2    1    2    0    0 -0.67922964087E+02 -0.22247492714E+02  0.21560248342E+03  0.24030877159E+03  0.78456324576E+02 0.  0.
        -11    1    3    3    0    0  0.82811010214E+02 -0.15535359643E+02  0.27829784903E+03  0.29077259773E+03  0.00000000000E+00 0. -1.
         11    1    3    3    0    0 -0.16704968483E+02 -0.37718054024E+02  0.76333523775E+02  0.86767012299E+02  0.00000000000E+00 0.  1.
        -11    1    4    4    0    0 -0.41267983369E+02  0.11091424809E+02  0.17915375307E+03  0.18417962264E+03  0.00000000000E+00 0.  1.
         11    1    4    4    0    0 -0.26654980718E+02 -0.33338917522E+02  0.36448730351E+02  0.56129148959E+02  0.00000000000E+00 0. -1.
         21    1    1    2  502  501  0.18169223555E+01  0.75500906381E+02  0.28240349827E+03  0.29232759689E+03  0.00000000000E+00 0. -1.
<scales pt_clust_5="13000.00000" pt_clust_6="13000.00000" pt_clust_7="13000.00000" pt_clust_8="13000.00000" pt_clust_9="75.52277"></scales>
<clustering>
<clus scale="   75.523">  1  9  2 -1</clus>
<clus scale="   78.456">  7  8 -1 -1</clus>
<clus scale="   97.810">  5  6 -1 -1</clus>
<clus scale="  103.537">  2  7  1 -1</clus>
<clus scale="  103.537">  2  5  1 -1</clus>
</clustering>
</event>
<event>
 9    1  0.1175034E-005  0.1236215E+03  0.7546771E-02  0.1238202E+00
          1   -1    0    0  502    0  0.00000000000E+00  0.00000000000E+00  0.30596206235E+03  0.30596206235E+03  0.00000000000E+00 0. -1.
         -1   -1    0    0    0  501 -0.00000000000E+00 -0.00000000000E+00 -0.10913450538E+03  0.10913450538E+03  0.00000000000E+00 0.  1.
         23    2    1    2    0    0 -0.65054443519E+02 -0.31824559630E+02  0.24296165050E+02  0.11831344096E+03  0.90348677123E+02 0.  0.
         23    2    1    2    0    0  0.61367134022E+02  0.58608538265E+02  0.21328534235E+03  0.24787645813E+03  0.93547930687E+02 0.  0.
        -11    1    3    3    0    0  0.12048194629E+02 -0.19735606475E+02  0.32448538044E+02  0.39844206329E+02  0.00000000000E+00 0. -1.
         11    1    3    3    0    0 -0.77102638148E+02 -0.12088953155E+02 -0.81523729939E+01  0.78469234629E+02  0.00000000000E+00 0.  1.
        -13    1    4    4    0    0 -0.20452647046E+02 -0.40501769092E+01  0.56787146002E+02  0.60493757159E+02  0.00000000000E+00 0.  1.
         13    1    4    4    0    0  0.81819781068E+02  0.62658715174E+02  0.15649819635E+03  0.18738270097E+03  0.00000000000E+00 0. -1.
         21    1    1    2  502  501  0.36873094968E+01 -0.26783978634E+02 -0.40753950434E+02  0.48906668654E+02  0.00000000000E+00 0.  1.
<scales pt_clust_5="13000.00000" pt_clust_6="13000.00000" pt_clust_7="13000.00000" pt_clust_8="13000.00000" pt_clust_9="27.03660"></scales>
<clustering>
<clus scale="   27.037">  2  9  1 -1</clus>
<clus scale="   90.349">  5  6 -1 -1</clus>
<clus scale="   93.548">  7  8 -1 -1</clus>
<clus scale="  121.219">  2  5  1 -1</clus>
<clus scale="  123.622">  1  5  2 -1</clus>
</clustering>
</event>
<event>
 9    1  0.1175034E-005  0.1318088E+03  0.7546771E-02  0.1225422E+00
         -2   -1    0    0    0  501 -0.00000000000E+00  0.00000000000E+00  0.52158144878E+02  0.52158144878E+02  0.00000000000E+00 0.  1.
          2   -1    0    0  502    0  0.00000000000E+00 -0.00000000000E+00 -0.49346862041E+03  0.49346862041E+03  0.00000000000E+00 0. -1.
         23    2    1    2    0    0  0.55704150791E+02  0.53525287678E+02 -0.12861074464E+03  0.17514941124E+03  0.90380771097E+02 0.  0.
         23    2    1    2    0    0 -0.74419109534E+02 -0.72570156346E+02 -0.31421720979E+03  0.34373301922E+03  0.92818651789E+02 0.  0.
        -11    1    4    4    0    0 -0.24719394002E+02  0.13269635137E+02 -0.23622579157E+02  0.36676394350E+02  0.00000000000E+00 0.  1.
         11    1    4    4    0    0 -0.49699715532E+02 -0.85839791483E+02 -0.29059463063E+03  0.30705662487E+03  0.00000000000E+00 0. -1.
        -11    1    3    3    0    0  0.35111574732E+02  0.35596955996E+02 -0.69712900705E+01  0.50483312506E+02  0.00000000000E+00 0.  1.
         11    1    3    3    0    0  0.20592576059E+02  0.17928331682E+02 -0.12163945456E+03  0.12466609873E+03  0.00000000000E+00 0. -1.
         21    1    1    2  502  501  0.18714958743E+02  0.19044868668E+02  0.15174788919E+01  0.26744334830E+02  0.00000000000E+00 0. -1.
<scales pt_clust_5="13000.00000" pt_clust_6="13000.00000" pt_clust_7="13000.00000" pt_clust_8="13000.00000" pt_clust_9="26.70125"></scales>
<clustering>
<clus scale="   26.701">  1  9  2 -1</clus>
<clus scale="   90.381">  7  8 -1 -1</clus>
<clus scale="   92.819">  5  6 -1 -1</clus>
<clus scale="  130.104">  1  7  2 -1</clus>
<clus scale="  131.809">  2  5  1 -1</clus>
</clustering>
</event>
<event>
 9    1  0.1175034E-005  0.1314445E+03  0.7546771E-02  0.1243456E+00
          1   -1    0    0  502    0  0.00000000000E+00  0.00000000000E+00  0.62386399176E+03  0.62386399176E+03  0.00000000000E+00 0. -1.
         -1   -1    0    0    0  501 -0.00000000000E+00 -0.00000000000E+00 -0.68546959421E+02  0.68546959421E+02  0.00000000000E+00 0.  1.
         23    2    1    2    0    0 -0.70072186673E+01 -0.21961420558E+02  0.55233468593E+01  0.90814116721E+02  0.87665793380E+02 0.  0.
         23    2    1    2    0    0  0.76966559908E+02 -0.43883593961E+02  0.42306550507E+03  0.44256882726E+03  0.95042748895E+02 0.  0.
        -13    1    4    4    0    0  0.13889983936E+02 -0.51660018456E+02  0.29256438420E+03  0.29741487533E+03  0.00000000000E+00 0. -1.
         13    1    4    4    0    0  0.63076575972E+02  0.77764244946E+01  0.13050112087E+03  0.14515395194E+03  0.00000000000E+00 0.  1.
        -13    1    3    3    0    0  0.80246997916E+01  0.26765509488E+02  0.23739332053E+02  0.36665299552E+02  0.00000000000E+00 0.  1.
         13    1    3    3    0    0 -0.15031918459E+02 -0.48726930046E+02 -0.18215985194E+02  0.54148817169E+02  0.00000000000E+00 0. -1.
         21    1    1    2  502  501 -0.69959341241E+02  0.65845014519E+02  0.12672818040E+03  0.15902800719E+03  0.00000000000E+00 0.  1.
<scales pt_clust_5="13000.00000" pt_clust_6="13000.00000" pt_clust_7="13000.00000" pt_clust_8="13000.00000" pt_clust_9="90.79938"></scales>
<clustering>
<clus scale="   87.666">  7  8 -1 -1</clus>
<clus scale="   90.646">  2  7  1 -1</clus>
<clus scale="   90.799">  2  9  1 -1</clus>
<clus scale="   95.043">  5  6 -1 -1</clus>
<clus scale="  131.444">  1  5  2 -1</clus>
</clustering>
</event>
<event>
 9    1  0.1175034E-005  0.1108495E+03  0.7546771E-02  0.1259497E+00
          1   -1    0    0  502    0  0.00000000000E+00  0.00000000000E+00  0.69960776306E+02  0.69960776306E+02  0.00000000000E+00 0. -1.
         -1   -1    0    0    0  501 -0.00000000000E+00 -0.00000000000E+00 -0.28710636143E+03  0.28710636143E+03  0.00000000000E+00 0.  1.
         23    2    1    2    0    0  0.28148792225E+01  0.55646312752E+02 -0.17244257800E+03  0.20261156715E+03  0.90612188849E+02 0.  0.
         23    2    1    2    0    0  0.27900780415E+02 -0.62499033311E+02 -0.19622390517E+02  0.11421319422E+03  0.89303039211E+02 0.  0.
        -11    1    3    3    0    0 -0.18347067579E+02  0.66675258277E+02 -0.73854701694E+02  0.10117668663E+03  0.00000000000E+00 0.  1.
         11    1    3    3    0    0  0.21161946802E+02 -0.11028945525E+02 -0.98587876302E+02  0.10143488052E+03  0.00000000000E+00 0. -1.
        -11    1    4    4    0    0  0.29724375000E+02  0.13318641629E+02 -0.20282683653E+02  0.38370717222E+02  0.00000000000E+00 0.  1.
         11    1    4    4    0    0 -0.18235945852E+01 -0.75817674940E+02  0.66029313584E+00  0.75842477000E+02  0.00000000000E+00 0. -1.
         21    1    1    2  502  501 -0.30715659637E+02  0.68527205595E+01 -0.25080616611E+02  0.40242376366E+02  0.00000000000E+00 0.  1.
<scales pt_clust_5="13000.00000" pt_clust_6="13000.00000" pt_clust_7="13000.00000" pt_clust_8="13000.00000" pt_clust_9="31.47080"></scales>
<clustering>
<clus scale="   31.471">  2  9  1 -1</clus>
<clus scale="   89.303">  7  8 -1 -1</clus>
<clus scale="   90.612">  5  6 -1 -1</clus>
<clus scale="  109.782">  1  7  2 -1</clus>
<clus scale="  109.782">  1  5  2 -1</clus>
</clustering>
</event>
<event>
 9    1  0.1175034E-005  0.1301953E+03  0.7546771E-02  0.1227808E+00
          2   -1    0    0  502    0  0.00000000000E+00  0.00000000000E+00  0.29751264100E+03  0.29751264100E+03  0.00000000000E+00 0. -1.
         -2   -1    0    0    0  501 -0.00000000000E+00 -0.00000000000E+00 -0.16688937882E+03  0.16688937882E+03  0.00000000000E+00 0.  1.
         23    2    1    2    0    0 -0.77474781365E+02  0.40532280709E+02 -0.69088237068E+02  0.14338485062E+03  0.90226511390E+02 0.  0.
         23    2    1    2    0    0  0.13167939920E+03  0.16055574802E+02  0.17615263834E+03  0.23919207579E+03  0.92659869815E+02 0.  0.
        -11    1    4    4    0    0  0.41900075662E+02  0.44101980492E+02  0.10463127733E+03  0.12103018309E+03  0.00000000000E+00 0.  1.
         11    1    4    4    0    0  0.89779323533E+02 -0.28046405690E+02  0.71521361010E+02  0.11816189270E+03  0.00000000000E+00 0. -1.
        -11    1    3    3    0    0 -0.97919140479E+02  0.38018087011E+02 -0.58154751684E+02  0.12006459993E+03  0.00000000000E+00 0.  1.
         11    1    3    3    0    0  0.20444359114E+02  0.25141936976E+01 -0.10933485385E+02  0.23320250689E+02  0.00000000000E+00 0. -1.
         21    1    1    2  502  501 -0.54204617830E+02 -0.56587855511E+02  0.23558860905E+02  0.81825093416E+02  0.00000000000E+00 0.  1.
<scales pt_clust_5="13000.00000" pt_clust_6="13000.00000" pt_clust_7="13000.00000" pt_clust_8="13000.00000" pt_clust_9="78.36023"></scales>
<clustering>
<clus scale="   78.360">  1  9  2 -1</clus>
<clus scale="   90.227">  7  8 -1 -1</clus>
<clus scale="   92.660">  5  6 -1 -1</clus>
<clus scale="  128.475">  2  7  1 -1</clus>
<clus scale="   78.360">  1  5  2 -1</clus>
</clustering>
</event>
<event>
 9    1  0.1175034E-005  0.1041785E+03  0.7546771E-02  0.1272796E+00
          2   -1    0    0  502    0  0.00000000000E+00  0.00000000000E+00  0.83706416028E+02  0.83706416028E+02  0.00000000000E+00 0. -1.
         -2   -1    0    0    0  501 -0.00000000000E+00 -0.00000000000E+00 -0.28728011554E+03  0.28728011554E+03  0.00000000000E+00 0.  1.
         23    2    1    2    0    0 -0.27406521523E+02 -0.83496210880E+01 -0.14806787033E+03  0.17772522108E+03  0.94028327603E+02 0.  0.
         23    2    1    2    0    0  0.21069079024E+02  0.46931628195E+02  0.21102332751E+02  0.10725232883E+03  0.91712974962E+02 0.  0.
        -11    1    4    4    0    0 -0.34220623252E+02  0.30390272791E+02 -0.10758360548E+00  0.45767142256E+02  0.00000000000E+00 0.  1.
         11    1    4    4    0    0  0.55289702276E+02  0.16541355404E+02  0.21209916356E+02  0.61485186575E+02  0.00000000000E+00 0. -1.
        -13    1    3    3    0    0  0.12084524157E+02 -0.24520600206E+02 -0.41945372824E+01  0.27656639376E+02  0.00000000000E+00 0. -1.
         13    1    3    3    0    0 -0.39491045680E+02  0.16170979118E+02 -0.14387333304E+03  0.15006858171E+03  0.00000000000E+00 0.  1.
         21    1    1    2  502  501  0.63374424992E+01 -0.38582007107E+02 -0.76608161932E+02  0.86008981649E+02  0.00000000000E+00 0.  1.
<scales pt_clust_5="13000.00000" pt_clust_6="13000.00000" pt_clust_7="13000.00000" pt_clust_8="13000.00000" pt_clust_9="39.09903"></scales>
<clustering>
<clus scale="   39.099">  2  9  1 -1</clus>
<clus scale="   91.713">  5  6 -1 -1</clus>
<clus scale="   94.028">  7  8 -1 -1</clus>
<clus scale="  102.094">  1  5  2 -1</clus>
<clus scale="  102.094">  1  5  2 -1</clus>
</clustering>
</event>
<event>
 9    1  0.1175034E-005  0.1019586E+03  0.7546771E-02  0.1279185E+00
          2   -1    0    0  502    0  0.00000000000E+00  0.00000000000E+00  0.41320694634E+03  0.41320694634E+03  0.00000000000E+00 0. -1.
         -2   -1    0    0    0  501 -0.00000000000E+00 -0.00000000000E+00 -0.42476355696E+02  0.42476355696E+02  0.00000000000E+00 0.  1.
         23    2    1    2    0    0  0.10976652124E+02 -0.28937066845E+02  0.17551180393E+03  0.20033344154E+03  0.91494555862E+02 0.  0.
         23    2    1    2    0    0 -0.29949137484E+02  0.15575296731E+02  0.20555891243E+03  0.22994493378E+03  0.97368708467E+02 0.  0.
        -13    1    4    4    0    0  0.34099619578E+02 -0.58870646663E+01  0.55833743683E+02  0.65687506570E+02  0.00000000000E+00 0. -1.
         13    1    4    4    0    0 -0.64048757063E+02  0.21462361397E+02  0.14972516874E+03  0.16425742721E+03  0.00000000000E+00 0.  1.
        -13    1    3    3    0    0 -0.18582728125E+02 -0.45250175531E+02  0.15068403615E+03  0.15842529760E+03  0.00000000000E+00 0.  1.
         13    1    3    3    0    0  0.29559380249E+02  0.16313108686E+02  0.24827767785E+02  0.41908143945E+02  0.00000000000E+00 0. -1.
         21    1    1    2  502  501  0.18972485360E+02  0.13361770114E+02 -0.10340125716E+02  0.25404926710E+02  0.00000000000E+00 0. -1.
<scales pt_clust_5="13000.00000" pt_clust_6="13000.00000" pt_clust_7="13000.00000" pt_clust_8="13000.00000" pt_clust_9="23.20543"></scales>
<clustering>
<clus scale="   23.205">  2  9  1 -1</clus>
<clus scale="   91.495">  7  8 -1 -1</clus>
<clus scale="   96.365">  2  7  1 -1</clus>
<clus scale="   97.369">  5  6 -1 -1</clus>
<clus scale="  101.959">  1  5  2 -1</clus>
</clustering>
</event>
<event>
 9    1  0.1175034E-005  0.1281316E+03  0.7546771E-02  0.1231049E+00
          1   -1    0    0  502    0  0.00000000000E+00  0.00000000000E+00  0.49018673571E+03  0.49018673571E+03  0.00000000000E+00 0. -1.
         -1   -1    0    0    0  501 -0.00000000000E+00 -0.00000000000E+00 -0.74772138344E+02  0.74772138344E+02  0.00000000000E+00 0.  1.
         23    2    1    2    0    0 -0.15476510982E+02 -0.95080938100E+02  0.13139269211E+02  0.13111252261E+03  0.87965595589E+02 0.  0.
         23    2    1    2    0    0 -0.15499731680E+02  0.63947071049E+02  0.33677477144E+03  0.35498464834E+03  0.90925157681E+02 0.  0.
        -11    1    4    4    0    0  0.20864188907E+02  0.58064530156E+02  0.28400336035E+03  0.29062813479E+03  0.00000000000E+00 0. -1.
         11    1    4    4    0    0 -0.36363920587E+02  0.58825408931E+01  0.52771411095E+02  0.64356513553E+02  0.00000000000E+00 0.  1.
        -13    1    3    3    0    0  0.54460196429E+00 -0.72243902783E+02 -0.31226171649E+02  0.78705475518E+02  0.00000000000E+00 0.  1.
         13    1    3    3    0    0 -0.16021112947E+02 -0.22837035317E+02  0.44365440860E+02  0.52407047091E+02  0.00000000000E+00 0. -1.
         21    1    1    2  502  501  0.30976242662E+02  0.31133867051E+02  0.65500556715E+02  0.78861703107E+02  0.00000000000E+00 0. -1.
<scales pt_clust_5="13000.00000" pt_clust_6="13000.00000" pt_clust_7="13000.00000" pt_clust_8="13000.00000" pt_clust_9="43.91862"></scales>
<clustering>
<clus scale="   43.919">  1  9  2 -1</clus>
<clus scale="   87.966">  7  8 -1 -1</clus>
<clus scale="   90.925">  5  6 -1 -1</clus>
<clus scale="  126.049">  2  7  1 -1</clus>
<clus scale="   43.919">  1  5  2 -1</clus>
</clustering>
</event>
<event>
 9    1  0.1175034E-005  0.1386981E+03  0.7546771E-02  0.1216051E+00
          2   -1    0    0  502    0  0.00000000000E+00  0.00000000000E+00  0.42645508123E+03  0.42645508123E+03  0.00000000000E+00 0. -1.
         -2   -1    0    0    0  501 -0.00000000000E+00 -0.00000000000E+00 -0.14460794135E+03  0.14460794135E+03  0.00000000000E+00 0.  1.
         23    2    1    2    0    0 -0.45782484072E+02  0.94334775054E+02 -0.78951200141E+02  0.16183098123E+03  0.94661971503E+02 0.  0.
         23    2    1    2    0    0  0.65987807067E+02 -0.62485286467E+02  0.16074286355E+03  0.20565198666E+03  0.90529938305E+02 0.  0.
        -11    1    4    4    0    0 -0.13584973657E+02 -0.44727181546E+02  0.58563101578E+02  0.74931362891E+02  0.00000000000E+00 0.  1.
         11    1    4    4    0    0  0.79572780724E+02 -0.17758104921E+02  0.10217976197E+03  0.13072062377E+03  0.00000000000E+00 0. -1.
        -13    1    3    3    0    0 -0.70537669968E+02  0.92461193155E+02 -0.67795075536E+02  0.13461354832E+03  0.00000000000E+00 0.  1.
         13    1    3    3    0    0  0.24755185896E+02  0.18735818995E+01 -0.11156124605E+02  0.27217432908E+02  0.00000000000E+00 0. -1.
         21    1    1    2  502  501 -0.20205322995E+02 -0.31849488587E+02  0.20005547648E+03  0.20358005469E+03  0.00000000000E+00 0. -1.
<scales pt_clust_5="13000.00000" pt_clust_6="13000.00000" pt_clust_7="13000.00000" pt_clust_8="13000.00000" pt_clust_9="37.71797"></scales>
<clustering>
<clus scale="   37.718">  1  9  2 -1</clus>
<clus scale="   90.530">  5  6 -1 -1</clus>
<clus scale="   94.662">  7  8 -1 -1</clus>
<clus scale="  135.912">  1  5  2 -1</clus>
<clus scale="   37.718">  1  5  2 -1</clus>
</clustering>
</event>
<event>
 9    1  0.1175034E-005  0.1140035E+03  0.7546771E-02  0.1254676E+00
          1   -1    0    0  502    0  0.00000000000E+00  0.00000000000E+00  0.23664453950E+03  0.23664453950E+03  0.00000000000E+00 0. -1.
         -1   -1    0    0    0  501 -0.00000000000E+00 -0.00000000000E+00 -0.73586721061E+02  0.73586721061E+02  0.00000000000E+00 0.  1.
         23    2    1    2    0    0  0.58845088800E+02 -0.39021213422E+02  0.38515618491E+02  0.12204369488E+03  0.91792216547E+02 0.  0.
         23    2    1    2    0    0 -0.53076701630E+02  0.86918572720E+01  0.89106078223E+02  0.14118902467E+03  0.95403159649E+02 0.  0.
        -11    1    3    3    0    0  0.81276169246E+02 -0.41008610043E+02  0.40084751957E+02  0.99470141874E+02  0.00000000000E+00 0.  1.
         11    1    3    3    0    0 -0.22431080446E+02  0.19873966211E+01 -0.15691334664E+01  0.22573553002E+02  0.00000000000E+00 0. -1.
        -13    1    4    4    0    0  0.19602895415E+01  0.28426114055E+02  0.76145053275E+02  0.81301634877E+02  0.00000000000E+00 0.  1.
         13    1    4    4    0    0 -0.55036991172E+02 -0.19734256783E+02  0.12961024948E+02  0.59887389789E+02  0.00000000000E+00 0. -1.
         21    1    1    2  502  501 -0.57683871698E+01  0.30329356150E+02  0.35436121726E+02  0.46998541020E+02  0.00000000000E+00 0. -1.
<scales pt_clust_5="13000.00000" pt_clust_6="13000.00000" pt_clust_7="13000.00000" pt_clust_8="13000.00000" pt_clust_9="30.87303"></scales>
<clustering>
<clus scale="   30.873">  1  9  2 -1</clus>
<clus scale="   91.792">  5  6 -1 -1</clus>
<clus scale="   95.403">  7  8 -1 -1</clus>
<clus scale="  110.999">  2  5  1 -1</clus>
<clus scale="   30.873">  1  5  2 -1</clus>
</clustering>
</event>
<event>
 9    1  0.1175034E-005  0.1216929E+03  0.7546771E-02  0.1240416E+00
         -2   -1    0    0    0  501 -0.00000000000E+00  0.00000000000E+00  0.17283573313E+03  0.17283573313E+03  0.00000000000E+00 0.  1.
          2   -1    0    0  502    0  0.00000000000E+00 -0.00000000000E+00 -0.12118542316E+03  0.12118542316E+03  0.00000000000E+00 0. -1.
         23    2    1    2    0    0 -0.86736571813E+02  0.35728836150E+02  0.22280234487E+02  0.13235605925E+03  0.90674885990E+02 0.  0.
         23    2    1    2    0    0  0.63968169363E+02 -0.34386460780E+02 -0.97719669558E+01  0.11636276147E+03  0.90390516880E+02 0.  0.
        -11    1    4    4    0    0 -0.22824729809E+02 -0.10833630451E+02 -0.76791357796E+01  0.26406532638E+02  0.00000000000E+00 0. -1.
         11    1    4    4    0    0  0.86792899172E+02 -0.23552830328E+02 -0.20928311762E+01  0.89956228831E+02  0.00000000000E+00 0.  1.
        -13    1    3    3    0    0 -0.24237726395E+02  0.17207040476E+01  0.50318763767E+02  0.55878494882E+02  0.00000000000E+00 0.  1.
         13    1    3    3    0    0 -0.62498845419E+02  0.34008132103E+02 -0.28038529280E+02  0.76477564370E+02  0.00000000000E+00 0. -1.
         21    1    1    2  502  501  0.22768402451E+02 -0.13423753703E+01  0.39142042438E+02  0.45302335569E+02  0.00000000000E+00 0.  1.
<scales pt_clust_5="13000.00000" pt_clust_6="13000.00000" pt_clust_7="13000.00000" pt_clust_8="13000.00000" pt_clust_9="22.80794"></scales>
<clustering>
<clus scale="   22.808">  1  9  2 -1</clus>
<clus scale="   90.391">  5  6 -1 -1</clus>
<clus scale="   90.675">  7  8 -1 -1</clus>
<clus scale="  121.481">  2  5  1 -1</clus>
<clus scale="  121.481">  2  5  1 -1</clus>
</clustering>
</event>
<event>
 9    1  0.1175034E-005  0.1734750E+03  0.7546771E-02  0.1174486E+00
          1   -1    0    0  502    0  0.00000000000E+00  0.00000000000E+00  0.80349466651E+03  0.80349466651E+03  0.00000000000E+00 0. -1.
         -1   -1    0    0    0  501 -0.00000000000E+00 -0.00000000000E+00 -0.73651206887E+02  0.73651206887E+02  0.00000000000E+00 0.  1.
         23    2    1    2    0    0 -0.15519055196E+03  0.22479236612E+02  0.10011914425E+03  0.20657781397E+03  0.89783777402E+02 0.  0.
         23    2    1    2    0    0  0.13965423394E+03 -0.41479095464E+02  0.62123133985E+03  0.64459687449E+03  0.91394379255E+02 0.  0.
        -11    1    4    4    0    0  0.93718700769E+02  0.19083204560E+02  0.36567190014E+03  0.37797262086E+03  0.00000000000E+00 0. -1.
         11    1    4    4    0    0  0.45935533176E+02 -0.60562300024E+02  0.25555943971E+03  0.26662425362E+03  0.00000000000E+00 0.  1.
        -11    1    3    3    0    0 -0.58060665078E+02  0.50911885423E+02  0.27329278090E+02  0.81914286590E+02  0.00000000000E+00 0. -1.
         11    1    3    3    0    0 -0.97129886881E+02 -0.28432648811E+02  0.72789866161E+02  0.12466352738E+03  0.00000000000E+00 0.  1.
         21    1    1    2  502  501  0.15536318015E+02  0.18999858853E+02  0.84929755157E+01  0.25971184936E+02  0.00000000000E+00 0.  1.
<scales pt_clust_5="13000.00000" pt_clust_6="13000.00000" pt_clust_7="13000.00000" pt_clust_8="13000.00000" pt_clust_9="24.54326"></scales>
<clustering>
<clus scale="   24.543">  2  9  1 -1</clus>
<clus scale="   89.784">  7  8 -1 -1</clus>
<clus scale="   91.394">  5  6 -1 -1</clus>
<clus scale="  172.632">  2  7  1 -1</clus>
<clus scale="  173.475">  1  5  2 -1</clus>
</clustering>
</event>
<event>
 9    1  0.1175034E-005  0.1347105E+03  0.7546771E-02  0.1221885E+00
         -1   -1    0    0    0  501 -0.00000000000E+00  0.00000000000E+00  0.84611349004E+02  0.84611349004E+02  0.00000000000E+00 0.  1.
          1   -1    0    0  502    0  0.00000000000E+00 -0.00000000000E+00 -0.39090389443E+03  0.39090389443E+03  0.00000000000E+00 0. -1.
         23    2    1    2    0    0  0.72515472731E+02  0.97507847483E+02 -0.15551232784E+03  0.21716028061E+03  0.90599278460E+02 0.  0.
         23    2    1    2    0    0 -0.65838326892E+02 -0.56867427899E+02 -0.17296656599E+03  0.21157396202E+03  0.85308374799E+02 0.  0.
        -11    1    4    4    0    0 -0.48205389861E+02 -0.75909044074E+02 -0.10182425034E+03  0.13584594415E+03  0.00000000000E+00 0.  1.
         11    1    4    4    0    0 -0.17632937032E+02  0.19041616175E+02 -0.71142315653E+02  0.75728017876E+02  0.00000000000E+00 0. -1.
        -13    1    3    3    0    0  0.59327124706E+02  0.63953574830E+02 -0.39657356065E+02  0.95825222930E+02  0.00000000000E+00 0. -1.
         13    1    3    3    0    0  0.13188348025E+02  0.33554272654E+02 -0.11585497178E+03  0.12133505768E+03  0.00000000000E+00 0.  1.
         21    1    1    2  502  501 -0.66771458384E+01 -0.40640419584E+02  0.22186348407E+02  0.46781000804E+02  0.00000000000E+00 0.  1.
<scales pt_clust_5="13000.00000" pt_clust_6="13000.00000" pt_clust_7="13000.00000" pt_clust_8="13000.00000" pt_clust_9="41.18529"></scales>
<clustering>
<clus scale="   41.185">  1  9  2 -1</clus>
<clus scale="   85.308">  5  6 -1 -1</clus>
<clus scale="   90.599">  7  8 -1 -1</clus>
<clus scale="  131.211">  2  5  1 -1</clus>
<clus scale="  131.211">  2  5  1 -1</clus>
</clustering>
</event>
<event>
 9    1  0.1175034E-005  0.1277781E+03  0.7546771E-02  0.1231567E+00
          3   -1    0    0  502    0  0.00000000000E+00  0.00000000000E+00  0.16939729719E+02  0.16939729719E+02  0.00000000000E+00 0. -1.
         -3   -1    0    0    0  501 -0.00000000000E+00 -0.00000000000E+00 -0.11625538228E+04  0.11625538228E+04  0.00000000000E+00 0.  1.
         23    2    1    2    0    0 -0.84015834131E+02 -0.13748215092E+02 -0.49646192383E+03  0.51144996100E+03  0.88650702135E+02 0.  0.
         23    2    1    2    0    0  0.87485172328E+02  0.34899265218E+02 -0.48370096205E+03  0.50120982638E+03  0.91504400308E+02 0.  0.
        -13    1    4    4    0    0 -0.16136619637E+02  0.17522320155E+02 -0.57287285044E+02  0.62042366368E+02  0.00000000000E+00 0. -1.
         13    1    4    4    0    0  0.10362179196E+03  0.17376945063E+02 -0.42641367701E+03  0.43916746001E+03  0.00000000000E+00 0.  1.
        -13    1    3    3    0    0 -0.87422420253E+02 -0.40168620152E+02 -0.38204042973E+03  0.39396838395E+03  0.00000000000E+00 0. -1.
         13    1    3    3    0    0  0.34065861213E+01  0.26420405059E+02 -0.11442149411E+03  0.11748157705E+03  0.00000000000E+00 0.  1.
         21    1    1    2  502  501 -0.34693381967E+01 -0.21151050125E+02 -0.16545120717E+03  0.16683376512E+03  0.00000000000E+00 0. -1.
<scales pt_clust_5="13000.00000" pt_clust_6="13000.00000" pt_clust_7="13000.00000" pt_clust_8="13000.00000" pt_clust_9="21.43369"></scales>
<clustering>
<clus scale="   21.434">  2  9  1 -1</clus>
<clus scale="   88.651">  7  8 -1 -1</clus>
<clus scale="   91.504">  5  6 -1 -1</clus>
<clus scale="  125.750">  2  7  1 -1</clus>
<clus scale="  127.778">  1  5  2 -1</clus>
</clustering>
</event>
<event>
 9    1  0.1175034E-005  0.9043515E+02  0.7546771E-02  0.1306118E+00
         -1   -1    0    0    0  501 -0.00000000000E+00  0.00000000000E+00  0.18775926433E+02  0.18775926433E+02  0.00000000000E+00 0.  1.
          1   -1    0    0  502    0  0.00000000000E+00 -0.00000000000E+00 -0.71453417013E+03  0.71453417013E+03  0.00000000000E+00 0. -1.
         23    2    1    2    0    0 -0.80094323566E+01 -0.17207081829E+02 -0.32983014727E+03  0.34047633519E+03  0.82316305220E+02 0.  0.
         23    2    1    2    0    0  0.16277523769E+02 -0.20913723437E+01 -0.35963378359E+03  0.37091550316E+03  0.89288972251E+02 0.  0.
        -13    1    4    4    0    0 -0.35816064775E+02 -0.69371603510E+01 -0.18710798459E+03  0.19063135258E+03  0.00000000000E+00 0. -1.
         13    1    4    4    0    0  0.52093588543E+02  0.48457880072E+01 -0.17252579901E+03  0.18028415058E+03  0.00000000000E+00 0.  1.
        -13    1    3    3    0    0 -0.34859061028E+01  0.33426708148E+02 -0.12666299066E+03  0.13104583001E+03  0.00000000000E+00 0.  1.
         13    1    3    3    0    0 -0.45235262538E+01 -0.50633789977E+02 -0.20316715660E+03  0.20943050518E+03  0.00000000000E+00 0. -1.
         21    1    1    2  502  501 -0.82680914121E+01  0.19298454173E+02 -0.62943128373E+01  0.21918258214E+02  0.00000000000E+00 0. -1.
<scales pt_clust_5="13000.00000" pt_clust_6="13000.00000" pt_clust_7="13000.00000" pt_clust_8="13000.00000" pt_clust_9="20.99504"></scales>
<clustering>
<clus scale="   20.995">  1  9  2 -1</clus>
<clus scale="   82.316">  7  8 -1 -1</clus>
<clus scale="   83.558">  1  7  2 -1</clus>
<clus scale="   89.289">  5  6 -1 -1</clus>
<clus scale="   90.435">  2  5  1 -1</clus>
</clustering>
</event>
<event>
 9    1  0.1175034E-005  0.9907231E+02  0.7546771E-02  0.1285301E+00
         -1   -1    0    0    0  501 -0.00000000000E+00  0.00000000000E+00  0.47503365191E+02  0.47503365191E+02  0.00000000000E+00 0.  1.
          1   -1    0    0  502    0  0.00000000000E+00 -0.00000000000E+00 -0.35546403769E+03  0.35546403769E+03  0.00000000000E+00 0. -1.
         23    2    1    2    0    0  0.67647082735E+01 -0.31098940932E+02 -0.41116765501E+02  0.10441551644E+03  0.90548916411E+02 0.  0.
         23    2    1    2    0    0  0.11785603108E+02  0.48620562320E+01 -0.16176896374E+03  0.18867362712E+03  0.96260063936E+02 0.  0.
        -11    1    3    3    0    0  0.44870670865E+02 -0.35751746276E+02 -0.21167205030E+02  0.61152391894E+02  0.00000000000E+00 0.  1.
         11    1    3    3    0    0 -0.38105962591E+02  0.46528053442E+01 -0.19949560471E+02  0.43263124547E+02  0.00000000000E+00 0. -1.
        -13    1    4    4    0    0 -0.29382289929E+02 -0.30842148098E+02 -0.72260908000E+02  0.83882035536E+02  0.00000000000E+00 0. -1.
         13    1    4    4    0    0  0.41167893037E+02  0.35704204329E+02 -0.89508055743E+02  0.10479159158E+03  0.00000000000E+00 0.  1.
         21    1    1    2  502  501 -0.18550311381E+02  0.26236884700E+02 -0.10507494325E+03  0.10987825932E+03  0.00000000000E+00 0. -1.
<scales pt_clust_5="13000.00000" pt_clust_6="13000.00000" pt_clust_7="13000.00000" pt_clust_8="13000.00000" pt_clust_9="32.13235"></scales>
<clustering>
<clus scale="   32.132">  2  9  1 -1</clus>
<clus scale="   90.549">  5  6 -1 -1</clus>
<clus scale="   93.533">  1  5  2 -1</clus>
<clus scale="   96.260">  7  8 -1 -1</clus>
<clus scale="   32.132">  2  5  1 -1</clus>
</clustering>
</event>
<event>
 9    1  0.1175034E-005  0.1216754E+03  0.7546771E-02  0.1240473E+00
         -1   -1    0    0    0  501 -0.00000000000E+00  0.00000000000E+00  0.46524895302E+03  0.46524895302E+03  0.00000000000E+00 0.  1.
          1   -1    0    0  502    0  0.00000000000E+00 -0.00000000000E+00 -0.67578805557E+02  0.67578805557E+02  0.00000000000E+00 0. -1.
         23    2    1    2    0    0 -0.30202847162E+02  0.57996826382E+02  0.13964056654E+03  0.17918036873E+03  0.91270328508E+02 0.  0.
         23    2    1    2    0    0  0.58484250680E+02 -0.67571987744E+02  0.40020263057E+02  0.13360288486E+03  0.90894049765E+02 0.  0.
        -11    1    3    3    0    0 -0.61009369780E+02  0.53347927581E+02  0.97839989733E+02  0.12704648035E+03  0.00000000000E+00 0.  1.
         11    1    3    3    0    0  0.30806522618E+02  0.46488988016E+01  0.41800576810E+02  0.52133888379E+02  0.00000000000E+00 0. -1.
        -13    1    4    4    0    0 -0.11559606795E+02 -0.55065708059E+02  0.19542245717E+02  0.59563042912E+02  0.00000000000E+00 0.  1.
         13    1    4    4    0    0  0.70043857475E+02 -0.12506279685E+02  0.20478017341E+02  0.74039841948E+02  0.00000000000E+00 0. -1.
         21    1    1    2  502  501 -0.28281403518E+02  0.95751613613E+01  0.21800931786E+03  0.22004450499E+03  0.00000000000E+00 0.  1.
<scales pt_clust_5="13000.00000" pt_clust_6="13000.00000" pt_clust_7="13000.00000" pt_clust_8="13000.00000" pt_clust_9="29.85836"></scales>
<clustering>
<clus scale="   29.858">  1  9  2 -1</clus>
<clus scale="   90.894">  7  8 -1 -1</clus>
<clus scale="   91.270">  5  6 -1 -1</clus>
<clus scale="  121.393">  2  7  1 -1</clus>
<clus scale="  121.393">  2  5  1 -1</clus>
</clustering>
</event>
<event>
 9    1  0.1175034E-005  0.2208451E+03  0.7546771E-02  0.1169041E+00
         -1   -1    0    0    0  501 -0.00000000000E+00  0.00000000000E+00  0.11147725737E+03  0.11147725737E+03  0.00000000000E+00 0.  1.
          1   -1    0    0  502    0  0.00000000000E+00 -0.00000000000E+00 -0.68522865189E+03  0.68522865189E+03  0.00000000000E+00 0. -1.
         23    2    1    2    0    0 -0.46543987123E+01 -0.20707190612E+03 -0.14326618100E+03  0.26800331959E+03  0.91652293832E+02 0.  0.
         23    2    1    2    0    0  0.14501687426E+02  0.13219384126E+02 -0.23428742201E+03  0.25271465013E+03  0.92677112718E+02 0.  0.
        -11    1    4    4    0    0  0.46276582625E+02  0.15676314768E+02 -0.70005546436E+02  0.85370050228E+02  0.00000000000E+00 0.  1.
         11    1    4    4    0    0 -0.31774895199E+02 -0.24569306426E+01 -0.16428187557E+03  0.16734459990E+03  0.00000000000E+00 0. -1.
        -11    1    3    3    0    0 -0.99753373173E+01 -0.17864878742E+03 -0.75271532647E+02  0.19411517258E+03  0.00000000000E+00 0.  1.
         11    1    3    3    0    0  0.53209386050E+01 -0.28423118701E+02 -0.67994648349E+02  0.73888147009E+02  0.00000000000E+00 0. -1.
         21    1    1    2  502  501 -0.98472887138E+01  0.19385252199E+03 -0.19619779152E+03  0.27598793954E+03  0.00000000000E+00 0. -1.
<scales pt_clust_5="13000.00000" pt_clust_6="13000.00000" pt_clust_7="13000.00000" pt_clust_8="13000.00000" pt_clust_9="200.92890"></scales>
<clustering>
<clus scale="   91.652">  7  8 -1 -1</clus>
<clus scale="   92.677">  5  6 -1 -1</clus>
<clus scale="   94.732">  2  5  1 -1</clus>
<clus scale="  200.929">  2  9  1 -1</clus>
<clus scale="   94.732">  2  5  1 -1</clus>
</clustering>
</event>
<event>
 9    1  0.1175034E-005  0.1413462E+03  0.7546771E-02  0.1212001E+00
          2   -1    0    0  502    0  0.00000000000E+00  0.00000000000E+00  0.33752485282E+03  0.33752485282E+03  0.00000000000E+00 0. -1.
         -2   -1    0    0    0  501 -0.00000000000E+00 -0.00000000000E+00 -0.19138373882E+03  0.19138373882E+03  0.00000000000E+00 0.  1.
         23    2    1    2    0    0  0.70824052408E+02 -0.82524817526E+01 -0.10906870519E+03  0.15914452242E+03  0.91361078752E+02 0.  0.
         23    2    1    2    0    0 -0.99746733956E+02  0.48892329615E+02  0.27898194151E+03  0.31450800583E+03  0.93511984336E+02 0.  0.
        -11    1    3    3    0    0  0.48370438071E+02 -0.48820102805E+02 -0.74142703093E+02  0.10109521323E+03  0.00000000000E+00 0.  1.
         11    1    3    3    0    0  0.22453614336E+02  0.40567621052E+02 -0.34926002094E+02  0.58049309185E+02  0.00000000000E+00 0. -1.
        -13    1    4    4    0    0 -0.79827413074E+02 -0.72571924124E+01  0.20083839510E+03  0.21624325114E+03  0.00000000000E+00 0.  1.
         13    1    4    4    0    0 -0.19919320882E+02  0.56149522027E+02  0.78143546411E+02  0.98264754688E+02  0.00000000000E+00 0. -1.
         21    1    1    2  502  501  0.28922681548E+02 -0.40639847862E+02 -0.23772122317E+02  0.55256063393E+02  0.00000000000E+00 0.  1.
<scales pt_clust_5="13000.00000" pt_clust_6="13000.00000" pt_clust_7="13000.00000" pt_clust_8="13000.00000" pt_clust_9="49.88105"></scales>
<clustering>
<clus scale="   49.881">  2  9  1 -1</clus>
<clus scale="   91.361">  5  6 -1 -1</clus>
<clus scale="   93.512">  7  8 -1 -1</clus>
<clus scale="  139.932">  2  5  1 -1</clus>
<clus scale="  141.346">  1  5  2 -1</clus>
</clustering>
</event>
<event>
 9    1  0.1175034E-005  0.9821008E+02  0.7546771E-02  0.1284283E+00
          2   -1    0    0  502    0  0.00000000000E+00  0.00000000000E+00  0.69274169374E+03  0.69274169374E+03  0.00000000000E+00 0. -1.
         -2   -1    0    0    0  501 -0.00000000000E+00 -0.00000000000E+00 -0.23217708899E+02  0.23217708899E+02  0.00000000000E+00 0.  1.
         23    2    1    2    0    0 -0.28945182171E+02  0.21141849675E+02  0.14556883611E+03  0.17543414548E+03  0.91115596779E+02 0.  0.
         23    2    1    2    0    0  0.73639960185E+01 -0.43657934754E+02  0.40034153288E+03  0.41303781579E+03  0.91469397162E+02 0.  0.
        -13    1    4    4    0    0 -0.39285219354E+02 -0.16903611753E+02  0.11548734701E+03  0.12315188943E+03  0.00000000000E+00 0.  1.
         13    1    4    4    0    0  0.46649215373E+02 -0.26754323001E+02  0.28485418587E+03  0.28988592636E+03  0.00000000000E+00 0. -1.
        -13    1    3    3    0    0 -0.50661619113E+02  0.17974057869E+02  0.38452764946E+02  0.66092976475E+02  0.00000000000E+00 0.  1.
         13    1    3    3    0    0  0.21716436942E+02  0.31677918062E+01  0.10711607116E+03  0.10934116901E+03  0.00000000000E+00 0. -1.
         21    1    1    2  502  501  0.21581186153E+02  0.22516085079E+02  0.12361361585E+03  0.12748744137E+03  0.00000000000E+00 0. -1.
<scales pt_clust_5="13000.00000" pt_clust_6="13000.00000" pt_clust_7="13000.00000" pt_clust_8="13000.00000" pt_clust_9="31.18849"></scales>
<clustering>
<clus scale="   31.188">  1  9  2 -1</clus>
<clus scale="   91.116">  7  8 -1 -1</clus>
<clus scale="   91.469">  5  6 -1 -1</clus>
<clus scale="   97.881">  2  7  1 -1</clus>
<clus scale="   31.188">  1  5  2 -1</clus>
</clustering>
</event>
<event>
 9    1  0.1175034E-005  0.1135477E+03  0.7546771E-02  0.1254170E+00
         -2   -1    0    0    0  501 -0.00000000000E+00  0.00000000000E+00  0.69236012819E+02  0.69236012819E+02  0.00000000000E+00 0.  1.
          2   -1    0    0  502    0  0.00000000000E+00 -0.00000000000E+00 -0.48744865139E+03  0.48744865139E+03  0.00000000000E+00 0. -1.
         23    2    1    2    0    0 -0.26920049198E+01  0.10501924945E+03 -0.11669576154E+03  0.18199348223E+03  0.92018678357E+02 0.  0.
         23    2    1    2    0    0 -0.31117857965E+01 -0.55519194926E+02 -0.30627719318E+03  0.32462522554E+03  0.92107294918E+02 0.  0.
        -11    1    4    4    0    0 -0.19677164951E+02  0.13301917436E+02 -0.24620840645E+02  0.34209905321E+02  0.00000000000E+00 0.  1.
         11    1    4    4    0    0  0.16565379155E+02 -0.68821112362E+02 -0.28165635254E+03  0.29041532022E+03  0.00000000000E+00 0. -1.
        -11    1    3    3    0    0  0.20662655287E+02  0.11307659158E+03 -0.95750105270E+02  0.14960395565E+03  0.00000000000E+00 0.  1.
         11    1    3    3    0    0 -0.23354660206E+02 -0.80573421279E+01 -0.20945656273E+02  0.32389526583E+02  0.00000000000E+00 0. -1.
         21    1    1    2  502  501  0.58037907163E+01 -0.49500054521E+02  0.47603161557E+01  0.50065956440E+02  0.00000000000E+00 0. -1.
<scales pt_clust_5="13000.00000" pt_clust_6="13000.00000" pt_clust_7="13000.00000" pt_clust_8="13000.00000" pt_clust_9="49.83914"></scales>
<clustering>
<clus scale="   49.839">  1  9  2 -1</clus>
<clus scale="   92.019">  7  8 -1 -1</clus>
<clus scale="   92.107">  5  6 -1 -1</clus>
<clus scale="  113.476">  1  7  2 -1</clus>
<clus scale="  113.548">  2  5  1 -1</clus>
</clustering>
</event>
<event>
 9    1  0.1175034E-005  0.1056407E+03  0.7546771E-02  0.1273914E+00
          4   -1    0    0  502    0  0.00000000000E+00  0.00000000000E+00  0.67287910833E+03  0.67287910833E+03  0.00000000000E+00 0. -1.
         -4   -1    0    0    0  501 -0.00000000000E+00 -0.00000000000E+00 -0.24857727462E+02  0.24857727462E+02  0.00000000000E+00 0.  1.
         23    2    1    2    0    0 -0.42830306538E+02 -0.32830713914E+02  0.19632793674E+03  0.22285882815E+03  0.90604125777E+02 0.  0.
         23    2    1    2    0    0  0.21754332641E+02  0.25140190147E+00  0.37464967908E+03  0.38861474790E+03  0.10092435812E+03 0.  0.
        -13    1    4    4    0    0 -0.40507480507E+02 -0.47053357756E+01  0.14632560908E+03  0.15190187633E+03  0.00000000000E+00 0.  1.
         13    1    4    4    0    0  0.62261813148E+02  0.49567376771E+01  0.22832407000E+03  0.23671287157E+03  0.00000000000E+00 0. -1.
        -13    1    3    3    0    0  0.28651505001E+02 -0.78496336279E+01  0.57715470717E+02  0.64912256524E+02  0.00000000000E+00 0. -1.
         13    1    3    3    0    0 -0.71481811539E+02 -0.24981080286E+02  0.13861246602E+03  0.15794657163E+03  0.00000000000E+00 0.  1.
         21    1    1    2  502  501  0.21075973897E+02  0.32579312013E+02  0.77043765057E+02  0.86263259741E+02  0.00000000000E+00 0.  1.
<scales pt_clust_5="13000.00000" pt_clust_6="13000.00000" pt_clust_7="13000.00000" pt_clust_8="13000.00000" pt_clust_9="38.80217"></scales>
<clustering>
<clus scale="   38.802">  2  9  1 -1</clus>
<clus scale="   90.604">  7  8 -1 -1</clus>
<clus scale="   95.830">  2  7  1 -1</clus>
<clus scale="  100.924">  5  6 -1 -1</clus>
<clus scale="  105.641">  1  5  2 -1</clus>
</clustering>
</event>
<event>
 9    1  0.1175034E-005  0.1816115E+03  0.7546771E-02  0.1166804E+00
          1   -1    0    0  502    0  0.00000000000E+00  0.00000000000E+00  0.22639119314E+03  0.22639119314E+03  0.00000000000E+00 0. -1.
         -1   -1    0    0    0  501 -0.00000000000E+00 -0.00000000000E+00 -0.25116099762E+03  0.25116099762E+03  0.00000000000E+00 0.  1.
         23    2    1    2    0    0  0.13867331891E+03  0.36002870357E+02 -0.98840885452E+02  0.19693375995E+03  0.92124313389E+02 0.  0.
         23    2    1    2    0    0 -0.16300194816E+03  0.18996942731E+02  0.10437912193E+03  0.21327276289E+03  0.87520005479E+02 0.  0.
        -11    1    4    4    0    0 -0.50918558302E+02  0.23676466750E+02 -0.52752528586E+01  0.56401267274E+02  0.00000000000E+00 0.  1.
         11    1    4    4    0    0 -0.11208338986E+03 -0.46795240182E+01  0.10965437479E+03  0.15687149562E+03  0.00000000000E+00 0. -1.
        -13    1    3    3    0    0  0.67405676311E+02 -0.97979544913E+01 -0.88368582038E+02  0.11157298689E+03  0.00000000000E+00 0. -1.
         13    1    3    3    0    0  0.71267642600E+02  0.45800824849E+02 -0.10472303415E+02  0.85360773060E+02  0.00000000000E+00 0.  1.
         21    1    1    2  502  501  0.24328629248E+02 -0.54999813089E+02 -0.30308040954E+02  0.67345667918E+02  0.00000000000E+00 0. -1.
<scales pt_clust_5="13000.00000" pt_clust_6="13000.00000" pt_clust_7="13000.00000" pt_clust_8="13000.00000" pt_clust_9="60.14035"></scales>
<clustering>
<clus scale="   60.140">  2  9  1 -1</clus>
<clus scale="   87.520">  5  6 -1 -1</clus>
<clus scale="   92.124">  7  8 -1 -1</clus>
<clus scale="  179.320">  1  5  2 -1</clus>
<clus scale="  179.320">  1  5  2 -1</clus>
</clustering>
</event>
<event>
 9    1  0.1175034E-005  0.9134303E+02  0.7546771E-02  0.1300152E+00
         -1   -1    0    0    0  501 -0.00000000000E+00  0.00000000000E+00  0.18526518558E+03  0.18526518558E+03  0.00000000000E+00 0.  1.
          1   -1    0    0  502    0  0.00000000000E+00 -0.00000000000E+00 -0.92951519941E+02  0.92951519941E+02  0.00000000000E+00 0. -1.
         23    2    1    2    0    0  0.50945080651E+01 -0.45008671435E+01  0.50539083877E+02  0.10374852623E+03  0.90351236179E+02 0.  0.
         23    2    1    2    0    0  0.13334478531E+02  0.13495159901E+02 -0.32771795182E+02  0.97152675250E+02  0.89469123670E+02 0.  0.
        -11    1    3    3    0    0 -0.31494785810E+02  0.20070397724E+02  0.46279985743E+02  0.59469147281E+02  0.00000000000E+00 0. -1.
         11    1    3    3    0    0  0.36589293875E+02 -0.24571264868E+02  0.42590981347E+01  0.44279378952E+02  0.00000000000E+00 0.  1.
        -11    1    4    4    0    0 -0.31878421117E+02  0.21688299822E+02  0.33545270542E+01  0.38702311738E+02  0.00000000000E+00 0.  1.
         11    1    4    4    0    0  0.45212899648E+02 -0.81931399216E+01 -0.36126322237E+02  0.58450363512E+02  0.00000000000E+00 0. -1.
         21    1    1    2  502  501 -0.18428986596E+02 -0.89942927572E+01  0.74546376947E+02  0.77315504041E+02  0.00000000000E+00 0. -1.
<scales pt_clust_5="13000.00000" pt_clust_6="13000.00000" pt_clust_7="13000.00000" pt_clust_8="13000.00000" pt_clust_9="20.50670"></scales>
<clustering>
<clus scale="   20.507">  1  9  2 -1</clus>
<clus scale="   89.469">  7  8 -1 -1</clus>
<clus scale="   90.351">  5  6 -1 -1</clus>
<clus scale="   90.471">  2  7  1 -1</clus>
<clus scale="   90.471">  2  5  1 -1</clus>
</clustering>
</event>
<event>
 9    1  0.1175034E-005  0.1309306E+03  0.7546771E-02  0.1244450E+00
          1   -1    0    0  502    0  0.00000000000E+00  0.00000000000E+00  0.10328488450E+03  0.10328488450E+03  0.00000000000E+00 0. -1.
         -1   -1    0    0    0  501 -0.00000000000E+00 -0.00000000000E+00 -0.24797684509E+03  0.24797684509E+03  0.00000000000E+00 0.  1.
         23    2    1    2    0    0  0.25574331713E+02 -0.81393112407E+02 -0.44760305868E+02  0.13390385585E+03  0.92993937653E+02 0.  0.
         23    2    1    2    0    0  0.15255829800E+02 -0.53363142336E+01 -0.18951652112E+02  0.91871394958E+02  0.88430602742E+02 0.  0.
        -13    1    4    4    0    0  0.24953150209E+02 -0.42242452185E+02  0.44844458052E+00  0.49064096593E+02  0.00000000000E+00 0.  1.
         13    1    4    4    0    0 -0.96973204089E+01  0.36906137951E+02 -0.19400096693E+02  0.42807298365E+02  0.00000000000E+00 0. -1.
        -13    1    3    3    0    0  0.36870711030E+00 -0.63631584908E+02 -0.69603053238E+02  0.94306413159E+02  0.00000000000E+00 0.  1.
         13    1    3    3    0    0  0.25205624603E+02 -0.17761527500E+02  0.24842747371E+02  0.39597442691E+02  0.00000000000E+00 0. -1.
         21    1    1    2  502  501 -0.40830161513E+02  0.86729426641E+02 -0.80980002607E+02  0.12548647878E+03  0.00000000000E+00 0. -1.
<scales pt_clust_5="13000.00000" pt_clust_6="13000.00000" pt_clust_7="13000.00000" pt_clust_8="13000.00000" pt_clust_9="92.16811"></scales>
<clustering>
<clus scale="   88.431">  5  6 -1 -1</clus>
<clus scale="   89.895">  1  5  2 -1</clus>
<clus scale="   92.168">  2  9  1 -1</clus>
<clus scale="   92.994">  7  8 -1 -1</clus>
<clus scale="   89.895">  1  5  2 -1</clus>
</clustering>
</event>
<event>
 9    1  0.1175034E-005  0.1340554E+03  0.7546771E-02  0.1222066E+00
          2   -1    0    0  502    0  0.00000000000E+00  0.00000000000E+00  0.88200571918E+03  0.88200571918E+03  0.00000000000E+00 0. -1.
         -2   -1    0    0    0  501 -0.00000000000E+00 -0.00000000000E+00 -0.37773765366E+02  0.37773765366E+02  0.00000000000E+00 0.  1.
         23    2    1    2    0    0  0.74890534664E+02  0.53072616332E+02  0.15209436495E+03  0.20007465677E+03  0.92042803337E+02 0.  0.
         23    2    1    2    0    0 -0.11488720773E+03 -0.37160191714E+02  0.58902050599E+03  0.60796373464E+03  0.89971083242E+02 0.  0.
        -11    1    3    3    0    0  0.79130265909E+02  0.17813288603E+02  0.14135534869E+03  0.16297314760E+03  0.00000000000E+00 0. -1.
         11    1    3    3    0    0 -0.42397312453E+01  0.35259327729E+02  0.10739016260E+02  0.37101509176E+02  0.00000000000E+00 0.  1.
        -13    1    4    4    0    0 -0.85634581432E+02 -0.58334799501E+02  0.51831168217E+03  0.52856714828E+03  0.00000000000E+00 0.  1.
         13    1    4    4    0    0 -0.29252626294E+02  0.21174607787E+02  0.70708823819E+02  0.79396586362E+02  0.00000000000E+00 0. -1.
         21    1    1    2  502  501  0.39996673062E+02 -0.15912424618E+02  0.10311708287E+03  0.11174109312E+03  0.00000000000E+00 0.  1.
<scales pt_clust_5="13000.00000" pt_clust_6="13000.00000" pt_clust_7="13000.00000" pt_clust_8="13000.00000" pt_clust_9="43.04578"></scales>
<clustering>
<clus scale="   43.046">  1  9  2 -1</clus>
<clus scale="   89.971">  7  8 -1 -1</clus>
<clus scale="   92.043">  5  6 -1 -1</clus>
<clus scale="  132.641">  1  7  2 -1</clus>
<clus scale="   43.046">  1  5  2 -1</clus>
</clustering>
</event>
<event>
 9    1  0.1175034E-005  0.1080406E+03  0.7546771E-02  0.1265324E+00
          1   -1    0    0  502    0  0.00000000000E+00  0.00000000000E+00  0.12624872497E+03  0.12624872497E+03  0.00000000000E+00 0. -1.
         -1   -1    0    0    0  501 -0.00000000000E+00 -0.00000000000E+00 -0.11350301866E+03  0.11350301866E+03  0.00000000000E+00 0.  1.
         23    2    1    2    0    0 -0.51931612973E+02  0.31499971519E+02 -0.11873341005E+01  0.11187472311E+03  0.93943617546E+02 0.  0.
         23    2    1    2    0    0  0.35296395620E+02 -0.17274520114E+02  0.17701490486E+02  0.10566677198E+03  0.96477351471E+02 0.  0.
        -13    1    3    3    0    0 -0.39786227309E+02  0.69422301393E+01  0.43562745217E+02  0.59404134651E+02  0.00000000000E+00 0. -1.
         13    1    3    3    0    0 -0.12145385664E+02  0.24557741380E+02 -0.44750079317E+02  0.52470588462E+02  0.00000000000E+00 0.  1.
        -13    1    4    4    0    0  0.24541630366E+02  0.38555820872E+02  0.17125683370E+02  0.48807089393E+02  0.00000000000E+00 0.  1.
         13    1    4    4    0    0  0.10754765254E+02 -0.55830340987E+02  0.57580711639E+00  0.56859682590E+02  0.00000000000E+00 0. -1.
         21    1    1    2  502  501  0.16635217353E+02 -0.14225451405E+02 -0.37684500805E+01  0.22210248537E+02  0.00000000000E+00 0.  1.
<scales pt_clust_5="13000.00000" pt_clust_6="13000.00000" pt_clust_7="13000.00000" pt_clust_8="13000.00000" pt_clust_9="21.88821"></scales>
<clustering>
<clus scale="   21.888">  2  9  1 -1</clus>
<clus scale="   93.944">  5  6 -1 -1</clus>
<clus scale="   96.477">  7  8 -1 -1</clus>
<clus scale="  105.784">  2  5  1 -1</clus>
<clus scale="  108.041">  1  5  2 -1</clus>
</clustering>
</event>
<event>
 9    1  0.1175034E-005  0.1007254E+03  0.7546771E-02  0.1293343E+00
          2   -1    0    0  502    0  0.00000000000E+00  0.00000000000E+00  0.56079705544E+02  0.56079705544E+02  0.00000000000E+00 0. -1.
         -2   -1    0    0    0  501 -0.00000000000E+00 -0.00000000000E+00 -0.30202708358E+03  0.30202708358E+03  0.00000000000E+00 0.  1.
         23    2    1    2    0    0 -0.56943144625E+02  0.13369251819E+02 -0.67186501493E+02  0.10929228892E+03  0.63320769261E+02 0.  0.
         23    2    1    2    0    0  0.44113670974E+01 -0.45823572537E+02 -0.70025140491E+02  0.12376918491E+03  0.91082549767E+02 0.  0.
        -11    1    4    4    0    0  0.16993076351E+02 -0.27351709709E+02 -0.88877034320E+02  0.94530460156E+02  0.00000000000E+00 0.  1.
         11    1    4    4    0    0 -0.12581709254E+02 -0.18471862829E+02  0.18851893829E+02  0.29238724751E+02  0.00000000000E+00 0. -1.
        -11    1    3    3    0    0 -0.11043487791E+02 -0.24357368475E+02 -0.19260701006E+02  0.32957770326E+02  0.00000000000E+00 0.  1.
         11    1    3    3    0    0 -0.45899656834E+02  0.37726620293E+02 -0.47925800487E+02  0.76334518591E+02  0.00000000000E+00 0. -1.
         21    1    1    2  502  501  0.52531777527E+02  0.32454320719E+02 -0.10873573605E+03  0.12504531530E+03  0.00000000000E+00 0.  1.
<scales pt_clust_5="13000.00000" pt_clust_6="13000.00000" pt_clust_7="13000.00000" pt_clust_8="13000.00000" pt_clust_9="61.74845"></scales>
<clustering>
<clus scale="   61.748">  2  9  1 -1</clus>
<clus scale="   63.321">  7  8 -1 -1</clus>
<clus scale="   76.545">  2  7  1 -1</clus>
<clus scale="   91.083">  5  6 -1 -1</clus>
<clus scale="  100.725">  1  5  2 -1</clus>
</clustering>
</event>
<event>
 9    1  0.1175034E-005  0.1056705E+03  0.7546771E-02  0.1269229E+00
         -1   -1    0    0    0  501 -0.00000000000E+00  0.00000000000E+00  0.14266399610E+03  0.14266399610E+03  0.00000000000E+00 0.  1.
          1   -1    0    0  502    0  0.00000000000E+00 -0.00000000000E+00 -0.13527504385E+03  0.13527504385E+03  0.00000000000E+00 0. -1.
         23    2    1    2    0    0  0.68704375749E+02  0.91995743580E+01 -0.20607214478E+02  0.11481100230E+03  0.89173906189E+02 0.  0.
         23    2    1    2    0    0 -0.36777384872E+02 -0.27221742075E+02 -0.19634236993E+02  0.10302157681E+03  0.90190591234E+02 0.  0.
        -11    1    4    4    0    0 -0.11702685968E+02  0.17321482147E+02  0.26782999558E+02  0.33975221382E+02  0.00000000000E+00 0.  1.
         11    1    4    4    0    0 -0.25074698904E+02 -0.44543224222E+02 -0.46417236551E+02  0.69046355430E+02  0.00000000000E+00 0. -1.
        -13    1    3    3    0    0  0.18996641290E+02 -0.36698232796E+02  0.66773923018E+01  0.41859529842E+02  0.00000000000E+00 0.  1.
         13    1    3    3    0    0  0.49707734459E+02  0.45897807154E+02 -0.27284606780E+02  0.72951472458E+02  0.00000000000E+00 0. -1.
         21    1    1    2  502  501 -0.31926990878E+02  0.18022167717E+02  0.47630403724E+02  0.60106460839E+02  0.00000000000E+00 0.  1.
<scales pt_clust_5="13000.00000" pt_clust_6="13000.00000" pt_clust_7="13000.00000" pt_clust_8="13000.00000" pt_clust_9="36.66240"></scales>
<clustering>
<clus scale="   36.662">  1  9  2 -1</clus>
<clus scale="   89.174">  7  8 -1 -1</clus>
<clus scale="   90.191">  5  6 -1 -1</clus>
<clus scale="  104.804">  1  7  2 -1</clus>
<clus scale="  105.670">  2  5  1 -1</clus>
</clustering>
</event>
<event>
 9    1  0.1175034E-005  0.1027291E+03  0.7546771E-02  0.1277764E+00
          4   -1    0    0  502    0  0.00000000000E+00  0.00000000000E+00  0.20005947250E+03  0.20005947250E+03  0.00000000000E+00 0. -1.
         -4   -1    0    0    0  501 -0.00000000000E+00 -0.00000000000E+00 -0.77029926808E+02  0.77029926808E+02  0.00000000000E+00 0.  1.
         23    2    1    2    0    0  0.22456902869E+02 -0.37335839993E+02  0.33791032378E+02  0.10677167212E+03  0.91433465778E+02 0.  0.
         23    2    1    2    0    0 -0.21349400303E+02  0.15145129451E+02  0.10286403466E+03  0.14425416972E+03  0.97688709766E+02 0.  0.
        -13    1    3    3    0    0  0.32186401301E+02 -0.64343584122E+02  0.29447428166E+02  0.77738100516E+02  0.00000000000E+00 0. -1.
         13    1    3    3    0    0 -0.97294984317E+01  0.27007744128E+02  0.43436042123E+01  0.29033571606E+02  0.00000000000E+00 0.  1.
        -13    1    4    4    0    0 -0.22569758179E+02  0.55485004315E+02  0.51985438637E+02  0.79312455002E+02  0.00000000000E+00 0.  1.
         13    1    4    4    0    0  0.12203578763E+01 -0.40339874864E+02  0.50878596020E+02  0.64941714717E+02  0.00000000000E+00 0. -1.
         21    1    1    2  502  501 -0.11075025663E+01  0.22190710542E+02 -0.13625521339E+02  0.26063557471E+02  0.00000000000E+00 0.  1.
<scales pt_clust_5="13000.00000" pt_clust_6="13000.00000" pt_clust_7="13000.00000" pt_clust_8="13000.00000" pt_clust_9="22.21833"></scales>
<clustering>
<clus scale="   22.218">  2  9  1 -1</clus>
<clus scale="   91.433">  5  6 -1 -1</clus>
<clus scale="   96.800">  2  5  1 -1</clus>
<clus scale="   97.689">  7  8 -1 -1</clus>
<clus scale="  102.729">  1  5  2 -1</clus>
</clustering>
</event>
<event>
 9    1  0.1175034E-005  0.9730361E+02  0.7546771E-02  0.1286764E+00
         -3   -1    0    0    0  501 -0.00000000000E+00  0.00000000000E+00  0.12460701155E+03  0.12460701155E+03  0.00000000000E+00 0.  1.
          3   -1    0    0  502    0  0.00000000000E+00 -0.00000000000E+00 -0.93484941983E+02  0.93484941983E+02  0.00000000000E+00 0. -1.
         23    2    1    2    0    0  0.19169620039E+02 -0.13450006365E+02  0.24072916657E+02  0.97687967645E+02  0.91733618170E+02 0.  0.
         23    2    1    2    0    0 -0.34943188916E+02  0.25179524080E+00  0.30187556452E+01  0.99445876384E+02  0.93055250210E+02 0.  0.
        -11    1    3    3    0    0  0.40993775851E+02  0.22076451517E+02 -0.50445918484E+01  0.46832758589E+02  0.00000000000E+00 0.  1.
         11    1    3    3    0    0 -0.21824155812E+02 -0.35526457882E+02  0.29117508505E+02  0.50855209056E+02  0.00000000000E+00 0. -1.
        -11    1    4    4    0    0 -0.44585623420E+02  0.37385592971E+02  0.13384007459E+02  0.59705041941E+02  0.00000000000E+00 0.  1.
         11    1    4    4    0    0  0.96424345047E+01 -0.37133797730E+02 -0.10365251814E+02  0.39740834442E+02  0.00000000000E+00 0. -1.
         21    1    1    2  502  501  0.15773568876E+02  0.13198211125E+02  0.40303972687E+01  0.20958109508E+02  0.00000000000E+00 0. -1.
<scales pt_clust_5="13000.00000" pt_clust_6="13000.00000" pt_clust_7="13000.00000" pt_clust_8="13000.00000" pt_clust_9="20.56692"></scales>
<clustering>
<clus scale="   20.567">  1  9  2 -1</clus>
<clus scale="   91.734">  5  6 -1 -1</clus>
<clus scale="   93.055">  7  8 -1 -1</clus>
<clus scale="   96.040">  1  5  2 -1</clus>
<clus scale="   97.304">  2  5  1 -1</clus>
</clustering>
</event>
<event>
 9    1  0.1175034E-005  0.9886494E+02  0.7546771E-02  0.1282824E+00
          1   -1    0    0  502    0  0.00000000000E+00  0.00000000000E+00  0.96354172820E+02  0.96354172820E+02  0.00000000000E+00 0. -1.
         -1   -1    0    0    0  501 -0.00000000000E+00 -0.00000000000E+00 -0.24533782011E+03  0.24533782011E+03  0.00000000000E+00 0.  1.
         23    2    1    2    0    0 -0.43940486315E+02  0.23678558845E+02 -0.16793172261E+03  0.19828191480E+03  0.92861260972E+02 0.  0.
         23    2    1    2    0    0  0.30682360985E+02 -0.34310405439E+01  0.44939138526E+02  0.10789564091E+03  0.93106196579E+02 0.  0.
        -11    1    3    3    0    0 -0.40364176918E+02 -0.25387912199E+02 -0.43764265791E+02  0.64723441073E+02  0.00000000000E+00 0.  1.
         11    1    3    3    0    0 -0.35763093966E+01  0.49066471045E+02 -0.12416745682E+03  0.13355847373E+03  0.00000000000E+00 0. -1.
        -11    1    4    4    0    0 -0.10863309179E+02  0.37903682938E+02  0.16286745415E+02  0.42660974471E+02  0.00000000000E+00 0.  1.
         11    1    4    4    0    0  0.41545670163E+02 -0.41334723482E+02  0.28652393111E+02  0.65234666441E+02  0.00000000000E+00 0. -1.
         21    1    1    2  502  501  0.13258125331E+02 -0.20247518301E+02 -0.25991063200E+02  0.35514437218E+02  0.00000000000E+00 0. -1.
<scales pt_clust_5="13000.00000" pt_clust_6="13000.00000" pt_clust_7="13000.00000" pt_clust_8="13000.00000" pt_clust_9="24.20206"></scales>
<clustering>
<clus scale="   24.202">  2  9  1 -1</clus>
<clus scale="   92.861">  5  6 -1 -1</clus>
<clus scale="   93.106">  7  8 -1 -1</clus>
<clus scale="   98.634">  2  5  1 -1</clus>
<clus scale="   98.865">  1  5  2 -1</clus>
</clustering>
</event>
<event>
 9    1  0.1175034E-005  0.1271247E+03  0.7546771E-02  0.1231794E+00
         -1   -1    0    0    0  501 -0.00000000000E+00  0.00000000000E+00  0.70151371917E+02  0.70151371917E+02  0.00000000000E+00 0.  1.
          1   -1    0    0  502    0  0.00000000000E+00 -0.00000000000E+00 -0.73695745539E+03  0.73695745539E+03  0.00000000000E+00 0. -1.
         23    2    1    2    0    0  0.77872950658E+02  0.32280802648E+02 -0.16539491066E+02  0.12433567483E+03  0.89886364964E+02 0.  0.
         23    2    1    2    0    0 -0.12097902045E+03 -0.25155082462E+02 -0.39013194630E+03  0.41899494404E+03  0.89917328961E+02 0.  0.
        -13    1    4    4    0    0 -0.59741568483E+02 -0.54023327934E+02 -0.16028282701E+03  0.17938271823E+03  0.00000000000E+00 0.  1.
         13    1    4    4    0    0 -0.61237451963E+02  0.28868245471E+02 -0.22984911929E+03  0.23961222581E+03  0.00000000000E+00 0. -1.
        -13    1    3    3    0    0  0.48258593989E+02  0.50076972552E+02 -0.42156165647E+02  0.81324887801E+02  0.00000000000E+00 0. -1.
         13    1    3    3    0    0  0.29614356669E+02 -0.17796169903E+02  0.25616674581E+02  0.43010787027E+02  0.00000000000E+00 0.  1.
         21    1    1    2  502  501  0.43106069788E+02 -0.71257201859E+01 -0.26013464611E+03  0.26377820844E+03  0.00000000000E+00 0. -1.
<scales pt_clust_5="13000.00000" pt_clust_6="13000.00000" pt_clust_7="13000.00000" pt_clust_8="13000.00000" pt_clust_9="43.69106"></scales>
<clustering>
<clus scale="   43.691">  2  9  1 -1</clus>
<clus scale="   89.886">  7  8 -1 -1</clus>
<clus scale="   89.917">  5  6 -1 -1</clus>
<clus scale="  127.103">  1  7  2 -1</clus>
<clus scale="   43.691">  2  5  1 -1</clus>
</clustering>
</event>
<event>
 9    1  0.1175034E-005  0.1150834E+03  0.7546771E-02  0.1254898E+00
          1   -1    0    0  502    0  0.00000000000E+00  0.00000000000E+00  0.49381828307E+02  0.49381828307E+02  0.00000000000E+00 0. -1.
         -1   -1    0    0    0  501 -0.00000000000E+00 -0.00000000000E+00 -0.50949940456E+03  0.50949940456E+03  0.00000000000E+00 0.  1.
         23    2    1    2    0    0 -0.12290252963E+02 -0.18412698561E+02 -0.32376259728E+03  0.33953829599E+03  0.99869701428E+02 0.  0.
         23    2    1    2    0    0  0.56146412734E+02  0.37142029705E+02 -0.56842852450E+02  0.12662654750E+03  0.90946262279E+02 0.  0.
        -11    1    4    4    0    0  0.65176070101E+02 -0.37055502771E+01 -0.53956640392E+02  0.84693389701E+02  0.00000000000E+00 0.  1.
         11    1    4    4    0    0 -0.90296573669E+01  0.40847579982E+02 -0.28862120578E+01  0.41933157795E+02  0.00000000000E+00 0. -1.
        -13    1    3    3    0    0  0.39929896831E+02 -0.23947823221E+01 -0.20431881417E+03  0.20819776528E+03  0.00000000000E+00 0.  1.
         13    1    3    3    0    0 -0.52220149793E+02 -0.16017916239E+02 -0.11944378311E+03  0.13134053071E+03  0.00000000000E+00 0. -1.
         21    1    1    2  502  501 -0.43856159772E+02 -0.18729331144E+02 -0.79512126527E+02  0.92716389381E+02  0.00000000000E+00 0. -1.
<scales pt_clust_5="13000.00000" pt_clust_6="13000.00000" pt_clust_7="13000.00000" pt_clust_8="13000.00000" pt_clust_9="47.68806"></scales>
<clustering>
<clus scale="   47.688">  2  9  1 -1</clus>
<clus scale="   90.946">  5  6 -1 -1</clus>
<clus scale="   99.870">  7  8 -1 -1</clus>
<clus scale="  107.431">  1  5  2 -1</clus>
<clus scale="  107.431">  1  5  2 -1</clus>
</clustering>
</event>
<event>
 9    1  0.1175034E-005  0.9662491E+02  0.7546771E-02  0.1306126E+00
         -1   -1    0    0    0  501 -0.00000000000E+00  0.00000000000E+00  0.60272118715E+02  0.60272118715E+02  0.00000000000E+00 0.  1.
          1   -1    0    0  502    0  0.00000000000E+00 -0.00000000000E+00 -0.32055925363E+03  0.32055925363E+03  0.00000000000E+00 0. -1.
         23    2    1    2    0    0 -0.78392818705E+01  0.56828403034E+00 -0.79192826303E+02  0.10308040013E+03  0.65515554378E+02 0.  0.
         23    2    1    2    0    0 -0.54409081343E+02 -0.34668552931E+01 -0.18556456865E+03  0.21527502754E+03  0.94534444138E+02 0.  0.
        -11    1    4    4    0    0 -0.11062109711E+01  0.22742697320E+02 -0.13605997356E+03  0.13795205830E+03  0.00000000000E+00 0.  1.
         11    1    4    4    0    0 -0.53302870372E+02 -0.26209552613E+02 -0.49504595091E+02  0.77322969247E+02  0.00000000000E+00 0. -1.
        -13    1    3    3    0    0 -0.30318303787E+01 -0.29217182724E+02 -0.16957609618E+02  0.33917492327E+02  0.00000000000E+00 0.  1.
         13    1    3    3    0    0 -0.48074514918E+01  0.29785466754E+02 -0.62235216685E+02  0.69162907800E+02  0.00000000000E+00 0. -1.
         21    1    1    2  502  501  0.62248363213E+02  0.28985712628E+01  0.44702600368E+01  0.62475944674E+02  0.00000000000E+00 0.  1.
<scales pt_clust_5="13000.00000" pt_clust_6="13000.00000" pt_clust_7="13000.00000" pt_clust_8="13000.00000" pt_clust_9="62.31581"></scales>
<clustering>
<clus scale="   62.316">  1  9  2 -1</clus>
<clus scale="   65.516">  7  8 -1 -1</clus>
<clus scale="   68.497">  1  7  2 -1</clus>
<clus scale="   94.534">  5  6 -1 -1</clus>
<clus scale="   96.625">  2  5  1 -1</clus>
</clustering>
</event>
<event>
 9    1  0.1175034E-005  0.9600538E+02  0.7546771E-02  0.1289041E+00
         -2   -1    0    0    0  501 -0.00000000000E+00  0.00000000000E+00  0.79941006312E+02  0.79941006312E+02  0.00000000000E+00 0.  1.
          2   -1    0    0  502    0  0.00000000000E+00 -0.00000000000E+00 -0.32427678322E+03  0.32427678322E+03  0.00000000000E+00 0. -1.
         23    2    1    2    0    0  0.12937387880E+02 -0.25837593557E+02  0.66174615934E+01  0.96962599205E+02  0.92320082326E+02 0.  0.
         23    2    1    2    0    0  0.53597848940E+02  0.27986513780E+02 -0.14476318721E+03  0.18192409846E+03  0.92108755628E+02 0.  0.
        -13    1    3    3    0    0  0.46496443957E+02 -0.10266635496E+02 -0.19731841127E+02  0.51542881752E+02  0.00000000000E+00 0.  1.
         13    1    3    3    0    0 -0.33559056077E+02 -0.15570958060E+02  0.26349302720E+02  0.45419717453E+02  0.00000000000E+00 0. -1.
        -13    1    4    4    0    0  0.32585862545E+02  0.55532867239E+02 -0.51551668421E+02  0.82482193827E+02  0.00000000000E+00 0.  1.
         13    1    4    4    0    0  0.21011986395E+02 -0.27546353459E+02 -0.93211518794E+02  0.99441904633E+02  0.00000000000E+00 0. -1.
         21    1    1    2  502  501 -0.66535236819E+02 -0.21489202232E+01 -0.10619005129E+03  0.12533109187E+03  0.00000000000E+00 0. -1.
<scales pt_clust_5="13000.00000" pt_clust_6="13000.00000" pt_clust_7="13000.00000" pt_clust_8="13000.00000" pt_clust_9="66.56993"></scales>
<clustering>
<clus scale="   66.570">  2  9  1 -1</clus>
<clus scale="   92.109">  7  8 -1 -1</clus>
<clus scale="   92.320">  5  6 -1 -1</clus>
<clus scale="   95.802">  2  7  1 -1</clus>
<clus scale="   66.570">  2  5  1 -1</clus>
</clustering>
</event>
<event>
 9    1  0.1175034E-005  0.1795422E+03  0.7546771E-02  0.1168313E+00
          1   -1    0    0  502    0  0.00000000000E+00  0.00000000000E+00  0.15627113373E+03  0.15627113373E+03  0.00000000000E+00 0. -1.
         -1   -1    0    0    0  501 -0.00000000000E+00 -0.00000000000E+00 -0.23200018314E+03  0.23200018314E+03  0.00000000000E+00 0.  1.
         23    2    1    2    0    0 -0.14371477931E+03  0.67759116215E+02 -0.40696569364E+02  0.18731551176E+03  0.90474607300E+02 0.  0.
         23    2    1    2    0    0  0.14395713560E+03 -0.47571588446E+02 -0.25613686501E+02  0.17867781852E+03  0.91010927795E+02 0.  0.
        -11    1    3    3    0    0 -0.85453485440E+02  0.27261029898E+02 -0.66666529719E+02  0.11175816798E+03  0.00000000000E+00 0.  1.
         11    1    3    3    0    0 -0.58261293875E+02  0.40498086317E+02  0.25969960355E+02  0.75557343787E+02  0.00000000000E+00 0. -1.
        -13    1    4    4    0    0  0.10235446124E+03 -0.65823038724E+02 -0.44368492812E+02  0.12952865057E+03  0.00000000000E+00 0. -1.
         13    1    4    4    0    0  0.41602674356E+02  0.18251450278E+02  0.18754806311E+02  0.49149167954E+02  0.00000000000E+00 0.  1.
         21    1    1    2  502  501 -0.24235628597E+00 -0.20187527769E+02 -0.94187935451E+01  0.22277986575E+02  0.00000000000E+00 0. -1.
<scales pt_clust_5="13000.00000" pt_clust_6="13000.00000" pt_clust_7="13000.00000" pt_clust_8="13000.00000" pt_clust_9="20.18898"></scales>
<clustering>
<clus scale="   20.189">  2  9  1 -1</clus>
<clus scale="   90.475">  5  6 -1 -1</clus>
<clus scale="   91.011">  7  8 -1 -1</clus>
<clus scale="  179.271">  2  5  1 -1</clus>
<clus scale="  179.542">  1  5  2 -1</clus>
</clustering>
</event>
<event>
 9    1  0.1175034E-005  0.9827941E+02  0.7546771E-02  0.1287403E+00
         -2   -1    0    0    0  501 -0.00000000000E+00  0.00000000000E+00  0.52208390753E+02  0.52208390753E+02  0.00000000000E+00 0.  1.
          2   -1    0    0  502    0  0.00000000000E+00 -0.00000000000E+00 -0.39521150962E+03  0.39521150962E+03  0.00000000000E+00 0. -1.
         23    2    1    2    0    0  0.33496199066E+02 -0.18454549901E+02 -0.55380455263E+02  0.11401853939E+03  0.92036225127E+02 0.  0.
         23    2    1    2    0    0 -0.27823005580E+00  0.37688210943E+02 -0.27880573944E+03  0.29401728636E+03  0.85399330654E+02 0.  0.
        -11    1    3    3    0    0 -0.93868682210E+01 -0.44615918274E+02 -0.42105221400E+02  0.62060801861E+02  0.00000000000E+00 0. -1.
         11    1    3    3    0    0  0.42883067287E+02  0.26161368374E+02 -0.13275233863E+02  0.51957737530E+02  0.00000000000E+00 0.  1.
        -13    1    4    4    0    0  0.25824065032E+02  0.53302941272E+02 -0.21970864861E+03  0.22755213943E+03  0.00000000000E+00 0.  1.
         13    1    4    4    0    0 -0.26102295088E+02 -0.15614730329E+02 -0.59097090828E+02  0.66465146930E+02  0.00000000000E+00 0. -1.
         21    1    1    2  502  501 -0.33217969010E+02 -0.19233661042E+02 -0.88169241615E+01  0.39384074623E+02  0.00000000000E+00 0. -1.
<scales pt_clust_5="13000.00000" pt_clust_6="13000.00000" pt_clust_7="13000.00000" pt_clust_8="13000.00000" pt_clust_9="38.38447"></scales>
<clustering>
<clus scale="   38.384">  1  9  2 -1</clus>
<clus scale="   85.399">  7  8 -1 -1</clus>
<clus scale="   92.036">  5  6 -1 -1</clus>
<clus scale="   92.094">  2  7  1 -1</clus>
<clus scale="   92.094">  2  5  1 -1</clus>
</clustering>
</event>
<event>
 9    1  0.1175034E-005  0.1039708E+03  0.7546771E-02  0.1273481E+00
         -3   -1    0    0    0  501 -0.00000000000E+00  0.00000000000E+00  0.37552622119E+03  0.37552622119E+03  0.00000000000E+00 0.  1.
          3   -1    0    0  502    0  0.00000000000E+00 -0.00000000000E+00 -0.65169850627E+02  0.65169850627E+02  0.00000000000E+00 0. -1.
         23    2    1    2    0    0 -0.15316316084E+02  0.61104179295E+00  0.97484054126E+02  0.13510624880E+03  0.92279980203E+02 0.  0.
         23    2    1    2    0    0  0.58096925456E+02  0.27761529068E+01  0.26869054656E+02  0.11470015064E+03  0.95137893009E+02 0.  0.
        -11    1    4    4    0    0  0.47652267274E+02 -0.30938022458E+02 -0.16140116525E+02  0.59062705419E+02  0.00000000000E+00 0. -1.
         11    1    4    4    0    0  0.10444658182E+02  0.33714175364E+02  0.43009171181E+02  0.55637445221E+02  0.00000000000E+00 0.  1.
        -11    1    3    3    0    0  0.27718784124E+02  0.18278660063E+02  0.78490647374E+01  0.34118150950E+02  0.00000000000E+00 0. -1.
         11    1    3    3    0    0 -0.43035100208E+02 -0.17667618270E+02  0.89634989389E+02  0.10098809785E+03  0.00000000000E+00 0.  1.
         21    1    1    2  502  501 -0.42780609372E+02 -0.33871946997E+01  0.18600326178E+03  0.19088967237E+03  0.00000000000E+00 0. -1.
<scales pt_clust_5="13000.00000" pt_clust_6="13000.00000" pt_clust_7="13000.00000" pt_clust_8="13000.00000" pt_clust_9="42.91449"></scales>
<clustering>
<clus scale="   42.914">  1  9  2 -1</clus>
<clus scale="   92.280">  7  8 -1 -1</clus>
<clus scale="   95.138">  5  6 -1 -1</clus>
<clus scale="  101.362">  1  7  2 -1</clus>
<clus scale="  103.971">  2  5  1 -1</clus>
</clustering>
</event>
<event>
 9    1  0.1175034E-005  0.1394581E+03  0.7546771E-02  0.1214074E+00
         -2   -1    0    0    0  501 -0.00000000000E+00  0.00000000000E+00  0.74160268161E+03  0.74160268161E+03  0.00000000000E+00 0.  1.
          2   -1    0    0  502    0  0.00000000000E+00 -0.00000000000E+00 -0.40488965773E+02  0.40488965773E+02  0.00000000000E+00 0. -1.
         23    2    1    2    0    0  0.14757203292E+02 -0.83917396608E+02  0.35575007751E+03  0.37689502713E+03  0.90729484311E+02 0.  0.
         23    2    1    2    0    0  0.25650579001E+02  0.11897460208E+03  0.20561580729E+03  0.25555954997E+03  0.90663748134E+02 0.  0.
        -11    1    3    3    0    0 -0.35353006800E+02 -0.43106265848E+02  0.11781519627E+03  0.13033957847E+03  0.00000000000E+00 0. -1.
         11    1    3    3    0    0  0.50110210092E+02 -0.40811130760E+02  0.23793488125E+03  0.24655544866E+03  0.00000000000E+00 0.  1.
        -13    1    4    4    0    0  0.53146029358E+01  0.11645626964E+03  0.20405613543E+03  0.23500896610E+03  0.00000000000E+00 0.  1.
         13    1    4    4    0    0  0.20335976065E+02  0.25183324483E+01  0.15596718645E+01  0.20550583864E+02  0.00000000000E+00 0. -1.
         21    1    1    2  502  501 -0.40407782293E+02 -0.35057205476E+02  0.13974783103E+03  0.14963707028E+03  0.00000000000E+00 0. -1.
<scales pt_clust_5="13000.00000" pt_clust_6="13000.00000" pt_clust_7="13000.00000" pt_clust_8="13000.00000" pt_clust_9="53.49576"></scales>
<clustering>
<clus scale="   53.496">  1  9  2 -1</clus>
<clus scale="   90.664">  7  8 -1 -1</clus>
<clus scale="   90.729">  5  6 -1 -1</clus>
<clus scale="  139.415">  2  7  1 -1</clus>
<clus scale="  139.415">  2  5  1 -1</clus>
</clustering>
</event>
<event>
 9    1  0.1175034E-005  0.1774183E+03  0.7546771E-02  0.1170506E+00
         -1   -1    0    0    0  501 -0.00000000000E+00  0.00000000000E+00  0.11022398795E+03  0.11022398795E+03  0.00000000000E+00 0.  1.
          1   -1    0    0  502    0  0.00000000000E+00 -0.00000000000E+00 -0.34739594451E+03  0.34739594451E+03  0.00000000000E+00 0. -1.
         23    2    1    2    0    0  0.10906566590E+03 -0.10463148812E+03 -0.64343359434E+02  0.18584487235E+03  0.86920543537E+02 0.  0.
         23    2    1    2    0    0 -0.12694901283E+03  0.90875693112E+02 -0.17297031550E+03  0.24921278901E+03  0.88395931495E+02 0.  0.
        -11    1    3    3    0    0  0.36280456413E+01 -0.57404675779E+02 -0.32229903625E+02  0.65933498346E+02  0.00000000000E+00 0. -1.
         11    1    3    3    0    0  0.10543762026E+03 -0.47226812341E+02 -0.32113455809E+02  0.11991137400E+03  0.00000000000E+00 0.  1.
        -13    1    4    4    0    0 -0.76559870082E+02  0.22428863729E+02 -0.34897053972E+02  0.87076242518E+02  0.00000000000E+00 0.  1.
         13    1    4    4    0    0 -0.50389142747E+02  0.68446829383E+02 -0.13807326153E+03  0.16213654649E+03  0.00000000000E+00 0. -1.
         21    1    1    2  502  501  0.17883346924E+02  0.13755795008E+02  0.14171837445E+00  0.22562271110E+02  0.00000000000E+00 0. -1.
<scales pt_clust_5="13000.00000" pt_clust_6="13000.00000" pt_clust_7="13000.00000" pt_clust_8="13000.00000" pt_clust_9="22.56183"></scales>
<clustering>
<clus scale="   22.562">  1  9  2 -1</clus>
<clus scale="   86.921">  5  6 -1 -1</clus>
<clus scale="   88.396">  7  8 -1 -1</clus>
<clus scale="  176.688">  1  5  2 -1</clus>
<clus scale="  177.418">  2  5  1 -1</clus>
</clustering>
</event>
<event>
 9    1  0.1175034E-005  0.9654217E+02  0.7546771E-02  0.1288908E+00
         -1   -1    0    0    0  501 -0.00000000000E+00  0.00000000000E+00  0.15972756468E+03  0.15972756468E+03  0.00000000000E+00 0.  1.
          1   -1    0    0  502    0  0.00000000000E+00 -0.00000000000E+00 -0.20635822133E+03  0.20635822133E+03  0.00000000000E+00 0. -1.
         23    2    1    2    0    0  0.11710270956E+02  0.13781832502E+01 -0.24587214253E+02  0.97079648364E+02  0.93171332430E+02 0.  0.
         23    2    1    2    0    0  0.39257445333E+02 -0.17554053719E+02 -0.12047619371E+03  0.15698661515E+03  0.90999957533E+02 0.  0.
        -11    1    4    4    0    0  0.15551406662E+00 -0.49897899299E+02 -0.60578925532E+02  0.78483315155E+02  0.00000000000E+00 0. -1.
         11    1    4    4    0    0  0.39101931266E+02  0.32343845581E+02 -0.59897268177E+02  0.78503299999E+02  0.00000000000E+00 0.  1.
        -11    1    3    3    0    0  0.17455795927E+02 -0.43166277170E+02 -0.15153903565E+01  0.46586786797E+02  0.00000000000E+00 0. -1.
         11    1    3    3    0    0 -0.57455249710E+01  0.44544460420E+02 -0.23071823896E+02  0.50492861567E+02  0.00000000000E+00 0.  1.
         21    1    1    2  502  501 -0.50967716289E+02  0.16175870469E+02  0.98432751312E+02  0.11201952249E+03  0.00000000000E+00 0.  1.
<scales pt_clust_5="13000.00000" pt_clust_6="13000.00000" pt_clust_7="13000.00000" pt_clust_8="13000.00000" pt_clust_9="53.47305"></scales>
<clustering>
<clus scale="   53.473">  1  9  2 -1</clus>
<clus scale="   91.000">  5  6 -1 -1</clus>
<clus scale="   93.171">  7  8 -1 -1</clus>
<clus scale="   94.448">  2  5  1 -1</clus>
<clus scale="   94.448">  2  5  1 -1</clus>
</clustering>
</event>
<event>
 9    1  0.1175034E-005  0.1399031E+03  0.7546771E-02  0.1214304E+00
          1   -1    0    0  502    0  0.00000000000E+00  0.00000000000E+00  0.23382644963E+03  0.23382644963E+03  0.00000000000E+00 0. -1.
         -1   -1    0    0    0  501 -0.00000000000E+00 -0.00000000000E+00 -0.16752757725E+03  0.16752757725E+03  0.00000000000E+00 0.  1.
         23    2    1    2    0    0  0.87965279482E+02  0.46661831039E+01 -0.57834366872E+01  0.12231436255E+03  0.84662219949E+02 0.  0.
         23    2    1    2    0    0 -0.11079105418E+03 -0.48759892490E+02  0.13297008600E+03  0.20047381565E+03  0.88637024928E+02 0.  0.
        -11    1    3    3    0    0  0.87639932360E+02 -0.19306969835E+02 -0.23186821816E+02  0.92688432580E+02  0.00000000000E+00 0.  1.
         11    1    3    3    0    0  0.32534712233E+00  0.23973152939E+02  0.17403385128E+02  0.29625929969E+02  0.00000000000E+00 0. -1.
        -13    1    4    4    0    0 -0.85816364160E+02 -0.25632001656E-01  0.11363724815E+03  0.14240039741E+03  0.00000000000E+00 0. -1.
         13    1    4    4    0    0 -0.24974690019E+02 -0.48734260488E+02  0.19332837851E+02  0.58073418241E+02  0.00000000000E+00 0.  1.
         21    1    1    2  502  501  0.22825774696E+02  0.44093709386E+02 -0.60887776937E+02  0.78565848676E+02  0.00000000000E+00 0.  1.
<scales pt_clust_5="13000.00000" pt_clust_6="13000.00000" pt_clust_7="13000.00000" pt_clust_8="13000.00000" pt_clust_9="49.65150"></scales>
<clustering>
<clus scale="   49.651">  2  9  1 -1</clus>
<clus scale="   84.662">  5  6 -1 -1</clus>
<clus scale="   88.637">  7  8 -1 -1</clus>
<clus scale="  137.419">  2  5  1 -1</clus>
<clus scale="  139.903">  1  5  2 -1</clus>
</clustering>
</event>
<event>
 9    1  0.1175034E-005  0.1244910E+03  0.7546771E-02  0.1236671E+00
         -1   -1    0    0    0  501 -0.00000000000E+00  0.00000000000E+00  0.14237929137E+03  0.14237929137E+03  0.00000000000E+00 0.  1.
          1   -1    0    0  502    0  0.00000000000E+00 -0.00000000000E+00 -0.16620738602E+03  0.16620738602E+03  0.00000000000E+00 0. -1.
         23    2    1    2    0    0 -0.64272689334E+02 -0.10774672123E+02  0.10138045802E+02  0.11252022217E+03  0.91164402433E+02 0.  0.
         23    2    1    2    0    0  0.93253332016E+02 -0.40148101177E+01 -0.68135724324E+02  0.14888418210E+03  0.93870762846E+02 0.  0.
        -11    1    3    3    0    0 -0.46692686101E+02  0.25346518024E+02 -0.25397023605E+02  0.58886855233E+02  0.00000000000E+00 0.  1.
         11    1    3    3    0    0 -0.17580003233E+02 -0.36121190147E+02  0.35535069406E+02  0.53633366938E+02  0.00000000000E+00 0. -1.
        -13    1    4    4    0    0  0.19126268877E+02  0.22862987592E+02  0.15787234423E+02  0.33730803927E+02  0.00000000000E+00 0.  1.
         13    1    4    4    0    0  0.74127063139E+02 -0.26877797710E+02 -0.83922958747E+02  0.11515337817E+03  0.00000000000E+00 0. -1.
         21    1    1    2  502  501 -0.28980642682E+02  0.14789482241E+02  0.34169583875E+02  0.47182273127E+02  0.00000000000E+00 0. -1.
<scales pt_clust_5="13000.00000" pt_clust_6="13000.00000" pt_clust_7="13000.00000" pt_clust_8="13000.00000" pt_clust_9="32.53623"></scales>
<clustering>
<clus scale="   32.536">  1  9  2 -1</clus>
<clus scale="   91.164">  5  6 -1 -1</clus>
<clus scale="   93.871">  7  8 -1 -1</clus>
<clus scale="  122.463">  1  5  2 -1</clus>
<clus scale="  124.491">  2  5  1 -1</clus>
</clustering>
</event>
<event>
 9    1  0.1175034E-005  0.2630684E+03  0.7546771E-02  0.1105483E+00
         -2   -1    0    0    0  501 -0.00000000000E+00  0.00000000000E+00  0.69757053058E+02  0.69757053058E+02  0.00000000000E+00 0.  1.
          2   -1    0    0  502    0  0.00000000000E+00 -0.00000000000E+00 -0.12828377870E+04  0.12828377870E+04  0.00000000000E+00 0. -1.
         23    2    1    2    0    0  0.66512921129E+02 -0.27295566074E+03 -0.57408759055E+03  0.64558375873E+03  0.90956398956E+02 0.  0.
         23    2    1    2    0    0 -0.37801030232E+02  0.21642731302E+03 -0.51321203203E+03  0.56615400927E+03  0.94202296558E+02 0.  0.
        -11    1    4    4    0    0 -0.49319313491E+02  0.75646917498E+02 -0.27233354547E+03  0.28691533734E+03  0.00000000000E+00 0. -1.
         11    1    4    4    0    0  0.11518283259E+02  0.14078039552E+03 -0.24087848656E+03  0.27923867193E+03  0.00000000000E+00 0.  1.
        -11    1    3    3    0    0  0.52810786343E+02 -0.56760571875E+02 -0.12734127314E+03  0.14908568515E+03  0.00000000000E+00 0.  1.
         11    1    3    3    0    0  0.13702134787E+02 -0.21619508886E+03 -0.44674631741E+03  0.49649807358E+03  0.00000000000E+00 0. -1.
         21    1    1    2  502  501 -0.28711890897E+02  0.56528347720E+02 -0.12578111138E+03  0.14085707208E+03  0.00000000000E+00 0. -1.
<scales pt_clust_5="13000.00000" pt_clust_6="13000.00000" pt_clust_7="13000.00000" pt_clust_8="13000.00000" pt_clust_9="63.40210"></scales>
<clustering>
<clus scale="   63.402">  1  9  2 -1</clus>
<clus scale="   90.956">  7  8 -1 -1</clus>
<clus scale="   94.202">  5  6 -1 -1</clus>
<clus scale="  261.924">  1  7  2 -1</clus>
<clus scale="  263.068">  2  5  1 -1</clus>
</clustering>
</event>
<event>
 9    1  0.1175034E-005  0.2995777E+03  0.7546771E-02  0.1086731E+00
         -2   -1    0    0    0  501 -0.00000000000E+00  0.00000000000E+00  0.13885054772E+03  0.13885054772E+03  0.00000000000E+00 0. -1.
          2   -1    0    0  502    0  0.00000000000E+00 -0.00000000000E+00 -0.21831617463E+04  0.21831617463E+04  0.00000000000E+00 0.  1.
         23    2    1    2    0    0  0.74786188213E+02 -0.33466318348E+03 -0.93581774245E+03  0.10010822785E+04  0.93906660524E+02 0.  0.
         23    2    1    2    0    0  0.19656898731E+03  0.20772559844E+03 -0.91762680353E+03  0.96571619141E+03  0.93699096946E+02 0.  0.
        -11    1    4    4    0    0  0.17714801509E+03  0.19214224739E+03 -0.89390590016E+03  0.93132584031E+03  0.00000000000E+00 0.  1.
         11    1    4    4    0    0  0.19420972222E+02  0.15583351053E+02 -0.23720903368E+02  0.34390351098E+02  0.00000000000E+00 0. -1.
        -11    1    3    3    0    0  0.94700972247E+02 -0.23634678568E+03 -0.69716515501E+03  0.74220437254E+03  0.00000000000E+00 0.  1.
         11    1    3    3    0    0 -0.19914784034E+02 -0.98316397796E+02 -0.23865258744E+03  0.25887790595E+03  0.00000000000E+00 0. -1.
         21    1    1    2  502  501 -0.27135517553E+03  0.12693758504E+03 -0.19086665262E+03  0.35521382414E+03  0.00000000000E+00 0. -1.
<scales pt_clust_5="13000.00000" pt_clust_6="13000.00000" pt_clust_7="13000.00000" pt_clust_8="13000.00000" pt_clust_9="299.57767"></scales>
<clustering>
<clus scale="   93.699">  5  6 -1 -1</clus>
<clus scale="   93.907">  7  8 -1 -1</clus>
<clus scale="  299.578">  1  9  2 -1</clus>
<clus scale="  289.545">  2  5  1 -1</clus>
<clus scale="  289.545">  2  5  1 -1</clus>
</clustering>
</event>
<event>
 9    1  0.1175034E-005  0.1282594E+03  0.7546771E-02  0.1230136E+00
          1   -1    0    0  502    0  0.00000000000E+00  0.00000000000E+00  0.22481375340E+03  0.22481375340E+03  0.00000000000E+00 0. -1.
         -1   -1    0    0    0  501 -0.00000000000E+00 -0.00000000000E+00 -0.19576576207E+03  0.19576576207E+03  0.00000000000E+00 0.  1.
         23    2    1    2    0    0  0.35885461693E+02  0.73441094874E+02 -0.10233654010E+03  0.15952867668E+03  0.91078375409E+02 0.  0.
         23    2    1    2    0    0 -0.60754362896E+02 -0.68861744124E+02  0.17071379069E+03  0.21429377158E+03  0.91354199636E+02 0.  0.
        -11    1    3    3    0    0  0.72810608336E+01  0.80602737742E+02 -0.10178206473E+03  0.13003616374E+03  0.00000000000E+00 0.  1.
         11    1    3    3    0    0  0.28604400859E+02 -0.71616428676E+01 -0.55447537266E+00  0.29492512948E+02  0.00000000000E+00 0. -1.
        -13    1    4    4    0    0  0.23758354949E+02 -0.21658330150E+02  0.51735198240E+02  0.60910372120E+02  0.00000000000E+00 0.  1.
         13    1    4    4    0    0 -0.84512717845E+02 -0.47203413974E+02  0.11897859245E+03  0.15338339946E+03  0.00000000000E+00 0. -1.
         21    1    1    2  502  501  0.24868901203E+02 -0.45793507498E+01 -0.39329259255E+02  0.46757067208E+02  0.00000000000E+00 0.  1.
<scales pt_clust_5="13000.00000" pt_clust_6="13000.00000" pt_clust_7="13000.00000" pt_clust_8="13000.00000" pt_clust_9="25.28701"></scales>
<clustering>
<clus scale="   25.287">  2  9  1 -1</clus>
<clus scale="   91.078">  5  6 -1 -1</clus>
<clus scale="   91.354">  7  8 -1 -1</clus>
<clus scale="  128.063">  2  5  1 -1</clus>
<clus scale="  128.259">  1  5  2 -1</clus>
</clustering>
</event>
<event>
 9    1  0.1175034E-005  0.1707084E+03  0.7546771E-02  0.1177581E+00
         -3   -1    0    0    0  501 -0.00000000000E+00  0.00000000000E+00  0.25379139574E+03  0.25379139574E+03  0.00000000000E+00 0.  1.
          3   -1    0    0  502    0  0.00000000000E+00 -0.00000000000E+00 -0.26854772690E+03  0.26854772690E+03  0.00000000000E+00 0. -1.
         23    2    1    2    0    0 -0.94980824347E+02  0.82958489681E+02  0.15121872820E+03  0.21866922623E+03  0.95108668063E+02 0.  0.
         23    2    1    2    0    0  0.83515446354E+02 -0.11863532249E+03 -0.19235333420E+03  0.25784299736E+03  0.91837011013E+02 0.  0.
        -11    1    3    3    0    0 -0.97665597368E+02  0.54623754129E+02  0.15367606110E+03  0.19010169694E+03  0.00000000000E+00 0.  1.
         11    1    3    3    0    0  0.26847730215E+01  0.28334735552E+02 -0.24573329031E+01  0.28567529294E+02  0.00000000000E+00 0. -1.
        -13    1    4    4    0    0  0.93472748900E+02 -0.57456263921E+02 -0.12216548964E+03  0.16420348324E+03  0.00000000000E+00 0. -1.
         13    1    4    4    0    0 -0.99573025454E+01 -0.61179058568E+02 -0.70187844560E+02  0.93639514123E+02  0.00000000000E+00 0.  1.
         21    1    1    2  502  501  0.11465377992E+02  0.35676832807E+02  0.26378274849E+02  0.45826899040E+02  0.00000000000E+00 0. -1.
<scales pt_clust_5="13000.00000" pt_clust_6="13000.00000" pt_clust_7="13000.00000" pt_clust_8="13000.00000" pt_clust_9="37.47387"></scales>
<clustering>
<clus scale="   37.474">  1  9  2 -1</clus>
<clus scale="   91.837">  7  8 -1 -1</clus>
<clus scale="   95.109">  5  6 -1 -1</clus>
<clus scale="  168.907">  2  7  1 -1</clus>
<clus scale="  168.907">  2  5  1 -1</clus>
</clustering>
</event>
<event>
 9    1  0.1175034E-005  0.9461636E+02  0.7546771E-02  0.1298732E+00
          1   -1    0    0  502    0  0.00000000000E+00  0.00000000000E+00  0.43625487164E+03  0.43625487164E+03  0.00000000000E+00 0. -1.
         -1   -1    0    0    0  501 -0.00000000000E+00 -0.00000000000E+00 -0.28294221370E+02  0.28294221370E+02  0.00000000000E+00 0.  1.
         23    2    1    2    0    0  0.28203335792E+02 -0.88058816335E+01  0.15640851464E+03  0.17873097022E+03  0.81290617942E+02 0.  0.
         23    2    1    2    0    0  0.78224212640E+01  0.24024867728E+02  0.19034738118E+03  0.21318552213E+03  0.92615100189E+02 0.  0.
        -11    1    4    4    0    0 -0.30415525856E+02 -0.19394564496E+02  0.52600390608E+02  0.63781301627E+02  0.00000000000E+00 0. -1.
         11    1    4    4    0    0  0.38237947120E+02  0.43419432224E+02  0.13774699057E+03  0.14940422051E+03  0.00000000000E+00 0.  1.
        -11    1    3    3    0    0 -0.22480036607E+02  0.16270199571E+02  0.33960235072E+02  0.43856231097E+02  0.00000000000E+00 0.  1.
         11    1    3    3    0    0  0.50683372399E+02 -0.25076081204E+02  0.12244827956E+03  0.13487473913E+03  0.00000000000E+00 0. -1.
         21    1    1    2  502  501 -0.36025757056E+02 -0.15218986094E+02  0.61204754455E+02  0.72632600650E+02  0.00000000000E+00 0. -1.
<scales pt_clust_5="13000.00000" pt_clust_6="13000.00000" pt_clust_7="13000.00000" pt_clust_8="13000.00000" pt_clust_9="39.10847"></scales>
<clustering>
<clus scale="   39.108">  2  9  1 -1</clus>
<clus scale="   81.291">  7  8 -1 -1</clus>
<clus scale="   83.564">  2  7  1 -1</clus>
<clus scale="   92.615">  5  6 -1 -1</clus>
<clus scale="   94.616">  1  5  2 -1</clus>
</clustering>
</event>
<event>
 9    1  0.1175034E-005  0.1363742E+03  0.7546771E-02  0.1218298E+00
         -1   -1    0    0    0  501 -0.00000000000E+00  0.00000000000E+00  0.19978659212E+02  0.19978659212E+02  0.00000000000E+00 0.  1.
          1   -1    0    0  502    0  0.00000000000E+00 -0.00000000000E+00 -0.12556098172E+04  0.12556098172E+04  0.00000000000E+00 0. -1.
         23    2    1    2    0    0 -0.31584857987E+02 -0.80946937262E+02 -0.43147577429E+03  0.44954257131E+03  0.91472234690E+02 0.  0.
         23    2    1    2    0    0  0.49812224109E+02  0.10025418540E+03 -0.76622223194E+03  0.77974330573E+03  0.91492921843E+02 0.  0.
        -11    1    3    3    0    0 -0.52929511610E+02 -0.88634183805E+02 -0.36390321131E+03  0.37826326671E+03  0.00000000000E+00 0.  1.
         11    1    3    3    0    0  0.21344653623E+02  0.76872465431E+01 -0.67572562975E+02  0.71279304603E+02  0.00000000000E+00 0. -1.
        -13    1    4    4    0    0  0.56652552238E+02  0.15074536537E+02 -0.28038452876E+03  0.28644761702E+03  0.00000000000E+00 0. -1.
         13    1    4    4    0    0 -0.68403281289E+01  0.85179648861E+02 -0.48583770318E+03  0.49329568871E+03  0.00000000000E+00 0.  1.
         21    1    1    2  502  501 -0.18227366122E+02 -0.19307248136E+02 -0.37933151777E+02  0.46302599388E+02  0.00000000000E+00 0.  1.
<scales pt_clust_5="13000.00000" pt_clust_6="13000.00000" pt_clust_7="13000.00000" pt_clust_8="13000.00000" pt_clust_9="26.55196"></scales>
<clustering>
<clus scale="   26.552">  1  9  2 -1</clus>
<clus scale="   91.472">  5  6 -1 -1</clus>
<clus scale="   91.493">  7  8 -1 -1</clus>
<clus scale="  136.360">  1  5  2 -1</clus>
<clus scale="  136.374">  2  5  1 -1</clus>
</clustering>
</event>
<event>
 9    1  0.1175034E-005  0.1058911E+03  0.7546771E-02  0.1271260E+00
          1   -1    0    0  502    0  0.00000000000E+00  0.00000000000E+00  0.70474607498E+03  0.70474607498E+03  0.00000000000E+00 0. -1.
         -1   -1    0    0    0  501 -0.00000000000E+00 -0.00000000000E+00 -0.21539610649E+02  0.21539610649E+02  0.00000000000E+00 0.  1.
         23    2    1    2    0    0 -0.44772907348E+02 -0.26093133075E+02  0.30546422876E+03  0.32122103923E+03  0.84788537904E+02 0.  0.
         23    2    1    2    0    0  0.34401681951E+02  0.45206784179E+02  0.36337353494E+03  0.37900023518E+03  0.91508050535E+02 0.  0.
        -13    1    3    3    0    0 -0.49050420306E+02  0.94091614120E+01  0.91081321639E+02  0.10387628797E+03  0.00000000000E+00 0.  1.
         13    1    3    3    0    0  0.42775129585E+01 -0.35502294487E+02  0.21438290713E+03  0.21734475126E+03  0.00000000000E+00 0. -1.
        -13    1    4    4    0    0  0.40645317973E+02 -0.16303024424E+02  0.18846880315E+03  0.19348984531E+03  0.00000000000E+00 0.  1.
         13    1    4    4    0    0 -0.62436360215E+01  0.61509808602E+02  0.17490473180E+03  0.18551038987E+03  0.00000000000E+00 0. -1.
         21    1    1    2  502  501  0.10371225396E+02 -0.19113651104E+02  0.14368700619E+02  0.26064411220E+02  0.00000000000E+00 0. -1.
<scales pt_clust_5="13000.00000" pt_clust_6="13000.00000" pt_clust_7="13000.00000" pt_clust_8="13000.00000" pt_clust_9="21.74613"></scales>
<clustering>
<clus scale="   21.746">  2  9  1 -1</clus>
<clus scale="   84.789">  5  6 -1 -1</clus>
<clus scale="   91.508">  7  8 -1 -1</clus>
<clus scale="  100.141">  2  5  1 -1</clus>
<clus scale="  105.891">  1  5  2 -1</clus>
</clustering>
</event>
<event>
 9    1  0.1175034E-005  0.9487253E+02  0.7546771E-02  0.1293493E+00
         -1   -1    0    0    0  501 -0.00000000000E+00  0.00000000000E+00  0.21955782719E+03  0.21955782719E+03  0.00000000000E+00 0.  1.
          1   -1    0    0  502    0  0.00000000000E+00 -0.00000000000E+00 -0.18083248528E+03  0.18083248528E+03  0.00000000000E+00 0. -1.
         23    2    1    2    0    0 -0.33822718250E+02 -0.22311038711E+02 -0.15547789003E+02  0.98795412019E+02  0.88752695592E+02 0.  0.
         23    2    1    2    0    0  0.68403673518E+01 -0.33133349698E+02 -0.97050194372E+02  0.13819087284E+03  0.92376228661E+02 0.  0.
        -11    1    4    4    0    0  0.21636594555E+02 -0.60994509020E+02 -0.51129981151E+02  0.82478768947E+02  0.00000000000E+00 0. -1.
         11    1    4    4    0    0 -0.14796227203E+02  0.27861159322E+02 -0.45920213221E+02  0.55712103896E+02  0.00000000000E+00 0.  1.
        -13    1    3    3    0    0  0.22492436314E+02  0.11584190655E+02 -0.20945415200E+02  0.32845297721E+02  0.00000000000E+00 0. -1.
         13    1    3    3    0    0 -0.56315154564E+02 -0.33895229366E+02  0.53976261968E+01  0.65950114298E+02  0.00000000000E+00 0.  1.
         21    1    1    2  502  501  0.26982350898E+02  0.55444388410E+02  0.15132332528E+03  0.16340402762E+03  0.00000000000E+00 0.  1.
<scales pt_clust_5="13000.00000" pt_clust_6="13000.00000" pt_clust_7="13000.00000" pt_clust_8="13000.00000" pt_clust_9="61.66139"></scales>
<clustering>
<clus scale="   61.661">  1  9  2 -1</clus>
<clus scale="   88.753">  7  8 -1 -1</clus>
<clus scale="   91.348">  1  7  2 -1</clus>
<clus scale="   92.376">  5  6 -1 -1</clus>
<clus scale="   94.873">  2  5  1 -1</clus>
</clustering>
</event>
<event>
 9    1  0.1175034E-005  0.1030749E+03  0.7546771E-02  0.1274558E+00
         -2   -1    0    0    0  501 -0.00000000000E+00  0.00000000000E+00  0.14271427443E+03  0.14271427443E+03  0.00000000000E+00 0.  1.
          2   -1    0    0  502    0  0.00000000000E+00 -0.00000000000E+00 -0.17157169877E+03  0.17157169877E+03  0.00000000000E+00 0. -1.
         23    2    1    2    0    0 -0.17856075496E+02 -0.34100534047E+02  0.80033144000E+02  0.12898969555E+03  0.93548658811E+02 0.  0.
         23    2    1    2    0    0  0.30066721032E+02  0.61611939699E+02 -0.10360149594E+03  0.15473565606E+03  0.92248655633E+02 0.  0.
        -11    1    3    3    0    0 -0.39257911220E+02 -0.55130992235E+02  0.69957518341E+02  0.97337887129E+02  0.00000000000E+00 0.  1.
         11    1    3    3    0    0  0.21401835724E+02  0.21030458188E+02  0.10075625658E+02  0.31651808422E+02  0.00000000000E+00 0. -1.
        -11    1    4    4    0    0  0.48527197544E+02  0.51955402791E+02 -0.11168189317E+03  0.13238994691E+03  0.00000000000E+00 0. -1.
         11    1    4    4    0    0 -0.18460476511E+02  0.96565369087E+01  0.80803972232E+01  0.22345709149E+02  0.00000000000E+00 0.  1.
         21    1    1    2  502  501 -0.12210645536E+02 -0.27511405652E+02 -0.52890724038E+01  0.30560621595E+02  0.00000000000E+00 0.  1.
<scales pt_clust_5="13000.00000" pt_clust_6="13000.00000" pt_clust_7="13000.00000" pt_clust_8="13000.00000" pt_clust_9="30.09946"></scales>
<clustering>
<clus scale="   30.099">  2  9  1 -1</clus>
<clus scale="   92.249">  7  8 -1 -1</clus>
<clus scale="   93.549">  5  6 -1 -1</clus>
<clus scale="  101.896">  2  7  1 -1</clus>
<clus scale="   30.099">  2  5  1 -1</clus>
</clustering>
</event>
<event>
 9    1  0.1175034E-005  0.2424538E+03  0.7546771E-02  0.1118594E+00
         -2   -1    0    0    0  501 -0.00000000000E+00  0.00000000000E+00  0.21969271231E+03  0.21969271231E+03  0.00000000000E+00 0.  1.
          2   -1    0    0  502    0  0.00000000000E+00 -0.00000000000E+00 -0.44741236255E+03  0.44741236255E+03  0.00000000000E+00 0. -1.
         23    2    1    2    0    0  0.17777364696E+02  0.18075665220E+03  0.44286811885E+02  0.20546693516E+03  0.85242816295E+02 0.  0.
         23    2    1    2    0    0 -0.41446902024E+02 -0.23711288057E+03 -0.29903501340E+03  0.39480391151E+03  0.92237874451E+02 0.  0.
        -11    1    3    3    0    0  0.42898378046E+02  0.91852207976E+02  0.49739303455E+02  0.11292075654E+03  0.00000000000E+00 0. -1.
         11    1    3    3    0    0 -0.25121013350E+02  0.88904444219E+02 -0.54524915702E+01  0.92546178625E+02  0.00000000000E+00 0.  1.
        -13    1    4    4    0    0 -0.20990335205E+02 -0.22410299294E+01 -0.16300084237E+02  0.26670379324E+02  0.00000000000E+00 0.  1.
         13    1    4    4    0    0 -0.20456566820E+02 -0.23487185064E+03 -0.28273492916E+03  0.36813353219E+03  0.00000000000E+00 0. -1.
         21    1    1    2  502  501  0.23669537328E+02  0.56356228377E+02  0.27028551272E+02  0.66834228192E+02  0.00000000000E+00 0. -1.
<scales pt_clust_5="13000.00000" pt_clust_6="13000.00000" pt_clust_7="13000.00000" pt_clust_8="13000.00000" pt_clust_9="61.12505"></scales>
<clustering>
<clus scale="   61.125">  1  9  2 -1</clus>
<clus scale="   85.243">  5  6 -1 -1</clus>
<clus scale="   92.238">  7  8 -1 -1</clus>
<clus scale="  239.880">  1  5  2 -1</clus>
<clus scale="  242.454">  2  5  1 -1</clus>
</clustering>
</event>
<event>
 9    1  0.1175034E-005  0.1059130E+03  0.7546771E-02  0.1271514E+00
          1   -1    0    0  502    0  0.00000000000E+00  0.00000000000E+00  0.86729175842E+02  0.86729175842E+02  0.00000000000E+00 0. -1.
         -1   -1    0    0    0  501 -0.00000000000E+00 -0.00000000000E+00 -0.21915298333E+03  0.21915298333E+03  0.00000000000E+00 0.  1.
         23    2    1    2    0    0  0.48824454825E+01 -0.20856554559E+02 -0.47323733692E+02  0.11631149810E+03  0.10406726035E+03 0.  0.
         23    2    1    2    0    0 -0.29631799407E+02 -0.11128221835E+02 -0.85357874053E+01  0.10298171033E+03  0.97624239500E+02 0.  0.
        -11    1    4    4    0    0 -0.50570267992E+02  0.22094847411E+02  0.15012447730E+02  0.57191851462E+02  0.00000000000E+00 0.  1.
         11    1    4    4    0    0  0.20938468585E+02 -0.33223069246E+02 -0.23548235136E+02  0.45789858865E+02  0.00000000000E+00 0. -1.
        -13    1    3    3    0    0 -0.39749893762E+02 -0.35038287389E+02 -0.44840001150E+02  0.69414417381E+02  0.00000000000E+00 0.  1.
         13    1    3    3    0    0  0.44632339244E+02  0.14181732830E+02 -0.24837325417E+01  0.46897080718E+02  0.00000000000E+00 0. -1.
         21    1    1    2  502  501  0.24749353924E+02  0.31984776395E+02 -0.76564286391E+02  0.86588950745E+02  0.00000000000E+00 0.  1.
<scales pt_clust_5="13000.00000" pt_clust_6="13000.00000" pt_clust_7="13000.00000" pt_clust_8="13000.00000" pt_clust_9="40.44201"></scales>
<clustering>
<clus scale="   40.442">  2  9  1 -1</clus>
<clus scale="   97.624">  5  6 -1 -1</clus>
<clus scale="   99.589">  1  5  2 -1</clus>
<clus scale="  104.067">  7  8 -1 -1</clus>
<clus scale="   99.589">  1  5  2 -1</clus>
</clustering>
</event>
<event>
 9    1  0.1175034E-005  0.1109203E+03  0.7546771E-02  0.1261892E+00
         -2   -1    0    0    0  501 -0.00000000000E+00  0.00000000000E+00  0.21941375317E+03  0.21941375317E+03  0.00000000000E+00 0.  1.
          2   -1    0    0  502    0  0.00000000000E+00 -0.00000000000E+00 -0.39430476714E+03  0.39430476714E+03  0.00000000000E+00 0. -1.
         23    2    1    2    0    0  0.45145732789E+02  0.77890710990E+02 -0.20279271327E+03  0.23812356385E+03  0.86445630654E+02 0.  0.
         23    2    1    2    0    0 -0.36073197555E+02 -0.12355353039E+02 -0.15264436257E+03  0.18330851780E+03  0.94062643721E+02 0.  0.
        -11    1    4    4    0    0 -0.58958218921E+02  0.63491631171E+01 -0.53548709960E+02  0.79898984906E+02  0.00000000000E+00 0.  1.
         11    1    4    4    0    0  0.22885021366E+02 -0.18704516156E+02 -0.99095652613E+02  0.10340953290E+03  0.00000000000E+00 0. -1.
        -11    1    3    3    0    0  0.24034407525E+02 -0.89138853591E+01 -0.13874911599E+02  0.29148297877E+02  0.00000000000E+00 0.  1.
         11    1    3    3    0    0  0.21111325264E+02  0.86804596350E+02 -0.18891780167E+03  0.20897526597E+03  0.00000000000E+00 0. -1.
         21    1    1    2  502  501 -0.90725352334E+01 -0.65535357951E+02  0.18054606186E+03  0.19228643866E+03  0.00000000000E+00 0.  1.
<scales pt_clust_5="13000.00000" pt_clust_6="13000.00000" pt_clust_7="13000.00000" pt_clust_8="13000.00000" pt_clust_9="66.16037"></scales>
<clustering>
<clus scale="   66.160">  1  9  2 -1</clus>
<clus scale="   86.446">  7  8 -1 -1</clus>
<clus scale="   94.063">  5  6 -1 -1</clus>
<clus scale="  104.539">  1  7  2 -1</clus>
<clus scale="  110.920">  2  5  1 -1</clus>
</clustering>
</event>
<event>
 9    1  0.1175034E-005  0.1471395E+03  0.7546771E-02  0.1205278E+00
         -1   -1    0    0    0  501 -0.00000000000E+00  0.00000000000E+00  0.70184248956E+02  0.70184248956E+02  0.00000000000E+00 0.  1.
          1   -1    0    0  502    0  0.00000000000E+00 -0.00000000000E+00 -0.43000836908E+03  0.43000836908E+03  0.00000000000E+00 0. -1.
         23    2    1    2    0    0 -0.80984762408E+02 -0.45826818895E+02 -0.89038601888E+02  0.16082180863E+03  0.96317975649E+02 0.  0.
         23    2    1    2    0    0  0.11415286384E+03  0.42727175034E+02 -0.26532401486E+03  0.30561345815E+03  0.90256662525E+02 0.  0.
        -13    1    4    4    0    0 -0.78981684876E+01  0.25990580970E+02 -0.64898083252E+02  0.70353767308E+02  0.00000000000E+00 0.  1.
         13    1    4    4    0    0  0.12205103233E+03  0.16736594064E+02 -0.20042593161E+03  0.23525969084E+03  0.00000000000E+00 0. -1.
        -13    1    3    3    0    0 -0.61093622045E+02 -0.60720229843E+02 -0.21387417773E+02  0.88751330163E+02  0.00000000000E+00 0.  1.
         13    1    3    3    0    0 -0.19891140363E+02  0.14893410948E+02 -0.67651184115E+02  0.72070478469E+02  0.00000000000E+00 0. -1.
         21    1    1    2  502  501 -0.33168101431E+02  0.30996438614E+01 -0.54615033727E+01  0.33757351254E+02  0.00000000000E+00 0. -1.
<scales pt_clust_5="13000.00000" pt_clust_6="13000.00000" pt_clust_7="13000.00000" pt_clust_8="13000.00000" pt_clust_9="33.31262"></scales>
<clustering>
<clus scale="   33.313">  1  9  2 -1</clus>
<clus scale="   90.257">  5  6 -1 -1</clus>
<clus scale="   96.318">  7  8 -1 -1</clus>
<clus scale="  143.245">  2  5  1 -1</clus>
<clus scale="  143.245">  2  5  1 -1</clus>
</clustering>
</event>
<event>
 9    1  0.1175034E-005  0.1060452E+03  0.7546771E-02  0.1273055E+00
         -1   -1    0    0    0  501 -0.00000000000E+00  0.00000000000E+00  0.37202114392E+03  0.37202114392E+03  0.00000000000E+00 0.  1.
          1   -1    0    0  502    0  0.00000000000E+00 -0.00000000000E+00 -0.68409101609E+02  0.68409101609E+02  0.00000000000E+00 0. -1.
         23    2    1    2    0    0 -0.23746501332E+02  0.32428658523E+02  0.21903676715E+03  0.24427608834E+03  0.10039017756E+03 0.  0.
         23    2    1    2    0    0  0.16004245648E+01 -0.34044860182E+02 -0.12026208960E+02  0.97033485492E+02  0.90051394998E+02 0.  0.
        -13    1    3    3    0    0 -0.22212427304E+00  0.62668455540E+02  0.17512365159E+03  0.18599913442E+03  0.00000000000E+00 0.  1.
         13    1    3    3    0    0 -0.23524377059E+02 -0.30239797017E+02  0.43913115559E+02  0.58276953916E+02  0.00000000000E+00 0. -1.
        -13    1    4    4    0    0  0.11341814829E+02 -0.60938806799E+02  0.74458438758E+01  0.62430886016E+02  0.00000000000E+00 0. -1.
         13    1    4    4    0    0 -0.97413902644E+01  0.26893946616E+02 -0.19472052835E+02  0.34602599476E+02  0.00000000000E+00 0.  1.
         21    1    1    2  502  501  0.22146076767E+02  0.16162016593E+01  0.96601484123E+02  0.99120671703E+02  0.00000000000E+00 0. -1.
<scales pt_clust_5="13000.00000" pt_clust_6="13000.00000" pt_clust_7="13000.00000" pt_clust_8="13000.00000" pt_clust_9="22.20497"></scales>
<clustering>
<clus scale="   22.205">  1  9  2 -1</clus>
<clus scale="   90.051">  7  8 -1 -1</clus>
<clus scale="   96.315">  2  7  1 -1</clus>
<clus scale="  100.390">  5  6 -1 -1</clus>
<clus scale="   96.315">  2  5  1 -1</clus>
</clustering>
</event>
<event>
 9    1  0.1175034E-005  0.1340327E+03  0.7546771E-02  0.1222203E+00
         -2   -1    0    0    0  501 -0.00000000000E+00  0.00000000000E+00  0.20756018803E+02  0.20756018803E+02  0.00000000000E+00 0.  1.
          2   -1    0    0  502    0  0.00000000000E+00 -0.00000000000E+00 -0.13187749819E+04  0.13187749819E+04  0.00000000000E+00 0. -1.
         23    2    1    2    0    0 -0.40393925894E+02 -0.74498331869E+02 -0.33983227604E+03  0.36163064611E+03  0.90050417344E+02 0.  0.
         23    2    1    2    0    0  0.68168765098E+02  0.10386250295E+03 -0.76741330607E+03  0.78289220316E+03  0.92534422639E+02 0.  0.
        -11    1    3    3    0    0 -0.59846600906E+02 -0.41547189907E+02 -0.13646472356E+03  0.15469455519E+03  0.00000000000E+00 0.  1.
         11    1    3    3    0    0  0.19452675012E+02 -0.32951141962E+02 -0.20336755248E+03  0.20693609092E+03  0.00000000000E+00 0. -1.
        -13    1    4    4    0    0  0.84309024826E+02  0.68870618025E+02 -0.65675215939E+03  0.66571358148E+03  0.00000000000E+00 0. -1.
         13    1    4    4    0    0 -0.16140259728E+02  0.34991884924E+02 -0.11066114668E+03  0.11717862168E+03  0.00000000000E+00 0.  1.
         21    1    1    2  502  501 -0.27774839204E+02 -0.29364171080E+02 -0.19077338099E+03  0.19500815144E+03  0.00000000000E+00 0.  1.
<scales pt_clust_5="13000.00000" pt_clust_6="13000.00000" pt_clust_7="13000.00000" pt_clust_8="13000.00000" pt_clust_9="40.41901"></scales>
<clustering>
<clus scale="   40.419">  2  9  1 -1</clus>
<clus scale="   90.050">  5  6 -1 -1</clus>
<clus scale="   92.534">  7  8 -1 -1</clus>
<clus scale="  132.330">  1  5  2 -1</clus>
<clus scale="   40.419">  2  5  1 -1</clus>
</clustering>
</event>
<event>
 9    1  0.1175034E-005  0.1461887E+03  0.7546771E-02  0.1212475E+00
         -1   -1    0    0    0  501 -0.00000000000E+00  0.00000000000E+00  0.71171484192E+03  0.71171484192E+03  0.00000000000E+00 0.  1.
          1   -1    0    0  502    0  0.00000000000E+00 -0.00000000000E+00 -0.11326144828E+03  0.11326144828E+03  0.00000000000E+00 0. -1.
         23    2    1    2    0    0  0.92767461207E+02  0.11411281621E+03  0.10341761975E+03  0.21569866120E+03  0.11917706024E+03 0.  0.
         23    2    1    2    0    0 -0.50810780180E+02 -0.36854884361E+02  0.52946618391E+01  0.11170802789E+03  0.92253087575E+02 0.  0.
        -13    1    3    3    0    0  0.58048662444E+02  0.11495963184E+03  0.26751471760E+02  0.13153328631E+03  0.00000000000E+00 0. -1.
         13    1    3    3    0    0  0.34718798763E+02 -0.84681563660E+00  0.76666147985E+02  0.84165374895E+02  0.00000000000E+00 0.  1.
        -13    1    4    4    0    0  0.14965250287E+02 -0.30781220584E+02  0.25443480915E+02  0.42647543632E+02  0.00000000000E+00 0. -1.
         13    1    4    4    0    0 -0.65776030467E+02 -0.60736637768E+01 -0.20148819076E+02  0.69060484257E+02  0.00000000000E+00 0.  1.
         21    1    1    2  502  501 -0.41956681027E+02 -0.77257931846E+02  0.48974111205E+03  0.49756960111E+03  0.00000000000E+00 0.  1.
<scales pt_clust_5="13000.00000" pt_clust_6="13000.00000" pt_clust_7="13000.00000" pt_clust_8="13000.00000" pt_clust_9="87.91559"></scales>
<clustering>
<clus scale="   87.916">  1  9  2 -1</clus>
<clus scale="   92.253">  7  8 -1 -1</clus>
<clus scale="  119.177">  5  6 -1 -1</clus>
<clus scale="  125.214">  2  7  1 -1</clus>
<clus scale="  125.214">  2  5  1 -1</clus>
</clustering>
</event>
<event>
 9    1  0.1175034E-005  0.1004411E+03  0.7546771E-02  0.1280285E+00
          2   -1    0    0  502    0  0.00000000000E+00  0.00000000000E+00  0.35667609332E+03  0.35667609332E+03  0.00000000000E+00 0. -1.
         -2   -1    0    0    0  501 -0.00000000000E+00 -0.00000000000E+00 -0.38318175912E+02  0.38318175912E+02  0.00000000000E+00 0.  1.
         23    2    1    2    0    0 -0.50564474115E+02  0.16982984837E+02  0.10953097176E+03  0.15230457028E+03  0.91402738122E+02 0.  0.
         23    2    1    2    0    0  0.26122030205E+02 -0.25597100032E+02  0.17662998315E+03  0.20135834961E+03  0.89495597751E+02 0.  0.
        -11    1    4    4    0    0  0.52830200770E+02 -0.18605430079E+02  0.62449862988E+02  0.83887886664E+02  0.00000000000E+00 0. -1.
         11    1    4    4    0    0 -0.26708170565E+02 -0.69916699536E+01  0.11418012016E+03  0.11747046294E+03  0.00000000000E+00 0.  1.
        -11    1    3    3    0    0  0.20778521404E+02 -0.13882388706E+02  0.12395337209E+02  0.27894659927E+02  0.00000000000E+00 0.  1.
         11    1    3    3    0    0 -0.71342995519E+02  0.30865373543E+02  0.97135634554E+02  0.12440991035E+03  0.00000000000E+00 0. -1.
         21    1    1    2  502  501  0.24442443909E+02  0.86141151952E+01  0.32196962495E+02  0.41331349346E+02  0.00000000000E+00 0.  1.
<scales pt_clust_5="13000.00000" pt_clust_6="13000.00000" pt_clust_7="13000.00000" pt_clust_8="13000.00000" pt_clust_9="25.91594"></scales>
<clustering>
<clus scale="   25.916">  2  9  1 -1</clus>
<clus scale="   89.496">  5  6 -1 -1</clus>
<clus scale="   91.403">  7  8 -1 -1</clus>
<clus scale="   98.709">  1  5  2 -1</clus>
<clus scale="   98.709">  1  5  2 -1</clus>
</clustering>
</event>
<event>
 9    1  0.1175034E-005  0.1067988E+03  0.7546771E-02  0.1267533E+00
         -1   -1    0    0    0  501 -0.00000000000E+00  0.00000000000E+00  0.37214593139E+02  0.37214593139E+02  0.00000000000E+00 0.  1.
          1   -1    0    0  502    0  0.00000000000E+00 -0.00000000000E+00 -0.47161071724E+03  0.47161071724E+03  0.00000000000E+00 0. -1.
         23    2    1    2    0    0 -0.18895752486E+02  0.36887437510E+02 -0.89782845990E+02  0.13646037661E+03  0.94035857219E+02 0.  0.
         23    2    1    2    0    0  0.41054957161E+02 -0.36307588128E+02 -0.32698258982E+03  0.34404166159E+03  0.91887433333E+02 0.  0.
        -11    1    3    3    0    0 -0.52590157356E+02  0.43658003687E+02 -0.57801304621E+02  0.89513891394E+02  0.00000000000E+00 0.  1.
         11    1    3    3    0    0  0.33694404871E+02 -0.67705661768E+01 -0.31981541369E+02  0.46946485218E+02  0.00000000000E+00 0. -1.
        -13    1    4    4    0    0 -0.87139817543E+01 -0.47631474799E+02 -0.22313654169E+03  0.22833003987E+03  0.00000000000E+00 0.  1.
         13    1    4    4    0    0  0.49768938915E+02  0.11323886671E+02 -0.10384604813E+03  0.11571162172E+03  0.00000000000E+00 0. -1.
         21    1    1    2  502  501 -0.22159204675E+02 -0.57984938259E+00 -0.17630688300E+02  0.28323272182E+02  0.00000000000E+00 0. -1.
<scales pt_clust_5="13000.00000" pt_clust_6="13000.00000" pt_clust_7="13000.00000" pt_clust_8="13000.00000" pt_clust_9="22.16679"></scales>
<clustering>
<clus scale="   22.167">  1  9  2 -1</clus>
<clus scale="   91.887">  7  8 -1 -1</clus>
<clus scale="   94.036">  5  6 -1 -1</clus>
<clus scale="  104.912">  2  7  1 -1</clus>
<clus scale="  104.912">  2  5  1 -1</clus>
</clustering>
</event>
<event>
 9    1  0.1175034E-005  0.1152606E+03  0.7546771E-02  0.1251525E+00
          1   -1    0    0  502    0  0.00000000000E+00  0.00000000000E+00  0.68043488121E+03  0.68043488121E+03  0.00000000000E+00 0. -1.
         -1   -1    0    0    0  501 -0.00000000000E+00 -0.00000000000E+00 -0.36258612549E+02  0.36258612549E+02  0.00000000000E+00 0.  1.
         23    2    1    2    0    0  0.51337326071E+02  0.19112196931E+02  0.12384811179E+03  0.16345800579E+03  0.91538886512E+02 0.  0.
         23    2    1    2    0    0 -0.63696607611E+02 -0.36355812100E+02  0.51866019271E+03  0.53195459963E+03  0.92673068725E+02 0.  0.
        -11    1    4    4    0    0 -0.19010737376E+02  0.30879777245E+02  0.12785170557E+03  0.13289479823E+03  0.00000000000E+00 0.  1.
         11    1    4    4    0    0 -0.44685870235E+02 -0.67235589345E+02  0.39080848714E+03  0.39905980140E+03  0.00000000000E+00 0. -1.
        -13    1    3    3    0    0  0.11953209860E+02 -0.36351075159E+02  0.51399041052E+02  0.64079180022E+02  0.00000000000E+00 0. -1.
         13    1    3    3    0    0  0.39384116211E+02  0.55463272090E+02  0.72449070739E+02  0.99378825771E+02  0.00000000000E+00 0.  1.
         21    1    1    2  502  501  0.12359281540E+02  0.17243615169E+02  0.16679641650E+01  0.21280888345E+02  0.00000000000E+00 0.  1.
<scales pt_clust_5="13000.00000" pt_clust_6="13000.00000" pt_clust_7="13000.00000" pt_clust_8="13000.00000" pt_clust_9="21.21542"></scales>
<clustering>
<clus scale="   21.215">  2  9  1 -1</clus>
<clus scale="   91.539">  7  8 -1 -1</clus>
<clus scale="   92.673">  5  6 -1 -1</clus>
<clus scale="  114.351">  2  7  1 -1</clus>
<clus scale="  115.261">  1  5  2 -1</clus>
</clustering>
</event>
<event>
 9    1  0.1175034E-005  0.1774217E+03  0.7546771E-02  0.1170778E+00
         -1   -1    0    0    0  501 -0.00000000000E+00  0.00000000000E+00  0.66359544219E+02  0.66359544219E+02  0.00000000000E+00 0.  1.
          1   -1    0    0  502    0  0.00000000000E+00 -0.00000000000E+00 -0.10178950177E+04  0.10178950177E+04  0.00000000000E+00 0. -1.
         23    2    1    2    0    0 -0.15447042005E+03 -0.79753844742E+02 -0.13770583551E+03  0.24024611109E+03  0.92377001124E+02 0.  0.
         23    2    1    2    0    0  0.12938598021E+03  0.64921348023E+02 -0.78121134718E+03  0.80026848085E+03  0.95827757839E+02 0.  0.
        -11    1    3    3    0    0 -0.62827624721E+02 -0.12463990871E+02 -0.32076898120E+01  0.64132291168E+02  0.00000000000E+00 0. -1.
         11    1    3    3    0    0 -0.91642795331E+02 -0.67289853871E+02 -0.13449814570E+03  0.17611381992E+03  0.00000000000E+00 0.  1.
        -13    1    4    4    0    0 -0.13440886011E+02  0.19569579696E+02 -0.10971474488E+03  0.11225395810E+03  0.00000000000E+00 0.  1.
         13    1    4    4    0    0  0.14282686622E+03  0.45351768326E+02 -0.67149660230E+03  0.68801452274E+03  0.00000000000E+00 0. -1.
         21    1    1    2  502  501  0.25084439844E+02  0.14832496719E+02 -0.32618290837E+02  0.43739970031E+02  0.00000000000E+00 0.  1.
<scales pt_clust_5="13000.00000" pt_clust_6="13000.00000" pt_clust_7="13000.00000" pt_clust_8="13000.00000" pt_clust_9="29.14159"></scales>
<clustering>
<clus scale="   29.142">  1  9  2 -1</clus>
<clus scale="   92.377">  5  6 -1 -1</clus>
<clus scale="   95.828">  7  8 -1 -1</clus>
<clus scale="  175.582">  1  5  2 -1</clus>
<clus scale="  177.422">  2  5  1 -1</clus>
</clustering>
</event>
<event>
 9    1  0.1175034E-005  0.9412695E+02  0.7546771E-02  0.1293746E+00
         -2   -1    0    0    0  501 -0.00000000000E+00  0.00000000000E+00  0.11635056757E+03  0.11635056757E+03  0.00000000000E+00 0.  1.
          2   -1    0    0  502    0  0.00000000000E+00 -0.00000000000E+00 -0.11228559075E+03  0.11228559075E+03  0.00000000000E+00 0. -1.
         23    2    1    2    0    0 -0.27039157385E+02  0.63061564225E+01  0.45902508971E+01  0.96056091402E+02  0.91841268780E+02 0.  0.
         23    2    1    2    0    0  0.68216224596E+01  0.70200771284E+01 -0.26482209418E+02  0.97082183715E+02  0.92886096717E+02 0.  0.
        -11    1    3    3    0    0 -0.59205912230E+02  0.83245818592E-01 -0.10253350082E+02  0.60087254562E+02  0.00000000000E+00 0.  1.
         11    1    3    3    0    0  0.32166754845E+02  0.62229106039E+01  0.14843600979E+02  0.35968836840E+02  0.00000000000E+00 0. -1.
        -13    1    4    4    0    0 -0.58044407137E+01 -0.39187022714E+02 -0.29031110816E+02  0.49113335016E+02  0.00000000000E+00 0.  1.
         13    1    4    4    0    0  0.12626063173E+02  0.46207099843E+02  0.25489013981E+01  0.47968848699E+02  0.00000000000E+00 0. -1.
         21    1    1    2  502  501  0.20217534926E+02 -0.13326233551E+02  0.25956935343E+02  0.35497883198E+02  0.00000000000E+00 0. -1.
<scales pt_clust_5="13000.00000" pt_clust_6="13000.00000" pt_clust_7="13000.00000" pt_clust_8="13000.00000" pt_clust_9="24.21440"></scales>
<clustering>
<clus scale="   24.214">  1  9  2 -1</clus>
<clus scale="   91.841">  5  6 -1 -1</clus>
<clus scale="   92.886">  7  8 -1 -1</clus>
<clus scale="   93.096">  1  5  2 -1</clus>
<clus scale="   94.127">  2  5  1 -1</clus>
</clustering>
</event>
<event>
 9    1  0.1175034E-005  0.9461832E+02  0.7546771E-02  0.1292126E+00
         -1   -1    0    0    0  501 -0.00000000000E+00  0.00000000000E+00  0.37952486342E+03  0.37952486342E+03  0.00000000000E+00 0.  1.
          1   -1    0    0  502    0  0.00000000000E+00 -0.00000000000E+00 -0.57110669481E+02  0.57110669481E+02  0.00000000000E+00 0. -1.
         23    2    1    2    0    0 -0.29055745287E+02 -0.34227348266E+02  0.25395033906E+03  0.27369645499E+03  0.91669117253E+02 0.  0.
         23    2    1    2    0    0  0.17419235617E+02  0.94677751121E+01  0.49265916995E+01  0.93762285332E+02  0.91509706096E+02 0.  0.
        -11    1    3    3    0    0 -0.59016537655E+02 -0.20676954598E+02  0.20796966119E+03  0.21716783404E+03  0.00000000000E+00 0.  1.
         11    1    3    3    0    0  0.29960792368E+02 -0.13550393668E+02  0.45980677879E+02  0.56528620946E+02  0.00000000000E+00 0. -1.
        -13    1    4    4    0    0  0.51639833775E+01  0.48378211784E+02 -0.11149475627E+02  0.49914215475E+02  0.00000000000E+00 0. -1.
         13    1    4    4    0    0  0.12255252239E+02 -0.38910436672E+02  0.16076067326E+02  0.43848069857E+02  0.00000000000E+00 0.  1.
         21    1    1    2  502  501  0.11636509670E+02  0.24759573154E+02  0.63537263178E+02  0.69176792585E+02  0.00000000000E+00 0. -1.
<scales pt_clust_5="13000.00000" pt_clust_6="13000.00000" pt_clust_7="13000.00000" pt_clust_8="13000.00000" pt_clust_9="27.35772"></scales>
<clustering>
<clus scale="   27.358">  1  9  2 -1</clus>
<clus scale="   91.510">  7  8 -1 -1</clus>
<clus scale="   91.669">  5  6 -1 -1</clus>
<clus scale="   94.464">  2  7  1 -1</clus>
<clus scale="   94.464">  2  5  1 -1</clus>
</clustering>
</event>
<event>
 9    1  0.1175034E-005  0.1133497E+03  0.7546771E-02  0.1254994E+00
         -1   -1    0    0    0  501 -0.00000000000E+00  0.00000000000E+00  0.21122835933E+03  0.21122835933E+03  0.00000000000E+00 0.  1.
          1   -1    0    0  502    0  0.00000000000E+00 -0.00000000000E+00 -0.16763308587E+03  0.16763308587E+03  0.00000000000E+00 0. -1.
         23    2    1    2    0    0 -0.71393215854E+02 -0.81659106932E+02 -0.19002106441E+02  0.14300164545E+03  0.91231516143E+02 0.  0.
         23    2    1    2    0    0  0.35892182718E+02  0.23094280907E+02 -0.42451396787E+02  0.11045881218E+03  0.92614434663E+02 0.  0.
        -11    1    4    4    0    0  0.25524637870E+02 -0.34685927266E+02 -0.21455989676E+02  0.48114240945E+02  0.00000000000E+00 0.  1.
         11    1    4    4    0    0  0.10367544848E+02  0.57780208173E+02 -0.20995407111E+02  0.62344571234E+02  0.00000000000E+00 0. -1.
        -11    1    3    3    0    0 -0.41713992059E+02 -0.96966121089E+02 -0.26375517976E+02  0.10880327992E+03  0.00000000000E+00 0.  1.
         11    1    3    3    0    0 -0.29679223795E+02  0.15307014157E+02  0.73734115349E+01  0.34198365533E+02  0.00000000000E+00 0. -1.
         21    1    1    2  502  501  0.35501033136E+02  0.58564826025E+02  0.10504877668E+03  0.12540098757E+03  0.00000000000E+00 0. -1.
<scales pt_clust_5="13000.00000" pt_clust_6="13000.00000" pt_clust_7="13000.00000" pt_clust_8="13000.00000" pt_clust_9="68.48476"></scales>
<clustering>
<clus scale="   68.485">  1  9  2 -1</clus>
<clus scale="   91.232">  7  8 -1 -1</clus>
<clus scale="   92.614">  5  6 -1 -1</clus>
<clus scale="  112.223">  1  7  2 -1</clus>
<clus scale="  113.350">  2  5  1 -1</clus>
</clustering>
</event>
<event>
 9    1  0.1175034E-005  0.1187186E+03  0.7546771E-02  0.1248997E+00
         -1   -1    0    0    0  501 -0.00000000000E+00  0.00000000000E+00  0.44119986483E+03  0.44119986483E+03  0.00000000000E+00 0.  1.
          1   -1    0    0  502    0  0.00000000000E+00 -0.00000000000E+00 -0.53622827577E+02  0.53622827577E+02  0.00000000000E+00 0. -1.
         23    2    1    2    0    0  0.88554695195E+02 -0.17403461607E+01  0.26149109074E+03  0.29384110518E+03  0.10059841803E+03 0.  0.
         23    2    1    2    0    0 -0.54676613404E+02  0.10126004198E+02  0.49814450769E+02  0.11710438681E+03  0.90221338333E+02 0.  0.
        -13    1    3    3    0    0  0.20775198798E+02 -0.29113850303E+02  0.18852595383E+02  0.40430749650E+02  0.00000000000E+00 0. -1.
         13    1    3    3    0    0  0.67779496397E+02  0.27373504143E+02  0.24263849535E+03  0.25341035553E+03  0.00000000000E+00 0.  1.
        -13    1    4    4    0    0 -0.19479246586E+02 -0.40029115741E+02  0.17509047615E+02  0.47836574950E+02  0.00000000000E+00 0.  1.
         13    1    4    4    0    0 -0.35197366817E+02  0.50155119939E+02  0.32305403154E+02  0.69267811860E+02  0.00000000000E+00 0. -1.
         21    1    1    2  502  501 -0.33878081791E+02 -0.83856580370E+01  0.76271495742E+02  0.83877200414E+02  0.00000000000E+00 0.  1.
<scales pt_clust_5="13000.00000" pt_clust_6="13000.00000" pt_clust_7="13000.00000" pt_clust_8="13000.00000" pt_clust_9="34.90048"></scales>
<clustering>
<clus scale="   34.900">  1  9  2 -1</clus>
<clus scale="   90.221">  7  8 -1 -1</clus>
<clus scale="  100.598">  5  6 -1 -1</clus>
<clus scale="  110.063">  2  7  1 -1</clus>
<clus scale="  110.063">  2  5  1 -1</clus>
</clustering>
</event>
<event>
 9    1  0.1175034E-005  0.1452807E+03  0.7546771E-02  0.1207139E+00
          2   -1    0    0  502    0  0.00000000000E+00  0.00000000000E+00  0.26471449704E+03  0.26471449704E+03  0.00000000000E+00 0. -1.
         -2   -1    0    0    0  501 -0.00000000000E+00 -0.00000000000E+00 -0.35467124416E+03  0.35467124416E+03  0.00000000000E+00 0.  1.
         23    2    1    2    0    0 -0.70491244848E+01 -0.94615511918E+02 -0.82329276812E+02  0.15568272960E+03  0.91963129704E+02 0.  0.
         23    2    1    2    0    0 -0.88803855187E+02  0.85200946811E+02  0.19052148938E+03  0.24338633504E+03  0.88278786445E+02 0.  0.
        -11    1    3    3    0    0 -0.35051604135E+02 -0.82990403304E+01 -0.48206988820E+01  0.36341823848E+02  0.00000000000E+00 0. -1.
         11    1    3    3    0    0  0.28002479650E+02 -0.86316471588E+02 -0.77508577930E+02  0.11934090576E+03  0.00000000000E+00 0.  1.
        -13    1    4    4    0    0 -0.25523715622E+02 -0.15018916324E+02  0.61057507325E+02  0.67860497400E+02  0.00000000000E+00 0. -1.
         13    1    4    4    0    0 -0.63280139565E+02  0.10021986314E+03  0.12946398205E+03  0.17552583764E+03  0.00000000000E+00 0.  1.
         21    1    1    2  502  501  0.95852979672E+02  0.94145651067E+01 -0.19814895968E+03  0.22031667656E+03  0.00000000000E+00 0.  1.
<scales pt_clust_5="13000.00000" pt_clust_6="13000.00000" pt_clust_7="13000.00000" pt_clust_8="13000.00000" pt_clust_9="96.31421"></scales>
<clustering>
<clus scale="   88.279">  7  8 -1 -1</clus>
<clus scale="   91.963">  5  6 -1 -1</clus>
<clus scale="   96.314">  2  9  1 -1</clus>
<clus scale="  142.977">  1  7  2 -1</clus>
<clus scale="  142.977">  1  5  2 -1</clus>
</clustering>
</event>
<event>
 9    1  0.1175034E-005  0.1000233E+03  0.7546771E-02  0.1280428E+00
         -2   -1    0    0    0  501 -0.00000000000E+00  0.00000000000E+00  0.19588766374E+03  0.19588766374E+03  0.00000000000E+00 0.  1.
          2   -1    0    0  502    0  0.00000000000E+00 -0.00000000000E+00 -0.16865483910E+03  0.16865483910E+03  0.00000000000E+00 0. -1.
         23    2    1    2    0    0 -0.63815208425E+02 -0.21674309940E+02 -0.32007407888E+02  0.11828397556E+03  0.91784901689E+02 0.  0.
         23    2    1    2    0    0  0.19584588412E+02 -0.31768563142E+02 -0.54234424732E+02  0.11325857890E+03  0.92159292317E+02 0.  0.
        -11    1    4    4    0    0  0.40639827565E+02 -0.80653971501E+01  0.91107712006E+01  0.42422309786E+02  0.00000000000E+00 0.  1.
         11    1    4    4    0    0 -0.21055239154E+02 -0.23703165992E+02 -0.63345195932E+02  0.70836269111E+02  0.00000000000E+00 0. -1.
        -13    1    3    3    0    0 -0.52637843341E+02  0.21437656662E+02  0.92380300487E+01  0.57581740803E+02  0.00000000000E+00 0.  1.
         13    1    3    3    0    0 -0.11177365084E+02 -0.43111966602E+02 -0.41245437936E+02  0.60702234762E+02  0.00000000000E+00 0. -1.
         21    1    1    2  502  501  0.44230620013E+02  0.53442873082E+02  0.11347465726E+03  0.13299994838E+03  0.00000000000E+00 0.  1.
<scales pt_clust_5="13000.00000" pt_clust_6="13000.00000" pt_clust_7="13000.00000" pt_clust_8="13000.00000" pt_clust_9="69.37210"></scales>
<clustering>
<clus scale="   69.372">  1  9  2 -1</clus>
<clus scale="   91.785">  7  8 -1 -1</clus>
<clus scale="   92.159">  5  6 -1 -1</clus>
<clus scale="   99.678">  1  7  2 -1</clus>
<clus scale="  100.023">  2  5  1 -1</clus>
</clustering>
</event>
<event>
 9    1  0.1175034E-005  0.1172725E+03  0.7546771E-02  0.1249074E+00
         -1   -1    0    0    0  501 -0.00000000000E+00  0.00000000000E+00  0.48384637750E+03  0.48384637750E+03  0.00000000000E+00 0.  1.
          1   -1    0    0  502    0  0.00000000000E+00 -0.00000000000E+00 -0.80730781828E+02  0.80730781828E+02  0.00000000000E+00 0. -1.
         23    2    1    2    0    0  0.45082837900E+02  0.24296815830E+02  0.14431804705E+03  0.17832111261E+03  0.91366968675E+02 0.  0.
         23    2    1    2    0    0 -0.27624645854E+01 -0.92633082199E+02  0.13260850300E+02  0.12789751769E+03  0.87140150062E+02 0.  0.
        -11    1    4    4    0    0 -0.38766930204E+02 -0.61056797003E+02  0.28357610804E+02  0.77685014180E+02  0.00000000000E+00 0.  1.
         11    1    4    4    0    0  0.36004465618E+02 -0.31576285196E+02 -0.15096760504E+02  0.50212503512E+02  0.00000000000E+00 0. -1.
        -11    1    3    3    0    0  0.55858089654E+02  0.50454772386E+02  0.92237011200E+02  0.11905241061E+03  0.00000000000E+00 0.  1.
         11    1    3    3    0    0 -0.10775251755E+02 -0.26157956556E+02  0.52081035850E+02  0.59268702000E+02  0.00000000000E+00 0. -1.
         21    1    1    2  502  501 -0.42320373314E+02  0.68336266369E+02  0.24553669832E+03  0.25835852903E+03  0.00000000000E+00 0.  1.
<scales pt_clust_5="13000.00000" pt_clust_6="13000.00000" pt_clust_7="13000.00000" pt_clust_8="13000.00000" pt_clust_9="80.37947"></scales>
<clustering>
<clus scale="   80.379">  1  9  2 -1</clus>
<clus scale="   87.140">  5  6 -1 -1</clus>
<clus scale="   91.367">  7  8 -1 -1</clus>
<clus scale="  114.010">  2  5  1 -1</clus>
<clus scale="  114.010">  2  5  1 -1</clus>
</clustering>
</event>
<event>
 9    1  0.1175034E-005  0.1336196E+03  0.7546771E-02  0.1222524E+00
         -1   -1    0    0    0  501 -0.00000000000E+00  0.00000000000E+00  0.11370170587E+03  0.11370170587E+03  0.00000000000E+00 0.  1.
          1   -1    0    0  502    0  0.00000000000E+00 -0.00000000000E+00 -0.36249975623E+03  0.36249975623E+03  0.00000000000E+00 0. -1.
         23    2    1    2    0    0  0.70159637627E+02  0.81227396353E+02 -0.67666411819E+02  0.15588107721E+03  0.90553311774E+02 0.  0.
         23    2    1    2    0    0 -0.49226257450E+02 -0.79200768303E+02 -0.23136833183E+03  0.26585903181E+03  0.91944187943E+02 0.  0.
        -13    1    4    4    0    0 -0.37635304317E+02  0.33282356400E+01 -0.12584948630E+03  0.13139857870E+03  0.00000000000E+00 0.  1.
         13    1    4    4    0    0 -0.11590953133E+02 -0.82529003943E+02 -0.10551884553E+03  0.13446045310E+03  0.00000000000E+00 0. -1.
        -13    1    3    3    0    0  0.26329168409E+02  0.77137241772E+02 -0.82347041842E+01  0.81921850140E+02  0.00000000000E+00 0.  1.
         13    1    3    3    0    0  0.43830469217E+02  0.40901545814E+01 -0.59431707635E+02  0.73959227070E+02  0.00000000000E+00 0. -1.
         21    1    1    2  502  501 -0.20933380177E+02 -0.20266280505E+01  0.50236693288E+02  0.54461353081E+02  0.00000000000E+00 0.  1.
<scales pt_clust_5="13000.00000" pt_clust_6="13000.00000" pt_clust_7="13000.00000" pt_clust_8="13000.00000" pt_clust_9="21.03125"></scales>
<clustering>
<clus scale="   21.031">  1  9  2 -1</clus>
<clus scale="   90.553">  7  8 -1 -1</clus>
<clus scale="   91.944">  5  6 -1 -1</clus>
<clus scale="  132.666">  1  7  2 -1</clus>
<clus scale="  133.620">  2  5  1 -1</clus>
</clustering>
</event>
<event>
 9    1  0.1175034E-005  0.1234139E+03  0.7546771E-02  0.1239135E+00
         -2   -1    0    0    0  501 -0.00000000000E+00  0.00000000000E+00  0.49081297617E+03  0.49081297617E+03  0.00000000000E+00 0.  1.
          2   -1    0    0  502    0  0.00000000000E+00 -0.00000000000E+00 -0.25316858701E+03  0.25316858701E+03  0.00000000000E+00 0. -1.
         23    2    1    2    0    0  0.11405275713E+03 -0.12903803765E+03  0.26184075510E+03  0.32584291143E+03  0.89186183493E+02 0.  0.
         23    2    1    2    0    0 -0.67276852179E+02  0.32558033650E+02 -0.18749166793E+03  0.22278837122E+03  0.94315069917E+02 0.  0.
        -11    1    3    3    0    0  0.72321344430E+02 -0.59580437490E+02  0.68086839520E+02  0.11582755763E+03  0.00000000000E+00 0. -1.
         11    1    3    3    0    0  0.41731412698E+02 -0.69457600164E+02  0.19375391558E+03  0.21001535379E+03  0.00000000000E+00 0.  1.
        -13    1    4    4    0    0 -0.34161002287E+02  0.52152978902E+02 -0.16892833509E+03  0.18006579265E+03  0.00000000000E+00 0. -1.
         13    1    4    4    0    0 -0.33115849892E+02 -0.19594945252E+02 -0.18563332834E+02  0.42722578567E+02  0.00000000000E+00 0.  1.
         21    1    1    2  502  501 -0.46775904948E+02  0.96480004005E+02  0.16329530198E+03  0.19535028054E+03  0.00000000000E+00 0.  1.
<scales pt_clust_5="13000.00000" pt_clust_6="13000.00000" pt_clust_7="13000.00000" pt_clust_8="13000.00000" pt_clust_9="107.22116"></scales>
<clustering>
<clus scale="   89.186">  5  6 -1 -1</clus>
<clus scale="   94.315">  7  8 -1 -1</clus>
<clus scale="  107.221">  1  9  2 -1</clus>
<clus scale="  119.540">  1  5  2 -1</clus>
<clus scale="  123.414">  2  5  1 -1</clus>
</clustering>
</event>
<event>
 9    1  0.1175034E-005  0.1141037E+03  0.7546771E-02  0.1253448E+00
          2   -1    0    0  502    0  0.00000000000E+00  0.00000000000E+00  0.32872338515E+03  0.32872338515E+03  0.00000000000E+00 0. -1.
         -2   -1    0    0    0  501 -0.00000000000E+00 -0.00000000000E+00 -0.42309989433E+03  0.42309989433E+03  0.00000000000E+00 0.  1.
         23    2    1    2    0    0  0.42822625736E+02  0.52792530008E+02 -0.39576174651E+03  0.41189994796E+03  0.91724471263E+02 0.  0.
         23    2    1    2    0    0 -0.21614285119E+02 -0.64529161957E+02  0.29306961169E+03  0.31429733161E+03  0.90894583437E+02 0.  0.
        -13    1    3    3    0    0 -0.14868177474E+02  0.28165833795E+02 -0.42485131086E+02  0.53097676579E+02  0.00000000000E+00 0. -1.
         13    1    3    3    0    0  0.57690803210E+02  0.24626696213E+02 -0.35327661543E+03  0.35880227138E+03  0.00000000000E+00 0.  1.
        -13    1    4    4    0    0 -0.22236838687E+02 -0.38825462978E+01  0.98018017901E+01  0.24609479451E+02  0.00000000000E+00 0.  1.
         13    1    4    4    0    0  0.62255356765E+00 -0.60646615660E+02  0.28326780990E+03  0.28968785216E+03  0.00000000000E+00 0. -1.
         21    1    1    2  502  501 -0.21208340617E+02  0.11736631950E+02  0.83156256442E+01  0.25625999905E+02  0.00000000000E+00 0. -1.
<scales pt_clust_5="13000.00000" pt_clust_6="13000.00000" pt_clust_7="13000.00000" pt_clust_8="13000.00000" pt_clust_9="24.23927"></scales>
<clustering>
<clus scale="   24.239">  1  9  2 -1</clus>
<clus scale="   90.895">  7  8 -1 -1</clus>
<clus scale="   91.724">  5  6 -1 -1</clus>
<clus scale="  113.438">  1  7  2 -1</clus>
<clus scale="   24.239">  1  5  2 -1</clus>
</clustering>
</event>
<event>
 9    1  0.1175034E-005  0.1120419E+03  0.7546771E-02  0.1257507E+00
         -2   -1    0    0    0  501 -0.00000000000E+00  0.00000000000E+00  0.26115190789E+02  0.26115190789E+02  0.00000000000E+00 0.  1.
          2   -1    0    0  502    0  0.00000000000E+00 -0.00000000000E+00 -0.67310210401E+03  0.67310210401E+03  0.00000000000E+00 0. -1.
         23    2    1    2    0    0  0.33035058224E+02  0.32859845136E+02 -0.25041343641E+03  0.27201311483E+03  0.95462877643E+02 0.  0.
         23    2    1    2    0    0 -0.52859249033E+02 -0.43268614098E+02 -0.38481885322E+03  0.40191560175E+03  0.93724745752E+02 0.  0.
        -11    1    3    3    0    0 -0.81009127938E+01  0.42074170241E+02 -0.44291670191E+02  0.61624772924E+02  0.00000000000E+00 0.  1.
         11    1    3    3    0    0  0.41135971018E+02 -0.92143251054E+01 -0.20612176622E+03  0.21038834190E+03  0.00000000000E+00 0. -1.
        -13    1    4    4    0    0 -0.35249402519E+02 -0.72708206693E+02 -0.29147979085E+03  0.30247226678E+03  0.00000000000E+00 0. -1.
         13    1    4    4    0    0 -0.17609846515E+02  0.29439592595E+02 -0.93339062369E+02  0.99443334971E+02  0.00000000000E+00 0.  1.
         21    1    1    2  502  501  0.19824190809E+02  0.10408768962E+02 -0.11754623588E+02  0.25288578217E+02  0.00000000000E+00 0. -1.
<scales pt_clust_5="13000.00000" pt_clust_6="13000.00000" pt_clust_7="13000.00000" pt_clust_8="13000.00000" pt_clust_9="22.39065"></scales>
<clustering>
<clus scale="   22.391">  1  9  2 -1</clus>
<clus scale="   93.725">  7  8 -1 -1</clus>
<clus scale="   95.463">  5  6 -1 -1</clus>
<clus scale="  110.565">  2  7  1 -1</clus>
<clus scale="  110.565">  2  5  1 -1</clus>
</clustering>
</event>
<event>
 9    1  0.1175034E-005  0.1012625E+03  0.7546771E-02  0.1279244E+00
         -1   -1    0    0    0  501 -0.00000000000E+00  0.00000000000E+00  0.21021004033E+02  0.21021004033E+02  0.00000000000E+00 0.  1.
          1   -1    0    0  502    0  0.00000000000E+00 -0.00000000000E+00 -0.87996790999E+03  0.87996790999E+03  0.00000000000E+00 0. -1.
         23    2    1    2    0    0  0.88668193482E+00 -0.48037304861E+02 -0.36751585770E+03  0.38178345489E+03  0.91555075800E+02 0.  0.
         23    2    1    2    0    0  0.78649237564E+01  0.26595915454E+02 -0.48530522957E+03  0.49525030444E+03  0.94776043680E+02 0.  0.
        -13    1    3    3    0    0 -0.30737477273E+02  0.89384897184E+01 -0.66609754648E+02  0.73902290370E+02  0.00000000000E+00 0. -1.
         13    1    3    3    0    0  0.31624159208E+02 -0.56975794580E+02 -0.30090610305E+03  0.30788116452E+03  0.00000000000E+00 0.  1.
        -13    1    4    4    0    0  0.48015380860E+02 -0.41255476434E+01 -0.23497892327E+03  0.23986994669E+03  0.00000000000E+00 0.  1.
         13    1    4    4    0    0 -0.40150457103E+02  0.30721463097E+02 -0.25032630630E+03  0.25538035775E+03  0.00000000000E+00 0. -1.
         21    1    1    2  502  501 -0.87516056912E+01  0.21441389407E+02 -0.61258186924E+01  0.23955154697E+02  0.00000000000E+00 0. -1.
<scales pt_clust_5="13000.00000" pt_clust_6="13000.00000" pt_clust_7="13000.00000" pt_clust_8="13000.00000" pt_clust_9="23.15867"></scales>
<clustering>
<clus scale="   23.159">  1  9  2 -1</clus>
<clus scale="   91.555">  5  6 -1 -1</clus>
<clus scale="   94.776">  7  8 -1 -1</clus>
<clus scale="   98.254">  1  5  2 -1</clus>
<clus scale="  101.262">  2  5  1 -1</clus>
</clustering>
</event>
<event>
 9    1  0.1175034E-005  0.9221993E+02  0.7546771E-02  0.1300884E+00
         -1   -1    0    0    0  501 -0.00000000000E+00  0.00000000000E+00  0.55228080504E+02  0.55228080504E+02  0.00000000000E+00 0.  1.
          1   -1    0    0  502    0  0.00000000000E+00 -0.00000000000E+00 -0.21867969079E+03  0.21867969079E+03  0.00000000000E+00 0. -1.
         23    2    1    2    0    0  0.28771420839E+02 -0.10929873698E+02 -0.66595753262E+02  0.11711487477E+03  0.91288787614E+02 0.  0.
         23    2    1    2    0    0  0.36380870458E+01  0.72951347654E+01 -0.87689689459E+02  0.12291656030E+03  0.85746979475E+02 0.  0.
        -13    1    3    3    0    0 -0.17526572750E+02 -0.36153203147E+02 -0.13746993018E+02  0.42464275188E+02  0.00000000000E+00 0.  1.
         13    1    3    3    0    0  0.46297993589E+02  0.25223329449E+02 -0.52848760243E+02  0.74650599583E+02  0.00000000000E+00 0. -1.
        -13    1    4    4    0    0 -0.11263547127E+02  0.41856201298E+02 -0.25687151004E+02  0.50384906546E+02  0.00000000000E+00 0. -1.
         13    1    4    4    0    0  0.14901634173E+02 -0.34561066533E+02 -0.62002538455E+02  0.72531653750E+02  0.00000000000E+00 0.  1.
         21    1    1    2  502  501 -0.32409507885E+02  0.36347389325E+01 -0.91661675675E+01  0.33876336229E+02  0.00000000000E+00 0.  1.
<scales pt_clust_5="13000.00000" pt_clust_6="13000.00000" pt_clust_7="13000.00000" pt_clust_8="13000.00000" pt_clust_9="32.61269"></scales>
<clustering>
<clus scale="   32.613">  1  9  2 -1</clus>
<clus scale="   85.747">  7  8 -1 -1</clus>
<clus scale="   86.738">  2  7  1 -1</clus>
<clus scale="   91.289">  5  6 -1 -1</clus>
<clus scale="   86.738">  2  5  1 -1</clus>
</clustering>
</event>
<event>
 9    1  0.1175034E-005  0.1010640E+03  0.7546771E-02  0.1278962E+00
          2   -1    0    0  502    0  0.00000000000E+00  0.00000000000E+00  0.34908041345E+03  0.34908041345E+03  0.00000000000E+00 0. -1.
         -2   -1    0    0    0  501 -0.00000000000E+00 -0.00000000000E+00 -0.12296840163E+03  0.12296840163E+03  0.00000000000E+00 0.  1.
         23    2    1    2    0    0  0.86434224165E+01 -0.13852723394E+02  0.66753672779E+02  0.11277692551E+03  0.89420218083E+02 0.  0.
         23    2    1    2    0    0  0.71754322462E+01  0.58169581663E+02  0.24141831647E+03  0.26467770378E+03  0.91303320296E+02 0.  0.
        -11    1    3    3    0    0  0.89927439535E+01  0.29123645266E+02 -0.32290386948E+01  0.30650984459E+02  0.00000000000E+00 0. -1.
         11    1    3    3    0    0 -0.34932153710E+00 -0.42976368660E+02  0.69982711474E+02  0.82125941054E+02  0.00000000000E+00 0.  1.
        -13    1    4    4    0    0  0.29139352204E+02 -0.12800045885E+02  0.99864114120E+02  0.10481309227E+03  0.00000000000E+00 0.  1.
         13    1    4    4    0    0 -0.21963919958E+02  0.70969627548E+02  0.14155420234E+03  0.15986461152E+03  0.00000000000E+00 0. -1.
         21    1    1    2  502  501 -0.15818854663E+02 -0.44316858269E+02 -0.82059977426E+02  0.94594185788E+02  0.00000000000E+00 0.  1.
<scales pt_clust_5="13000.00000" pt_clust_6="13000.00000" pt_clust_7="13000.00000" pt_clust_8="13000.00000" pt_clust_9="47.05550"></scales>
<clustering>
<clus scale="   47.056">  2  9  1 -1</clus>
<clus scale="   89.420">  5  6 -1 -1</clus>
<clus scale="   91.303">  7  8 -1 -1</clus>
<clus scale="   99.366">  2  5  1 -1</clus>
<clus scale="  101.064">  1  5  2 -1</clus>
</clustering>
</event>
<event>
 9    1  0.1175034E-005  0.1020766E+03  0.7546771E-02  0.1276634E+00
         -2   -1    0    0    0  501 -0.00000000000E+00  0.00000000000E+00  0.76597869723E+02  0.76597869723E+02  0.00000000000E+00 0.  1.
          2   -1    0    0  502    0  0.00000000000E+00 -0.00000000000E+00 -0.35989340818E+03  0.35989340818E+03  0.00000000000E+00 0. -1.
         23    2    1    2    0    0  0.54929732811E+02 -0.47529944991E+02 -0.15408845984E+03  0.19340469293E+03  0.91573743921E+02 0.  0.
         23    2    1    2    0    0  0.98538880609E+01  0.30597933027E+02 -0.14412466895E+03  0.17448523613E+03  0.92950765516E+02 0.  0.
        -11    1    3    3    0    0 -0.13590868196E+02 -0.46258257960E+02 -0.68313513324E+02  0.83613839946E+02  0.00000000000E+00 0.  1.
         11    1    3    3    0    0  0.68520601007E+02 -0.12716870310E+01 -0.85774946512E+02  0.10979085299E+03  0.00000000000E+00 0. -1.
        -11    1    4    4    0    0  0.27924943572E+02  0.16734583026E+02 -0.14786282542E+03  0.15140430602E+03  0.00000000000E+00 0. -1.
         11    1    4    4    0    0 -0.18071055511E+02  0.13863350001E+02  0.37381564659E+01  0.23080930100E+02  0.00000000000E+00 0.  1.
         21    1    1    2  502  501 -0.64783620872E+02  0.16932011964E+02  0.14917590329E+02  0.68601348847E+02  0.00000000000E+00 0.  1.
<scales pt_clust_5="13000.00000" pt_clust_6="13000.00000" pt_clust_7="13000.00000" pt_clust_8="13000.00000" pt_clust_9="66.95977"></scales>
<clustering>
<clus scale="   66.960">  1  9  2 -1</clus>
<clus scale="   91.574">  5  6 -1 -1</clus>
<clus scale="   92.951">  7  8 -1 -1</clus>
<clus scale="  100.824">  1  5  2 -1</clus>
<clus scale="  102.077">  2  5  1 -1</clus>
</clustering>
</event>
<event>
 9    1  0.1175034E-005  0.1007321E+03  0.7546771E-02  0.1279038E+00
          1   -1    0    0  502    0  0.00000000000E+00  0.00000000000E+00  0.36512050779E+03  0.36512050779E+03  0.00000000000E+00 0. -1.
         -1   -1    0    0    0  501 -0.00000000000E+00 -0.00000000000E+00 -0.79897590955E+02  0.79897590955E+02  0.00000000000E+00 0.  1.
         23    2    1    2    0    0  0.58543229713E+01 -0.52109112138E+02  0.18600580208E+02  0.10713319730E+03  0.91552759182E+02 0.  0.
         23    2    1    2    0    0 -0.20396009169E+02  0.35243797131E+02  0.28936794882E+03  0.30605311918E+03  0.90975708439E+02 0.  0.
        -11    1    4    4    0    0  0.33191499572E+02  0.29497359717E+02  0.10589533948E+03  0.11482853651E+03  0.00000000000E+00 0.  1.
         11    1    4    4    0    0 -0.53587508742E+02  0.57464374136E+01  0.18347260935E+03  0.19122458267E+03  0.00000000000E+00 0. -1.
        -13    1    3    3    0    0  0.39175893371E+02 -0.56544998838E+02  0.24462703322E+02  0.73010351108E+02  0.00000000000E+00 0.  1.
         13    1    3    3    0    0 -0.33321570400E+02  0.44358866998E+01 -0.58621231145E+01  0.34122846190E+02  0.00000000000E+00 0. -1.
         21    1    1    2  502  501  0.14541686198E+02  0.16865315007E+02 -0.22745612201E+02  0.31831782265E+02  0.00000000000E+00 0. -1.
<scales pt_clust_5="13000.00000" pt_clust_6="13000.00000" pt_clust_7="13000.00000" pt_clust_8="13000.00000" pt_clust_9="22.26880"></scales>
<clustering>
<clus scale="   22.269">  2  9  1 -1</clus>
<clus scale="   90.976">  5  6 -1 -1</clus>
<clus scale="   91.553">  7  8 -1 -1</clus>
<clus scale="  100.208">  1  5  2 -1</clus>
<clus scale="  100.208">  1  5  2 -1</clus>
</clustering>
</event>
<event>
 9    1  0.1175034E-005  0.1110388E+03  0.7546771E-02  0.1259550E+00
          3   -1    0    0  502    0  0.00000000000E+00  0.00000000000E+00  0.61836876396E+02  0.61836876396E+02  0.00000000000E+00 0. -1.
         -3   -1    0    0    0  501 -0.00000000000E+00 -0.00000000000E+00 -0.51115809283E+03  0.51115809283E+03  0.00000000000E+00 0.  1.
         23    2    1    2    0    0  0.10077841080E+03  0.40749425972E+02 -0.19088359428E+03  0.23797882302E+03  0.91545452339E+02 0.  0.
         23    2    1    2    0    0 -0.19525557885E+02 -0.47798415405E+02 -0.57173910648E+02  0.11785538564E+03  0.89191366956E+02 0.  0.
        -11    1    3    3    0    0  0.43422617444E+02  0.19866702325E+02 -0.16483777069E+03  0.17161497666E+03  0.00000000000E+00 0.  1.
         11    1    3    3    0    0  0.57355793351E+02  0.20882723647E+02 -0.26045823583E+02  0.66363846362E+02  0.00000000000E+00 0. -1.
        -13    1    4    4    0    0 -0.50918144262E+02 -0.30654658274E+02 -0.12687909338E+02  0.60772925981E+02  0.00000000000E+00 0.  1.
         13    1    4    4    0    0  0.31392586377E+02 -0.17143757132E+02 -0.44486001310E+02  0.57082459658E+02  0.00000000000E+00 0. -1.
         21    1    1    2  502  501 -0.81252852910E+02  0.70489894332E+01 -0.20126371151E+03  0.21716076056E+03  0.00000000000E+00 0.  1.
<scales pt_clust_5="13000.00000" pt_clust_6="13000.00000" pt_clust_7="13000.00000" pt_clust_8="13000.00000" pt_clust_9="81.55804"></scales>
<clustering>
<clus scale="   81.558">  2  9  1 -1</clus>
<clus scale="   89.191">  7  8 -1 -1</clus>
<clus scale="   91.545">  5  6 -1 -1</clus>
<clus scale="  109.106">  1  7  2 -1</clus>
<clus scale="  109.106">  1  5  2 -1</clus>
</clustering>
</event>
<event>
 9    1  0.1175034E-005  0.1044159E+03  0.7546771E-02  0.1273527E+00
         -2   -1    0    0    0  501 -0.00000000000E+00  0.00000000000E+00  0.38459075799E+02  0.38459075799E+02  0.00000000000E+00 0.  1.
          2   -1    0    0  502    0  0.00000000000E+00 -0.00000000000E+00 -0.43054637712E+03  0.43054637712E+03  0.00000000000E+00 0. -1.
         23    2    1    2    0    0  0.28719120864E+02 -0.18252553986E+02 -0.64265502801E+02  0.11670905152E+03  0.91285290300E+02 0.  0.
         23    2    1    2    0    0 -0.51060991510E+02  0.23849373450E+02 -0.29281510389E+03  0.31039231758E+03  0.86178235530E+02 0.  0.
        -11    1    4    4    0    0 -0.15306865535E+02  0.49776098376E+02 -0.10190618485E+03  0.11444138505E+03  0.00000000000E+00 0.  1.
         11    1    4    4    0    0 -0.35754125976E+02 -0.25926724926E+02 -0.19090891904E+03  0.19595093253E+03  0.00000000000E+00 0. -1.
        -13    1    3    3    0    0  0.10593469966E+02 -0.54335450520E+02 -0.26315231231E+02  0.61294813679E+02  0.00000000000E+00 0. -1.
         13    1    3    3    0    0  0.18125650898E+02  0.36082896534E+02 -0.37950271570E+02  0.55414237837E+02  0.00000000000E+00 0.  1.
         21    1    1    2  502  501  0.22341870646E+02 -0.55968194642E+01 -0.35006694631E+02  0.41904083823E+02  0.00000000000E+00 0. -1.
<scales pt_clust_5="13000.00000" pt_clust_6="13000.00000" pt_clust_7="13000.00000" pt_clust_8="13000.00000" pt_clust_9="23.03223"></scales>
<clustering>
<clus scale="   23.032">  1  9  2 -1</clus>
<clus scale="   86.178">  5  6 -1 -1</clus>
<clus scale="   91.285">  7  8 -1 -1</clus>
<clus scale="   99.982">  2  5  1 -1</clus>
<clus scale="   99.982">  2  5  1 -1</clus>
</clustering>
</event>
<event>
 9    1  0.1175034E-005  0.2638744E+03  0.7546771E-02  0.1104849E+00
          2   -1    0    0  502    0  0.00000000000E+00  0.00000000000E+00  0.27414329986E+03  0.27414329986E+03  0.00000000000E+00 0. -1.
         -2   -1    0    0    0  501 -0.00000000000E+00 -0.00000000000E+00 -0.42366932400E+03  0.42366932400E+03  0.00000000000E+00 0.  1.
         23    2    1    2    0    0 -0.53232472352E+02  0.25035193840E+03 -0.26231806582E+03  0.37793374730E+03  0.92267873730E+02 0.  0.
         23    2    1    2    0    0  0.26839383553E+01 -0.22329895849E+03  0.96664852446E+02  0.26032130573E+03  0.92484918379E+02 0.  0.
        -11    1    3    3    0    0 -0.74485130217E+02  0.13815828633E+03 -0.16708490502E+03  0.22924465575E+03  0.00000000000E+00 0. -1.
         11    1    3    3    0    0  0.21252657865E+02  0.11219365207E+03 -0.95233160804E+02  0.14868909155E+03  0.00000000000E+00 0.  1.
        -11    1    4    4    0    0 -0.26461799371E+02 -0.13876929293E+03  0.20270297851E+02  0.14271660191E+03  0.00000000000E+00 0.  1.
         11    1    4    4    0    0  0.29145737726E+02 -0.84529665567E+02  0.76394554595E+02  0.11760470382E+03  0.00000000000E+00 0. -1.
         21    1    1    2  502  501  0.50548533997E+02 -0.27052979903E+02  0.16127189238E+02  0.59557570833E+02  0.00000000000E+00 0.  1.
<scales pt_clust_5="13000.00000" pt_clust_6="13000.00000" pt_clust_7="13000.00000" pt_clust_8="13000.00000" pt_clust_9="57.33252"></scales>
<clustering>
<clus scale="   57.333">  1  9  2 -1</clus>
<clus scale="   92.268">  5  6 -1 -1</clus>
<clus scale="   92.485">  7  8 -1 -1</clus>
<clus scale="  263.798">  2  5  1 -1</clus>
<clus scale="   57.333">  1  5  2 -1</clus>
</clustering>
</event>
<event>
 9    1  0.1175034E-005  0.9540172E+02  0.7546771E-02  0.1291177E+00
          1   -1    0    0  502    0  0.00000000000E+00  0.00000000000E+00  0.11720742428E+03  0.11720742428E+03  0.00000000000E+00 0. -1.
         -1   -1    0    0    0  501 -0.00000000000E+00 -0.00000000000E+00 -0.11636466233E+03  0.11636466233E+03  0.00000000000E+00 0.  1.
         23    2    1    2    0    0 -0.72506949429E+01  0.35980659870E+02 -0.64546311119E+01  0.98686008002E+02  0.91378801977E+02 0.  0.
         23    2    1    2    0    0 -0.89654361642E+01 -0.21975333789E+02  0.35597418364E+02  0.99389550618E+02  0.89709599471E+02 0.  0.
        -11    1    4    4    0    0  0.33240660031E+02  0.15529952997E+01  0.38613819185E+02  0.50974310253E+02  0.00000000000E+00 0. -1.
         11    1    4    4    0    0 -0.42206096195E+02 -0.23528329088E+02 -0.30164008205E+01  0.48415240366E+02  0.00000000000E+00 0.  1.
        -11    1    3    3    0    0  0.77783568432E+01 -0.25817896906E+02  0.15862933973E+02  0.31284170279E+02  0.00000000000E+00 0. -1.
         11    1    3    3    0    0 -0.15029051786E+02  0.61798556775E+02 -0.22317565085E+02  0.67401837723E+02  0.00000000000E+00 0.  1.
         21    1    1    2  502  501  0.16216131107E+02 -0.14005326081E+02 -0.28300025308E+02  0.35496527988E+02  0.00000000000E+00 0.  1.
<scales pt_clust_5="13000.00000" pt_clust_6="13000.00000" pt_clust_7="13000.00000" pt_clust_8="13000.00000" pt_clust_9="21.42690"></scales>
<clustering>
<clus scale="   21.427">  2  9  1 -1</clus>
<clus scale="   89.710">  5  6 -1 -1</clus>
<clus scale="   91.379">  7  8 -1 -1</clus>
<clus scale="   93.804">  1  5  2 -1</clus>
<clus scale="   93.804">  1  5  2 -1</clus>
</clustering>
</event>
<event>
 9    1  0.1175034E-005  0.1371653E+03  0.7546771E-02  0.1227528E+00
          1   -1    0    0  502    0  0.00000000000E+00  0.00000000000E+00  0.12165106543E+03  0.12165106543E+03  0.00000000000E+00 0. -1.
         -1   -1    0    0    0  501 -0.00000000000E+00 -0.00000000000E+00 -0.16419352673E+03  0.16419352673E+03  0.00000000000E+00 0.  1.
         23    2    1    2    0    0 -0.84482342691E+02 -0.21960196254E+02 -0.61735710785E+01  0.11815509364E+03  0.79391414688E+02 0.  0.
         23    2    1    2    0    0  0.65710008751E+02  0.12910523057E+01 -0.14145504699E+02  0.13200346628E+03  0.11360170659E+03 0.  0.
        -11    1    3    3    0    0 -0.19846340837E+02  0.22027584245E+02 -0.23786579678E+02  0.38011749303E+02  0.00000000000E+00 0. -1.
         11    1    3    3    0    0 -0.64636001854E+02 -0.43987780499E+02  0.17613008599E+02  0.80143344333E+02  0.00000000000E+00 0.  1.
        -13    1    4    4    0    0  0.31682124748E+02 -0.30725970175E+02  0.40643470506E+02  0.59997783013E+02  0.00000000000E+00 0. -1.
         13    1    4    4    0    0  0.34027884003E+02  0.32017022480E+02 -0.54788975204E+02  0.72005683263E+02  0.00000000000E+00 0.  1.
         21    1    1    2  502  501  0.18772333940E+02  0.20669143948E+02 -0.22223385521E+02  0.35686032241E+02  0.00000000000E+00 0.  1.
<scales pt_clust_5="13000.00000" pt_clust_6="13000.00000" pt_clust_7="13000.00000" pt_clust_8="13000.00000" pt_clust_9="27.92157"></scales>
<clustering>
<clus scale="   27.922">  2  9  1 -1</clus>
<clus scale="   79.391">  5  6 -1 -1</clus>
<clus scale="  110.508">  2  5  1 -1</clus>
<clus scale="  113.602">  7  8 -1 -1</clus>
<clus scale="  137.165">  1  5  2 -1</clus>
</clustering>
</event>
<event>
 9    1  0.1175034E-005  0.9227772E+02  0.7546771E-02  0.1298023E+00
          2   -1    0    0  502    0  0.00000000000E+00  0.00000000000E+00  0.28389032595E+03  0.28389032595E+03  0.00000000000E+00 0. -1.
         -2   -1    0    0    0  501 -0.00000000000E+00 -0.00000000000E+00 -0.78318097557E+02  0.78318097557E+02  0.00000000000E+00 0.  1.
         23    2    1    2    0    0 -0.10890591128E+02 -0.10291778612E+02  0.46951504436E+01  0.91939102251E+02  0.90588235456E+02 0.  0.
         23    2    1    2    0    0 -0.32907617813E+01 -0.15753798131E+02  0.21730068359E+03  0.23636920826E+03  0.91606791551E+02 0.  0.
        -11    1    3    3    0    0 -0.43639316884E+02  0.18469108985E+02 -0.37813382956E+01  0.47537316754E+02  0.00000000000E+00 0.  1.
         11    1    3    3    0    0  0.32748725756E+02 -0.28760887597E+02  0.84764887392E+01  0.44401785498E+02  0.00000000000E+00 0. -1.
        -11    1    4    4    0    0 -0.21887849683E+02  0.30731715296E+02  0.13371034328E+03  0.13893153778E+03  0.00000000000E+00 0.  1.
         11    1    4    4    0    0  0.18597087901E+02 -0.46485513428E+02  0.83590340306E+02  0.97437670485E+02  0.00000000000E+00 0. -1.
         21    1    1    2  502  501  0.14181352910E+02  0.26045576744E+02 -0.16423605643E+02  0.33900112988E+02  0.00000000000E+00 0. -1.
<scales pt_clust_5="13000.00000" pt_clust_6="13000.00000" pt_clust_7="13000.00000" pt_clust_8="13000.00000" pt_clust_9="29.65608"></scales>
<clustering>
<clus scale="   29.656">  2  9  1 -1</clus>
<clus scale="   90.588">  5  6 -1 -1</clus>
<clus scale="   91.267">  2  5  1 -1</clus>
<clus scale="   91.607">  7  8 -1 -1</clus>
<clus scale="   92.278">  1  5  2 -1</clus>
</clustering>
</event>
<event>
 9    1  0.1175034E-005  0.1361088E+03  0.7546771E-02  0.1218801E+00
          2   -1    0    0  502    0  0.00000000000E+00  0.00000000000E+00  0.78915739024E+03  0.78915739024E+03  0.00000000000E+00 0. -1.
         -2   -1    0    0    0  501 -0.00000000000E+00 -0.00000000000E+00 -0.43967203663E+02  0.43967203663E+02  0.00000000000E+00 0.  1.
         23    2    1    2    0    0 -0.76916873993E+02 -0.59147022126E+02  0.13742481060E+03  0.19136742022E+03  0.91221352893E+02 0.  0.
         23    2    1    2    0    0  0.67072398363E+02  0.76688414837E+02  0.60626809083E+03  0.62158650137E+03  0.91809373924E+02 0.  0.
        -11    1    4    4    0    0  0.71991517301E+02  0.23716699422E+02  0.45420188735E+03  0.46048302343E+03  0.00000000000E+00 0. -1.
         11    1    4    4    0    0 -0.49191189373E+01  0.52971715415E+02  0.15206620348E+03  0.16110347794E+03  0.00000000000E+00 0.  1.
        -13    1    3    3    0    0 -0.22423689587E+01 -0.46614398830E+02  0.91756500810E+02  0.10294263372E+03  0.00000000000E+00 0. -1.
         13    1    3    3    0    0 -0.74674505035E+02 -0.12532623296E+02  0.45668309790E+02  0.88424786502E+02  0.00000000000E+00 0.  1.
         21    1    1    2  502  501  0.98444756300E+01 -0.17541392711E+02  0.14972851552E+01  0.20170672312E+02  0.00000000000E+00 0.  1.
<scales pt_clust_5="13000.00000" pt_clust_6="13000.00000" pt_clust_7="13000.00000" pt_clust_8="13000.00000" pt_clust_9="20.11502"></scales>
<clustering>
<clus scale="   20.115">  2  9  1 -1</clus>
<clus scale="   91.221">  7  8 -1 -1</clus>
<clus scale="   91.809">  5  6 -1 -1</clus>
<clus scale="  135.713">  2  7  1 -1</clus>
<clus scale="  136.109">  1  5  2 -1</clus>
</clustering>
</event>
<event>
 9    1  0.1175034E-005  0.9774633E+02  0.7546771E-02  0.1285305E+00
          2   -1    0    0  502    0  0.00000000000E+00  0.00000000000E+00  0.34200654180E+02  0.34200654180E+02  0.00000000000E+00 0.  1.
         -2   -1    0    0    0  501 -0.00000000000E+00 -0.00000000000E+00 -0.48321311282E+03  0.48321311282E+03  0.00000000000E+00 0. -1.
         23    2    1    2    0    0  0.15961461546E+02  0.11231863146E+02 -0.24238476878E+03  0.25992342117E+03  0.91808963242E+02 0.  0.
         23    2    1    2    0    0 -0.49979938251E+00 -0.42856114183E+02 -0.88621811579E+02  0.13434594458E+03  0.91422705139E+02 0.  0.
        -13    1    3    3    0    0  0.45367852630E+02  0.32997592847E+02 -0.12600868963E+03  0.13793213203E+03  0.00000000000E+00 0.  1.
         13    1    3    3    0    0 -0.29406391084E+02 -0.21765729701E+02 -0.11637607915E+03  0.12199128913E+03  0.00000000000E+00 0. -1.
        -13    1    4    4    0    0 -0.31622688383E+02  0.11172002888E+01 -0.70887585454E+02  0.77629197655E+02  0.00000000000E+00 0. -1.
         13    1    4    4    0    0  0.31122889000E+02 -0.43973314472E+02 -0.17734226124E+02  0.56716746923E+02  0.00000000000E+00 0.  1.
         21    1    1    2  502  501 -0.15461662164E+02  0.31624251037E+02 -0.11800587829E+03  0.12314440126E+03  0.00000000000E+00 0. -1.
<scales pt_clust_5="13000.00000" pt_clust_6="13000.00000" pt_clust_7="13000.00000" pt_clust_8="13000.00000" pt_clust_9="35.20165"></scales>
<clustering>
<clus scale="   35.202">  2  9  1 -1</clus>
<clus scale="   91.423">  7  8 -1 -1</clus>
<clus scale="   91.809">  5  6 -1 -1</clus>
<clus scale="   97.384">  1  7  2 -1</clus>
<clus scale="   97.384">  1  5  2 -1</clus>
</clustering>
</event>
<event>
 9    1  0.1175034E-005  0.2973819E+03  0.7546771E-02  0.1128779E+00
         -4   -1    0    0    0  501 -0.00000000000E+00  0.00000000000E+00  0.33667848197E+03  0.33667848197E+03  0.00000000000E+00 0.  1.
          4   -1    0    0  502    0  0.00000000000E+00 -0.00000000000E+00 -0.59455342635E+03  0.59455342635E+03  0.00000000000E+00 0. -1.
         23    2    1    2    0    0 -0.16158505859E+02  0.37602736073E+02  0.14705694560E+03  0.17836627459E+03  0.92269819504E+02 0.  0.
         23    2    1    2    0    0  0.68668276929E+01  0.27143678873E+03 -0.32570856653E+03  0.43369781244E+03  0.91009002860E+02 0.  0.
        -11    1    4    4    0    0 -0.35411522497E+01  0.24345691069E+03 -0.32188498382E+03  0.40360097860E+03  0.00000000000E+00 0. -1.
         11    1    4    4    0    0  0.10407979943E+02  0.27979878048E+02 -0.38235827071E+01  0.30096833833E+02  0.00000000000E+00 0.  1.
        -13    1    3    3    0    0  0.40982339004E+01 -0.20078106151E+02  0.97610259136E+02  0.99738099823E+02  0.00000000000E+00 0.  1.
         13    1    3    3    0    0 -0.20256739759E+02  0.57680842224E+02  0.49446686461E+02  0.78628174767E+02  0.00000000000E+00 0. -1.
         21    1    1    2  502  501  0.92916781660E+01 -0.30903952481E+03 -0.79223323447E+02  0.31916782130E+03  0.00000000000E+00 0.  1.
<scales pt_clust_5="13000.00000" pt_clust_6="13000.00000" pt_clust_7="13000.00000" pt_clust_8="13000.00000" pt_clust_9="283.11372"></scales>
<clustering>
<clus scale="   91.009">  5  6 -1 -1</clus>
<clus scale="   92.270">  7  8 -1 -1</clus>
<clus scale="  100.940">  1  7  2 -1</clus>
<clus scale="  283.114">  1  9  2 -1</clus>
<clus scale="  297.382">  2  5  1 -1</clus>
</clustering>
</event>
<event>
 9    1  0.1175034E-005  0.2295408E+03  0.7546771E-02  0.1127677E+00
         -2   -1    0    0    0  501 -0.00000000000E+00  0.00000000000E+00  0.36225149564E+03  0.36225149564E+03  0.00000000000E+00 0.  1.
          2   -1    0    0  502    0  0.00000000000E+00 -0.00000000000E+00 -0.17060064175E+03  0.17060064175E+03  0.00000000000E+00 0. -1.
         23    2    1    2    0    0  0.48769357737E+02  0.20512925963E+03  0.12234078010E+03  0.25888935986E+03  0.87177811207E+02 0.  0.
         23    2    1    2    0    0 -0.14847051111E+02 -0.20653822512E+03  0.47397977613E+02  0.23355426321E+03  0.97069831663E+02 0.  0.
        -11    1    3    3    0    0  0.60441623784E+02  0.13629763501E+03  0.47361186799E+02  0.15643950016E+03  0.00000000000E+00 0. -1.
         11    1    3    3    0    0 -0.11672266048E+02  0.68831624613E+02  0.74979593301E+02  0.10244985970E+03  0.00000000000E+00 0.  1.
        -13    1    4    4    0    0 -0.48782094524E+02 -0.62936244315E+02  0.39188909705E+01  0.79724659304E+02  0.00000000000E+00 0.  1.
         13    1    4    4    0    0  0.33935043413E+02 -0.14360198081E+03  0.43479086642E+02  0.15382960391E+03  0.00000000000E+00 0. -1.
         21    1    1    2  502  501 -0.33922306625E+02  0.14089654986E+01  0.21912096179E+02  0.40408514319E+02  0.00000000000E+00 0. -1.
<scales pt_clust_5="13000.00000" pt_clust_6="13000.00000" pt_clust_7="13000.00000" pt_clust_8="13000.00000" pt_clust_9="33.95155"></scales>
<clustering>
<clus scale="   33.952">  1  9  2 -1</clus>
<clus scale="   87.178">  5  6 -1 -1</clus>
<clus scale="   97.070">  7  8 -1 -1</clus>
<clus scale="  225.536">  1  5  2 -1</clus>
<clus scale="  229.541">  2  5  1 -1</clus>
</clustering>
</event>
<event>
 9    1  0.1175034E-005  0.1044713E+03  0.7546771E-02  0.1271182E+00
         -2   -1    0    0    0  501 -0.00000000000E+00  0.00000000000E+00  0.42460331344E+02  0.42460331344E+02  0.00000000000E+00 0.  1.
          2   -1    0    0  502    0  0.00000000000E+00 -0.00000000000E+00 -0.35487869568E+03  0.35487869568E+03  0.00000000000E+00 0. -1.
         23    2    1    2    0    0 -0.57299886019E+02  0.14235784338E+02 -0.12249727989E+03  0.16376104637E+03  0.91247806728E+02 0.  0.
         23    2    1    2    0    0  0.33804006854E+02 -0.34549339738E+02 -0.16028508473E+03  0.19064792883E+03  0.91208314447E+02 0.  0.
        -11    1    4    4    0    0  0.47248894200E+02 -0.58648467742E+02 -0.12367931285E+03  0.14480563939E+03  0.00000000000E+00 0.  1.
         11    1    4    4    0    0 -0.13444887346E+02  0.24099128003E+02 -0.36605771884E+02  0.45842289444E+02  0.00000000000E+00 0. -1.
        -13    1    3    3    0    0  0.58774472639E+01  0.34838097751E+02 -0.17313472728E+02  0.39344552089E+02  0.00000000000E+00 0. -1.
         13    1    3    3    0    0 -0.63177333283E+02 -0.20602313412E+02 -0.10518380717E+03  0.12441649428E+03  0.00000000000E+00 0.  1.
         21    1    1    2  502  501  0.23495879165E+02  0.20313555400E+02 -0.29635999707E+02  0.42930051821E+02  0.00000000000E+00 0. -1.
<scales pt_clust_5="13000.00000" pt_clust_6="13000.00000" pt_clust_7="13000.00000" pt_clust_8="13000.00000" pt_clust_9="31.05957"></scales>
<clustering>
<clus scale="   31.060">  1  9  2 -1</clus>
<clus scale="   91.208">  5  6 -1 -1</clus>
<clus scale="   91.248">  7  8 -1 -1</clus>
<clus scale="  104.437">  2  5  1 -1</clus>
<clus scale="  104.437">  2  5  1 -1</clus>
</clustering>
</event>
<event>
 9    1  0.1175034E-005  0.1005875E+03  0.7546771E-02  0.1282857E+00
          1   -1    0    0  502    0  0.00000000000E+00  0.00000000000E+00  0.25705526019E+03  0.25705526019E+03  0.00000000000E+00 0. -1.
         -1   -1    0    0    0  501 -0.00000000000E+00 -0.00000000000E+00 -0.12477423079E+03  0.12477423079E+03  0.00000000000E+00 0.  1.
         23    2    1    2    0    0  0.22652624371E+02 -0.99142324486E+01  0.20657953202E+02  0.95157192163E+02  0.89536064208E+02 0.  0.
         23    2    1    2    0    0  0.38789348412E+02 -0.31182293999E+02  0.16345662902E+03  0.19639075196E+03  0.96821014646E+02 0.  0.
        -11    1    3    3    0    0  0.53912550142E+02  0.55425849121E+00 -0.38894694112E+01  0.54055510705E+02  0.00000000000E+00 0.  1.
         11    1    3    3    0    0 -0.31259925770E+02 -0.10468490940E+02  0.24547422613E+02  0.41101681458E+02  0.00000000000E+00 0. -1.
        -13    1    4    4    0    0  0.65444874487E+02 -0.90699061481E+01  0.67849595023E+02  0.94704077731E+02  0.00000000000E+00 0.  1.
         13    1    4    4    0    0 -0.26655526075E+02 -0.22112387850E+02  0.95607033994E+02  0.10168667423E+03  0.00000000000E+00 0. -1.
         21    1    1    2  502  501 -0.61441972783E+02  0.41096526447E+02 -0.51833552823E+02  0.90281546861E+02  0.00000000000E+00 0. -1.
<scales pt_clust_5="13000.00000" pt_clust_6="13000.00000" pt_clust_7="13000.00000" pt_clust_8="13000.00000" pt_clust_9="73.91915"></scales>
<clustering>
<clus scale="   73.919">  2  9  1 -1</clus>
<clus scale="   89.536">  5  6 -1 -1</clus>
<clus scale="   93.596">  2  5  1 -1</clus>
<clus scale="   96.821">  7  8 -1 -1</clus>
<clus scale="  100.587">  1  5  2 -1</clus>
</clustering>
</event>
<event>
 9    1  0.1175034E-005  0.1134062E+03  0.7546771E-02  0.1255036E+00
         -2   -1    0    0    0  501 -0.00000000000E+00  0.00000000000E+00  0.74337234143E+02  0.74337234143E+02  0.00000000000E+00 0.  1.
          2   -1    0    0  502    0  0.00000000000E+00 -0.00000000000E+00 -0.43342989135E+03  0.43342989135E+03  0.00000000000E+00 0. -1.
         23    2    1    2    0    0  0.44749073051E+02 -0.10849603331E+03 -0.85840686815E+02  0.17064307830E+03  0.89311633471E+02 0.  0.
         23    2    1    2    0    0 -0.35717772620E+01  0.55118195793E+02 -0.23863126364E+03  0.26133911094E+03  0.91117933590E+02 0.  0.
        -13    1    4    4    0    0  0.34604494940E+02 -0.99807778752E-02 -0.47369068229E+02  0.58662592805E+02  0.00000000000E+00 0.  1.
         13    1    4    4    0    0 -0.38176272202E+02  0.55128176571E+02 -0.19126219541E+03  0.20267651814E+03  0.00000000000E+00 0. -1.
        -13    1    3    3    0    0  0.39192497279E+02 -0.51687541058E+02  0.31240207618E+01  0.64941614157E+02  0.00000000000E+00 0.  1.
         13    1    3    3    0    0  0.55565757717E+01 -0.56808492257E+02 -0.88964707577E+02  0.10570146414E+03  0.00000000000E+00 0. -1.
         21    1    1    2  502  501 -0.41177295789E+02  0.53377837522E+02 -0.34620706752E+02  0.75784936254E+02  0.00000000000E+00 0. -1.
<scales pt_clust_5="13000.00000" pt_clust_6="13000.00000" pt_clust_7="13000.00000" pt_clust_8="13000.00000" pt_clust_9="67.41486"></scales>
<clustering>
<clus scale="   67.415">  1  9  2 -1</clus>
<clus scale="   89.312">  7  8 -1 -1</clus>
<clus scale="   91.118">  5  6 -1 -1</clus>
<clus scale="  111.960">  1  7  2 -1</clus>
<clus scale="  113.406">  2  5  1 -1</clus>
</clustering>
</event>
<event>
 9    1  0.1175034E-005  0.9518665E+02  0.7546771E-02  0.1290849E+00
          2   -1    0    0  502    0  0.00000000000E+00  0.00000000000E+00  0.18676968138E+03  0.18676968138E+03  0.00000000000E+00 0. -1.
         -2   -1    0    0    0  501 -0.00000000000E+00 -0.00000000000E+00 -0.83009926035E+02  0.83009926035E+02  0.00000000000E+00 0.  1.
         23    2    1    2    0    0  0.13838155407E+02  0.34047982140E+02 -0.64078198399E+01  0.99732224708E+02  0.92491604252E+02 0.  0.
         23    2    1    2    0    0  0.39879475951E+01 -0.18741674935E+02  0.11208855042E+03  0.14647317786E+03  0.92322232386E+02 0.  0.
        -11    1    3    3    0    0  0.51443727618E+02  0.33307669780E+02  0.14724171332E+01  0.61302740474E+02  0.00000000000E+00 0.  1.
         11    1    3    3    0    0 -0.37605572211E+02  0.74031236018E+00 -0.78802369731E+01  0.38429484234E+02  0.00000000000E+00 0. -1.
        -13    1    4    4    0    0  0.21492823889E+02  0.33143548434E+02  0.48765581865E+02  0.62757615124E+02  0.00000000000E+00 0.  1.
         13    1    4    4    0    0 -0.17504876294E+02 -0.51885223368E+02  0.63322968551E+02  0.83715562736E+02  0.00000000000E+00 0. -1.
         21    1    1    2  502  501 -0.17826103002E+02 -0.15306307205E+02 -0.19209752273E+01  0.23574204850E+02  0.00000000000E+00 0. -1.
<scales pt_clust_5="13000.00000" pt_clust_6="13000.00000" pt_clust_7="13000.00000" pt_clust_8="13000.00000" pt_clust_9="23.49581"></scales>
<clustering>
<clus scale="   23.496">  2  9  1 -1</clus>
<clus scale="   92.322">  7  8 -1 -1</clus>
<clus scale="   92.492">  5  6 -1 -1</clus>
<clus scale="   95.022">  1  7  2 -1</clus>
<clus scale="   95.022">  1  5  2 -1</clus>
</clustering>
</event>
<event>
 9    1  0.1175034E-005  0.4959458E+03  0.7546771E-02  0.1014957E+00
         -1   -1    0    0    0  501 -0.00000000000E+00  0.00000000000E+00  0.25675985031E+03  0.25675985031E+03  0.00000000000E+00 0.  1.
          1   -1    0    0  502    0  0.00000000000E+00 -0.00000000000E+00 -0.10373656445E+04  0.10373656445E+04  0.00000000000E+00 0. -1.
         23    2    1    2    0    0  0.97390453711E+01  0.48919291123E+03 -0.31217014842E+03  0.58754303276E+03  0.91389607581E+02 0.  0.
         23    2    1    2    0    0 -0.41053160653E+02 -0.48158551600E+03 -0.45607584631E+03  0.67206853850E+03  0.10030439490E+03 0.  0.
        -11    1    4    4    0    0 -0.91889226657E+01 -0.10327281871E+03 -0.46598185330E+02  0.11367102648E+03  0.00000000000E+00 0.  1.
         11    1    4    4    0    0 -0.31864237987E+02 -0.37831269728E+03 -0.40947766098E+03  0.55839751202E+03  0.00000000000E+00 0. -1.
        -11    1    3    3    0    0  0.10483888993E+02  0.42151622501E+03 -0.30304138073E+03  0.51924937969E+03  0.00000000000E+00 0.  1.
         11    1    3    3    0    0 -0.74484362220E+00  0.67676686222E+02 -0.91287676957E+01  0.68293653070E+02  0.00000000000E+00 0. -1.
         21    1    1    2  502  501  0.31314115282E+02 -0.76073952374E+01 -0.12359799495E+02  0.34513923592E+02  0.00000000000E+00 0.  1.
<scales pt_clust_5="13000.00000" pt_clust_6="13000.00000" pt_clust_7="13000.00000" pt_clust_8="13000.00000" pt_clust_9="32.22493"></scales>
<clustering>
<clus scale="   32.225">  1  9  2 -1</clus>
<clus scale="   91.390">  7  8 -1 -1</clus>
<clus scale="  100.304">  5  6 -1 -1</clus>
<clus scale="  494.220">  1  7  2 -1</clus>
<clus scale="  495.946">  2  5  1 -1</clus>
</clustering>
</event>
<event>
 9    1  0.1175034E-005  0.1345121E+03  0.7546771E-02  0.1221004E+00
          1   -1    0    0  502    0  0.00000000000E+00  0.00000000000E+00  0.11443411121E+04  0.11443411121E+04  0.00000000000E+00 0. -1.
         -1   -1    0    0    0  501 -0.00000000000E+00 -0.00000000000E+00 -0.23926450135E+02  0.23926450135E+02  0.00000000000E+00 0.  1.
         23    2    1    2    0    0  0.61550156985E+02  0.72940238794E+02  0.40656988552E+03  0.42748494891E+03  0.91299558984E+02 0.  0.
         23    2    1    2    0    0 -0.33282290864E+02 -0.98364835378E+02  0.66345853623E+03  0.67766165349E+03  0.90910591210E+02 0.  0.
        -13    1    4    4    0    0  0.25130958381E+02 -0.66045649648E+02  0.30975957096E+03  0.31771777525E+03  0.00000000000E+00 0. -1.
         13    1    4    4    0    0 -0.58413249245E+02 -0.32319185730E+02  0.35369896527E+03  0.35994387824E+03  0.00000000000E+00 0.  1.
        -13    1    3    3    0    0 -0.21365380965E+02  0.14865142939E+01  0.47552195661E+02  0.52152665711E+02  0.00000000000E+00 0.  1.
         13    1    3    3    0    0  0.82915537950E+02  0.71453724500E+02  0.35901768986E+03  0.37533228320E+03  0.00000000000E+00 0. -1.
         21    1    1    2  502  501 -0.28267866121E+02  0.25424596584E+02  0.50386240178E+02  0.63120959797E+02  0.00000000000E+00 0.  1.
<scales pt_clust_5="13000.00000" pt_clust_6="13000.00000" pt_clust_7="13000.00000" pt_clust_8="13000.00000" pt_clust_9="38.01950"></scales>
<clustering>
<clus scale="   38.019">  2  9  1 -1</clus>
<clus scale="   90.911">  5  6 -1 -1</clus>
<clus scale="   91.300">  7  8 -1 -1</clus>
<clus scale="  134.248">  1  5  2 -1</clus>
<clus scale="  134.248">  1  5  2 -1</clus>
</clustering>
</event>
<event>
 9    1  0.1175034E-005  0.1794845E+03  0.7546771E-02  0.1169932E+00
          1   -1    0    0  502    0  0.00000000000E+00  0.00000000000E+00  0.63617506687E+03  0.63617506687E+03  0.00000000000E+00 0. -1.
         -1   -1    0    0    0  501 -0.00000000000E+00 -0.00000000000E+00 -0.87223564728E+02  0.87223564728E+02  0.00000000000E+00 0.  1.
         23    2    1    2    0    0  0.92220511095E+02 -0.10415765453E+03  0.17840565512E+03  0.24861699220E+03  0.10309408988E+03 0.  0.
         23    2    1    2    0    0 -0.15081193957E+03  0.52076400648E+02  0.34746005162E+03  0.39306036648E+03  0.91168918004E+02 0.  0.
        -11    1    3    3    0    0  0.54273112805E+02 -0.64352639320E+02  0.28394832718E+02  0.88843117269E+02  0.00000000000E+00 0. -1.
         11    1    3    3    0    0  0.37947398291E+02 -0.39805015210E+02  0.15001082241E+03  0.15977387494E+03  0.00000000000E+00 0.  1.
        -13    1    4    4    0    0 -0.11139305912E+03 -0.12584847390E+01  0.16650330913E+03  0.20033309601E+03  0.00000000000E+00 0.  1.
         13    1    4    4    0    0 -0.39418880451E+02  0.53334885387E+02  0.18095674248E+03  0.19272727048E+03  0.00000000000E+00 0. -1.
         21    1    1    2  502  501  0.58591428474E+02  0.52081253882E+02  0.23085795400E+02  0.81721272909E+02  0.00000000000E+00 0.  1.
<scales pt_clust_5="13000.00000" pt_clust_6="13000.00000" pt_clust_7="13000.00000" pt_clust_8="13000.00000" pt_clust_9="78.39268"></scales>
<clustering>
<clus scale="   78.393">  2  9  1 -1</clus>
<clus scale="   91.169">  7  8 -1 -1</clus>
<clus scale="  103.094">  5  6 -1 -1</clus>
<clus scale="  172.911">  1  7  2 -1</clus>
<clus scale="  172.911">  1  5  2 -1</clus>
</clustering>
</event>
<event>
 9    1  0.1175034E-005  0.9565292E+02  0.7546771E-02  0.1290297E+00
         -1   -1    0    0    0  501 -0.00000000000E+00  0.00000000000E+00  0.36109185889E+02  0.36109185889E+02  0.00000000000E+00 0.  1.
          1   -1    0    0  502    0  0.00000000000E+00 -0.00000000000E+00 -0.39597235801E+03  0.39597235801E+03  0.00000000000E+00 0. -1.
         23    2    1    2    0    0 -0.10948873586E+02 -0.39509812003E+01 -0.68703788166E+02  0.11531008929E+03  0.91873380788E+02 0.  0.
         23    2    1    2    0    0  0.29044755246E+02  0.13254202926E+02 -0.27311889335E+03  0.28957825383E+03  0.90787463256E+02 0.  0.
        -11    1    4    4    0    0  0.43087317415E+02 -0.27154666002E+02 -0.18067026557E+03  0.18771158108E+03  0.00000000000E+00 0.  1.
         11    1    4    4    0    0 -0.14042562169E+02  0.40408868929E+02 -0.92448627779E+02  0.10186667276E+03  0.00000000000E+00 0. -1.
        -13    1    3    3    0    0 -0.43812029639E+02 -0.42783376389E+01 -0.69692041092E+02  0.82430447685E+02  0.00000000000E+00 0. -1.
         13    1    3    3    0    0  0.32863156052E+02  0.32735643862E+00  0.98825292554E+00  0.32879641601E+02  0.00000000000E+00 0.  1.
         21    1    1    2  502  501 -0.18095881660E+02 -0.93032217262E+01 -0.18040490604E+02  0.27193200782E+02  0.00000000000E+00 0.  1.
<scales pt_clust_5="13000.00000" pt_clust_6="13000.00000" pt_clust_7="13000.00000" pt_clust_8="13000.00000" pt_clust_9="20.34726"></scales>
<clustering>
<clus scale="   20.347">  1  9  2 -1</clus>
<clus scale="   90.787">  5  6 -1 -1</clus>
<clus scale="   91.873">  7  8 -1 -1</clus>
<clus scale="   94.610">  2  5  1 -1</clus>
<clus scale="   94.610">  2  5  1 -1</clus>
</clustering>
</event>
<event>
 9    1  0.1175034E-005  0.2512726E+03  0.7546771E-02  0.1112551E+00
         -1   -1    0    0    0  501 -0.00000000000E+00  0.00000000000E+00  0.16837840886E+03  0.16837840886E+03  0.00000000000E+00 0.  1.
          1   -1    0    0  502    0  0.00000000000E+00 -0.00000000000E+00 -0.84028158198E+03  0.84028158198E+03  0.00000000000E+00 0. -1.
         23    2    1    2    0    0  0.12139437286E+03  0.18725655398E+03  0.79504895484E+00  0.24134198661E+03  0.91889670951E+02 0.  0.
         23    2    1    2    0    0 -0.10285398369E+03 -0.21255841113E+03 -0.68752251193E+03  0.73262377452E+03  0.91051471572E+02 0.  0.
        -11    1    3    3    0    0  0.65524395553E+02  0.26465619604E+02 -0.64933310159E+01  0.70965053239E+02  0.00000000000E+00 0. -1.
         11    1    3    3    0    0  0.55869977307E+02  0.16079093438E+03  0.72883799708E+01  0.17037693337E+03  0.00000000000E+00 0.  1.
        -11    1    4    4    0    0 -0.64265912608E+02 -0.17534820474E+03 -0.61304838599E+03  0.64086303060E+03  0.00000000000E+00 0. -1.
         11    1    4    4    0    0 -0.38588071078E+02 -0.37210206391E+02 -0.74474125937E+02  0.91760743912E+02  0.00000000000E+00 0.  1.
         21    1    1    2  502  501 -0.18540389174E+02  0.25301857147E+02  0.14824289851E+02  0.34694229713E+02  0.00000000000E+00 0.  1.
<scales pt_clust_5="13000.00000" pt_clust_6="13000.00000" pt_clust_7="13000.00000" pt_clust_8="13000.00000" pt_clust_9="31.36766"></scales>
<clustering>
<clus scale="   31.368">  1  9  2 -1</clus>
<clus scale="   91.051">  7  8 -1 -1</clus>
<clus scale="   91.890">  5  6 -1 -1</clus>
<clus scale="  250.967">  2  7  1 -1</clus>
<clus scale="  250.967">  2  5  1 -1</clus>
</clustering>
</event>
<event>
 9    1  0.1175034E-005  0.1466861E+03  0.7546771E-02  0.1205141E+00
          1   -1    0    0  502    0  0.00000000000E+00  0.00000000000E+00  0.61389530874E+03  0.61389530874E+03  0.00000000000E+00 0. -1.
         -1   -1    0    0    0  501 -0.00000000000E+00 -0.00000000000E+00 -0.16493877000E+03  0.16493877000E+03  0.00000000000E+00 0.  1.
         23    2    1    2    0    0 -0.28659262196E+02  0.13802174756E+03 -0.87892952945E+02  0.18817746792E+03  0.88398145590E+02 0.  0.
         23    2    1    2    0    0  0.33586425152E+02 -0.10807634141E+03  0.54086535207E+03  0.56004400853E+03  0.91134070980E+02 0.  0.
        -11    1    3    3    0    0 -0.52787405132E+02  0.12848003498E+03 -0.82887332357E+02  0.16175271062E+03  0.00000000000E+00 0.  1.
         11    1    3    3    0    0  0.24128142936E+02  0.95417125876E+01 -0.50056205883E+01  0.26424757295E+02  0.00000000000E+00 0. -1.
        -11    1    4    4    0    0  0.54306985302E+02 -0.60419934737E+02  0.42995972701E+03  0.43756734798E+03  0.00000000000E+00 0. -1.
         11    1    4    4    0    0 -0.20720560149E+02 -0.47656406673E+02  0.11090562506E+03  0.12247666055E+03  0.00000000000E+00 0.  1.
         21    1    1    2  502  501 -0.49271629559E+01 -0.29945406155E+02 -0.40158603799E+01  0.30612602293E+02  0.00000000000E+00 0.  1.
<scales pt_clust_5="13000.00000" pt_clust_6="13000.00000" pt_clust_7="13000.00000" pt_clust_8="13000.00000" pt_clust_9="30.34805"></scales>
<clustering>
<clus scale="   30.348">  2  9  1 -1</clus>
<clus scale="   88.398">  5  6 -1 -1</clus>
<clus scale="   91.134">  7  8 -1 -1</clus>
<clus scale="  145.002">  2  5  1 -1</clus>
<clus scale="  146.686">  1  5  2 -1</clus>
</clustering>
</event>
<event>
 9    1  0.1175034E-005  0.1773412E+03  0.7546771E-02  0.1170773E+00
         -1   -1    0    0    0  501 -0.00000000000E+00  0.00000000000E+00  0.43513080394E+03  0.43513080394E+03  0.00000000000E+00 0.  1.
          1   -1    0    0  502    0  0.00000000000E+00 -0.00000000000E+00 -0.17012214142E+03  0.17012214142E+03  0.00000000000E+00 0. -1.
         23    2    1    2    0    0 -0.93737621916E+02 -0.36902622241E+02  0.29690694363E+03  0.32722531788E+03  0.93670327169E+02 0.  0.
         23    2    1    2    0    0  0.15085216651E+03  0.47680143921E+02 -0.80729222322E+02  0.20211526356E+03  0.96455171779E+02 0.  0.
        -11    1    3    3    0    0 -0.10257657827E+03 -0.13025644388E+02  0.27442778376E+03  0.29326136862E+03  0.00000000000E+00 0.  1.
         11    1    3    3    0    0  0.88389563576E+01 -0.23876977853E+02  0.22479159868E+02  0.33963949259E+02  0.00000000000E+00 0. -1.
        -13    1    4    4    0    0  0.40258215767E+02  0.60130622696E+02 -0.45063425456E+02  0.85247451788E+02  0.00000000000E+00 0.  1.
         13    1    4    4    0    0  0.11059395074E+03 -0.12450478775E+02 -0.35665796866E+02  0.11686781177E+03  0.00000000000E+00 0. -1.
         21    1    1    2  502  501 -0.57114544593E+02 -0.10777521680E+02  0.48830941212E+02  0.75912363929E+02  0.00000000000E+00 0. -1.
<scales pt_clust_5="13000.00000" pt_clust_6="13000.00000" pt_clust_7="13000.00000" pt_clust_8="13000.00000" pt_clust_9="58.12251"></scales>
<clustering>
<clus scale="   58.123">  1  9  2 -1</clus>
<clus scale="   93.670">  5  6 -1 -1</clus>
<clus scale="   96.455">  7  8 -1 -1</clus>
<clus scale="  175.842">  1  5  2 -1</clus>
<clus scale="  177.341">  2  5  1 -1</clus>
</clustering>
</event>
<event>
 9    1  0.1175034E-005  0.1579980E+03  0.7546771E-02  0.1191499E+00
         -1   -1    0    0    0  501 -0.00000000000E+00  0.00000000000E+00  0.33131315436E+02  0.33131315436E+02  0.00000000000E+00 0.  1.
          1   -1    0    0  502    0  0.00000000000E+00 -0.00000000000E+00 -0.93712274894E+03  0.93712274894E+03  0.00000000000E+00 0. -1.
         23    2    1    2    0    0 -0.15449258650E+02 -0.11457290740E+03 -0.31939045348E+03  0.35175211967E+03  0.91398365499E+02 0.  0.
         23    2    1    2    0    0  0.31402016124E+02  0.13994477162E+03 -0.48634615052E+03  0.51577787992E+03  0.94464901243E+02 0.  0.
        -11    1    4    4    0    0 -0.50010579578E+01  0.11994296237E+03 -0.42546978569E+03  0.44208128589E+03  0.00000000000E+00 0. -1.
         11    1    4    4    0    0  0.36403074082E+02  0.20001809249E+02 -0.60876364832E+02  0.73696594025E+02  0.00000000000E+00 0.  1.
        -13    1    3    3    0    0 -0.53195992979E+02 -0.77669216696E+02 -0.19125031121E+03  0.21316426161E+03  0.00000000000E+00 0.  1.
         13    1    3    3    0    0  0.37746734329E+02 -0.36903690705E+02 -0.12814014227E+03  0.13858785806E+03  0.00000000000E+00 0. -1.
         21    1    1    2  502  501 -0.15952757474E+02 -0.25371864221E+02 -0.98254829504E+02  0.10272406478E+03  0.00000000000E+00 0.  1.
<scales pt_clust_5="13000.00000" pt_clust_6="13000.00000" pt_clust_7="13000.00000" pt_clust_8="13000.00000" pt_clust_9="29.97035"></scales>
<clustering>
<clus scale="   29.970">  2  9  1 -1</clus>
<clus scale="   91.398">  7  8 -1 -1</clus>
<clus scale="   94.465">  5  6 -1 -1</clus>
<clus scale="  156.184">  1  7  2 -1</clus>
<clus scale="   29.970">  2  5  1 -1</clus>
</clustering>
</event>
<event>
 9    1  0.1175034E-005  0.1150232E+03  0.7546771E-02  0.1252077E+00
         -1   -1    0    0    0  501 -0.00000000000E+00  0.00000000000E+00  0.34994240900E+02  0.34994240900E+02  0.00000000000E+00 0.  1.
          1   -1    0    0  502    0  0.00000000000E+00 -0.00000000000E+00 -0.54015403186E+03  0.54015403186E+03  0.00000000000E+00 0. -1.
         23    2    1    2    0    0  0.80737287457E+02  0.29022218645E+02 -0.27006387076E+03  0.29780480641E+03  0.91610095892E+02 0.  0.
         23    2    1    2    0    0 -0.55760742972E+02 -0.14822033352E+01 -0.19942571325E+03  0.22582023002E+03  0.90070549013E+02 0.  0.
        -11    1    3    3    0    0  0.52160882561E+02  0.37869670044E+02 -0.25735148444E+03  0.26530106695E+03  0.00000000000E+00 0. -1.
         11    1    3    3    0    0  0.28576404897E+02 -0.88474513993E+01 -0.12712386318E+02  0.32503739461E+02  0.00000000000E+00 0.  1.
        -11    1    4    4    0    0 -0.34367694769E+02  0.35731253446E+02 -0.16011660722E+03  0.16761619499E+03  0.00000000000E+00 0. -1.
         11    1    4    4    0    0 -0.21393048202E+02 -0.37213456782E+02 -0.39309106032E+02  0.58204035032E+02  0.00000000000E+00 0.  1.
         21    1    1    2  502  501 -0.24976544486E+02 -0.27540015310E+02 -0.35670206951E+02  0.51523236327E+02  0.00000000000E+00 0.  1.
<scales pt_clust_5="13000.00000" pt_clust_6="13000.00000" pt_clust_7="13000.00000" pt_clust_8="13000.00000" pt_clust_9="37.17903"></scales>
<clustering>
<clus scale="   37.179">  1  9  2 -1</clus>
<clus scale="   90.071">  7  8 -1 -1</clus>
<clus scale="   91.610">  5  6 -1 -1</clus>
<clus scale="  113.801">  2  7  1 -1</clus>
<clus scale="  113.801">  2  5  1 -1</clus>
</clustering>
</event>
<event>
 9    1  0.1175034E-005  0.9421656E+02  0.7546771E-02  0.1293094E+00
          2   -1    0    0  502    0  0.00000000000E+00  0.00000000000E+00  0.48733390026E+03  0.48733390026E+03  0.00000000000E+00 0. -1.
         -2   -1    0    0    0  501 -0.00000000000E+00 -0.00000000000E+00 -0.93563568375E+02  0.93563568375E+02  0.00000000000E+00 0.  1.
         23    2    1    2    0    0  0.19745997204E+02  0.23443390683E+02 -0.47991100434E+02  0.10780488269E+03  0.91538243585E+02 0.  0.
         23    2    1    2    0    0 -0.20792685781E+02 -0.32970747117E+01  0.44298122497E+03  0.45288225447E+03  0.91797408774E+02 0.  0.
        -13    1    3    3    0    0 -0.38825888273E+01  0.28138048816E+02 -0.69769211359E+02  0.75329722824E+02  0.00000000000E+00 0.  1.
         13    1    3    3    0    0  0.23628586031E+02 -0.46946581338E+01  0.21778110925E+02  0.32475159865E+02  0.00000000000E+00 0. -1.
        -13    1    4    4    0    0 -0.40022888942E+02 -0.37412681597E+02  0.24247898884E+03  0.24859123156E+03  0.00000000000E+00 0. -1.
         13    1    4    4    0    0  0.19230203161E+02  0.34115606886E+02  0.20050223613E+03  0.20429102291E+03  0.00000000000E+00 0.  1.
         21    1    1    2  502  501  0.10466885769E+01 -0.20146315971E+02 -0.12197926485E+01  0.20210331474E+02  0.00000000000E+00 0.  1.
<scales pt_clust_5="13000.00000" pt_clust_6="13000.00000" pt_clust_7="13000.00000" pt_clust_8="13000.00000" pt_clust_9="20.17349"></scales>
<clustering>
<clus scale="   20.173">  2  9  1 -1</clus>
<clus scale="   91.538">  5  6 -1 -1</clus>
<clus scale="   91.797">  7  8 -1 -1</clus>
<clus scale="   93.964">  2  5  1 -1</clus>
<clus scale="   94.217">  1  5  2 -1</clus>
</clustering>
</event>
<event>
 9    1  0.1175034E-005  0.9742819E+02  0.7546771E-02  0.1285873E+00
          3   -1    0    0  502    0  0.00000000000E+00  0.00000000000E+00  0.32489632708E+03  0.32489632708E+03  0.00000000000E+00 0. -1.
         -3   -1    0    0    0  501 -0.00000000000E+00 -0.00000000000E+00 -0.67367753352E+02  0.67367753352E+02  0.00000000000E+00 0.  1.
         23    2    1    2    0    0 -0.15654316361E+02  0.44248434251E+02  0.37725486377E+02  0.10941254615E+03  0.91350486464E+02 0.  0.
         23    2    1    2    0    0 -0.31199538233E+00 -0.30474208035E+02  0.23685378052E+03  0.25573367013E+03  0.91494382309E+02 0.  0.
        -11    1    4    4    0    0 -0.40783835291E+02 -0.11606755280E+02  0.17092408982E+03  0.17610531642E+03  0.00000000000E+00 0. -1.
         11    1    4    4    0    0  0.40471839909E+02 -0.18867452755E+02  0.65929690701E+02  0.79628353712E+02  0.00000000000E+00 0.  1.
        -13    1    3    3    0    0  0.20766701707E+02 -0.19889997637E+02  0.76251293966E+01  0.29749126106E+02  0.00000000000E+00 0. -1.
         13    1    3    3    0    0 -0.36421018067E+02  0.64138431887E+02  0.30100356980E+02  0.79663420039E+02  0.00000000000E+00 0.  1.
         21    1    1    2  502  501  0.15966311743E+02 -0.13774226216E+02 -0.17050693175E+02  0.27117864154E+02  0.00000000000E+00 0. -1.
<scales pt_clust_5="13000.00000" pt_clust_6="13000.00000" pt_clust_7="13000.00000" pt_clust_8="13000.00000" pt_clust_9="21.08678"></scales>
<clustering>
<clus scale="   21.087">  2  9  1 -1</clus>
<clus scale="   91.350">  7  8 -1 -1</clus>
<clus scale="   91.494">  5  6 -1 -1</clus>
<clus scale="   97.293">  2  7  1 -1</clus>
<clus scale="   97.428">  1  5  2 -1</clus>
</clustering>
</event>
<event>
 9    1  0.1175034E-005  0.2399825E+03  0.7546771E-02  0.1119949E+00
         -1   -1    0    0    0  501 -0.00000000000E+00  0.00000000000E+00  0.15835271190E+03  0.15835271190E+03  0.00000000000E+00 0.  1.
          1   -1    0    0  502    0  0.00000000000E+00 -0.00000000000E+00 -0.45382748768E+03  0.45382748768E+03  0.00000000000E+00 0. -1.
         23    2    1    2    0    0 -0.20196419026E+01  0.20090560094E+03 -0.87001349920E+02  0.23765229106E+03  0.92424223627E+02 0.  0.
         23    2    1    2    0    0  0.19521059042E+02 -0.23695824889E+03 -0.21613577290E+03  0.33372589155E+03  0.90155503982E+02 0.  0.
        -11    1    3    3    0    0 -0.92666699534E+01  0.15797847009E+03 -0.22510919544E+02  0.15984307831E+03  0.00000000000E+00 0.  1.
         11    1    3    3    0    0  0.72470280509E+01  0.42927130857E+02 -0.64490430376E+02  0.77809212753E+02  0.00000000000E+00 0. -1.
        -11    1    4    4    0    0  0.31302698412E+02 -0.25402771942E+02 -0.20015882499E+02  0.45008835826E+02  0.00000000000E+00 0.  1.
         11    1    4    4    0    0 -0.11781639370E+02 -0.21155547695E+03 -0.19611989040E+03  0.28871705572E+03  0.00000000000E+00 0. -1.
         21    1    1    2  502  501 -0.17501417139E+02  0.36052647950E+02  0.76623470401E+01  0.40802016963E+02  0.00000000000E+00 0.  1.
<scales pt_clust_5="13000.00000" pt_clust_6="13000.00000" pt_clust_7="13000.00000" pt_clust_8="13000.00000" pt_clust_9="40.07609"></scales>
<clustering>
<clus scale="   40.076">  1  9  2 -1</clus>
<clus scale="   90.156">  7  8 -1 -1</clus>
<clus scale="   92.424">  5  6 -1 -1</clus>
<clus scale="  239.118">  2  7  1 -1</clus>
<clus scale="  239.118">  2  5  1 -1</clus>
</clustering>
</event>
<event>
 9    1  0.1175034E-005  0.1584153E+03  0.7546771E-02  0.1190597E+00
          2   -1    0    0  502    0  0.00000000000E+00  0.00000000000E+00  0.22791215541E+03  0.22791215541E+03  0.00000000000E+00 0. -1.
         -2   -1    0    0    0  501 -0.00000000000E+00 -0.00000000000E+00 -0.20097152348E+03  0.20097152348E+03  0.00000000000E+00 0.  1.
         23    2    1    2    0    0 -0.11752008658E+03 -0.70271460097E+02 -0.80133350983E+02  0.18285112094E+03  0.90907258434E+02 0.  0.
         23    2    1    2    0    0  0.92906141158E+02  0.87897294954E+02  0.13316229959E+03  0.20606861631E+03  0.91512791852E+02 0.  0.
        -13    1    4    4    0    0  0.37337710148E+02 -0.41783823951E+01  0.74807884127E+02  0.83712502089E+02  0.00000000000E+00 0.  1.
         13    1    4    4    0    0  0.55568431011E+02  0.92075677349E+02  0.58354415461E+02  0.12235611422E+03  0.00000000000E+00 0. -1.
        -13    1    3    3    0    0 -0.42293517973E+02 -0.52047658653E+02 -0.81361304709E+02  0.10543890334E+03  0.00000000000E+00 0.  1.
         13    1    3    3    0    0 -0.75226568610E+02 -0.18223801445E+02  0.12279537263E+01  0.77412217603E+02  0.00000000000E+00 0. -1.
         21    1    1    2  502  501  0.24613945425E+02 -0.17625834856E+02 -0.26088316674E+02  0.39963941631E+02  0.00000000000E+00 0.  1.
<scales pt_clust_5="13000.00000" pt_clust_6="13000.00000" pt_clust_7="13000.00000" pt_clust_8="13000.00000" pt_clust_9="30.27402"></scales>
<clustering>
<clus scale="   30.274">  2  9  1 -1</clus>
<clus scale="   90.907">  7  8 -1 -1</clus>
<clus scale="   91.513">  5  6 -1 -1</clus>
<clus scale="  158.066">  2  7  1 -1</clus>
<clus scale="  158.415">  1  5  2 -1</clus>
</clustering>
</event>
<event>
 9    1  0.1175034E-005  0.1430436E+03  0.7546771E-02  0.1209487E+00
          2   -1    0    0  502    0  0.00000000000E+00  0.00000000000E+00  0.38707438868E+03  0.38707438868E+03  0.00000000000E+00 0. -1.
         -2   -1    0    0    0  501 -0.00000000000E+00 -0.00000000000E+00 -0.90279575446E+02  0.90279575446E+02  0.00000000000E+00 0.  1.
         23    2    1    2    0    0 -0.81110636709E+02 -0.33125105337E+02  0.41969995177E+02  0.13388630046E+03  0.92129544470E+02 0.  0.
         23    2    1    2    0    0  0.12306245977E+03 -0.69741481214E+01  0.23787368158E+03  0.28300902811E+03  0.91198760165E+02 0.  0.
        -11    1    3    3    0    0 -0.65516033652E+02  0.97647126871E+01 -0.74031288698E+01  0.66652131222E+02  0.00000000000E+00 0.  1.
         11    1    3    3    0    0 -0.15594603056E+02 -0.42889818024E+02  0.49373124047E+02  0.67234169236E+02  0.00000000000E+00 0. -1.
        -13    1    4    4    0    0  0.47517615875E+02 -0.28471136540E+01  0.18699322116E+02  0.51143861041E+02  0.00000000000E+00 0.  1.
         13    1    4    4    0    0  0.75544843896E+02 -0.41270344674E+01  0.21917435946E+03  0.23186516707E+03  0.00000000000E+00 0. -1.
         21    1    1    2  502  501 -0.41951823062E+02  0.40099253459E+02  0.16951136480E+02  0.60458635563E+02  0.00000000000E+00 0.  1.
<scales pt_clust_5="13000.00000" pt_clust_6="13000.00000" pt_clust_7="13000.00000" pt_clust_8="13000.00000" pt_clust_9="58.03366"></scales>
<clustering>
<clus scale="   58.034">  2  9  1 -1</clus>
<clus scale="   91.199">  7  8 -1 -1</clus>
<clus scale="   92.130">  5  6 -1 -1</clus>
<clus scale="  142.446">  1  7  2 -1</clus>
<clus scale="  142.446">  1  5  2 -1</clus>
</clustering>
</event>
<event>
 9    1  0.1175034E-005  0.9811394E+02  0.7546771E-02  0.1286641E+00
         -1   -1    0    0    0  501 -0.00000000000E+00  0.00000000000E+00  0.11161237283E+03  0.11161237283E+03  0.00000000000E+00 0.  1.
          1   -1    0    0  502    0  0.00000000000E+00 -0.00000000000E+00 -0.11306321477E+03  0.11306321477E+03  0.00000000000E+00 0. -1.
         23    2    1    2    0    0 -0.18767256721E+02 -0.62279688649E+01  0.22169472565E+02  0.92894775643E+02  0.88016795595E+02 0.  0.
         23    2    1    2    0    0  0.37578037206E+02  0.15764149663E+02 -0.36032153295E+02  0.10730964629E+03  0.92500955788E+02 0.  0.
        -13    1    3    3    0    0 -0.23152712114E+01 -0.40503672092E+02 -0.11437388004E+02  0.42151177660E+02  0.00000000000E+00 0. -1.
         13    1    3    3    0    0 -0.16451985509E+02  0.34275703228E+02  0.33606860569E+02  0.50743597983E+02  0.00000000000E+00 0.  1.
        -13    1    4    4    0    0 -0.27000527631E+01 -0.31202276260E+02 -0.32803108768E+02  0.45353238843E+02  0.00000000000E+00 0. -1.
         13    1    4    4    0    0  0.40278089969E+02  0.46966425923E+02 -0.32290445266E+01  0.61956407450E+02  0.00000000000E+00 0.  1.
         21    1    1    2  502  501 -0.18810780485E+02 -0.95361807985E+01  0.12411838798E+02  0.24471165665E+02  0.00000000000E+00 0. -1.
<scales pt_clust_5="13000.00000" pt_clust_6="13000.00000" pt_clust_7="13000.00000" pt_clust_8="13000.00000" pt_clust_9="21.08991"></scales>
<clustering>
<clus scale="   21.090">  1  9  2 -1</clus>
<clus scale="   88.017">  5  6 -1 -1</clus>
<clus scale="   92.501">  7  8 -1 -1</clus>
<clus scale="   93.898">  1  5  2 -1</clus>
<clus scale="   98.114">  2  5  1 -1</clus>
</clustering>
</event>
<event>
 9    1  0.1175034E-005  0.9476626E+02  0.7546771E-02  0.1292257E+00
          1   -1    0    0  502    0  0.00000000000E+00  0.00000000000E+00  0.10240780216E+03  0.10240780216E+03  0.00000000000E+00 0. -1.
         -1   -1    0    0    0  501 -0.00000000000E+00 -0.00000000000E+00 -0.21030615792E+03  0.21030615792E+03  0.00000000000E+00 0.  1.
         23    2    1    2    0    0  0.13195153504E+02 -0.56293455947E+02 -0.12618679262E+03  0.16524864754E+03  0.89671308822E+02 0.  0.
         23    2    1    2    0    0 -0.17209834487E+02  0.14622380685E+02  0.38376281389E+02  0.10103129834E+03  0.90689535507E+02 0.  0.
        -11    1    3    3    0    0  0.49252270337E+02 -0.16390708601E+02 -0.50671463668E+02  0.72539911029E+02  0.00000000000E+00 0.  1.
         11    1    3    3    0    0 -0.36057116833E+02 -0.39902747347E+02 -0.75515328948E+02  0.92708736515E+02  0.00000000000E+00 0. -1.
        -13    1    4    4    0    0  0.25935393736E+02  0.32906985631E+02  0.24246043583E+01  0.41968953500E+02  0.00000000000E+00 0.  1.
         13    1    4    4    0    0 -0.43145228223E+02 -0.18284604946E+02  0.35951677031E+02  0.59062344838E+02  0.00000000000E+00 0. -1.
         21    1    1    2  502  501  0.40146809825E+01  0.41671075262E+02 -0.20087844538E+02  0.46434014204E+02  0.00000000000E+00 0.  1.
<scales pt_clust_5="13000.00000" pt_clust_6="13000.00000" pt_clust_7="13000.00000" pt_clust_8="13000.00000" pt_clust_9="41.86402"></scales>
<clustering>
<clus scale="   41.864">  2  9  1 -1</clus>
<clus scale="   89.671">  5  6 -1 -1</clus>
<clus scale="   90.690">  7  8 -1 -1</clus>
<clus scale="   93.792">  2  5  1 -1</clus>
<clus scale="   94.766">  1  5  2 -1</clus>
</clustering>
</event>
<event>
 9    1  0.1175034E-005  0.1144759E+03  0.7546771E-02  0.1253682E+00
          1   -1    0    0  502    0  0.00000000000E+00  0.00000000000E+00  0.25841466584E+03  0.25841466584E+03  0.00000000000E+00 0. -1.
         -1   -1    0    0    0  501 -0.00000000000E+00 -0.00000000000E+00 -0.20631719441E+03  0.20631719441E+03  0.00000000000E+00 0.  1.
         23    2    1    2    0    0 -0.32478263920E+02 -0.32441880470E+02 -0.93260426164E+02  0.14021868109E+03  0.94108757310E+02 0.  0.
         23    2    1    2    0    0  0.32085002706E+02  0.59579983699E+02  0.21870618906E+03  0.24630446378E+03  0.90853012548E+02 0.  0.
        -11    1    4    4    0    0 -0.30008607382E+02  0.10378394976E+02  0.42004342002E+02  0.52655411368E+02  0.00000000000E+00 0.  1.
         11    1    4    4    0    0  0.62093610088E+02  0.49201588723E+02  0.17670184706E+03  0.19364905241E+03  0.00000000000E+00 0. -1.
        -13    1    3    3    0    0 -0.52393421548E+02 -0.49503852645E+02 -0.87504523279E+02  0.11336994153E+03  0.00000000000E+00 0.  1.
         13    1    3    3    0    0  0.19915157628E+02  0.17061972176E+02 -0.57559028845E+01  0.26848739559E+02  0.00000000000E+00 0. -1.
         21    1    1    2  502  501  0.39326121383E+00 -0.27138103230E+02 -0.73348291467E+02  0.78208715386E+02  0.00000000000E+00 0.  1.
<scales pt_clust_5="13000.00000" pt_clust_6="13000.00000" pt_clust_7="13000.00000" pt_clust_8="13000.00000" pt_clust_9="27.14095"></scales>
<clustering>
<clus scale="   27.141">  2  9  1 -1</clus>
<clus scale="   90.853">  5  6 -1 -1</clus>
<clus scale="   94.109">  7  8 -1 -1</clus>
<clus scale="  111.815">  1  5  2 -1</clus>
<clus scale="  111.815">  1  5  2 -1</clus>
</clustering>
</event>
<event>
 9    1  0.1175034E-005  0.1426724E+03  0.7546771E-02  0.1210567E+00
         -1   -1    0    0    0  501 -0.00000000000E+00  0.00000000000E+00  0.13300647606E+03  0.13300647606E+03  0.00000000000E+00 0.  1.
          1   -1    0    0  502    0  0.00000000000E+00 -0.00000000000E+00 -0.24544267634E+03  0.24544267634E+03  0.00000000000E+00 0. -1.
         23    2    1    2    0    0  0.70917803557E+02 -0.30145489838E+02  0.11938530685E+02  0.11621302718E+03  0.86167591076E+02 0.  0.
         23    2    1    2    0    0 -0.10824904477E+03  0.74698598387E+02 -0.12740295003E+03  0.20403156215E+03  0.89997946537E+02 0.  0.
        -11    1    3    3    0    0  0.48747669948E+02  0.18303836009E+02  0.29828131109E+02  0.60009025517E+02  0.00000000000E+00 0.  1.
         11    1    3    3    0    0  0.22170133609E+02 -0.48449325848E+02 -0.17889600425E+02  0.56204001661E+02  0.00000000000E+00 0. -1.
        -11    1    4    4    0    0 -0.72380498939E+02  0.13947250300E+02 -0.10818667955E+03  0.13091149701E+03  0.00000000000E+00 0. -1.
         11    1    4    4    0    0 -0.35868545826E+02  0.60751348088E+02 -0.19216270484E+02  0.73120065136E+02  0.00000000000E+00 0.  1.
         21    1    1    2  502  501  0.37331241208E+02 -0.44553108549E+02  0.30282190663E+01  0.58204563071E+02  0.00000000000E+00 0.  1.
<scales pt_clust_5="13000.00000" pt_clust_6="13000.00000" pt_clust_7="13000.00000" pt_clust_8="13000.00000" pt_clust_9="58.12573"></scales>
<clustering>
<clus scale="   58.126">  1  9  2 -1</clus>
<clus scale="   86.168">  5  6 -1 -1</clus>
<clus scale="   89.998">  7  8 -1 -1</clus>
<clus scale="  140.288">  1  5  2 -1</clus>
<clus scale="  142.672">  2  5  1 -1</clus>
</clustering>
</event>
<event>
 9    1  0.1175034E-005  0.2213957E+03  0.7546771E-02  0.1133107E+00
         -1   -1    0    0    0  501 -0.00000000000E+00  0.00000000000E+00  0.60737724682E+03  0.60737724682E+03  0.00000000000E+00 0.  1.
          1   -1    0    0  502    0  0.00000000000E+00 -0.00000000000E+00 -0.20956847392E+03  0.20956847392E+03  0.00000000000E+00 0. -1.
         23    2    1    2    0    0  0.13901836374E+03 -0.10307923333E+03  0.70590244410E+02  0.20756860168E+03  0.90279056240E+02 0.  0.
         23    2    1    2    0    0 -0.18038869113E+03  0.12786339663E+03 -0.36146609000E+02  0.24282564672E+03  0.93640745824E+02 0.  0.
        -11    1    3    3    0    0  0.10094976485E+03 -0.11469269239E+03  0.69231827765E+02  0.16774479034E+03  0.00000000000E+00 0. -1.
         11    1    3    3    0    0  0.38068598898E+02  0.11613459068E+02  0.13584166453E+01  0.39823811337E+02  0.00000000000E+00 0.  1.
        -13    1    4    4    0    0 -0.12256913013E+03  0.10953989844E+03 -0.63586525618E+02  0.17625387159E+03  0.00000000000E+00 0. -1.
         13    1    4    4    0    0 -0.57819560995E+02  0.18323498190E+02  0.27439916617E+02  0.66571775127E+02  0.00000000000E+00 0.  1.
         21    1    1    2  502  501  0.41370327382E+02 -0.24784163300E+02  0.36336513748E+03  0.36655147234E+03  0.00000000000E+00 0.  1.
<scales pt_clust_5="13000.00000" pt_clust_6="13000.00000" pt_clust_7="13000.00000" pt_clust_8="13000.00000" pt_clust_9="48.22612"></scales>
<clustering>
<clus scale="   48.226">  1  9  2 -1</clus>
<clus scale="   90.279">  5  6 -1 -1</clus>
<clus scale="   93.641">  7  8 -1 -1</clus>
<clus scale="  219.995">  1  5  2 -1</clus>
<clus scale="  221.396">  2  5  1 -1</clus>
</clustering>
</event>
<event>
 9    1  0.1175034E-005  0.1063230E+03  0.7546771E-02  0.1267834E+00
         -1   -1    0    0    0  501 -0.00000000000E+00  0.00000000000E+00  0.20573825170E+02  0.20573825170E+02  0.00000000000E+00 0.  1.
          1   -1    0    0  502    0  0.00000000000E+00 -0.00000000000E+00 -0.81480647865E+03  0.81480647865E+03  0.00000000000E+00 0. -1.
         23    2    1    2    0    0  0.28324135218E+02 -0.37618522095E+02 -0.27733985440E+03  0.29602326075E+03  0.92168141061E+02 0.  0.
         23    2    1    2    0    0 -0.62449292349E+02  0.13527532998E+02 -0.39788809590E+03  0.41323400202E+03  0.91457614782E+02 0.  0.
        -13    1    4    4    0    0 -0.28810490219E+02 -0.37873653627E+02 -0.21841905558E+03  0.22354270694E+03  0.00000000000E+00 0. -1.
         13    1    4    4    0    0 -0.33638802130E+02  0.51401186625E+02 -0.17946904032E+03  0.18969129508E+03  0.00000000000E+00 0.  1.
        -13    1    3    3    0    0  0.62007566804E+02 -0.25253936456E+02 -0.19602848151E+03  0.20714696524E+03  0.00000000000E+00 0.  1.
         13    1    3    3    0    0 -0.33683431586E+02 -0.12364585639E+02 -0.81311372890E+02  0.88876295505E+02  0.00000000000E+00 0. -1.
         21    1    1    2  502  501  0.34125157130E+02  0.24090989097E+02 -0.11900470318E+03  0.12612304105E+03  0.00000000000E+00 0.  1.
<scales pt_clust_5="13000.00000" pt_clust_6="13000.00000" pt_clust_7="13000.00000" pt_clust_8="13000.00000" pt_clust_9="41.77203"></scales>
<clustering>
<clus scale="   41.772">  1  9  2 -1</clus>
<clus scale="   91.458">  5  6 -1 -1</clus>
<clus scale="   92.168">  7  8 -1 -1</clus>
<clus scale="  105.708">  2  5  1 -1</clus>
<clus scale="  105.708">  2  5  1 -1</clus>
</clustering>
</event>
<event>
 9    1  0.1175034E-005  0.1154240E+03  0.7546771E-02  0.1253272E+00
         -2   -1    0    0    0  501 -0.00000000000E+00  0.00000000000E+00  0.66495600360E+02  0.66495600360E+02  0.00000000000E+00 0.  1.
          2   -1    0    0  502    0  0.00000000000E+00 -0.00000000000E+00 -0.50850054219E+03  0.50850054219E+03  0.00000000000E+00 0. -1.
         23    2    1    2    0    0  0.37576973938E+02 -0.17936708707E+02 -0.39719754639E+01  0.96615525928E+02  0.87092070659E+02 0.  0.
         23    2    1    2    0    0 -0.56902443922E+02  0.43606055370E+02 -0.42905674274E+03  0.44501953542E+03  0.93879296060E+02 0.  0.
        -11    1    4    4    0    0 -0.31048858169E+02 -0.25982495774E+02 -0.20578601285E+03  0.20973079117E+03  0.00000000000E+00 0.  1.
         11    1    4    4    0    0 -0.25853585753E+02  0.69588551144E+02 -0.22327072989E+03  0.23528874425E+03  0.00000000000E+00 0. -1.
        -13    1    3    3    0    0  0.69130193219E+01  0.30774055534E+02  0.16410111208E+02  0.35554522638E+02  0.00000000000E+00 0.  1.
         13    1    3    3    0    0  0.30663954616E+02 -0.48710764241E+02 -0.20382086672E+02  0.61061003290E+02  0.00000000000E+00 0. -1.
         21    1    1    2  502  501  0.19325469983E+02 -0.25669346663E+02 -0.89762236256E+01  0.33361081199E+02  0.00000000000E+00 0.  1.
<scales pt_clust_5="13000.00000" pt_clust_6="13000.00000" pt_clust_7="13000.00000" pt_clust_8="13000.00000" pt_clust_9="32.13081"></scales>
<clustering>
<clus scale="   32.131">  1  9  2 -1</clus>
<clus scale="   87.092">  7  8 -1 -1</clus>
<clus scale="   93.879">  5  6 -1 -1</clus>
<clus scale="  109.975">  1  7  2 -1</clus>
<clus scale="  115.424">  2  5  1 -1</clus>
</clustering>
</event>
<event>
 9    1  0.1175034E-005  0.1746408E+03  0.7546771E-02  0.1173472E+00
         -1   -1    0    0    0  501 -0.00000000000E+00  0.00000000000E+00  0.87683657132E+02  0.87683657132E+02  0.00000000000E+00 0.  1.
          1   -1    0    0  502    0  0.00000000000E+00 -0.00000000000E+00 -0.73579811639E+03  0.73579811639E+03  0.00000000000E+00 0. -1.
         23    2    1    2    0    0  0.12043816401E+03 -0.85588574714E+02 -0.23770478688E+03  0.29372665372E+03  0.89112434212E+02 0.  0.
         23    2    1    2    0    0 -0.14869620460E+03  0.36194228292E+02 -0.43312171232E+03  0.46848395957E+03  0.91990321610E+02 0.  0.
        -13    1    4    4    0    0  0.22251855018E+01  0.20098303371E+02 -0.10539917788E+03  0.10732138625E+03  0.00000000000E+00 0. -1.
         13    1    4    4    0    0 -0.15092139010E+03  0.16095924921E+02 -0.32772253444E+03  0.36116257332E+03  0.00000000000E+00 0.  1.
        -13    1    3    3    0    0  0.10957974342E+03 -0.10386574661E+03 -0.20231693864E+03  0.25244396833E+03  0.00000000000E+00 0.  1.
         13    1    3    3    0    0  0.10858420585E+02  0.18277171894E+02 -0.35387848244E+02  0.41282685394E+02  0.00000000000E+00 0. -1.
         21    1    1    2  502  501  0.28258040595E+02  0.49394346422E+02  0.22712039944E+02  0.61271160224E+02  0.00000000000E+00 0. -1.
<scales pt_clust_5="13000.00000" pt_clust_6="13000.00000" pt_clust_7="13000.00000" pt_clust_8="13000.00000" pt_clust_9="56.90622"></scales>
<clustering>
<clus scale="   56.906">  1  9  2 -1</clus>
<clus scale="   89.112">  7  8 -1 -1</clus>
<clus scale="   91.990">  5  6 -1 -1</clus>
<clus scale="  173.142">  1  7  2 -1</clus>
<clus scale="  174.641">  2  5  1 -1</clus>
</clustering>
</event>
<event>
 9    1  0.1175034E-005  0.1126263E+03  0.7546771E-02  0.1256086E+00
         -1   -1    0    0    0  501 -0.00000000000E+00  0.00000000000E+00  0.79242017400E+02  0.79242017400E+02  0.00000000000E+00 0.  1.
          1   -1    0    0  502    0  0.00000000000E+00 -0.00000000000E+00 -0.29183466836E+03  0.29183466836E+03  0.00000000000E+00 0. -1.
         23    2    1    2    0    0 -0.53722735163E+02 -0.37142658815E+02 -0.18769442138E+02  0.11389387513E+03  0.91399198336E+02 0.  0.
         23    2    1    2    0    0  0.66516724343E+02  0.49182499014E+01 -0.19107297436E+03  0.22240260824E+03  0.92224589026E+02 0.  0.
        -11    1    4    4    0    0  0.70230205696E+02 -0.22445049147E+02 -0.17627558964E+03  0.19107366518E+03  0.00000000000E+00 0. -1.
         11    1    4    4    0    0 -0.37134813537E+01  0.27363299048E+02 -0.14797384725E+02  0.31328943060E+02  0.00000000000E+00 0.  1.
        -13    1    3    3    0    0 -0.42993609164E+02  0.19441450864E+02 -0.29022389292E+02  0.55396024414E+02  0.00000000000E+00 0.  1.
         13    1    3    3    0    0 -0.10729125999E+02 -0.56584109679E+02  0.10252947154E+02  0.58497850715E+02  0.00000000000E+00 0. -1.
         21    1    1    2  502  501 -0.12793989180E+02  0.32224408913E+02 -0.27502344623E+01  0.34780202394E+02  0.00000000000E+00 0.  1.
<scales pt_clust_5="13000.00000" pt_clust_6="13000.00000" pt_clust_7="13000.00000" pt_clust_8="13000.00000" pt_clust_9="34.67129"></scales>
<clustering>
<clus scale="   34.671">  1  9  2 -1</clus>
<clus scale="   91.399">  7  8 -1 -1</clus>
<clus scale="   92.225">  5  6 -1 -1</clus>
<clus scale="  111.951">  1  7  2 -1</clus>
<clus scale="  112.626">  2  5  1 -1</clus>
</clustering>
</event>
<event>
 9    1  0.1175034E-005  0.1429726E+03  0.7546771E-02  0.1210858E+00
         -2   -1    0    0    0  501 -0.00000000000E+00  0.00000000000E+00  0.92790236872E+02  0.92790236872E+02  0.00000000000E+00 0.  1.
          2   -1    0    0  502    0  0.00000000000E+00 -0.00000000000E+00 -0.78289219284E+03  0.78289219284E+03  0.00000000000E+00 0. -1.
         23    2    1    2    0    0  0.10930570257E+03 -0.48716277973E+02 -0.26744429836E+02  0.15509316357E+03  0.94961110481E+02 0.  0.
         23    2    1    2    0    0 -0.10247585639E+03  0.25804907122E+02 -0.67848287807E+03  0.69229873796E+03  0.88155160806E+02 0.  0.
        -11    1    3    3    0    0  0.66865461624E+02  0.50985410595E+01  0.22462663747E+02  0.70721682260E+02  0.00000000000E+00 0.  1.
         11    1    3    3    0    0  0.42440240950E+02 -0.53814819033E+02 -0.49207093582E+02  0.84371481309E+02  0.00000000000E+00 0. -1.
        -13    1    4    4    0    0 -0.71105784002E+02 -0.26325442072E+02 -0.41635200616E+03  0.42319978078E+03  0.00000000000E+00 0.  1.
         13    1    4    4    0    0 -0.31370072384E+02  0.52130349194E+02 -0.26213087192E+03  0.26909895719E+03  0.00000000000E+00 0. -1.
         21    1    1    2  502  501 -0.68298461887E+01  0.22911370851E+02  0.15125351940E+02  0.28290528177E+02  0.00000000000E+00 0. -1.
<scales pt_clust_5="13000.00000" pt_clust_6="13000.00000" pt_clust_7="13000.00000" pt_clust_8="13000.00000" pt_clust_9="23.90769"></scales>
<clustering>
<clus scale="   23.908">  1  9  2 -1</clus>
<clus scale="   88.155">  7  8 -1 -1</clus>
<clus scale="   94.961">  5  6 -1 -1</clus>
<clus scale="  138.546">  2  7  1 -1</clus>
<clus scale="  138.546">  2  5  1 -1</clus>
</clustering>
</event>
<event>
 9    1  0.1175034E-005  0.1634587E+03  0.7546771E-02  0.1215479E+00
          2   -1    0    0  502    0  0.00000000000E+00  0.00000000000E+00  0.93545544331E+03  0.93545544331E+03  0.00000000000E+00 0. -1.
         -2   -1    0    0    0  501 -0.00000000000E+00 -0.00000000000E+00 -0.10335173975E+03  0.10335173975E+03  0.00000000000E+00 0.  1.
         23    2    1    2    0    0  0.11016871220E+02  0.12351961967E+02 -0.55817741517E+02  0.10088955264E+03  0.82396232605E+02 0.  0.
         23    2    1    2    0    0  0.67174747870E+02 -0.11997912150E+03  0.56357530649E+03  0.58734958797E+03  0.91950943763E+02 0.  0.
        -13    1    4    4    0    0  0.58332446664E+02 -0.60389400914E+02  0.45940389465E+03  0.46701337507E+03  0.00000000000E+00 0. -1.
         13    1    4    4    0    0  0.88423012052E+01 -0.59589720591E+02  0.10417141184E+03  0.12033621290E+03  0.00000000000E+00 0.  1.
        -13    1    3    3    0    0  0.28993863781E+01  0.47584315614E+02 -0.35288962088E+02  0.59312598823E+02  0.00000000000E+00 0.  1.
         13    1    3    3    0    0  0.81174848415E+01 -0.35232353648E+02 -0.20528779429E+02  0.41576953815E+02  0.00000000000E+00 0. -1.
         21    1    1    2  502  501 -0.78191619089E+02  0.10762715954E+03  0.32434613859E+03  0.35056804245E+03  0.00000000000E+00 0.  1.
<scales pt_clust_5="13000.00000" pt_clust_6="13000.00000" pt_clust_7="13000.00000" pt_clust_8="13000.00000" pt_clust_9="135.14355"></scales>
<clustering>
<clus scale="   82.396">  7  8 -1 -1</clus>
<clus scale="   84.042">  2  7  1 -1</clus>
<clus scale="   91.951">  5  6 -1 -1</clus>
<clus scale="  135.144">  2  9  1 -1</clus>
<clus scale="  163.459">  1  5  2 -1</clus>
</clustering>
</event>
<event>
 9    1  0.1175034E-005  0.1056045E+03  0.7546771E-02  0.1275882E+00
         -1   -1    0    0    0  501 -0.00000000000E+00  0.00000000000E+00  0.41809406856E+02  0.41809406856E+02  0.00000000000E+00 0.  1.
          1   -1    0    0  502    0  0.00000000000E+00 -0.00000000000E+00 -0.57731313199E+03  0.57731313199E+03  0.00000000000E+00 0. -1.
         23    2    1    2    0    0  0.32025146933E+02  0.10427809125E+02 -0.59254004285E+02  0.10974061940E+03  0.86009402298E+02 0.  0.
         23    2    1    2    0    0  0.20191072168E+02 -0.39434066749E+02 -0.38551279727E+03  0.40074911676E+03  0.10008502740E+03 0.  0.
        -11    1    4    4    0    0  0.25759165779E+02  0.30036680227E+02 -0.15111397377E+03  0.15620873807E+03  0.00000000000E+00 0.  1.
         11    1    4    4    0    0 -0.55680936108E+01 -0.69470746975E+02 -0.23439882349E+03  0.24454037868E+03  0.00000000000E+00 0. -1.
        -13    1    3    3    0    0 -0.28484438042E+02 -0.69659415616E+01 -0.21038492974E+02  0.36090244375E+02  0.00000000000E+00 0.  1.
         13    1    3    3    0    0  0.60509584975E+02  0.17393750687E+02 -0.38215511311E+02  0.73650375027E+02  0.00000000000E+00 0. -1.
         21    1    1    2  502  501 -0.52216219101E+02  0.29006257623E+02 -0.90736923578E+02  0.10863280268E+03  0.00000000000E+00 0.  1.
<scales pt_clust_5="13000.00000" pt_clust_6="13000.00000" pt_clust_7="13000.00000" pt_clust_8="13000.00000" pt_clust_9="59.73187"></scales>
<clustering>
<clus scale="   59.732">  1  9  2 -1</clus>
<clus scale="   86.009">  7  8 -1 -1</clus>
<clus scale="   92.374">  1  7  2 -1</clus>
<clus scale="  100.085">  5  6 -1 -1</clus>
<clus scale="  105.605">  2  5  1 -1</clus>
</clustering>
</event>
<event>
 9    1  0.1175034E-005  0.1254200E+03  0.7546771E-02  0.1234909E+00
          2   -1    0    0  502    0  0.00000000000E+00  0.00000000000E+00  0.41005264839E+03  0.41005264839E+03  0.00000000000E+00 0. -1.
         -2   -1    0    0    0  501 -0.00000000000E+00 -0.00000000000E+00 -0.80751922990E+02  0.80751922990E+02  0.00000000000E+00 0.  1.
         23    2    1    2    0    0  0.71087705505E+02  0.11911946301E+00  0.58491750715E+02  0.12996129616E+03  0.91734276764E+02 0.  0.
         23    2    1    2    0    0 -0.90752763209E+02  0.36971451549E+01  0.29961410365E+03  0.32575746863E+03  0.89997690806E+02 0.  0.
        -11    1    3    3    0    0  0.26287635785E+02 -0.13990792823E+02 -0.21823892165E+02  0.36919701356E+02  0.00000000000E+00 0.  1.
         11    1    3    3    0    0  0.44800069720E+02  0.14109912286E+02  0.80315642880E+02  0.93041594800E+02  0.00000000000E+00 0. -1.
        -13    1    4    4    0    0 -0.20910078395E+02  0.39518760141E+02  0.69639373783E+02  0.82756305877E+02  0.00000000000E+00 0.  1.
         13    1    4    4    0    0 -0.69842684814E+02 -0.35821614986E+02  0.22997472986E+03  0.24300116275E+03  0.00000000000E+00 0. -1.
         21    1    1    2  502  501  0.19665057704E+02 -0.38162646179E+01 -0.28805128961E+02  0.35085806597E+02  0.00000000000E+00 0.  1.
<scales pt_clust_5="13000.00000" pt_clust_6="13000.00000" pt_clust_7="13000.00000" pt_clust_8="13000.00000" pt_clust_9="20.03193"></scales>
<clustering>
<clus scale="   20.032">  2  9  1 -1</clus>
<clus scale="   89.998">  7  8 -1 -1</clus>
<clus scale="   91.734">  5  6 -1 -1</clus>
<clus scale="  124.155">  1  7  2 -1</clus>
<clus scale="  124.155">  1  5  2 -1</clus>
</clustering>
</event>
<event>
 9    1  0.1175034E-005  0.1188717E+03  0.7546771E-02  0.1247081E+00
         -1   -1    0    0    0  501 -0.00000000000E+00  0.00000000000E+00  0.43431701473E+03  0.43431701473E+03  0.00000000000E+00 0.  1.
          1   -1    0    0  502    0  0.00000000000E+00 -0.00000000000E+00 -0.44494446678E+02  0.44494446678E+02  0.00000000000E+00 0. -1.
         23    2    1    2    0    0 -0.73607921962E+01  0.90240593823E+02  0.24794305630E+03  0.27967870389E+03  0.92449295317E+02 0.  0.
         23    2    1    2    0    0  0.95119210738E+01 -0.67240709700E+02  0.88117139532E+02  0.14061767663E+03  0.86005296454E+02 0.  0.
        -11    1    4    4    0    0 -0.23884440726E+02 -0.68907250651E+02  0.75244720785E+02  0.10478761237E+03  0.00000000000E+00 0.  1.
         11    1    4    4    0    0  0.33396361799E+02  0.16665409514E+01  0.12872418747E+02  0.35830064256E+02  0.00000000000E+00 0. -1.
        -11    1    3    3    0    0 -0.44772852142E+01  0.47354657283E+02  0.22688002195E+03  0.23181254067E+03  0.00000000000E+00 0. -1.
         11    1    3    3    0    0 -0.28835069820E+01  0.42885936540E+02  0.21063034349E+02  0.47866163220E+02  0.00000000000E+00 0.  1.
         21    1    1    2  502  501 -0.21511288776E+01 -0.22999884124E+02  0.53762372215E+02  0.58515080888E+02  0.00000000000E+00 0.  1.
<scales pt_clust_5="13000.00000" pt_clust_6="13000.00000" pt_clust_7="13000.00000" pt_clust_8="13000.00000" pt_clust_9="23.10026"></scales>
<clustering>
<clus scale="   23.100">  1  9  2 -1</clus>
<clus scale="   86.005">  5  6 -1 -1</clus>
<clus scale="   92.449">  7  8 -1 -1</clus>
<clus scale="  113.932">  2  5  1 -1</clus>
<clus scale="  113.932">  2  5  1 -1</clus>
</clustering>
</event>
<event>
 9    1  0.1175034E-005  0.1195137E+03  0.7546771E-02  0.1250514E+00
          4   -1    0    0  502    0  0.00000000000E+00  0.00000000000E+00  0.44441236528E+02  0.44441236528E+02  0.00000000000E+00 0. -1.
         -4   -1    0    0    0  501 -0.00000000000E+00 -0.00000000000E+00 -0.34968441093E+03  0.34968441093E+03  0.00000000000E+00 0.  1.
         23    2    1    2    0    0  0.84381412875E+01 -0.61498845600E+02 -0.14911577586E+03  0.18461610235E+03  0.89410739837E+02 0.  0.
         23    2    1    2    0    0  0.82072471552E+01  0.48252882508E+02 -0.12073401583E+03  0.16821528359E+03  0.10641418833E+03 0.  0.
        -11    1    4    4    0    0  0.24978063577E+02 -0.20010451159E+02 -0.44175419762E+01  0.32308458532E+02  0.00000000000E+00 0.  1.
         11    1    4    4    0    0 -0.16770816422E+02  0.68263333667E+02 -0.11631647385E+03  0.13590682506E+03  0.00000000000E+00 0. -1.
        -13    1    3    3    0    0  0.37018092760E+02  0.15777930637E+01 -0.71977231640E+02  0.80954002354E+02  0.00000000000E+00 0.  1.
         13    1    3    3    0    0 -0.28579951473E+02 -0.63076638663E+02 -0.77138544217E+02  0.10366209999E+03  0.00000000000E+00 0. -1.
         21    1    1    2  502  501 -0.16645388443E+02  0.13245963091E+02 -0.35393382716E+02  0.41294261523E+02  0.00000000000E+00 0.  1.
<scales pt_clust_5="13000.00000" pt_clust_6="13000.00000" pt_clust_7="13000.00000" pt_clust_8="13000.00000" pt_clust_9="21.27262"></scales>
<clustering>
<clus scale="   21.273">  2  9  1 -1</clus>
<clus scale="   89.411">  7  8 -1 -1</clus>
<clus scale="  104.661">  2  7  1 -1</clus>
<clus scale="  106.414">  5  6 -1 -1</clus>
<clus scale="  119.514">  1  5  2 -1</clus>
</clustering>
</event>
<event>
 9    1  0.1175034E-005  0.1271927E+03  0.7546771E-02  0.1231711E+00
          1   -1    0    0  502    0  0.00000000000E+00  0.00000000000E+00  0.23885569474E+03  0.23885569474E+03  0.00000000000E+00 0. -1.
         -1   -1    0    0    0  501 -0.00000000000E+00 -0.00000000000E+00 -0.92474418061E+02  0.92474418061E+02  0.00000000000E+00 0.  1.
         23    2    1    2    0    0 -0.68944962927E+02 -0.54253631953E+02  0.74703420633E+02  0.14700566501E+03  0.91286362612E+02 0.  0.
         23    2    1    2    0    0  0.54419156487E+02  0.72433757774E+02  0.88000318409E+02  0.15590018342E+03  0.91393201560E+02 0.  0.
        -11    1    4    4    0    0  0.78508147854E+02  0.54173298006E+02  0.51136201363E+02  0.10822747611E+03  0.00000000000E+00 0.  1.
         11    1    4    4    0    0 -0.24088991367E+02  0.18260459768E+02  0.36864117046E+02  0.47672707303E+02  0.00000000000E+00 0. -1.
        -13    1    3    3    0    0 -0.34228235961E+02 -0.61037173091E+02  0.85060662156E+02  0.11014728722E+03  0.00000000000E+00 0.  1.
         13    1    3    3    0    0 -0.34716726966E+02  0.67835411370E+01 -0.10357241523E+02  0.36858377793E+02  0.00000000000E+00 0. -1.
         21    1    1    2  502  501  0.14525806440E+02 -0.18180125821E+02 -0.16322462359E+02  0.28424264372E+02  0.00000000000E+00 0.  1.
<scales pt_clust_5="13000.00000" pt_clust_6="13000.00000" pt_clust_7="13000.00000" pt_clust_8="13000.00000" pt_clust_9="23.27050"></scales>
<clustering>
<clus scale="   23.270">  2  9  1 -1</clus>
<clus scale="   91.286">  7  8 -1 -1</clus>
<clus scale="   91.393">  5  6 -1 -1</clus>
<clus scale="  127.116">  2  7  1 -1</clus>
<clus scale="  127.193">  1  5  2 -1</clus>
</clustering>
</event>
<event>
 9    1  0.1175034E-005  0.1134903E+03  0.7546771E-02  0.1261935E+00
          2   -1    0    0  502    0  0.00000000000E+00  0.00000000000E+00  0.11114280364E+03  0.11114280364E+03  0.00000000000E+00 0. -1.
         -2   -1    0    0    0  501 -0.00000000000E+00 -0.00000000000E+00 -0.15178682722E+03  0.15178682722E+03  0.00000000000E+00 0.  1.
         23    2    1    2    0    0  0.51181224132E+02 -0.41271871016E+01 -0.59317281153E+02  0.13439226164E+03  0.10911548363E+03 0.  0.
         23    2    1    2    0    0 -0.23383847866E+02 -0.55496512458E+01  0.24452731410E+02  0.98541742119E+02  0.92384716790E+02 0.  0.
        -11    1    4    4    0    0 -0.56365213706E+02 -0.11983537491E+02  0.11265187040E+01  0.57636026331E+02  0.00000000000E+00 0.  1.
         11    1    4    4    0    0  0.32981365840E+02  0.64338862453E+01  0.23326212706E+02  0.40905715787E+02  0.00000000000E+00 0. -1.
        -13    1    3    3    0    0 -0.15732893450E+01  0.24318633489E+02 -0.69454794389E+02  0.73605975557E+02  0.00000000000E+00 0.  1.
         13    1    3    3    0    0  0.52754513477E+02 -0.28445820591E+02  0.10137513235E+02  0.60786286084E+02  0.00000000000E+00 0. -1.
         21    1    1    2  502  501 -0.27797376266E+02  0.96768383474E+01 -0.57794738333E+01  0.29995627106E+02  0.00000000000E+00 0.  1.
<scales pt_clust_5="13000.00000" pt_clust_6="13000.00000" pt_clust_7="13000.00000" pt_clust_8="13000.00000" pt_clust_9="29.43357"></scales>
<clustering>
<clus scale="   29.434">  2  9  1 -1</clus>
<clus scale="   92.385">  5  6 -1 -1</clus>
<clus scale="   97.513">  1  5  2 -1</clus>
<clus scale="  109.115">  7  8 -1 -1</clus>
<clus scale="   97.513">  1  5  2 -1</clus>
</clustering>
</event>
<event>
 9    1  0.1175034E-005  0.1296672E+03  0.7546771E-02  0.1228366E+00
          1   -1    0    0  502    0  0.00000000000E+00  0.00000000000E+00  0.10613301092E+03  0.10613301092E+03  0.00000000000E+00 0. -1.
         -1   -1    0    0    0  501 -0.00000000000E+00 -0.00000000000E+00 -0.42081096646E+03  0.42081096646E+03  0.00000000000E+00 0.  1.
         23    2    1    2    0    0  0.65240720113E+02  0.66596082514E+02 -0.24602199492E+03  0.27886850212E+03  0.92463126291E+02 0.  0.
         23    2    1    2    0    0 -0.76635224710E+02 -0.45427020951E+02  0.40976331459E+02  0.13583821153E+03  0.94002064191E+02 0.  0.
        -11    1    4    4    0    0 -0.13008920276E+02 -0.36180483872E+02  0.57762373999E+02  0.69388408758E+02  0.00000000000E+00 0. -1.
         11    1    4    4    0    0 -0.63626304434E+02 -0.92465370785E+01 -0.16786042540E+02  0.66449802769E+02  0.00000000000E+00 0.  1.
        -13    1    3    3    0    0  0.53204465212E+02  0.88337855956E+02 -0.16942404616E+03  0.19834011025E+03  0.00000000000E+00 0.  1.
         13    1    3    3    0    0  0.12036254901E+02 -0.21741773443E+02 -0.76597948752E+02  0.80528391872E+02  0.00000000000E+00 0. -1.
         21    1    1    2  502  501  0.11394504597E+02 -0.21169061563E+02 -0.10963229208E+03  0.11223726373E+03  0.00000000000E+00 0.  1.
<scales pt_clust_5="13000.00000" pt_clust_6="13000.00000" pt_clust_7="13000.00000" pt_clust_8="13000.00000" pt_clust_9="24.04088"></scales>
<clustering>
<clus scale="   24.041">  2  9  1 -1</clus>
<clus scale="   92.463">  7  8 -1 -1</clus>
<clus scale="   94.002">  5  6 -1 -1</clus>
<clus scale="  128.556">  2  7  1 -1</clus>
<clus scale="  129.667">  1  5  2 -1</clus>
</clustering>
</event>
<event>
 9    1  0.1175034E-005  0.9571251E+02  0.7546771E-02  0.1290834E+00
          1   -1    0    0  502    0  0.00000000000E+00  0.00000000000E+00  0.31267123364E+03  0.31267123364E+03  0.00000000000E+00 0. -1.
         -1   -1    0    0    0  501 -0.00000000000E+00 -0.00000000000E+00 -0.41516417572E+02  0.41516417572E+02  0.00000000000E+00 0.  1.
         23    2    1    2    0    0 -0.25913954371E+02  0.91710301148E+00  0.98553770727E+02  0.13734680632E+03  0.92081080421E+02 0.  0.
         23    2    1    2    0    0  0.21469692669E+02  0.20146424873E+02  0.17086443443E+03  0.19524363474E+03  0.89769682038E+02 0.  0.
        -11    1    3    3    0    0 -0.60538086815E+02 -0.32276838821E+01  0.58612718996E+02  0.84325136979E+02  0.00000000000E+00 0. -1.
         11    1    3    3    0    0  0.34624132444E+02  0.41447868936E+01  0.39941051731E+02  0.53021669337E+02  0.00000000000E+00 0.  1.
        -11    1    4    4    0    0  0.85821381537E+01 -0.21544688491E+02  0.49855624482E+01  0.23720930218E+02  0.00000000000E+00 0.  1.
         11    1    4    4    0    0  0.12887554515E+02  0.41691113364E+02  0.16587887199E+03  0.17152270452E+03  0.00000000000E+00 0. -1.
         21    1    1    2  502  501  0.44442617023E+01 -0.21063527884E+02  0.17366109031E+01  0.21597210154E+02  0.00000000000E+00 0.  1.
<scales pt_clust_5="13000.00000" pt_clust_6="13000.00000" pt_clust_7="13000.00000" pt_clust_8="13000.00000" pt_clust_9="21.52728"></scales>
<clustering>
<clus scale="   21.527">  2  9  1 -1</clus>
<clus scale="   89.770">  7  8 -1 -1</clus>
<clus scale="   92.081">  5  6 -1 -1</clus>
<clus scale="   93.491">  1  7  2 -1</clus>
<clus scale="   93.491">  1  5  2 -1</clus>
</clustering>
</event>
<event>
 9    1  0.1175034E-005  0.1833929E+03  0.7546771E-02  0.1164674E+00
         -1   -1    0    0    0  501 -0.00000000000E+00  0.00000000000E+00  0.18589919403E+03  0.18589919403E+03  0.00000000000E+00 0.  1.
          1   -1    0    0  502    0  0.00000000000E+00 -0.00000000000E+00 -0.30252255770E+03  0.30252255770E+03  0.00000000000E+00 0. -1.
         23    2    1    2    0    0  0.42843068012E+02  0.16343505612E+03  0.59802520703E+02  0.20169234287E+03  0.92503587197E+02 0.  0.
         23    2    1    2    0    0 -0.40849144309E+01 -0.15610395480E+03 -0.16676543650E+03  0.24611828022E+03  0.91533413664E+02 0.  0.
        -11    1    3    3    0    0  0.19418763079E+02 -0.64256115474E+01  0.12115282666E+01  0.20490110883E+02  0.00000000000E+00 0. -1.
         11    1    3    3    0    0  0.23424304933E+02  0.16986066767E+03  0.58590992436E+02  0.18120223199E+03  0.00000000000E+00 0.  1.
        -13    1    4    4    0    0 -0.37215638196E+02 -0.12803017742E+03 -0.10081100163E+03  0.16715139277E+03  0.00000000000E+00 0.  1.
         13    1    4    4    0    0  0.33130723765E+02 -0.28073777379E+02 -0.65954434874E+02  0.78966887447E+02  0.00000000000E+00 0. -1.
         21    1    1    2  502  501 -0.38758153581E+02 -0.73311013222E+01 -0.96604478781E+01  0.40611128633E+02  0.00000000000E+00 0.  1.
<scales pt_clust_5="13000.00000" pt_clust_6="13000.00000" pt_clust_7="13000.00000" pt_clust_8="13000.00000" pt_clust_9="39.44540"></scales>
<clustering>
<clus scale="   39.445">  1  9  2 -1</clus>
<clus scale="   91.533">  7  8 -1 -1</clus>
<clus scale="   92.504">  5  6 -1 -1</clus>
<clus scale="  182.905">  2  7  1 -1</clus>
<clus scale="  182.905">  2  5  1 -1</clus>
</clustering>
</event>
<event>
 9    1  0.1175034E-005  0.1094027E+03  0.7546771E-02  0.1266797E+00
         -2   -1    0    0    0  501 -0.00000000000E+00  0.00000000000E+00  0.11610905986E+03  0.11610905986E+03  0.00000000000E+00 0.  1.
          2   -1    0    0  502    0  0.00000000000E+00 -0.00000000000E+00 -0.26615623298E+03  0.26615623298E+03  0.00000000000E+00 0. -1.
         23    2    1    2    0    0 -0.49873552618E+02  0.10987579536E+02  0.64091192634E+02  0.11984696329E+03  0.87450074226E+02 0.  0.
         23    2    1    2    0    0  0.26760704044E+02 -0.50803109607E+01 -0.91822506701E+02  0.13779782976E+03  0.99070299829E+02 0.  0.
        -11    1    3    3    0    0 -0.58196033584E+01 -0.20109832208E+02 -0.13827088694E+02  0.25089071654E+02  0.00000000000E+00 0. -1.
         11    1    3    3    0    0 -0.44053949260E+02  0.31097411745E+02  0.77918281328E+02  0.94757891638E+02  0.00000000000E+00 0.  1.
        -11    1    4    4    0    0  0.94093888037E+01  0.36750090649E+02 -0.83554335439E+02  0.91762915881E+02  0.00000000000E+00 0. -1.
         11    1    4    4    0    0  0.17351315240E+02 -0.41830401609E+02 -0.82681712615E+01  0.46034913874E+02  0.00000000000E+00 0.  1.
         21    1    1    2  502  501  0.23112848574E+02 -0.59072685756E+01 -0.12231585906E+03  0.12462049979E+03  0.00000000000E+00 0. -1.
<scales pt_clust_5="13000.00000" pt_clust_6="13000.00000" pt_clust_7="13000.00000" pt_clust_8="13000.00000" pt_clust_9="23.85581"></scales>
<clustering>
<clus scale="   23.856">  2  9  1 -1</clus>
<clus scale="   87.450">  5  6 -1 -1</clus>
<clus scale="   99.003">  1  5  2 -1</clus>
<clus scale="   99.070">  7  8 -1 -1</clus>
<clus scale="   23.856">  2  5  1 -1</clus>
</clustering>
</event>
<event>
 9    1  0.1175034E-005  0.1157088E+03  0.7546771E-02  0.1251551E+00
         -1   -1    0    0    0  501 -0.00000000000E+00  0.00000000000E+00  0.67207650109E+02  0.67207650109E+02  0.00000000000E+00 0.  1.
          1   -1    0    0  502    0  0.00000000000E+00 -0.00000000000E+00 -0.29616924632E+03  0.29616924632E+03  0.00000000000E+00 0. -1.
         23    2    1    2    0    0 -0.10810440190E+02  0.44134453234E+02 -0.92223023605E+02  0.13876660745E+03  0.93200695707E+02 0.  0.
         23    2    1    2    0    0  0.17140015317E+02 -0.90127690651E+02 -0.79804094824E+02  0.15114617414E+03  0.89775785481E+02 0.  0.
        -13    1    3    3    0    0 -0.50590749699E+01  0.67989202104E+02 -0.35286796112E+02  0.76767726436E+02  0.00000000000E+00 0. -1.
         13    1    3    3    0    0 -0.57513652196E+01 -0.23854748870E+02 -0.56936227493E+02  0.61998881012E+02  0.00000000000E+00 0.  1.
        -13    1    4    4    0    0  0.39927705976E+02 -0.95190116373E+02 -0.54535459062E+02  0.11674543355E+03  0.00000000000E+00 0.  1.
         13    1    4    4    0    0 -0.22787690659E+02  0.50624257221E+01 -0.25268635762E+02  0.34400740588E+02  0.00000000000E+00 0. -1.
         21    1    1    2  502  501 -0.63295751278E+01  0.45993237417E+02 -0.56934477778E+02  0.73464114840E+02  0.00000000000E+00 0. -1.
<scales pt_clust_5="13000.00000" pt_clust_6="13000.00000" pt_clust_7="13000.00000" pt_clust_8="13000.00000" pt_clust_9="46.42673"></scales>
<clustering>
<clus scale="   46.427">  2  9  1 -1</clus>
<clus scale="   89.776">  7  8 -1 -1</clus>
<clus scale="   93.201">  5  6 -1 -1</clus>
<clus scale="  112.968">  2  7  1 -1</clus>
<clus scale="   46.427">  2  5  1 -1</clus>
</clustering>
</event>
<event>
 9    1  0.1175034E-005  0.1168348E+03  0.7546771E-02  0.1249150E+00
          1   -1    0    0  502    0  0.00000000000E+00  0.00000000000E+00  0.36315888320E+03  0.36315888320E+03  0.00000000000E+00 0. -1.
         -1   -1    0    0    0  501 -0.00000000000E+00 -0.00000000000E+00 -0.10082223977E+03  0.10082223977E+03  0.00000000000E+00 0.  1.
         23    2    1    2    0    0  0.62391236580E+02 -0.48354250900E+02  0.42837805818E+02  0.12554551459E+03  0.87725701156E+02 0.  0.
         23    2    1    2    0    0 -0.72007758297E+02  0.28295034907E+02  0.26434325309E+03  0.28837693045E+03  0.85429341024E+02 0.  0.
        -11    1    3    3    0    0  0.60713007267E+00 -0.26719692069E+02  0.52944083410E+02  0.59307558703E+02  0.00000000000E+00 0. -1.
         11    1    3    3    0    0  0.61784106507E+02 -0.21634558832E+02 -0.10106277593E+02  0.66237955883E+02  0.00000000000E+00 0.  1.
        -13    1    4    4    0    0  0.19804386907E+02  0.35270588065E+01  0.43146088551E+02  0.47605029586E+02  0.00000000000E+00 0.  1.
         13    1    4    4    0    0 -0.91812145204E+02  0.24767976101E+02  0.22119716454E+03  0.24077190087E+03  0.00000000000E+00 0. -1.
         21    1    1    2  502  501  0.96165217164E+01  0.20059215993E+02 -0.44844415482E+02  0.50058677930E+02  0.00000000000E+00 0.  1.
<scales pt_clust_5="13000.00000" pt_clust_6="13000.00000" pt_clust_7="13000.00000" pt_clust_8="13000.00000" pt_clust_9="22.24522"></scales>
<clustering>
<clus scale="   22.245">  2  9  1 -1</clus>
<clus scale="   85.429">  7  8 -1 -1</clus>
<clus scale="   87.726">  5  6 -1 -1</clus>
<clus scale="  115.121">  1  7  2 -1</clus>
<clus scale="  115.121">  1  5  2 -1</clus>
</clustering>
</event>
<event>
 9    1  0.1175034E-005  0.1223036E+03  0.7546771E-02  0.1239931E+00
         -1   -1    0    0    0  501 -0.00000000000E+00  0.00000000000E+00  0.29542493077E+03  0.29542493077E+03  0.00000000000E+00 0.  1.
          1   -1    0    0  502    0  0.00000000000E+00 -0.00000000000E+00 -0.11019557438E+03  0.11019557438E+03  0.00000000000E+00 0. -1.
         23    2    1    2    0    0  0.39884037977E+02  0.31084061224E+02  0.19651108580E+03  0.22334016240E+03  0.93312731998E+02 0.  0.
         23    2    1    2    0    0 -0.59512981590E+02 -0.60800964507E+02 -0.45487598699E+02  0.13289986824E+03  0.91404053956E+02 0.  0.
        -11    1    4    4    0    0 -0.30806066367E+02  0.20114701813E+02 -0.24842356544E+01  0.36875281434E+02  0.00000000000E+00 0.  1.
         11    1    4    4    0    0 -0.28706915223E+02 -0.80915666321E+02 -0.43003363045E+02  0.96024586804E+02  0.00000000000E+00 0. -1.
        -13    1    3    3    0    0  0.48385401502E+02 -0.99153232817E+01  0.47378841572E+02  0.68441327741E+02  0.00000000000E+00 0. -1.
         13    1    3    3    0    0 -0.85013635246E+01  0.40999384506E+02  0.14913224422E+03  0.15489883466E+03  0.00000000000E+00 0.  1.
         21    1    1    2  502  501  0.19628943613E+02  0.29716903283E+02  0.34205869297E+02  0.49380474506E+02  0.00000000000E+00 0.  1.
<scales pt_clust_5="13000.00000" pt_clust_6="13000.00000" pt_clust_7="13000.00000" pt_clust_8="13000.00000" pt_clust_9="35.61446"></scales>
<clustering>
<clus scale="   35.614">  1  9  2 -1</clus>
<clus scale="   91.404">  5  6 -1 -1</clus>
<clus scale="   93.313">  7  8 -1 -1</clus>
<clus scale="  120.854">  2  5  1 -1</clus>
<clus scale="  120.854">  2  5  1 -1</clus>
</clustering>
</event>
<event>
 9    1  0.1175034E-005  0.1478938E+03  0.7546771E-02  0.1208164E+00
          1   -1    0    0  502    0  0.00000000000E+00  0.00000000000E+00  0.57941405074E+03  0.57941405074E+03  0.00000000000E+00 0. -1.
         -1   -1    0    0    0  501 -0.00000000000E+00 -0.00000000000E+00 -0.68358671762E+02  0.68358671762E+02  0.00000000000E+00 0.  1.
         23    2    1    2    0    0  0.54695052820E+02 -0.60300072953E+02  0.34432941213E+02  0.12661594603E+03  0.90654965375E+02 0.  0.
         23    2    1    2    0    0 -0.54723219877E+02  0.84741427278E+02  0.47305573324E+03  0.49645653405E+03  0.11185536714E+03 0.  0.
        -11    1    4    4    0    0  0.30664921848E+02  0.33864195713E+02  0.92958473615E+02  0.10357798511E+03  0.00000000000E+00 0. -1.
         11    1    4    4    0    0 -0.85388141725E+02  0.50877231565E+02  0.38009725963E+03  0.39287854894E+03  0.00000000000E+00 0.  1.
        -13    1    3    3    0    0 -0.77676115391E+01 -0.24039342803E+02 -0.23134664066E+02  0.34255488216E+02  0.00000000000E+00 0.  1.
         13    1    3    3    0    0  0.62462664359E+02 -0.36260730149E+02  0.57567605280E+02  0.92360457813E+02  0.00000000000E+00 0. -1.
         21    1    1    2  502  501  0.28167056878E-01 -0.24441354325E+02  0.35667045232E+01  0.24700242424E+02  0.00000000000E+00 0.  1.
<scales pt_clust_5="13000.00000" pt_clust_6="13000.00000" pt_clust_7="13000.00000" pt_clust_8="13000.00000" pt_clust_9="24.44137"></scales>
<clustering>
<clus scale="   24.441">  2  9  1 -1</clus>
<clus scale="   90.655">  7  8 -1 -1</clus>
<clus scale="  111.855">  5  6 -1 -1</clus>
<clus scale="  132.587">  2  7  1 -1</clus>
<clus scale="  147.894">  1  5  2 -1</clus>
</clustering>
</event>
<event>
 9    1  0.1175034E-005  0.1044917E+03  0.7546771E-02  0.1271621E+00
         -1   -1    0    0    0  501 -0.00000000000E+00  0.00000000000E+00  0.34546177487E+03  0.34546177487E+03  0.00000000000E+00 0.  1.
          1   -1    0    0  502    0  0.00000000000E+00 -0.00000000000E+00 -0.82902468548E+02  0.82902468548E+02  0.00000000000E+00 0. -1.
         23    2    1    2    0    0 -0.38528550447E+02  0.27690072267E+02  0.56505231268E+02  0.11814180932E+03  0.92268394621E+02 0.  0.
         23    2    1    2    0    0  0.52840489985E+02 -0.34796140689E+01  0.32280664474E+01  0.10545581654E+03  0.91138815736E+02 0.  0.
        -11    1    4    4    0    0 -0.19760811743E+02  0.19817028669E+02 -0.60908951092E+01  0.28640937646E+02  0.00000000000E+00 0.  1.
         11    1    4    4    0    0  0.72601301728E+02 -0.23296642738E+02  0.93189615566E+01  0.76814878896E+02  0.00000000000E+00 0. -1.
        -13    1    3    3    0    0  0.75206979684E+00 -0.32004466729E+02  0.13526261091E+02  0.34753578790E+02  0.00000000000E+00 0. -1.
         13    1    3    3    0    0 -0.39280620244E+02  0.59694538996E+02  0.42978970177E+02  0.83388230526E+02  0.00000000000E+00 0.  1.
         21    1    1    2  502  501 -0.14311939538E+02 -0.24210458198E+02  0.20282600861E+03  0.20476661756E+03  0.00000000000E+00 0.  1.
<scales pt_clust_5="13000.00000" pt_clust_6="13000.00000" pt_clust_7="13000.00000" pt_clust_8="13000.00000" pt_clust_9="28.12433"></scales>
<clustering>
<clus scale="   28.124">  1  9  2 -1</clus>
<clus scale="   91.139">  5  6 -1 -1</clus>
<clus scale="   92.268">  7  8 -1 -1</clus>
<clus scale="  103.496">  2  5  1 -1</clus>
<clus scale="  103.496">  2  5  1 -1</clus>
</clustering>
</event>
<event>
 9    1  0.1175034E-005  0.1303133E+03  0.7546771E-02  0.1239555E+00
         -1   -1    0    0    0  501 -0.00000000000E+00  0.00000000000E+00  0.48310481646E+02  0.48310481646E+02  0.00000000000E+00 0.  1.
          1   -1    0    0  502    0  0.00000000000E+00 -0.00000000000E+00 -0.64684032452E+03  0.64684032452E+03  0.00000000000E+00 0. -1.
         23    2    1    2    0    0 -0.21463578254E+02  0.86417338409E+02 -0.12640282368E+03  0.17925628701E+03  0.90700060795E+02 0.  0.
         23    2    1    2    0    0  0.41808537096E+02  0.17309146584E+02 -0.26202961216E+03  0.28070518802E+03  0.89935113294E+02 0.  0.
        -11    1    3    3    0    0  0.13206943399E+02  0.67492241448E+02 -0.29915748990E+02  0.74997186929E+02  0.00000000000E+00 0.  1.
         11    1    3    3    0    0 -0.34670521654E+02  0.18925096961E+02 -0.96487074695E+02  0.10425910008E+03  0.00000000000E+00 0. -1.
        -13    1    4    4    0    0 -0.46789344064E+01  0.41241098741E+02 -0.16866527692E+03  0.17369713956E+03  0.00000000000E+00 0. -1.
         13    1    4    4    0    0  0.46487471502E+02 -0.23931952157E+02 -0.93364335243E+02  0.10700804846E+03  0.00000000000E+00 0.  1.
         21    1    1    2  502  501 -0.20344958841E+02 -0.10372648499E+03 -0.21009740703E+03  0.23518933113E+03  0.00000000000E+00 0. -1.
<scales pt_clust_5="13000.00000" pt_clust_6="13000.00000" pt_clust_7="13000.00000" pt_clust_8="13000.00000" pt_clust_9="93.56841"></scales>
<clustering>
<clus scale="   89.935">  7  8 -1 -1</clus>
<clus scale="   90.700">  5  6 -1 -1</clus>
<clus scale="  100.677">  2  7  1 -1</clus>
<clus scale="   93.568">  2  9  1 -1</clus>
<clus scale="  100.677">  2  5  1 -1</clus>
</clustering>
</event>
<event>
 9    1  0.1175034E-005  0.1780729E+03  0.7546771E-02  0.1200304E+00
         -1   -1    0    0    0  501 -0.00000000000E+00  0.00000000000E+00  0.46336735814E+03  0.46336735814E+03  0.00000000000E+00 0.  1.
          1   -1    0    0  502    0  0.00000000000E+00 -0.00000000000E+00 -0.35733361134E+03  0.35733361134E+03  0.00000000000E+00 0. -1.
         23    2    1    2    0    0  0.26281846015E+02  0.15371372112E+03 -0.25788533560E+03  0.31459474181E+03  0.90257197872E+02 0.  0.
         23    2    1    2    0    0 -0.52203691797E+01 -0.17840097570E+01 -0.20437266748E+02  0.92275312767E+02  0.89814344784E+02 0.  0.
        -11    1    3    3    0    0  0.26854166635E+02  0.10476772944E+03 -0.93143160820E+02  0.14273426991E+03  0.00000000000E+00 0.  1.
         11    1    3    3    0    0 -0.57232062025E+00  0.48945991676E+02 -0.16474217478E+03  0.17186047190E+03  0.00000000000E+00 0. -1.
        -13    1    4    4    0    0 -0.47433142209E+02 -0.38817836992E+01 -0.13269176214E+02  0.49406905003E+02  0.00000000000E+00 0.  1.
         13    1    4    4    0    0  0.42212773030E+02  0.20977739423E+01 -0.71680905342E+01  0.42868407765E+02  0.00000000000E+00 0. -1.
         21    1    1    2  502  501 -0.21061476835E+02 -0.15192971136E+03  0.38435634915E+03  0.41383091490E+03  0.00000000000E+00 0.  1.
<scales pt_clust_5="13000.00000" pt_clust_6="13000.00000" pt_clust_7="13000.00000" pt_clust_8="13000.00000" pt_clust_9="153.50442"></scales>
<clustering>
<clus scale="   89.814">  7  8 -1 -1</clus>
<clus scale="   89.984">  2  7  1 -1</clus>
<clus scale="   90.257">  5  6 -1 -1</clus>
<clus scale="  153.504">  1  9  2 -1</clus>
<clus scale="   89.984">  2  5  1 -1</clus>
</clustering>
</event>
<event>
 9    1  0.1175034E-005  0.1005241E+03  0.7546771E-02  0.1280838E+00
         -2   -1    0    0    0  501 -0.00000000000E+00  0.00000000000E+00  0.39648095111E+02  0.39648095111E+02  0.00000000000E+00 0.  1.
          2   -1    0    0  502    0  0.00000000000E+00 -0.00000000000E+00 -0.47561879785E+03  0.47561879785E+03  0.00000000000E+00 0. -1.
         23    2    1    2    0    0 -0.12274795186E+02  0.16035276445E+02 -0.11442179921E+03  0.14479283342E+03  0.86399165430E+02 0.  0.
         23    2    1    2    0    0  0.67644535801E+02 -0.26297847345E+01 -0.27423801181E+03  0.29642113348E+03  0.89868249454E+02 0.  0.
        -13    1    3    3    0    0 -0.36184918386E+02  0.34363039698E+02 -0.38234157430E+02  0.62865074646E+02  0.00000000000E+00 0.  1.
         13    1    3    3    0    0  0.23910123200E+02 -0.18327763253E+02 -0.76187641782E+02  0.81927758773E+02  0.00000000000E+00 0. -1.
        -13    1    4    4    0    0  0.67753975577E+02  0.33866936228E+02 -0.19443058713E+03  0.20866438074E+03  0.00000000000E+00 0. -1.
         13    1    4    4    0    0 -0.10943977584E+00 -0.36496720962E+02 -0.79807424674E+02  0.87756752739E+02  0.00000000000E+00 0.  1.
         21    1    1    2  502  501 -0.55369740614E+02 -0.13405491710E+02 -0.47310891723E+02  0.74052926069E+02  0.00000000000E+00 0.  1.
<scales pt_clust_5="13000.00000" pt_clust_6="13000.00000" pt_clust_7="13000.00000" pt_clust_8="13000.00000" pt_clust_9="56.96942"></scales>
<clustering>
<clus scale="   56.969">  1  9  2 -1</clus>
<clus scale="   86.399">  5  6 -1 -1</clus>
<clus scale="   89.868">  7  8 -1 -1</clus>
<clus scale="   97.435">  1  5  2 -1</clus>
<clus scale="  100.524">  2  5  1 -1</clus>
</clustering>
</event>
<event>
 9    1  0.1175034E-005  0.1182980E+03  0.7546771E-02  0.1247108E+00
          3   -1    0    0  502    0  0.00000000000E+00  0.00000000000E+00  0.21070127065E+03  0.21070127065E+03  0.00000000000E+00 0. -1.
         -3   -1    0    0    0  501 -0.00000000000E+00 -0.00000000000E+00 -0.34114903432E+03  0.34114903432E+03  0.00000000000E+00 0.  1.
         23    2    1    2    0    0  0.13453933883E+02 -0.49713375626E+02 -0.12964779481E+03  0.16739639295E+03  0.92523367974E+02 0.  0.
         23    2    1    2    0    0 -0.75459235614E+02 -0.24527867384E+02  0.15638105846E+03  0.19989417926E+03  0.95952774529E+02 0.  0.
        -13    1    3    3    0    0 -0.38458582825E+02 -0.16983546493E+02 -0.35560987461E+02  0.55064392065E+02  0.00000000000E+00 0. -1.
         13    1    3    3    0    0  0.51912516707E+02 -0.32729829133E+02 -0.94086807350E+02  0.11233200089E+03  0.00000000000E+00 0.  1.
        -13    1    4    4    0    0  0.23067411746E+02 -0.44688137490E+00  0.30025862924E+02  0.37866312627E+02  0.00000000000E+00 0.  1.
         13    1    4    4    0    0 -0.98526647361E+02 -0.24080986009E+02  0.12635519553E+03  0.16202786663E+03  0.00000000000E+00 0. -1.
         21    1    1    2  502  501  0.62005301732E+02  0.74241243010E+02 -0.15718102731E+03  0.18455973275E+03  0.00000000000E+00 0.  1.
<scales pt_clust_5="13000.00000" pt_clust_6="13000.00000" pt_clust_7="13000.00000" pt_clust_8="13000.00000" pt_clust_9="96.72859"></scales>
<clustering>
<clus scale="   92.523">  5  6 -1 -1</clus>
<clus scale="   95.953">  7  8 -1 -1</clus>
<clus scale="   96.729">  2  9  1 -1</clus>
<clus scale="  115.534">  2  5  1 -1</clus>
<clus scale="  118.298">  1  5  2 -1</clus>
</clustering>
</event>
<event>
 9    1  0.1175034E-005  0.9644324E+02  0.7546771E-02  0.1289761E+00
         -1   -1    0    0    0  501 -0.00000000000E+00  0.00000000000E+00  0.62330452225E+02  0.62330452225E+02  0.00000000000E+00 0.  1.
          1   -1    0    0  502    0  0.00000000000E+00 -0.00000000000E+00 -0.33742798263E+03  0.33742798263E+03  0.00000000000E+00 0. -1.
         23    2    1    2    0    0  0.14629911043E+02 -0.14279111041E+02 -0.11348510916E+03  0.14896874941E+03  0.94312729743E+02 0.  0.
         23    2    1    2    0    0 -0.23595265393E+02 -0.82948593567E+01 -0.19076419067E+03  0.21284515515E+03  0.91030447587E+02 0.  0.
        -11    1    3    3    0    0 -0.14554578719E+02 -0.45142987769E+02 -0.86482175493E+02  0.98635144773E+02  0.00000000000E+00 0.  1.
         11    1    3    3    0    0  0.29184489762E+02  0.30863876729E+02 -0.27002933663E+02  0.50333604638E+02  0.00000000000E+00 0. -1.
        -13    1    4    4    0    0  0.25483574156E+02 -0.12664597773E+02 -0.19157496006E+02  0.34304726230E+02  0.00000000000E+00 0.  1.
         13    1    4    4    0    0 -0.49078839549E+02  0.43697384161E+01 -0.17160669467E+03  0.17854042892E+03  0.00000000000E+00 0. -1.
         21    1    1    2  502  501  0.89653543501E+01  0.22573970397E+02  0.29151769427E+02  0.37944530289E+02  0.00000000000E+00 0.  1.
<scales pt_clust_5="13000.00000" pt_clust_6="13000.00000" pt_clust_7="13000.00000" pt_clust_8="13000.00000" pt_clust_9="24.28913"></scales>
<clustering>
<clus scale="   24.289">  1  9  2 -1</clus>
<clus scale="   91.030">  7  8 -1 -1</clus>
<clus scale="   93.236">  2  7  1 -1</clus>
<clus scale="   94.313">  5  6 -1 -1</clus>
<clus scale="   93.236">  2  5  1 -1</clus>
</clustering>
</event>
<event>
 9    1  0.1175034E-005  0.1111346E+03  0.7546771E-02  0.1262002E+00
          1   -1    0    0  502    0  0.00000000000E+00  0.00000000000E+00  0.29585953388E+03  0.29585953388E+03  0.00000000000E+00 0. -1.
         -1   -1    0    0    0  501 -0.00000000000E+00 -0.00000000000E+00 -0.92138836778E+02  0.92138836778E+02  0.00000000000E+00 0.  1.
         23    2    1    2    0    0  0.29754584228E+02 -0.42463580773E+02 -0.31609755934E+02  0.11503099305E+03  0.97695760999E+02 0.  0.
         23    2    1    2    0    0 -0.52190602265E+02  0.34788972611E+02  0.21753389214E+03  0.24331957675E+03  0.89158794408E+02 0.  0.
        -11    1    3    3    0    0 -0.33366263992E+02 -0.20965466509E+01  0.69308589297E+00  0.33439250122E+02  0.00000000000E+00 0.  1.
         11    1    3    3    0    0  0.63120848221E+02 -0.40367034122E+02 -0.32302841827E+02  0.81591742928E+02  0.00000000000E+00 0. -1.
        -13    1    4    4    0    0  0.77723339854E+01  0.32195840074E+02  0.24575764533E+02  0.41242568979E+02  0.00000000000E+00 0. -1.
         13    1    4    4    0    0 -0.59962936250E+02  0.25931325370E+01  0.19295812761E+03  0.20207700777E+03  0.00000000000E+00 0.  1.
         21    1    1    2  502  501  0.22436018037E+02  0.76746081629E+01  0.17796560890E+02  0.29647800851E+02  0.00000000000E+00 0. -1.
<scales pt_clust_5="13000.00000" pt_clust_6="13000.00000" pt_clust_7="13000.00000" pt_clust_8="13000.00000" pt_clust_9="23.71233"></scales>
<clustering>
<clus scale="   23.712">  1  9  2 -1</clus>
<clus scale="   89.159">  7  8 -1 -1</clus>
<clus scale="   97.696">  5  6 -1 -1</clus>
<clus scale="  103.710">  1  7  2 -1</clus>
<clus scale="   23.712">  1  5  2 -1</clus>
</clustering>
</event>
<event>
 9    1  0.1175034E-005  0.9656171E+02  0.7546771E-02  0.1288615E+00
          2   -1    0    0  502    0  0.00000000000E+00  0.00000000000E+00  0.47445399825E+03  0.47445399825E+03  0.00000000000E+00 0. -1.
         -2   -1    0    0    0  501 -0.00000000000E+00 -0.00000000000E+00 -0.35939173235E+03  0.35939173235E+03  0.00000000000E+00 0.  1.
         23    2    1    2    0    0  0.30324822212E+02  0.21916606437E+02 -0.25702724104E+03  0.27591229080E+03  0.93084139871E+02 0.  0.
         23    2    1    2    0    0 -0.17491715547E+02  0.19330364973E+02  0.45480127745E+03  0.46462085620E+03  0.91371302522E+02 0.  0.
        -11    1    3    3    0    0  0.12158492603E+02 -0.36770957257E+02 -0.91920664535E+02  0.99746382433E+02  0.00000000000E+00 0.  1.
         11    1    3    3    0    0  0.18166329610E+02  0.58687563694E+02 -0.16510657651E+03  0.17616590836E+03  0.00000000000E+00 0. -1.
        -11    1    4    4    0    0  0.10297296999E+02  0.51084360060E+02  0.22277769178E+03  0.22879149049E+03  0.00000000000E+00 0. -1.
         11    1    4    4    0    0 -0.27789012546E+02 -0.31753995087E+02  0.23202358568E+03  0.23582936571E+03  0.00000000000E+00 0.  1.
         21    1    1    2  502  501 -0.12833106665E+02 -0.41246971410E+02 -0.82711770509E+02  0.93312583599E+02  0.00000000000E+00 0.  1.
<scales pt_clust_5="13000.00000" pt_clust_6="13000.00000" pt_clust_7="13000.00000" pt_clust_8="13000.00000" pt_clust_9="43.19724"></scales>
<clustering>
<clus scale="   43.197">  2  9  1 -1</clus>
<clus scale="   91.371">  7  8 -1 -1</clus>
<clus scale="   93.084">  5  6 -1 -1</clus>
<clus scale="   94.912">  1  7  2 -1</clus>
<clus scale="   94.912">  1  5  2 -1</clus>
</clustering>
</event>
<event>
 9    1  0.1175034E-005  0.1230190E+03  0.7546771E-02  0.1238771E+00
          1   -1    0    0  502    0  0.00000000000E+00  0.00000000000E+00  0.47721442370E+03  0.47721442370E+03  0.00000000000E+00 0. -1.
         -1   -1    0    0    0  501 -0.00000000000E+00 -0.00000000000E+00 -0.51783542475E+02  0.51783542475E+02  0.00000000000E+00 0.  1.
         23    2    1    2    0    0  0.67093144351E+02 -0.34727749172E+02  0.18710013130E+03  0.22143799255E+03  0.91218522399E+02 0.  0.
         23    2    1    2    0    0 -0.59366886195E+02  0.63635452085E+02  0.24565921929E+03  0.27675320788E+03  0.93112770931E+02 0.  0.
        -11    1    4    4    0    0 -0.69564470902E+02  0.96980486268E+01  0.16344676593E+03  0.17789916541E+03  0.00000000000E+00 0.  1.
         11    1    4    4    0    0  0.10197584708E+02  0.53937403458E+02  0.82212453356E+02  0.98854042469E+02  0.00000000000E+00 0. -1.
        -11    1    3    3    0    0  0.29526335941E+01 -0.47932584586E+02  0.49059548339E+02  0.68651948213E+02  0.00000000000E+00 0.  1.
         11    1    3    3    0    0  0.64140510757E+02  0.13204835414E+02  0.13804058296E+03  0.15278604433E+03  0.00000000000E+00 0. -1.
         21    1    1    2  502  501 -0.77262581568E+01 -0.28907702913E+02 -0.73284693653E+01  0.30806765751E+02  0.00000000000E+00 0.  1.
<scales pt_clust_5="13000.00000" pt_clust_6="13000.00000" pt_clust_7="13000.00000" pt_clust_8="13000.00000" pt_clust_9="29.92241"></scales>
<clustering>
<clus scale="   29.922">  2  9  1 -1</clus>
<clus scale="   91.219">  7  8 -1 -1</clus>
<clus scale="   93.113">  5  6 -1 -1</clus>
<clus scale="  121.592">  2  7  1 -1</clus>
<clus scale="  123.019">  1  5  2 -1</clus>
</clustering>
</event>
<event>
 9    1  0.1175034E-005  0.1097669E+03  0.7546771E-02  0.1261755E+00
          3   -1    0    0  502    0  0.00000000000E+00  0.00000000000E+00  0.22332218990E+03  0.22332218990E+03  0.00000000000E+00 0. -1.
         -3   -1    0    0    0  501 -0.00000000000E+00 -0.00000000000E+00 -0.14123025859E+03  0.14123025859E+03  0.00000000000E+00 0.  1.
         23    2    1    2    0    0 -0.21814389203E+01 -0.59633144876E+02  0.60217146612E+02  0.12587560889E+03  0.93046727633E+02 0.  0.
         23    2    1    2    0    0  0.60104739362E+02  0.37521484982E+02  0.90133958541E+02  0.14646323403E+03  0.91142234508E+02 0.  0.
        -11    1    4    4    0    0  0.28105569547E+02 -0.41903362292E+01  0.89483589093E+02  0.93887137959E+02  0.00000000000E+00 0. -1.
         11    1    4    4    0    0  0.31999169815E+02  0.41711821211E+02  0.65036944844E+00  0.52576096071E+02  0.00000000000E+00 0.  1.
        -11    1    3    3    0    0  0.44481520712E+02 -0.17975052076E+02  0.26929625310E+02  0.55017387263E+02  0.00000000000E+00 0.  1.
         11    1    3    3    0    0 -0.46662959632E+02 -0.41658092801E+02  0.33287521302E+02  0.70858221625E+02  0.00000000000E+00 0. -1.
         21    1    1    2  502  501 -0.57923300442E+02  0.22111659894E+02 -0.68259173843E+02  0.92213605563E+02  0.00000000000E+00 0. -1.
<scales pt_clust_5="13000.00000" pt_clust_6="13000.00000" pt_clust_7="13000.00000" pt_clust_8="13000.00000" pt_clust_9="62.00028"></scales>
<clustering>
<clus scale="   62.000">  2  9  1 -1</clus>
<clus scale="   91.142">  5  6 -1 -1</clus>
<clus scale="   93.047">  7  8 -1 -1</clus>
<clus scale="  108.157">  1  5  2 -1</clus>
<clus scale="  108.157">  1  5  2 -1</clus>
</clustering>
</event>
<event>
 9    1  0.1175034E-005  0.1074868E+03  0.7546771E-02  0.1266110E+00
         -1   -1    0    0    0  501 -0.00000000000E+00  0.00000000000E+00  0.41406494500E+03  0.41406494500E+03  0.00000000000E+00 0.  1.
          1   -1    0    0  502    0  0.00000000000E+00 -0.00000000000E+00 -0.92090937091E+02  0.92090937091E+02  0.00000000000E+00 0. -1.
         23    2    1    2    0    0 -0.19354345717E+02  0.15089531524E+02  0.62706056921E+02  0.11581048368E+03  0.94221727307E+02 0.  0.
         23    2    1    2    0    0  0.69481082882E+02 -0.65090338567E+01 -0.10171842284E+02  0.11614817574E+03  0.92287290309E+02 0.  0.
        -11    1    3    3    0    0  0.29660994368E+02  0.20885338184E+02  0.54955393899E+02  0.65848821224E+02  0.00000000000E+00 0. -1.
         11    1    3    3    0    0 -0.49015340086E+02 -0.57958066595E+01  0.77506630227E+01  0.49961662461E+02  0.00000000000E+00 0.  1.
        -11    1    4    4    0    0  0.22971587713E+02  0.42060252195E+02 -0.97187254624E+01  0.48900023326E+02  0.00000000000E+00 0. -1.
         11    1    4    4    0    0  0.46509495169E+02 -0.48569286051E+02 -0.45311682116E+00  0.67248152415E+02  0.00000000000E+00 0.  1.
         21    1    1    2  502  501 -0.50126737164E+02 -0.85804976677E+01  0.26943979327E+03  0.27419722267E+03  0.00000000000E+00 0.  1.
<scales pt_clust_5="13000.00000" pt_clust_6="13000.00000" pt_clust_7="13000.00000" pt_clust_8="13000.00000" pt_clust_9="50.85582"></scales>
<clustering>
<clus scale="   50.856">  1  9  2 -1</clus>
<clus scale="   92.287">  7  8 -1 -1</clus>
<clus scale="   94.222">  5  6 -1 -1</clus>
<clus scale="  105.795">  2  7  1 -1</clus>
<clus scale="  105.795">  2  5  1 -1</clus>
</clustering>
</event>
<event>
 9    1  0.1175034E-005  0.2510122E+03  0.7546771E-02  0.1114714E+00
         -3   -1    0    0    0  501 -0.00000000000E+00  0.00000000000E+00  0.28912800863E+03  0.28912800863E+03  0.00000000000E+00 0.  1.
          3   -1    0    0  502    0  0.00000000000E+00 -0.00000000000E+00 -0.23214459666E+03  0.23214459666E+03  0.00000000000E+00 0. -1.
         23    2    1    2    0    0 -0.19918105023E+03 -0.62827945633E+02  0.45532603248E+02  0.23228481253E+03  0.90898705428E+02 0.  0.
         23    2    1    2    0    0  0.22495281029E+03  0.54692875823E+02  0.38141078074E+01  0.26090430690E+03  0.12025569599E+03 0.  0.
        -11    1    3    3    0    0 -0.17570221760E+03 -0.68738071153E+02  0.95448477738E+01  0.18891081445E+03  0.00000000000E+00 0.  1.
         11    1    3    3    0    0 -0.23478832626E+02  0.59101255198E+01  0.35987755474E+02  0.43373998077E+02  0.00000000000E+00 0. -1.
        -13    1    4    4    0    0  0.82694938299E+02 -0.14821402825E+02  0.47688954296E+02  0.96604157073E+02  0.00000000000E+00 0.  1.
         13    1    4    4    0    0  0.14225787199E+03  0.69514278648E+02 -0.43874846489E+02  0.16430014982E+03  0.00000000000E+00 0. -1.
         21    1    1    2  502  501 -0.25771760055E+02  0.81350698096E+01  0.76367009161E+01  0.28083485860E+02  0.00000000000E+00 0. -1.
<scales pt_clust_5="13000.00000" pt_clust_6="13000.00000" pt_clust_7="13000.00000" pt_clust_8="13000.00000" pt_clust_9="27.02523"></scales>
<clustering>
<clus scale="   27.025">  1  9  2 -1</clus>
<clus scale="   90.899">  5  6 -1 -1</clus>
<clus scale="  120.256">  7  8 -1 -1</clus>
<clus scale="  238.345">  1  5  2 -1</clus>
<clus scale="  251.012">  2  5  1 -1</clus>
</clustering>
</event>
<event>
 9    1  0.1175034E-005  0.9841111E+02  0.7546771E-02  0.1284523E+00
         -1   -1    0    0    0  501 -0.00000000000E+00  0.00000000000E+00  0.57846839011E+02  0.57846839011E+02  0.00000000000E+00 0.  1.
          1   -1    0    0  502    0  0.00000000000E+00 -0.00000000000E+00 -0.38758659185E+03  0.38758659185E+03  0.00000000000E+00 0. -1.
         23    2    1    2    0    0  0.31339567341E+02  0.45400159408E+02 -0.99429064553E+02  0.14531296064E+03  0.90478586954E+02 0.  0.
         23    2    1    2    0    0 -0.32093010275E+02  0.35111268634E+00 -0.23467464539E+03  0.25415536720E+03  0.92155720907E+02 0.  0.
        -11    1    3    3    0    0  0.62857639511E+02  0.21623790644E+02 -0.61123113423E+02  0.90303411681E+02  0.00000000000E+00 0.  1.
         11    1    3    3    0    0 -0.31518072170E+02  0.23776368764E+02 -0.38305951130E+02  0.55009548961E+02  0.00000000000E+00 0. -1.
        -13    1    4    4    0    0  0.28000632884E+02  0.19081462236E+02 -0.67598827144E+02  0.75615732980E+02  0.00000000000E+00 0.  1.
         13    1    4    4    0    0 -0.60093643159E+02 -0.18730349550E+02 -0.16707581825E+03  0.17853963422E+03  0.00000000000E+00 0. -1.
         21    1    1    2  502  501  0.75344293460E+00 -0.45751272095E+02  0.43639571050E+01  0.45965103026E+02  0.00000000000E+00 0.  1.
<scales pt_clust_5="13000.00000" pt_clust_6="13000.00000" pt_clust_7="13000.00000" pt_clust_8="13000.00000" pt_clust_9="45.75748"></scales>
<clustering>
<clus scale="   45.757">  1  9  2 -1</clus>
<clus scale="   90.479">  5  6 -1 -1</clus>
<clus scale="   92.156">  7  8 -1 -1</clus>
<clus scale="   96.842">  1  5  2 -1</clus>
<clus scale="   98.411">  2  5  1 -1</clus>
</clustering>
</event>
<event>
 9    1  0.1175034E-005  0.2179007E+03  0.7546771E-02  0.1146191E+00
          2   -1    0    0  502    0  0.00000000000E+00  0.00000000000E+00  0.52049565462E+03  0.52049565462E+03  0.00000000000E+00 0. -1.
         -2   -1    0    0    0  501 -0.00000000000E+00 -0.00000000000E+00 -0.30162288616E+03  0.30162288616E+03  0.00000000000E+00 0.  1.
         23    2    1    2    0    0  0.28983978851E+02  0.21691258025E+03  0.27648455378E+03  0.36497519742E+03  0.94191548236E+02 0.  0.
         23    2    1    2    0    0 -0.13321416986E+03 -0.46808222755E+02  0.10622821733E+03  0.19899034294E+03  0.91518837720E+02 0.  0.
        -11    1    3    3    0    0 -0.73291638148E+01  0.18945998564E+03  0.24421256279E+03  0.30917402645E+03  0.00000000000E+00 0.  1.
         11    1    3    3    0    0  0.36313142666E+02  0.27452594604E+02  0.32271990982E+02  0.55801170980E+02  0.00000000000E+00 0. -1.
        -13    1    4    4    0    0 -0.97695533138E+02  0.34832365344E+00  0.29251266966E+02  0.10198124898E+03  0.00000000000E+00 0. -1.
         13    1    4    4    0    0 -0.35518636725E+02 -0.47156546409E+02  0.76976950366E+02  0.97009093963E+02  0.00000000000E+00 0.  1.
         21    1    1    2  502  501  0.10423019101E+03 -0.17010435749E+03 -0.16384000264E+03  0.25815300041E+03  0.00000000000E+00 0.  1.
<scales pt_clust_5="13000.00000" pt_clust_6="13000.00000" pt_clust_7="13000.00000" pt_clust_8="13000.00000" pt_clust_9="196.49083"></scales>
<clustering>
<clus scale="   91.519">  7  8 -1 -1</clus>
<clus scale="   94.192">  5  6 -1 -1</clus>
<clus scale="  168.264">  1  7  2 -1</clus>
<clus scale="  196.491">  2  9  1 -1</clus>
<clus scale="  168.264">  1  5  2 -1</clus>
</clustering>
</event>
<event>
 9    1  0.1175034E-005  0.1130013E+03  0.7546771E-02  0.1256384E+00
         -3   -1    0    0    0  501 -0.00000000000E+00  0.00000000000E+00  0.53954959983E+02  0.53954959983E+02  0.00000000000E+00 0.  1.
          3   -1    0    0  502    0  0.00000000000E+00 -0.00000000000E+00 -0.67107971485E+03  0.67107971485E+03  0.00000000000E+00 0. -1.
         23    2    1    2    0    0 -0.24822903622E+02  0.47444832279E+02 -0.24555176262E+03  0.26659420478E+03  0.88936006432E+02 0.  0.
         23    2    1    2    0    0  0.33128141565E+02 -0.66621373756E+02 -0.40333560038E+03  0.42041968633E+03  0.92397104496E+02 0.  0.
        -11    1    3    3    0    0 -0.35677103970E+02  0.26490785207E+02 -0.23755843164E+03  0.24167876591E+03  0.00000000000E+00 0. -1.
         11    1    3    3    0    0  0.10854200347E+02  0.20954047072E+02 -0.79933309844E+01  0.24915438870E+02  0.00000000000E+00 0.  1.
        -13    1    4    4    0    0  0.65572663989E+02 -0.47507405223E+02 -0.27488078696E+03  0.28655919956E+03  0.00000000000E+00 0.  1.
         13    1    4    4    0    0 -0.32444522424E+02 -0.19113968533E+02 -0.12845481342E+03  0.13386048677E+03  0.00000000000E+00 0. -1.
         21    1    1    2  502  501 -0.83052379424E+01  0.19176541477E+02  0.31762608127E+02  0.38020783729E+02  0.00000000000E+00 0.  1.
<scales pt_clust_5="13000.00000" pt_clust_6="13000.00000" pt_clust_7="13000.00000" pt_clust_8="13000.00000" pt_clust_9="20.89777"></scales>
<clustering>
<clus scale="   20.898">  1  9  2 -1</clus>
<clus scale="   88.936">  5  6 -1 -1</clus>
<clus scale="   92.397">  7  8 -1 -1</clus>
<clus scale="  110.189">  1  5  2 -1</clus>
<clus scale="  113.001">  2  5  1 -1</clus>
</clustering>
</event>
<event>
 9    1  0.1175034E-005  0.1350069E+03  0.7546771E-02  0.1220940E+00
         -1   -1    0    0    0  501 -0.00000000000E+00  0.00000000000E+00  0.13916210569E+03  0.13916210569E+03  0.00000000000E+00 0.  1.
          1   -1    0    0  502    0  0.00000000000E+00 -0.00000000000E+00 -0.27549441809E+03  0.27549441809E+03  0.00000000000E+00 0. -1.
         23    2    1    2    0    0 -0.10319537050E+03  0.26517825436E+02 -0.37605825889E+02  0.14423047193E+03  0.89642352352E+02 0.  0.
         23    2    1    2    0    0  0.99912088472E+02  0.11484140744E+02 -0.15400329638E+03  0.20326613014E+03  0.86520479976E+02 0.  0.
        -11    1    4    4    0    0  0.99088866630E+02  0.35834727520E+02 -0.13980599149E+03  0.17506697702E+03  0.00000000000E+00 0. -1.
         11    1    4    4    0    0  0.82322184257E+00 -0.24350586777E+02 -0.14197304886E+02  0.28199153118E+02  0.00000000000E+00 0.  1.
        -13    1    3    3    0    0 -0.37307311799E+02 -0.33355268413E+02 -0.16958259318E+02  0.52839303588E+02  0.00000000000E+00 0.  1.
         13    1    3    3    0    0 -0.65888058700E+02  0.59873093849E+02 -0.20647566572E+02  0.91391168346E+02  0.00000000000E+00 0. -1.
         21    1    1    2  502  501  0.32832820264E+01 -0.38001966179E+02  0.55276809871E+02  0.67159921708E+02  0.00000000000E+00 0.  1.
<scales pt_clust_5="13000.00000" pt_clust_6="13000.00000" pt_clust_7="13000.00000" pt_clust_8="13000.00000" pt_clust_9="38.14354"></scales>
<clustering>
<clus scale="   38.144">  1  9  2 -1</clus>
<clus scale="   86.520">  5  6 -1 -1</clus>
<clus scale="   89.642">  7  8 -1 -1</clus>
<clus scale="  132.955">  2  5  1 -1</clus>
<clus scale="  132.955">  2  5  1 -1</clus>
</clustering>
</event>
<event>
 9    1  0.1175034E-005  0.9868010E+02  0.7546771E-02  0.1283433E+00
         -2   -1    0    0    0  501 -0.00000000000E+00  0.00000000000E+00  0.42290713941E+02  0.42290713941E+02  0.00000000000E+00 0.  1.
          2   -1    0    0  502    0  0.00000000000E+00 -0.00000000000E+00 -0.38125763717E+03  0.38125763717E+03  0.00000000000E+00 0. -1.
         23    2    1    2    0    0  0.25153483489E+02 -0.11332401107E+02 -0.62960034941E+02  0.11454395215E+03  0.91625487325E+02 0.  0.
         23    2    1    2    0    0 -0.54533731032E+02  0.12349705578E+02 -0.23453712523E+03  0.25817158376E+03  0.92295506378E+02 0.  0.
        -11    1    4    4    0    0 -0.22409689069E+01  0.34662413687E+02 -0.30054713362E+02  0.45932457582E+02  0.00000000000E+00 0.  1.
         11    1    4    4    0    0 -0.52292762125E+02 -0.22312708109E+02 -0.20448241187E+03  0.21223912617E+03  0.00000000000E+00 0. -1.
        -11    1    3    3    0    0 -0.29220073481E+02 -0.11537617236E+02 -0.49336159469E+02  0.58489195044E+02  0.00000000000E+00 0. -1.
         11    1    3    3    0    0  0.54373556970E+02  0.20521612913E+00 -0.13623875472E+02  0.56054757105E+02  0.00000000000E+00 0.  1.
         21    1    1    2  502  501  0.29380247543E+02 -0.10173044708E+01 -0.41469763050E+02  0.50832815204E+02  0.00000000000E+00 0.  1.
<scales pt_clust_5="13000.00000" pt_clust_6="13000.00000" pt_clust_7="13000.00000" pt_clust_8="13000.00000" pt_clust_9="29.39785"></scales>
<clustering>
<clus scale="   29.398">  2  9  1 -1</clus>
<clus scale="   91.625">  7  8 -1 -1</clus>
<clus scale="   92.296">  5  6 -1 -1</clus>
<clus scale="   98.054">  1  7  2 -1</clus>
<clus scale="   29.398">  2  5  1 -1</clus>
</clustering>
</event>
<event>
 9    1  0.1175034E-005  0.9489621E+02  0.7546771E-02  0.1296409E+00
          1   -1    0    0  502    0  0.00000000000E+00  0.00000000000E+00  0.14877325154E+03  0.14877325154E+03  0.00000000000E+00 0. -1.
         -1   -1    0    0    0  501 -0.00000000000E+00 -0.00000000000E+00 -0.78856090681E+02  0.78856090681E+02  0.00000000000E+00 0.  1.
         23    2    1    2    0    0  0.19562375502E+02  0.10762003454E+02  0.10199109784E+02  0.92725831483E+02  0.89417843467E+02 0.  0.
         23    2    1    2    0    0 -0.38862820981E+02  0.85924322960E+01  0.59331024306E+02  0.10756761549E+03  0.80414381240E+02 0.  0.
        -11    1    3    3    0    0 -0.23531234807E+02  0.34374593173E+02 -0.32381698052E+01  0.41782979920E+02  0.00000000000E+00 0.  1.
         11    1    3    3    0    0  0.43093610309E+02 -0.23612589719E+02  0.13437279590E+02  0.50942851563E+02  0.00000000000E+00 0. -1.
        -11    1    4    4    0    0 -0.23169505057E+02 -0.78477949490E+01 -0.15768475957E+02  0.29104272610E+02  0.00000000000E+00 0.  1.
         11    1    4    4    0    0 -0.15693315924E+02  0.16440227245E+02  0.75099500263E+02  0.78463342883E+02  0.00000000000E+00 0. -1.
         21    1    1    2  502  501  0.19300445479E+02 -0.19354435750E+02  0.38702676375E+00  0.27335895241E+02  0.00000000000E+00 0.  1.
<scales pt_clust_5="13000.00000" pt_clust_6="13000.00000" pt_clust_7="13000.00000" pt_clust_8="13000.00000" pt_clust_9="27.33316"></scales>
<clustering>
<clus scale="   27.333">  2  9  1 -1</clus>
<clus scale="   80.414">  7  8 -1 -1</clus>
<clus scale="   86.465">  1  7  2 -1</clus>
<clus scale="   89.418">  5  6 -1 -1</clus>
<clus scale="   86.465">  1  5  2 -1</clus>
</clustering>
</event>
<event>
 9    1  0.1175034E-005  0.9626459E+02  0.7546771E-02  0.1288400E+00
         -1   -1    0    0    0  501 -0.00000000000E+00  0.00000000000E+00  0.68679810310E+02  0.68679810310E+02  0.00000000000E+00 0.  1.
          1   -1    0    0  502    0  0.00000000000E+00 -0.00000000000E+00 -0.24129920451E+03  0.24129920451E+03  0.00000000000E+00 0. -1.
         23    2    1    2    0    0  0.45233412684E+02 -0.22187382380E+02 -0.69874367239E+02  0.12568399010E+03  0.91518831994E+02 0.  0.
         23    2    1    2    0    0 -0.19368023122E+02 -0.67795175407E+01 -0.11018464783E+03  0.14475456916E+03  0.91608659509E+02 0.  0.
        -11    1    4    4    0    0 -0.53388752906E+02  0.31847647860E+01 -0.42368676832E+02  0.68232004515E+02  0.00000000000E+00 0. -1.
         11    1    4    4    0    0  0.34020729784E+02 -0.99642823267E+01 -0.67815970996E+02  0.76522564642E+02  0.00000000000E+00 0.  1.
        -13    1    3    3    0    0  0.64426815270E+02 -0.38337248239E+02 -0.66798513053E+02  0.10041215302E+03  0.00000000000E+00 0.  1.
         13    1    3    3    0    0 -0.19193402587E+02  0.16149865859E+02 -0.30758541857E+01  0.25271837074E+02  0.00000000000E+00 0. -1.
         21    1    1    2  502  501 -0.25865389562E+02  0.28966899921E+02  0.74396208627E+01  0.39540455571E+02  0.00000000000E+00 0. -1.
<scales pt_clust_5="13000.00000" pt_clust_6="13000.00000" pt_clust_7="13000.00000" pt_clust_8="13000.00000" pt_clust_9="38.83426"></scales>
<clustering>
<clus scale="   38.834">  1  9  2 -1</clus>
<clus scale="   91.519">  7  8 -1 -1</clus>
<clus scale="   91.609">  5  6 -1 -1</clus>
<clus scale="   96.179">  1  7  2 -1</clus>
<clus scale="   96.265">  2  5  1 -1</clus>
</clustering>
</event>
<event>
 9    1  0.1175034E-005  0.1200524E+03  0.7546771E-02  0.1243100E+00
          2   -1    0    0  502    0  0.00000000000E+00  0.00000000000E+00  0.85625191147E+03  0.85625191147E+03  0.00000000000E+00 0. -1.
         -2   -1    0    0    0  501 -0.00000000000E+00 -0.00000000000E+00 -0.11513130541E+03  0.11513130541E+03  0.00000000000E+00 0.  1.
         23    2    1    2    0    0 -0.82471939726E+02 -0.82959987519E+02  0.13080497612E+03  0.19823615486E+03  0.92215242483E+02 0.  0.
         23    2    1    2    0    0 -0.12605373960E+02  0.75488517823E+02  0.65635578678E+03  0.66724515231E+03  0.92497365702E+02 0.  0.
        -11    1    3    3    0    0 -0.94184519934E+02 -0.66386540711E+02  0.13502297532E+03  0.17750802925E+03  0.00000000000E+00 0.  1.
         11    1    3    3    0    0  0.11712580209E+02 -0.16573446808E+02 -0.42179992030E+01  0.20728125615E+02  0.00000000000E+00 0. -1.
        -13    1    4    4    0    0 -0.48482449189E+02  0.67372583416E+02  0.47478854863E+03  0.48198939697E+03  0.00000000000E+00 0. -1.
         13    1    4    4    0    0  0.35877075229E+02  0.81159344069E+01  0.18156723815E+03  0.18525575534E+03  0.00000000000E+00 0.  1.
         21    1    1    2  502  501  0.95077313686E+02  0.74714696957E+01 -0.46040156837E+02  0.10590190970E+03  0.00000000000E+00 0.  1.
<scales pt_clust_5="13000.00000" pt_clust_6="13000.00000" pt_clust_7="13000.00000" pt_clust_8="13000.00000" pt_clust_9="95.37043"></scales>
<clustering>
<clus scale="   92.215">  5  6 -1 -1</clus>
<clus scale="   92.497">  7  8 -1 -1</clus>
<clus scale="   95.370">  2  9  1 -1</clus>
<clus scale="  119.835">  2  5  1 -1</clus>
<clus scale="  120.052">  1  5  2 -1</clus>
</clustering>
</event>
<event>
 9    1  0.1175034E-005  0.1447004E+03  0.7546771E-02  0.1207167E+00
          1   -1    0    0  502    0  0.00000000000E+00  0.00000000000E+00  0.35045195648E+02  0.35045195648E+02  0.00000000000E+00 0. -1.
         -1   -1    0    0    0  501 -0.00000000000E+00 -0.00000000000E+00 -0.76059515735E+03  0.76059515735E+03  0.00000000000E+00 0.  1.
         23    2    1    2    0    0 -0.12809145856E+02 -0.12221794588E+03 -0.33735895741E+03  0.37069114635E+03  0.92193054638E+02 0.  0.
         23    2    1    2    0    0  0.19590362241E+02  0.10106904775E+03 -0.25574722165E+03  0.29065618245E+03  0.92063240818E+02 0.  0.
        -13    1    4    4    0    0  0.34753974467E+02 -0.67444100722E+00 -0.75590934663E+02  0.83200258505E+02  0.00000000000E+00 0. -1.
         13    1    4    4    0    0 -0.15163612227E+02  0.10174348875E+03 -0.18015628698E+03  0.20745592394E+03  0.00000000000E+00 0.  1.
        -13    1    3    3    0    0  0.26938611032E+02 -0.22758022027E+02 -0.15712020162E+03  0.16102910944E+03  0.00000000000E+00 0.  1.
         13    1    3    3    0    0 -0.39747756889E+02 -0.99459923855E+02 -0.18023875580E+03  0.20966203691E+03  0.00000000000E+00 0. -1.
         21    1    1    2  502  501 -0.67812163846E+01  0.21148898136E+02 -0.13244378264E+03  0.13429302420E+03  0.00000000000E+00 0.  1.
<scales pt_clust_5="13000.00000" pt_clust_6="13000.00000" pt_clust_7="13000.00000" pt_clust_8="13000.00000" pt_clust_9="22.20948"></scales>
<clustering>
<clus scale="   22.209">  2  9  1 -1</clus>
<clus scale="   92.063">  5  6 -1 -1</clus>
<clus scale="   92.193">  7  8 -1 -1</clus>
<clus scale="  144.618">  1  5  2 -1</clus>
<clus scale="  144.618">  1  5  2 -1</clus>
</clustering>
</event>
<event>
 9    1  0.1175034E-005  0.2133744E+03  0.7546771E-02  0.1139285E+00
          1   -1    0    0  502    0  0.00000000000E+00  0.00000000000E+00  0.44110725195E+03  0.44110725195E+03  0.00000000000E+00 0. -1.
         -1   -1    0    0    0  501 -0.00000000000E+00 -0.00000000000E+00 -0.24553727153E+03  0.24553727153E+03  0.00000000000E+00 0.  1.
         23    2    1    2    0    0  0.49857885958E+02 -0.18768466317E+03 -0.27991229848E+02  0.21382483320E+03  0.85007110078E+02 0.  0.
         23    2    1    2    0    0  0.12706986003E+02  0.19796039489E+03  0.30315462381E+03  0.37105984877E+03  0.80205361389E+02 0.  0.
        -11    1    4    4    0    0  0.38767694269E+02  0.85963739842E+02  0.17564903764E+03  0.19936219077E+03  0.00000000000E+00 0. -1.
         11    1    4    4    0    0 -0.26060708266E+02  0.11199665505E+03  0.12750558617E+03  0.17169765800E+03  0.00000000000E+00 0.  1.
        -13    1    3    3    0    0  0.12426880780E+01 -0.22617311116E+02 -0.34902545962E+02  0.41608589863E+02  0.00000000000E+00 0. -1.
         13    1    3    3    0    0  0.48615197880E+02 -0.16506735206E+03  0.69113161139E+01  0.17221624334E+03  0.00000000000E+00 0.  1.
         21    1    1    2  502  501 -0.62564871961E+02 -0.10275731722E+02 -0.79593413536E+02  0.10175984151E+03  0.00000000000E+00 0. -1.
<scales pt_clust_5="13000.00000" pt_clust_6="13000.00000" pt_clust_7="13000.00000" pt_clust_8="13000.00000" pt_clust_9="63.40311"></scales>
<clustering>
<clus scale="   63.403">  2  9  1 -1</clus>
<clus scale="   80.205">  5  6 -1 -1</clus>
<clus scale="   85.007">  7  8 -1 -1</clus>
<clus scale="  211.507">  1  5  2 -1</clus>
<clus scale="  211.507">  1  5  2 -1</clus>
</clustering>
</event>
<event>
 9    1  0.1175034E-005  0.1232680E+03  0.7546771E-02  0.1239094E+00
         -3   -1    0    0    0  501 -0.00000000000E+00  0.00000000000E+00  0.60213717429E+03  0.60213717429E+03  0.00000000000E+00 0.  1.
          3   -1    0    0  502    0  0.00000000000E+00 -0.00000000000E+00 -0.11062565027E+03  0.11062565027E+03  0.00000000000E+00 0. -1.
         23    2    1    2    0    0 -0.18392898180E+02 -0.11337343078E+03  0.79084398779E+02  0.16891203996E+03  0.95315799329E+02 0.  0.
         23    2    1    2    0    0 -0.51937459912E+02  0.53353388265E+02 -0.35329866007E+01  0.11773861696E+03  0.91136250466E+02 0.  0.
        -11    1    3    3    0    0 -0.49819037694E+02 -0.38834812200E+02  0.13077729969E+02  0.64506636686E+02  0.00000000000E+00 0. -1.
         11    1    3    3    0    0  0.31426139514E+02 -0.74538618580E+02  0.66006668810E+02  0.10440540327E+03  0.00000000000E+00 0.  1.
        -13    1    4    4    0    0  0.25385337817E+02  0.23808158934E+02 -0.33437698677E+01  0.34963189283E+02  0.00000000000E+00 0.  1.
         13    1    4    4    0    0 -0.77322797729E+02  0.29545229331E+02 -0.18921673296E+00  0.82775427682E+02  0.00000000000E+00 0. -1.
         21    1    1    2  502  501  0.70330358092E+02  0.60020042515E+02  0.41596011184E+03  0.42611216765E+03  0.00000000000E+00 0.  1.
<scales pt_clust_5="13000.00000" pt_clust_6="13000.00000" pt_clust_7="13000.00000" pt_clust_8="13000.00000" pt_clust_9="92.45953"></scales>
<clustering>
<clus scale="   91.136">  7  8 -1 -1</clus>
<clus scale="   92.460">  1  9  2 -1</clus>
<clus scale="   95.316">  5  6 -1 -1</clus>
<clus scale="  120.065">  2  7  1 -1</clus>
<clus scale="  120.065">  2  5  1 -1</clus>
</clustering>
</event>
<event>
 9    1  0.1175034E-005  0.9219174E+02  0.7546771E-02  0.1299066E+00
          1   -1    0    0  502    0  0.00000000000E+00  0.00000000000E+00  0.53067820973E+02  0.53067820973E+02  0.00000000000E+00 0. -1.
         -1   -1    0    0    0  501 -0.00000000000E+00 -0.00000000000E+00 -0.20368004221E+03  0.20368004221E+03  0.00000000000E+00 0.  1.
         23    2    1    2    0    0 -0.12389663428E+01 -0.39794524961E+01 -0.82853953303E+02  0.12197840055E+03  0.89423607304E+02 0.  0.
         23    2    1    2    0    0 -0.10905546291E+02 -0.11922451588E+02 -0.42340795595E+02  0.10242123794E+03  0.91849285342E+02 0.  0.
        -11    1    4    4    0    0  0.12647332789E+02  0.30985313482E+02  0.55712242659E+01  0.33927617336E+02  0.00000000000E+00 0.  1.
         11    1    4    4    0    0 -0.23552879080E+02 -0.42907765070E+02 -0.47912019861E+02  0.68493620604E+02  0.00000000000E+00 0. -1.
        -11    1    3    3    0    0  0.43765157395E+02  0.32987450099E+01 -0.38761412703E+02  0.58555254548E+02  0.00000000000E+00 0.  1.
         11    1    3    3    0    0 -0.45004123738E+02 -0.72781975060E+01 -0.44092540600E+02  0.63423146003E+02  0.00000000000E+00 0. -1.
         21    1    1    2  502  501  0.12144512634E+02  0.15901904084E+02 -0.25417472333E+02  0.32348224687E+02  0.00000000000E+00 0.  1.
<scales pt_clust_5="13000.00000" pt_clust_6="13000.00000" pt_clust_7="13000.00000" pt_clust_8="13000.00000" pt_clust_9="20.00899"></scales>
<clustering>
<clus scale="   20.009">  2  9  1 -1</clus>
<clus scale="   89.424">  7  8 -1 -1</clus>
<clus scale="   89.775">  2  7  1 -1</clus>
<clus scale="   91.849">  5  6 -1 -1</clus>
<clus scale="   92.192">  1  5  2 -1</clus>
</clustering>
</event>
<event>
 9    1  0.1175034E-005  0.1230302E+03  0.7546771E-02  0.1239659E+00
         -1   -1    0    0    0  501 -0.00000000000E+00  0.00000000000E+00  0.44174924329E+02  0.44174924329E+02  0.00000000000E+00 0.  1.
          1   -1    0    0  502    0  0.00000000000E+00 -0.00000000000E+00 -0.45813909605E+03  0.45813909605E+03  0.00000000000E+00 0. -1.
         23    2    1    2    0    0 -0.80661392089E+02  0.27798576936E+01 -0.19564758283E+03  0.23036173089E+03  0.90964622839E+02 0.  0.
         23    2    1    2    0    0  0.72850394317E+02  0.22416483572E+02 -0.21209034511E+03  0.24484816783E+03  0.95700742476E+02 0.  0.
        -11    1    4    4    0    0  0.78816170341E+02  0.95730174499E+00 -0.20769061199E+03  0.22214476236E+03  0.00000000000E+00 0. -1.
         11    1    4    4    0    0 -0.59657760244E+01  0.21459181827E+02 -0.43997331179E+01  0.22703405466E+02  0.00000000000E+00 0.  1.
        -11    1    3    3    0    0 -0.86341401057E+01  0.30444502069E+02 -0.11277745713E+03  0.11713313331E+03  0.00000000000E+00 0.  1.
         11    1    3    3    0    0 -0.72027251984E+02 -0.27664644376E+02 -0.82870125699E+02  0.11322859758E+03  0.00000000000E+00 0. -1.
         21    1    1    2  502  501  0.78109977726E+01 -0.25196341265E+02 -0.62262437753E+01  0.27104121659E+02  0.00000000000E+00 0.  1.
<scales pt_clust_5="13000.00000" pt_clust_6="13000.00000" pt_clust_7="13000.00000" pt_clust_8="13000.00000" pt_clust_9="26.37930"></scales>
<clustering>
<clus scale="   26.379">  1  9  2 -1</clus>
<clus scale="   90.965">  7  8 -1 -1</clus>
<clus scale="   95.701">  5  6 -1 -1</clus>
<clus scale="  119.383">  1  7  2 -1</clus>
<clus scale="  123.030">  2  5  1 -1</clus>
</clustering>
</event>
<event>
 9    1  0.1175034E-005  0.1012820E+03  0.7546771E-02  0.1278755E+00
          3   -1    0    0  502    0  0.00000000000E+00  0.00000000000E+00  0.14652748379E+03  0.14652748379E+03  0.00000000000E+00 0. -1.
         -3   -1    0    0    0  501 -0.00000000000E+00 -0.00000000000E+00 -0.12429430121E+03  0.12429430121E+03  0.00000000000E+00 0.  1.
         23    2    1    2    0    0  0.16702579355E+02  0.54609273174E+02 -0.44770812946E+02  0.11504815519E+03  0.89277676081E+02 0.  0.
         23    2    1    2    0    0 -0.18455921262E+02 -0.34556204687E+02  0.83268325169E+02  0.12989452274E+03  0.91674537087E+02 0.  0.
        -11    1    3    3    0    0  0.29845465733E+02  0.70489172633E+02 -0.52730475301E+02  0.92951483629E+02  0.00000000000E+00 0.  1.
         11    1    3    3    0    0 -0.13142886378E+02 -0.15879899459E+02  0.79596623549E+01  0.22096671559E+02  0.00000000000E+00 0. -1.
        -11    1    4    4    0    0 -0.32297744393E+02  0.30757690750E+01  0.83728925827E+02  0.89794975741E+02  0.00000000000E+00 0. -1.
         11    1    4    4    0    0  0.13841823131E+02 -0.37631973762E+02 -0.46060065709E+00  0.40099547002E+02  0.00000000000E+00 0.  1.
         21    1    1    2  502  501  0.17533419069E+01 -0.20053068487E+02 -0.16264329645E+02  0.25879107063E+02  0.00000000000E+00 0.  1.
<scales pt_clust_5="13000.00000" pt_clust_6="13000.00000" pt_clust_7="13000.00000" pt_clust_8="13000.00000" pt_clust_9="20.12957"></scales>
<clustering>
<clus scale="   20.130">  2  9  1 -1</clus>
<clus scale="   89.278">  5  6 -1 -1</clus>
<clus scale="   91.675">  7  8 -1 -1</clus>
<clus scale="   99.118">  2  5  1 -1</clus>
<clus scale="  101.282">  1  5  2 -1</clus>
</clustering>
</event>
<event>
 9    1  0.1175034E-005  0.1269346E+03  0.7546771E-02  0.1237906E+00
          2   -1    0    0  502    0  0.00000000000E+00  0.00000000000E+00  0.10922543190E+04  0.10922543190E+04  0.00000000000E+00 0. -1.
         -2   -1    0    0    0  501 -0.00000000000E+00 -0.00000000000E+00 -0.26850520108E+02  0.26850520108E+02  0.00000000000E+00 0.  1.
         23    2    1    2    0    0 -0.91568733718E+02  0.11114853209E+02  0.50201114412E+03  0.51723117485E+03  0.83693049045E+02 0.  0.
         23    2    1    2    0    0  0.97345972748E+02  0.31038661935E+02  0.54097153249E+03  0.55377998430E+03  0.59853446800E+02 0.  0.
        -11    1    3    3    0    0 -0.35589273390E+02 -0.28688493103E+02  0.10797139379E+03  0.11724951127E+03  0.00000000000E+00 0.  1.
         11    1    3    3    0    0 -0.55979460328E+02  0.39803346312E+02  0.39403975034E+03  0.39998166358E+03  0.00000000000E+00 0. -1.
        -13    1    4    4    0    0  0.43372917483E+02 -0.15421452671E+02  0.25141261897E+03  0.25559212850E+03  0.00000000000E+00 0.  1.
         13    1    4    4    0    0  0.53973055266E+02  0.46460114606E+02  0.28955891352E+03  0.29818785580E+03  0.00000000000E+00 0. -1.
         21    1    1    2  502  501 -0.57772390303E+01 -0.42153515145E+02  0.22421122311E+02  0.48093679996E+02  0.00000000000E+00 0.  1.
<scales pt_clust_5="13000.00000" pt_clust_6="13000.00000" pt_clust_7="13000.00000" pt_clust_8="13000.00000" pt_clust_9="42.54757"></scales>
<clustering>
<clus scale="   42.548">  2  9  1 -1</clus>
<clus scale="   59.853">  7  8 -1 -1</clus>
<clus scale="   83.693">  5  6 -1 -1</clus>
<clus scale="  112.651">  1  7  2 -1</clus>
<clus scale="  112.651">  1  5  2 -1</clus>
</clustering>
</event>
<event>
 9    1  0.1175034E-005  0.1060832E+03  0.7546771E-02  0.1270002E+00
         -1   -1    0    0    0  501 -0.00000000000E+00  0.00000000000E+00  0.14690006915E+03  0.14690006915E+03  0.00000000000E+00 0.  1.
          1   -1    0    0  502    0  0.00000000000E+00 -0.00000000000E+00 -0.11991623303E+03  0.11991623303E+03  0.00000000000E+00 0. -1.
         23    2    1    2    0    0 -0.28228222721E+02 -0.62384750289E+02  0.18108337232E+02  0.11514763482E+03  0.90787533845E+02 0.  0.
         23    2    1    2    0    0  0.22583111098E+02  0.25429706872E+02 -0.21565191376E+02  0.10345893657E+03  0.95299670400E+02 0.  0.
        -11    1    4    4    0    0 -0.21733095681E+02  0.31533958039E+01  0.26482133459E+02  0.34403121159E+02  0.00000000000E+00 0.  1.
         11    1    4    4    0    0  0.44316206779E+02  0.22276311068E+02 -0.48047324835E+02  0.69055815409E+02  0.00000000000E+00 0. -1.
        -11    1    3    3    0    0  0.72822578474E+01 -0.33018551402E+02  0.49099431620E+02  0.59615519803E+02  0.00000000000E+00 0.  1.
         11    1    3    3    0    0 -0.35510480569E+02 -0.29366198887E+02 -0.30991094388E+02  0.55532115021E+02  0.00000000000E+00 0. -1.
         21    1    1    2  502  501  0.56451116232E+01  0.36955043417E+02  0.30440690267E+02  0.48209730793E+02  0.00000000000E+00 0. -1.
<scales pt_clust_5="13000.00000" pt_clust_6="13000.00000" pt_clust_7="13000.00000" pt_clust_8="13000.00000" pt_clust_9="37.38372"></scales>
<clustering>
<clus scale="   37.384">  1  9  2 -1</clus>
<clus scale="   90.788">  7  8 -1 -1</clus>
<clus scale="   95.300">  5  6 -1 -1</clus>
<clus scale="  102.049">  1  7  2 -1</clus>
<clus scale="  106.083">  2  5  1 -1</clus>
</clustering>
</event>
<event>
 9    1  0.1175034E-005  0.1035250E+03  0.7546771E-02  0.1274929E+00
          1   -1    0    0  502    0  0.00000000000E+00  0.00000000000E+00  0.12783787396E+03  0.12783787396E+03  0.00000000000E+00 0. -1.
         -1   -1    0    0    0  501 -0.00000000000E+00 -0.00000000000E+00 -0.35681710574E+03  0.35681710574E+03  0.00000000000E+00 0.  1.
         23    2    1    2    0    0 -0.92756487725E+01 -0.81222170819E+02 -0.88711425310E+02  0.14869155582E+03  0.86927458831E+02 0.  0.
         23    2    1    2    0    0  0.29012232663E+02  0.33192232925E+02  0.67594274622E+02  0.12171344738E+03  0.91113903114E+02 0.  0.
        -11    1    4    4    0    0 -0.13109015248E+02 -0.16199709911E+02 -0.77758356634E+01  0.22242762919E+02  0.00000000000E+00 0.  1.
         11    1    4    4    0    0  0.42121247911E+02  0.49391942836E+02  0.75370110285E+02  0.99470684461E+02  0.00000000000E+00 0. -1.
        -13    1    3    3    0    0  0.30435950543E+02 -0.70419977268E+02 -0.68475474771E+02  0.10283098234E+03  0.00000000000E+00 0. -1.
         13    1    3    3    0    0 -0.39711599315E+02 -0.10802193551E+02 -0.20235950539E+02  0.45860573480E+02  0.00000000000E+00 0.  1.
         21    1    1    2  502  501 -0.19736583891E+02  0.48029937895E+02 -0.20786208108E+03  0.21424997650E+03  0.00000000000E+00 0.  1.
<scales pt_clust_5="13000.00000" pt_clust_6="13000.00000" pt_clust_7="13000.00000" pt_clust_8="13000.00000" pt_clust_9="51.92695"></scales>
<clustering>
<clus scale="   51.927">  2  9  1 -1</clus>
<clus scale="   86.927">  7  8 -1 -1</clus>
<clus scale="   91.114">  5  6 -1 -1</clus>
<clus scale="   99.860">  2  7  1 -1</clus>
<clus scale="  103.525">  1  5  2 -1</clus>
</clustering>
</event>
<event>
 9    1  0.1175034E-005  0.1024606E+03  0.7546771E-02  0.1276191E+00
          2   -1    0    0  502    0  0.00000000000E+00  0.00000000000E+00  0.37534578381E+03  0.37534578381E+03  0.00000000000E+00 0. -1.
         -2   -1    0    0    0  501 -0.00000000000E+00 -0.00000000000E+00 -0.11866392900E+03  0.11866392900E+03  0.00000000000E+00 0.  1.
         23    2    1    2    0    0 -0.29087415590E+02 -0.66885608131E+02  0.13055885743E+03  0.17440500466E+03  0.89731421904E+02 0.  0.
         23    2    1    2    0    0  0.19629372591E+02  0.25490513825E+02  0.20672714068E+03  0.22850017298E+03  0.91875675754E+02 0.  0.
        -11    1    3    3    0    0  0.10217776758E+02 -0.34165987199E+02  0.11581420926E+03  0.12118023234E+03  0.00000000000E+00 0. -1.
         11    1    3    3    0    0 -0.39305192348E+02 -0.32719620932E+02  0.14744648175E+02  0.53224772327E+02  0.00000000000E+00 0.  1.
        -13    1    4    4    0    0 -0.10806500823E+02 -0.30971707097E+02  0.80018664154E+02  0.86481291118E+02  0.00000000000E+00 0.  1.
         13    1    4    4    0    0  0.30435873415E+02  0.56462220922E+02  0.12670847653E+03  0.14201888186E+03  0.00000000000E+00 0. -1.
         21    1    1    2  502  501  0.94580429988E+01  0.41395094306E+02 -0.80604143306E+02  0.91104535167E+02  0.00000000000E+00 0.  1.
<scales pt_clust_5="13000.00000" pt_clust_6="13000.00000" pt_clust_7="13000.00000" pt_clust_8="13000.00000" pt_clust_9="42.46185"></scales>
<clustering>
<clus scale="   42.462">  2  9  1 -1</clus>
<clus scale="   89.731">  5  6 -1 -1</clus>
<clus scale="   91.876">  7  8 -1 -1</clus>
<clus scale="  100.542">  2  5  1 -1</clus>
<clus scale="  102.461">  1  5  2 -1</clus>
</clustering>
</event>
<event>
 9    1  0.1175034E-005  0.1012024E+03  0.7546771E-02  0.1278002E+00
          1   -1    0    0  502    0  0.00000000000E+00  0.00000000000E+00  0.38162140453E+03  0.38162140453E+03  0.00000000000E+00 0. -1.
         -1   -1    0    0    0  501 -0.00000000000E+00 -0.00000000000E+00 -0.10614118411E+03  0.10614118411E+03  0.00000000000E+00 0.  1.
         23    2    1    2    0    0  0.40517227025E+01 -0.20891249800E+02 -0.63354493988E+02  0.11288625720E+03  0.90976119837E+02 0.  0.
         23    2    1    2    0    0 -0.28322662061E+02  0.36921814498E+02  0.32866499374E+03  0.34406268640E+03  0.90515526254E+02 0.  0.
        -11    1    3    3    0    0  0.23983581643E+01  0.20257712978E+02  0.14351648241E+02  0.24941869701E+02  0.00000000000E+00 0. -1.
         11    1    3    3    0    0  0.16533645381E+01 -0.41148962778E+02 -0.77706142229E+02  0.87944387496E+02  0.00000000000E+00 0.  1.
        -13    1    4    4    0    0 -0.51697115939E+02  0.27402797047E+02  0.30092100070E+03  0.30655660774E+03  0.00000000000E+00 0. -1.
         13    1    4    4    0    0  0.23374453879E+02  0.95190174508E+01  0.27743993035E+02  0.37506078666E+02  0.00000000000E+00 0.  1.
         21    1    1    2  502  501  0.24270939358E+02 -0.16030564698E+02  0.10169720674E+02  0.30813645037E+02  0.00000000000E+00 0. -1.
<scales pt_clust_5="13000.00000" pt_clust_6="13000.00000" pt_clust_7="13000.00000" pt_clust_8="13000.00000" pt_clust_9="29.08707"></scales>
<clustering>
<clus scale="   29.087">  2  9  1 -1</clus>
<clus scale="   90.516">  7  8 -1 -1</clus>
<clus scale="   90.976">  5  6 -1 -1</clus>
<clus scale="  100.789">  1  7  2 -1</clus>
<clus scale="  100.789">  1  5  2 -1</clus>
</clustering>
</event>
<event>
 9    1  0.1175034E-005  0.1527352E+03  0.7546771E-02  0.1202964E+00
         -1   -1    0    0    0  501 -0.00000000000E+00  0.00000000000E+00  0.12524397864E+04  0.12524397864E+04  0.00000000000E+00 0.  1.
          1   -1    0    0  502    0  0.00000000000E+00 -0.00000000000E+00 -0.33273192935E+02  0.33273192935E+02  0.00000000000E+00 0. -1.
         23    2    1    2    0    0  0.36150135994E+02 -0.29618327809E+02  0.60306506570E+03  0.61574922851E+03  0.11521962191E+03 0.  0.
         23    2    1    2    0    0 -0.12370320993E+03  0.27319426017E+02  0.25653030511E+03  0.29987958490E+03  0.89839483600E+02 0.  0.
        -11    1    4    4    0    0 -0.10640076815E+03 -0.50337166008E+01  0.23326617209E+03  0.25643628606E+03  0.00000000000E+00 0. -1.
         11    1    4    4    0    0 -0.17302441778E+02  0.32353142617E+02  0.23264133018E+02  0.43443298836E+02  0.00000000000E+00 0.  1.
        -13    1    3    3    0    0  0.21921588286E+01  0.42397457536E+02  0.15725014263E+03  0.16288019316E+03  0.00000000000E+00 0. -1.
         13    1    3    3    0    0  0.33957977165E+02 -0.72015785345E+02  0.44581492307E+03  0.45286903535E+03  0.00000000000E+00 0.  1.
         21    1    1    2  502  501  0.87553073938E+02  0.22989017926E+01  0.35957122263E+03  0.37008416589E+03  0.00000000000E+00 0.  1.
<scales pt_clust_5="13000.00000" pt_clust_6="13000.00000" pt_clust_7="13000.00000" pt_clust_8="13000.00000" pt_clust_9="87.58325"></scales>
<clustering>
<clus scale="   87.583">  1  9  2 -1</clus>
<clus scale="   89.839">  5  6 -1 -1</clus>
<clus scale="  115.220">  7  8 -1 -1</clus>
<clus scale="  134.624">  2  5  1 -1</clus>
<clus scale="  134.624">  2  5  1 -1</clus>
</clustering>
</event>
<event>
 9    1  0.1175034E-005  0.9626357E+02  0.7546771E-02  0.1288549E+00
         -1   -1    0    0    0  501 -0.00000000000E+00  0.00000000000E+00  0.23970648670E+03  0.23970648670E+03  0.00000000000E+00 0.  1.
          1   -1    0    0  502    0  0.00000000000E+00 -0.00000000000E+00 -0.76384075383E+02  0.76384075383E+02  0.00000000000E+00 0. -1.
         23    2    1    2    0    0 -0.10865944193E+01 -0.66395829847E+00  0.13904195683E+03  0.16612719327E+03  0.90906309224E+02 0.  0.
         23    2    1    2    0    0 -0.32936145599E+02  0.23173991824E+02 -0.47738557074E+01  0.99879425393E+02  0.91275880355E+02 0.  0.
        -11    1    3    3    0    0  0.31340316643E+01  0.37074074070E+02  0.11574259774E+03  0.12157572971E+03  0.00000000000E+00 0. -1.
         11    1    3    3    0    0 -0.42206260836E+01 -0.37738032369E+02  0.23299359094E+02  0.44551463565E+02  0.00000000000E+00 0.  1.
        -11    1    4    4    0    0 -0.16683725105E+02 -0.35064404250E+02  0.28571796964E+01  0.38936134947E+02  0.00000000000E+00 0.  1.
         11    1    4    4    0    0 -0.16252420494E+02  0.58238396074E+02 -0.76310354038E+01  0.60943290447E+02  0.00000000000E+00 0. -1.
         21    1    1    2  502  501  0.34022740018E+02 -0.22510033525E+02  0.29054310195E+02  0.50083943421E+02  0.00000000000E+00 0.  1.
<scales pt_clust_5="13000.00000" pt_clust_6="13000.00000" pt_clust_7="13000.00000" pt_clust_8="13000.00000" pt_clust_9="40.79520"></scales>
<clustering>
<clus scale="   40.795">  1  9  2 -1</clus>
<clus scale="   90.906">  5  6 -1 -1</clus>
<clus scale="   91.276">  7  8 -1 -1</clus>
<clus scale="   95.913">  1  5  2 -1</clus>
<clus scale="   96.264">  2  5  1 -1</clus>
</clustering>
</event>
<event>
 9    1  0.1175034E-005  0.2744450E+03  0.7546771E-02  0.1098800E+00
         -2   -1    0    0    0  501 -0.00000000000E+00  0.00000000000E+00  0.24923839572E+03  0.24923839572E+03  0.00000000000E+00 0.  1.
          2   -1    0    0  502    0  0.00000000000E+00 -0.00000000000E+00 -0.33022149484E+03  0.33022149484E+03  0.00000000000E+00 0. -1.
         23    2    1    2    0    0  0.23638680859E+03 -0.12170378832E+03 -0.16367472864E+02  0.28163594051E+03  0.91435077787E+02 0.  0.
         23    2    1    2    0    0 -0.23081289184E+03  0.99344814566E+02 -0.54367776055E+02  0.27260469771E+03  0.90628267763E+02 0.  0.
        -11    1    4    4    0    0 -0.18664660979E+03  0.64939240251E+02 -0.77169501779E+02  0.21215370342E+03  0.00000000000E+00 0. -1.
         11    1    4    4    0    0 -0.44166282048E+02  0.34405574315E+02  0.22801725724E+02  0.60450994284E+02  0.00000000000E+00 0.  1.
        -11    1    3    3    0    0  0.16453468846E+03 -0.12444216964E+03  0.58493086466E+01  0.20637764342E+03  0.00000000000E+00 0.  1.
         11    1    3    3    0    0  0.71852120136E+02  0.27383813233E+01 -0.22216781511E+02  0.75258297091E+02  0.00000000000E+00 0. -1.
         21    1    1    2  502  501 -0.55739167506E+01  0.22358973751E+02 -0.10247850200E+02  0.25219252345E+02  0.00000000000E+00 0.  1.
<scales pt_clust_5="13000.00000" pt_clust_6="13000.00000" pt_clust_7="13000.00000" pt_clust_8="13000.00000" pt_clust_9="23.04327"></scales>
<clustering>
<clus scale="   23.043">  2  9  1 -1</clus>
<clus scale="   90.628">  5  6 -1 -1</clus>
<clus scale="   91.435">  7  8 -1 -1</clus>
<clus scale="  274.177">  2  5  1 -1</clus>
<clus scale="   23.043">  2  5  1 -1</clus>
</clustering>
</event>
<event>
 9    1  0.1175034E-005  0.1008048E+03  0.7546771E-02  0.1283464E+00
          2   -1    0    0  502    0  0.00000000000E+00  0.00000000000E+00  0.48347807345E+02  0.48347807345E+02  0.00000000000E+00 0. -1.
         -2   -1    0    0    0  501 -0.00000000000E+00 -0.00000000000E+00 -0.30891569828E+03  0.30891569828E+03  0.00000000000E+00 0.  1.
         23    2    1    2    0    0  0.78185802966E+01  0.11450215921E+02 -0.11032349439E+03  0.14416225521E+03  0.91756442663E+02 0.  0.
         23    2    1    2    0    0  0.82122968955E+01  0.17732609199E+02 -0.64524955264E+02  0.12114229805E+03  0.10064839431E+03 0.  0.
        -11    1    3    3    0    0  0.35284257872E+02  0.17971961939E+02 -0.10892395807E+03  0.11589822652E+03  0.00000000000E+00 0.  1.
         11    1    3    3    0    0 -0.27465677575E+02 -0.65217460181E+01 -0.13995363208E+01  0.28264028688E+02  0.00000000000E+00 0. -1.
        -13    1    4    4    0    0 -0.30468307646E+02  0.40767737048E+02 -0.12626352038E+02  0.52438067475E+02  0.00000000000E+00 0.  1.
         13    1    4    4    0    0  0.38680604541E+02 -0.23035127848E+02 -0.51898603226E+02  0.68704230579E+02  0.00000000000E+00 0. -1.
         21    1    1    2  502  501 -0.16030877192E+02 -0.29182825121E+02 -0.85719441286E+02  0.91958952364E+02  0.00000000000E+00 0.  1.
<scales pt_clust_5="13000.00000" pt_clust_6="13000.00000" pt_clust_7="13000.00000" pt_clust_8="13000.00000" pt_clust_9="33.29604"></scales>
<clustering>
<clus scale="   33.296">  2  9  1 -1</clus>
<clus scale="   91.756">  5  6 -1 -1</clus>
<clus scale="   91.928">  2  5  1 -1</clus>
<clus scale="  100.648">  7  8 -1 -1</clus>
<clus scale="  100.805">  1  5  2 -1</clus>
</clustering>
</event>
<event>
 9    1  0.1175034E-005  0.1005508E+03  0.7546771E-02  0.1279269E+00
          2   -1    0    0  502    0  0.00000000000E+00  0.00000000000E+00  0.42146488975E+02  0.42146488975E+02  0.00000000000E+00 0. -1.
         -2   -1    0    0    0  501 -0.00000000000E+00 -0.00000000000E+00 -0.41313661373E+03  0.41313661373E+03  0.00000000000E+00 0.  1.
         23    2    1    2    0    0 -0.36518430321E+02 -0.61693846335E+01 -0.17084220516E+03  0.19724691730E+03  0.91365366865E+02 0.  0.
         23    2    1    2    0    0  0.40717583485E+02 -0.26246756608E+02 -0.72078853578E+02  0.12586158583E+03  0.91098648826E+02 0.  0.
        -13    1    3    3    0    0 -0.36350975488E+02  0.24726612640E+02 -0.15762655678E+03  0.16364269063E+03  0.00000000000E+00 0.  1.
         13    1    3    3    0    0 -0.16745483310E+00 -0.30895997273E+02 -0.13215648374E+02  0.33604226677E+02  0.00000000000E+00 0. -1.
        -13    1    4    4    0    0  0.24107322525E+02 -0.48118010282E+02 -0.58156763671E+01  0.54132504140E+02  0.00000000000E+00 0. -1.
         13    1    4    4    0    0  0.16610260959E+02  0.21871253674E+02 -0.66263177210E+02  0.71729081692E+02  0.00000000000E+00 0.  1.
         21    1    1    2  502  501 -0.41991531637E+01  0.32416141242E+02 -0.12806906602E+03  0.13217459957E+03  0.00000000000E+00 0. -1.
<scales pt_clust_5="13000.00000" pt_clust_6="13000.00000" pt_clust_7="13000.00000" pt_clust_8="13000.00000" pt_clust_9="32.68699"></scales>
<clustering>
<clus scale="   32.687">  2  9  1 -1</clus>
<clus scale="   91.099">  7  8 -1 -1</clus>
<clus scale="   91.365">  5  6 -1 -1</clus>
<clus scale="  100.308">  1  7  2 -1</clus>
<clus scale="  100.308">  1  5  2 -1</clus>
</clustering>
</event>
<event>
 9    1  0.1175034E-005  0.1021051E+03  0.7546771E-02  0.1279887E+00
         -2   -1    0    0    0  501 -0.00000000000E+00  0.00000000000E+00  0.17193526160E+03  0.17193526160E+03  0.00000000000E+00 0.  1.
          2   -1    0    0  502    0  0.00000000000E+00 -0.00000000000E+00 -0.80631178621E+02  0.80631178621E+02  0.00000000000E+00 0. -1.
         23    2    1    2    0    0 -0.24527161035E+02  0.23199338090E+02  0.25381208275E+02  0.10732257463E+03  0.98661737136E+02 0.  0.
         23    2    1    2    0    0  0.22750810105E+02 -0.12517758816E+01  0.22296774067E+02  0.96375802749E+02  0.90950442102E+02 0.  0.
        -11    1    3    3    0    0 -0.62159379309E+02  0.77168022577E+01  0.22397907297E+02  0.66520701473E+02  0.00000000000E+00 0.  1.
         11    1    3    3    0    0  0.37632218274E+02  0.15482535833E+02  0.29833009776E+01  0.40801873153E+02  0.00000000000E+00 0. -1.
        -13    1    4    4    0    0  0.34440395328E+02  0.30191865749E+02  0.37833927172E+02  0.59406191874E+02  0.00000000000E+00 0. -1.
         13    1    4    4    0    0 -0.11689585223E+02 -0.31443641631E+02 -0.15537153105E+02  0.36969610875E+02  0.00000000000E+00 0.  1.
         21    1    1    2  502  501  0.17763509292E+01 -0.21947562209E+02  0.43626100638E+02  0.48868062847E+02  0.00000000000E+00 0. -1.
<scales pt_clust_5="13000.00000" pt_clust_6="13000.00000" pt_clust_7="13000.00000" pt_clust_8="13000.00000" pt_clust_9="22.01933"></scales>
<clustering>
<clus scale="   22.019">  1  9  2 -1</clus>
<clus scale="   90.950">  7  8 -1 -1</clus>
<clus scale="   94.675">  2  7  1 -1</clus>
<clus scale="   98.662">  5  6 -1 -1</clus>
<clus scale="   94.675">  2  5  1 -1</clus>
</clustering>
</event>
<event>
 9    1  0.1175034E-005  0.9617838E+02  0.7546771E-02  0.1289443E+00
         -2   -1    0    0    0  501 -0.00000000000E+00  0.00000000000E+00  0.93662436949E+02  0.93662436949E+02  0.00000000000E+00 0.  1.
          2   -1    0    0  502    0  0.00000000000E+00 -0.00000000000E+00 -0.25364617227E+03  0.25364617227E+03  0.00000000000E+00 0. -1.
         23    2    1    2    0    0 -0.21027215522E+02  0.34285713674E+02  0.18734303068E+02  0.10371917373E+03  0.93749874307E+02 0.  0.
         23    2    1    2    0    0 -0.18769194135E+02 -0.14390278323E+02 -0.17471874149E+03  0.19891755457E+03  0.92098817182E+02 0.  0.
        -11    1    4    4    0    0 -0.29123714261E+02  0.84988482354E+01 -0.17082163157E+03  0.17349481539E+03  0.00000000000E+00 0. -1.
         11    1    4    4    0    0  0.10354520126E+02 -0.22889126559E+02 -0.38971099259E+01  0.25422739181E+02  0.00000000000E+00 0.  1.
        -11    1    3    3    0    0  0.26035556344E+02 -0.79320828199E+01  0.28882794357E+02  0.39686067353E+02  0.00000000000E+00 0.  1.
         11    1    3    3    0    0 -0.47062771866E+02  0.42217796494E+02 -0.10148491290E+02  0.64033106375E+02  0.00000000000E+00 0. -1.
         21    1    1    2  502  501  0.39796409657E+02 -0.19895435351E+02 -0.39992968898E+01  0.44671880921E+02  0.00000000000E+00 0.  1.
<scales pt_clust_5="13000.00000" pt_clust_6="13000.00000" pt_clust_7="13000.00000" pt_clust_8="13000.00000" pt_clust_9="44.49250"></scales>
<clustering>
<clus scale="   44.493">  1  9  2 -1</clus>
<clus scale="   92.099">  5  6 -1 -1</clus>
<clus scale="   93.750">  7  8 -1 -1</clus>
<clus scale="   94.570">  2  5  1 -1</clus>
<clus scale="   94.570">  2  5  1 -1</clus>
</clustering>
</event>
<event>
 9    1  0.1175034E-005  0.1207262E+03  0.7546771E-02  0.1248013E+00
         -2   -1    0    0    0  501 -0.00000000000E+00  0.00000000000E+00  0.34332996142E+02  0.34332996142E+02  0.00000000000E+00 0.  1.
          2   -1    0    0  502    0  0.00000000000E+00 -0.00000000000E+00 -0.78480511516E+03  0.78480511516E+03  0.00000000000E+00 0. -1.
         23    2    1    2    0    0 -0.47015134436E+02  0.63155509735E+02 -0.32166293353E+03  0.34289775946E+03  0.88953860858E+02 0.  0.
         23    2    1    2    0    0  0.27621770495E+02 -0.80338569254E+02 -0.43588250716E+03  0.44938161065E+03  0.68796976870E+02 0.  0.
        -11    1    3    3    0    0 -0.72428712679E+01  0.19192701485E+02 -0.55189248161E+01  0.21243293191E+02  0.00000000000E+00 0.  1.
         11    1    3    3    0    0 -0.39772263168E+02  0.43962808250E+02 -0.31614400871E+03  0.32165446627E+03  0.00000000000E+00 0. -1.
        -11    1    4    4    0    0  0.49571802784E+02 -0.41753005084E+02 -0.26863023501E+03  0.27633834375E+03  0.00000000000E+00 0. -1.
         11    1    4    4    0    0 -0.21950032290E+02 -0.38585564170E+02 -0.16725227215E+03  0.17304326690E+03  0.00000000000E+00 0.  1.
         21    1    1    2  502  501  0.19393363942E+02  0.17183059519E+02  0.70733216626E+01  0.26858741199E+02  0.00000000000E+00 0.  1.
<scales pt_clust_5="13000.00000" pt_clust_6="13000.00000" pt_clust_7="13000.00000" pt_clust_8="13000.00000" pt_clust_9="25.91062"></scales>
<clustering>
<clus scale="   25.911">  1  9  2 -1</clus>
<clus scale="   68.797">  7  8 -1 -1</clus>
<clus scale="   88.954">  5  6 -1 -1</clus>
<clus scale="  106.748">  2  7  1 -1</clus>
<clus scale="  106.748">  2  5  1 -1</clus>
</clustering>
</event>
<event>
 9    1  0.1175034E-005  0.1154392E+03  0.7546771E-02  0.1251538E+00
         -1   -1    0    0    0  501 -0.00000000000E+00  0.00000000000E+00  0.41417536574E+03  0.41417536574E+03  0.00000000000E+00 0.  1.
          1   -1    0    0  502    0  0.00000000000E+00 -0.00000000000E+00 -0.48681097978E+02  0.48681097978E+02  0.00000000000E+00 0. -1.
         23    2    1    2    0    0 -0.60624371923E+02 -0.48012355214E+02  0.14821182354E+03  0.19055529196E+03  0.91455311120E+02 0.  0.
         23    2    1    2    0    0  0.60238515363E+02  0.17858381395E+02  0.98144395989E+02  0.14940574646E+03  0.93499487125E+02 0.  0.
        -13    1    3    3    0    0  0.21474028768E+02 -0.27213135912E+02  0.36090132474E+02  0.50041845886E+02  0.00000000000E+00 0. -1.
         13    1    3    3    0    0 -0.82098400691E+02 -0.20799219302E+02  0.11212169107E+03  0.14051344608E+03  0.00000000000E+00 0.  1.
        -13    1    4    4    0    0  0.91438394657E+01  0.40703507931E+02  0.67863281172E+01  0.42266293987E+02  0.00000000000E+00 0. -1.
         13    1    4    4    0    0  0.51094675897E+02 -0.22845126536E+02  0.91358067872E+02  0.10713945248E+03  0.00000000000E+00 0.  1.
         21    1    1    2  502  501  0.38585655997E+00  0.30153973819E+02  0.11913804823E+03  0.12289542530E+03  0.00000000000E+00 0.  1.
<scales pt_clust_5="13000.00000" pt_clust_6="13000.00000" pt_clust_7="13000.00000" pt_clust_8="13000.00000" pt_clust_9="30.15644"></scales>
<clustering>
<clus scale="   30.156">  1  9  2 -1</clus>
<clus scale="   91.455">  5  6 -1 -1</clus>
<clus scale="   93.499">  7  8 -1 -1</clus>
<clus scale="  113.790">  1  5  2 -1</clus>
<clus scale="  115.439">  2  5  1 -1</clus>
</clustering>
</event>
<event>
 9    1  0.1175034E-005  0.1044435E+03  0.7546771E-02  0.1271515E+00
         -2   -1    0    0    0  501 -0.00000000000E+00  0.00000000000E+00  0.21588719538E+03  0.21588719538E+03  0.00000000000E+00 0.  1.
          2   -1    0    0  502    0  0.00000000000E+00 -0.00000000000E+00 -0.24217394831E+03  0.24217394831E+03  0.00000000000E+00 0. -1.
         23    2    1    2    0    0 -0.69446149712E+02 -0.37191472634E+01 -0.49707198035E+02  0.12508837619E+03  0.91321939062E+02 0.  0.
         23    2    1    2    0    0  0.39654334781E+02 -0.13207512034E+02 -0.13627130659E+03  0.16964634713E+03  0.91995159960E+02 0.  0.
        -13    1    4    4    0    0  0.41193399903E+02 -0.37493232763E+02 -0.13410830737E+03  0.14521596608E+03  0.00000000000E+00 0. -1.
         13    1    4    4    0    0 -0.15390651221E+01  0.24285720729E+02 -0.21629992135E+01  0.24430381052E+02  0.00000000000E+00 0.  1.
        -13    1    3    3    0    0 -0.22517950519E+02  0.34517538892E+02  0.73958564702E+01  0.41871437516E+02  0.00000000000E+00 0.  1.
         13    1    3    3    0    0 -0.46928199193E+02 -0.38236686156E+02 -0.57103054505E+02  0.83216938669E+02  0.00000000000E+00 0. -1.
         21    1    1    2  502  501  0.29791814931E+02  0.16926659297E+02  0.15969175170E+03  0.16332642037E+03  0.00000000000E+00 0.  1.
<scales pt_clust_5="13000.00000" pt_clust_6="13000.00000" pt_clust_7="13000.00000" pt_clust_8="13000.00000" pt_clust_9="34.26462"></scales>
<clustering>
<clus scale="   34.265">  1  9  2 -1</clus>
<clus scale="   91.322">  7  8 -1 -1</clus>
<clus scale="   91.995">  5  6 -1 -1</clus>
<clus scale="  103.851">  1  7  2 -1</clus>
<clus scale="  104.444">  2  5  1 -1</clus>
</clustering>
</event>
<event>
 9    1  0.1175034E-005  0.9419115E+02  0.7546771E-02  0.1293562E+00
         -4   -1    0    0    0  501 -0.00000000000E+00  0.00000000000E+00  0.41195571455E+03  0.41195571455E+03  0.00000000000E+00 0.  1.
          4   -1    0    0  502    0  0.00000000000E+00 -0.00000000000E+00 -0.50485693150E+02  0.50485693150E+02  0.00000000000E+00 0. -1.
         23    2    1    2    0    0  0.69780104427E+01 -0.27817706946E+02  0.20568293446E+03  0.22658280542E+03  0.90618876267E+02 0.  0.
         23    2    1    2    0    0  0.25520233853E+02  0.15029146355E+02  0.21090659201E+02  0.96708284959E+02  0.89613162527E+02 0.  0.
        -11    1    3    3    0    0  0.42948987702E+01  0.23931824222E+02  0.14392736697E+03  0.14596665828E+03  0.00000000000E+00 0.  1.
         11    1    3    3    0    0  0.26831116726E+01 -0.51749531168E+02  0.61755567488E+02  0.80616147143E+02  0.00000000000E+00 0. -1.
        -13    1    4    4    0    0 -0.18636003624E+02 -0.27369983599E+02  0.89361692259E+01  0.34296818420E+02  0.00000000000E+00 0.  1.
         13    1    4    4    0    0  0.44156237477E+02  0.42399129954E+02  0.12154489975E+02  0.62411466539E+02  0.00000000000E+00 0. -1.
         21    1    1    2  502  501 -0.32498244296E+02  0.12788560590E+02  0.13469642774E+03  0.13915031732E+03  0.00000000000E+00 0.  1.
<scales pt_clust_5="13000.00000" pt_clust_6="13000.00000" pt_clust_7="13000.00000" pt_clust_8="13000.00000" pt_clust_9="34.92396"></scales>
<clustering>
<clus scale="   34.924">  1  9  2 -1</clus>
<clus scale="   89.613">  7  8 -1 -1</clus>
<clus scale="   90.619">  5  6 -1 -1</clus>
<clus scale="   93.224">  2  7  1 -1</clus>
<clus scale="   93.224">  2  5  1 -1</clus>
</clustering>
</event>
<event>
 9    1  0.1175034E-005  0.1039224E+03  0.7546771E-02  0.1272905E+00
         -2   -1    0    0    0  501 -0.00000000000E+00  0.00000000000E+00  0.10211589609E+03  0.10211589609E+03  0.00000000000E+00 0.  1.
          2   -1    0    0  502    0  0.00000000000E+00 -0.00000000000E+00 -0.36423619682E+03  0.36423619682E+03  0.00000000000E+00 0. -1.
         23    2    1    2    0    0  0.44040490095E+02 -0.39116193280E+02 -0.32852952151E+01  0.10982667588E+03  0.92636192850E+02 0.  0.
         23    2    1    2    0    0 -0.42209216181E+02  0.17380215844E+02 -0.29619825536E+03  0.31326089671E+03  0.91188228927E+02 0.  0.
        -11    1    3    3    0    0  0.25510853489E+02 -0.13413402968E+02  0.44184073653E+02  0.52753723939E+02  0.00000000000E+00 0.  1.
         11    1    3    3    0    0  0.18529636606E+02 -0.25702790312E+02 -0.47469368868E+02  0.57072951941E+02  0.00000000000E+00 0. -1.
        -13    1    4    4    0    0 -0.64187951017E+02 -0.11212686287E+02 -0.17185381493E+03  0.18379214100E+03  0.00000000000E+00 0. -1.
         13    1    4    4    0    0  0.21978734836E+02  0.28592902131E+02 -0.12434444044E+03  0.12946875571E+03  0.00000000000E+00 0.  1.
         21    1    1    2  502  501 -0.18312739140E+01  0.21735977436E+02  0.37363249851E+02  0.43264520322E+02  0.00000000000E+00 0.  1.
<scales pt_clust_5="13000.00000" pt_clust_6="13000.00000" pt_clust_7="13000.00000" pt_clust_8="13000.00000" pt_clust_9="21.81298"></scales>
<clustering>
<clus scale="   21.813">  1  9  2 -1</clus>
<clus scale="   91.188">  7  8 -1 -1</clus>
<clus scale="   92.636">  5  6 -1 -1</clus>
<clus scale="  102.634">  2  7  1 -1</clus>
<clus scale="  102.634">  2  5  1 -1</clus>
</clustering>
</event>
<event>
 9    1  0.1175034E-005  0.1461854E+03  0.7546771E-02  0.1224702E+00
          1   -1    0    0  502    0  0.00000000000E+00  0.00000000000E+00  0.30729289385E+03  0.30729289385E+03  0.00000000000E+00 0. -1.
         -1   -1    0    0    0  501 -0.00000000000E+00 -0.00000000000E+00 -0.12194096103E+03  0.12194096103E+03  0.00000000000E+00 0.  1.
         23    2    1    2    0    0 -0.20416615575E+02  0.36008651402E+02  0.14758745183E+01  0.96820402195E+02  0.87513147059E+02 0.  0.
         23    2    1    2    0    0  0.12091175029E+03 -0.64366991761E+01  0.16730185832E+03  0.22635461729E+03  0.92657533519E+02 0.  0.
        -11    1    4    4    0    0  0.40783116057E+02 -0.12439717636E+02  0.21497438003E+01  0.42692277154E+02  0.00000000000E+00 0.  1.
         11    1    4    4    0    0  0.80128634232E+02  0.60030184595E+01  0.16515211452E+03  0.18366234014E+03  0.00000000000E+00 0. -1.
        -13    1    3    3    0    0 -0.30204677844E+02  0.58566664120E+02 -0.14530538311E+02  0.67479724758E+02  0.00000000000E+00 0.  1.
         13    1    3    3    0    0  0.97880622695E+01 -0.22558012718E+02  0.16006412829E+02  0.29340677437E+02  0.00000000000E+00 0. -1.
         21    1    1    2  502  501 -0.10049513471E+03 -0.29571952226E+02  0.16574199983E+02  0.10605883539E+03  0.00000000000E+00 0.  1.
<scales pt_clust_5="13000.00000" pt_clust_6="13000.00000" pt_clust_7="13000.00000" pt_clust_8="13000.00000" pt_clust_9="113.06973"></scales>
<clustering>
<clus scale="   87.513">  7  8 -1 -1</clus>
<clus scale="   92.658">  5  6 -1 -1</clus>
<clus scale="   96.809">  2  7  1 -1</clus>
<clus scale="  113.070">  2  9  1 -1</clus>
<clus scale="  146.185">  1  5  2 -1</clus>
</clustering>
</event>
<event>
 9    1  0.1175034E-005  0.1817349E+03  0.7546771E-02  0.1166287E+00
         -2   -1    0    0    0  501 -0.00000000000E+00  0.00000000000E+00  0.75164778576E+02  0.75164778576E+02  0.00000000000E+00 0.  1.
          2   -1    0    0  502    0  0.00000000000E+00 -0.00000000000E+00 -0.76599932452E+03  0.76599932452E+03  0.00000000000E+00 0. -1.
         23    2    1    2    0    0 -0.15266414786E+03 -0.27183073355E+02 -0.10371775881E+03  0.20771690995E+03  0.91343744536E+02 0.  0.
         23    2    1    2    0    0  0.15738048891E+03 -0.48789466932E+01 -0.56605085419E+03  0.59479501943E+03  0.92601961111E+02 0.  0.
        -11    1    3    3    0    0 -0.74429319718E+02 -0.52176916607E+02 -0.82822189706E+02  0.12297019707E+03  0.00000000000E+00 0. -1.
         11    1    3    3    0    0 -0.78234828140E+02  0.24993843252E+02 -0.20895569109E+02  0.84746712874E+02  0.00000000000E+00 0.  1.
        -13    1    4    4    0    0  0.15164548440E+03  0.19337899562E+02 -0.52485642542E+03  0.54666678571E+03  0.00000000000E+00 0. -1.
         13    1    4    4    0    0  0.57350045169E+01 -0.24216846255E+02 -0.41194428776E+02  0.48128233725E+02  0.00000000000E+00 0.  1.
         21    1    1    2  502  501 -0.47163410567E+01  0.32062020048E+02 -0.21065932941E+02  0.38652173719E+02  0.00000000000E+00 0.  1.
<scales pt_clust_5="13000.00000" pt_clust_6="13000.00000" pt_clust_7="13000.00000" pt_clust_8="13000.00000" pt_clust_9="32.40705"></scales>
<clustering>
<clus scale="   32.407">  1  9  2 -1</clus>
<clus scale="   91.344">  5  6 -1 -1</clus>
<clus scale="   92.602">  7  8 -1 -1</clus>
<clus scale="  181.097">  1  5  2 -1</clus>
<clus scale="  181.735">  2  5  1 -1</clus>
</clustering>
</event>
<event>
 9    1  0.1175034E-005  0.9617024E+02  0.7546771E-02  0.1288853E+00
         -1   -1    0    0    0  501 -0.00000000000E+00  0.00000000000E+00  0.60428332749E+03  0.60428332749E+03  0.00000000000E+00 0.  1.
          1   -1    0    0  502    0  0.00000000000E+00 -0.00000000000E+00 -0.25371982881E+02  0.25371982881E+02  0.00000000000E+00 0. -1.
         23    2    1    2    0    0 -0.23707132197E+02 -0.30299903672E+02  0.37035196462E+03  0.38351401738E+03  0.91882052395E+02 0.  0.
         23    2    1    2    0    0  0.17883800522E+02 -0.66517970433E+01  0.14755113123E+03  0.17457771431E+03  0.91334359795E+02 0.  0.
        -11    1    3    3    0    0  0.41145144050E+01  0.28959528679E+02  0.17647419492E+03  0.17888187444E+03  0.00000000000E+00 0. -1.
         11    1    3    3    0    0 -0.27821646602E+02 -0.59259432351E+02  0.19387776970E+03  0.20463214294E+03  0.00000000000E+00 0.  1.
        -13    1    4    4    0    0  0.17093736448E+02 -0.48427927502E+02  0.76148222272E+02  0.91847763953E+02  0.00000000000E+00 0.  1.
         13    1    4    4    0    0  0.79006407371E+00  0.41776130459E+02  0.71402908963E+02  0.82729950355E+02  0.00000000000E+00 0. -1.
         21    1    1    2  502  501  0.58233316753E+01  0.36951700715E+02  0.61008248758E+02  0.71563578684E+02  0.00000000000E+00 0. -1.
<scales pt_clust_5="13000.00000" pt_clust_6="13000.00000" pt_clust_7="13000.00000" pt_clust_8="13000.00000" pt_clust_9="37.40774"></scales>
<clustering>
<clus scale="   37.408">  2  9  1 -1</clus>
<clus scale="   91.334">  7  8 -1 -1</clus>
<clus scale="   91.882">  5  6 -1 -1</clus>
<clus scale="   95.647">  2  7  1 -1</clus>
<clus scale="   37.408">  2  5  1 -1</clus>
</clustering>
</event>
<event>
 9    1  0.1175034E-005  0.1211331E+03  0.7546771E-02  0.1241440E+00
          2   -1    0    0  502    0  0.00000000000E+00  0.00000000000E+00  0.51191868916E+03  0.51191868916E+03  0.00000000000E+00 0. -1.
         -2   -1    0    0    0  501 -0.00000000000E+00 -0.00000000000E+00 -0.56587650990E+02  0.56587650990E+02  0.00000000000E+00 0.  1.
         23    2    1    2    0    0 -0.17614443622E+02  0.93797452602E+02  0.26017041171E+03  0.29145867259E+03  0.90284461324E+02 0.  0.
         23    2    1    2    0    0  0.18052608275E+02 -0.63951952552E+02  0.21394388881E+03  0.24178073112E+03  0.90940560153E+02 0.  0.
        -11    1    4    4    0    0 -0.27962068876E+02 -0.51364519603E+02  0.76501983154E+02  0.96295091237E+02  0.00000000000E+00 0. -1.
         11    1    4    4    0    0  0.46014677151E+02 -0.12587432948E+02  0.13744190566E+03  0.14548563989E+03  0.00000000000E+00 0.  1.
        -11    1    3    3    0    0 -0.27050456527E+02  0.57675921814E+02  0.58919208828E+02  0.86773915000E+02  0.00000000000E+00 0.  1.
         11    1    3    3    0    0  0.94360129045E+01  0.36121530788E+02  0.20125120288E+03  0.20468475759E+03  0.00000000000E+00 0. -1.
         21    1    1    2  502  501 -0.43816465259E+00 -0.29845500050E+02 -0.18783262352E+02  0.35266936443E+02  0.00000000000E+00 0. -1.
<scales pt_clust_5="13000.00000" pt_clust_6="13000.00000" pt_clust_7="13000.00000" pt_clust_8="13000.00000" pt_clust_9="29.84872"></scales>
<clustering>
<clus scale="   29.849">  2  9  1 -1</clus>
<clus scale="   90.284">  7  8 -1 -1</clus>
<clus scale="   90.941">  5  6 -1 -1</clus>
<clus scale="  120.641">  2  7  1 -1</clus>
<clus scale="  121.133">  1  5  2 -1</clus>
</clustering>
</event>
<event>
 9    1  0.1175034E-005  0.1780273E+03  0.7546771E-02  0.1171552E+00
          3   -1    0    0  502    0  0.00000000000E+00  0.00000000000E+00  0.15164707652E+03  0.15164707652E+03  0.00000000000E+00 0. -1.
         -3   -1    0    0    0  501 -0.00000000000E+00 -0.00000000000E+00 -0.26544626238E+03  0.26544626238E+03  0.00000000000E+00 0.  1.
         23    2    1    2    0    0 -0.79135471608E+02  0.12366849968E+03 -0.43942242345E+02  0.17834636891E+03  0.91215053369E+02 0.  0.
         23    2    1    2    0    0  0.39348907964E+02 -0.13963265975E+03 -0.31801459776E+02  0.18142293580E+03  0.10419852476E+03 0.  0.
        -11    1    3    3    0    0 -0.72559191243E+02  0.31963816612E+02 -0.32527104787E+02  0.85700258763E+02  0.00000000000E+00 0.  1.
         11    1    3    3    0    0 -0.65762803655E+01  0.91704683065E+02 -0.11415137557E+02  0.92646110145E+02  0.00000000000E+00 0. -1.
        -11    1    4    4    0    0  0.48581065477E+02 -0.61846723995E+02  0.27350456136E+02  0.83265747115E+02  0.00000000000E+00 0. -1.
         11    1    4    4    0    0 -0.92321575122E+01 -0.77785935757E+02 -0.59151915912E+02  0.98157188682E+02  0.00000000000E+00 0.  1.
         21    1    1    2  502  501  0.39786563644E+02  0.15964160074E+02 -0.38055483739E+02  0.57324034192E+02  0.00000000000E+00 0. -1.
<scales pt_clust_5="13000.00000" pt_clust_6="13000.00000" pt_clust_7="13000.00000" pt_clust_8="13000.00000" pt_clust_9="42.86986"></scales>
<clustering>
<clus scale="   42.870">  2  9  1 -1</clus>
<clus scale="   91.215">  5  6 -1 -1</clus>
<clus scale="  104.199">  7  8 -1 -1</clus>
<clus scale="  170.753">  2  5  1 -1</clus>
<clus scale="  178.027">  1  5  2 -1</clus>
</clustering>
</event>
<event>
 9    1  0.1175034E-005  0.1082099E+03  0.7546771E-02  0.1264134E+00
         -1   -1    0    0    0  501 -0.00000000000E+00  0.00000000000E+00  0.38276701638E+02  0.38276701638E+02  0.00000000000E+00 0.  1.
          1   -1    0    0  502    0  0.00000000000E+00 -0.00000000000E+00 -0.40068328481E+03  0.40068328481E+03  0.00000000000E+00 0. -1.
         23    2    1    2    0    0  0.66747528385E+02  0.22787261092E+02 -0.13641628013E+03  0.17888114149E+03  0.91730962508E+02 0.  0.
         23    2    1    2    0    0 -0.49411123401E+02 -0.65697723675E+01 -0.19577784118E+03  0.22165553523E+03  0.91200834305E+02 0.  0.
        -11    1    3    3    0    0  0.29880344223E+02  0.15667293804E+02 -0.13723740035E+03  0.14132375286E+03  0.00000000000E+00 0. -1.
         11    1    3    3    0    0  0.36867184162E+02  0.71199672874E+01  0.82112022677E+00  0.37557388629E+02  0.00000000000E+00 0.  1.
        -13    1    4    4    0    0 -0.90000106534E+00 -0.24029690887E+02 -0.57046700119E+01  0.24713949623E+02  0.00000000000E+00 0.  1.
         13    1    4    4    0    0 -0.48511122336E+02  0.17459918519E+02 -0.19007317117E+03  0.19694158561E+03  0.00000000000E+00 0. -1.
         21    1    1    2  502  501 -0.17336404984E+02 -0.16217488724E+02 -0.30212461861E+02  0.38423309722E+02  0.00000000000E+00 0.  1.
<scales pt_clust_5="13000.00000" pt_clust_6="13000.00000" pt_clust_7="13000.00000" pt_clust_8="13000.00000" pt_clust_9="23.73937"></scales>
<clustering>
<clus scale="   23.739">  1  9  2 -1</clus>
<clus scale="   91.201">  7  8 -1 -1</clus>
<clus scale="   91.731">  5  6 -1 -1</clus>
<clus scale="  107.761">  2  7  1 -1</clus>
<clus scale="  107.761">  2  5  1 -1</clus>
</clustering>
</event>
<event>
 9    1  0.1175034E-005  0.1128473E+03  0.7546771E-02  0.1256417E+00
          2   -1    0    0  502    0  0.00000000000E+00  0.00000000000E+00  0.71378493608E+02  0.71378493608E+02  0.00000000000E+00 0. -1.
         -2   -1    0    0    0  501 -0.00000000000E+00 -0.00000000000E+00 -0.23924506400E+03  0.23924506400E+03  0.00000000000E+00 0.  1.
         23    2    1    2    0    0  0.74439042854E+00  0.76471498482E+02 -0.79681026595E+02  0.14475941334E+03  0.93582998218E+02 0.  0.
         23    2    1    2    0    0 -0.87680387396E+01 -0.53330301375E+02 -0.42275686438E+02  0.11382945450E+03  0.90823518431E+02 0.  0.
        -11    1    3    3    0    0 -0.20243437183E+02  0.70835576938E+01  0.14515583194E+02  0.25897407092E+02  0.00000000000E+00 0. -1.
         11    1    3    3    0    0  0.20987827612E+02  0.69387940788E+02 -0.94196609789E+02  0.11886200625E+03  0.00000000000E+00 0.  1.
        -13    1    4    4    0    0 -0.21765234232E+02  0.20140560467E+02 -0.38460216441E+01  0.29902499555E+02  0.00000000000E+00 0. -1.
         13    1    4    4    0    0  0.12997195493E+02 -0.73470861842E+02 -0.38429664794E+02  0.83926954947E+02  0.00000000000E+00 0.  1.
         21    1    1    2  502  501  0.80236483111E+01 -0.23141197107E+02 -0.45909857354E+02  0.52034689756E+02  0.00000000000E+00 0.  1.
<scales pt_clust_5="13000.00000" pt_clust_6="13000.00000" pt_clust_7="13000.00000" pt_clust_8="13000.00000" pt_clust_9="24.49273"></scales>
<clustering>
<clus scale="   24.493">  2  9  1 -1</clus>
<clus scale="   90.824">  7  8 -1 -1</clus>
<clus scale="   93.583">  5  6 -1 -1</clus>
<clus scale="  110.570">  1  7  2 -1</clus>
<clus scale="  110.570">  1  5  2 -1</clus>
</clustering>
</event>
<event>
 9    1  0.1175034E-005  0.1974953E+03  0.7546771E-02  0.1152370E+00
          1   -1    0    0  502    0  0.00000000000E+00  0.00000000000E+00  0.55592251248E+03  0.55592251248E+03  0.00000000000E+00 0. -1.
         -1   -1    0    0    0  501 -0.00000000000E+00 -0.00000000000E+00 -0.15797137820E+03  0.15797137820E+03  0.00000000000E+00 0.  1.
         23    2    1    2    0    0 -0.12853270050E+03 -0.12274709421E+03 -0.53056358625E+02  0.20788366614E+03  0.93878310720E+02 0.  0.
         23    2    1    2    0    0  0.13855773632E+03  0.10408891649E+03  0.44196732243E+03  0.48298081679E+03  0.88896605423E+02 0.  0.
        -11    1    4    4    0    0  0.12837688325E+03  0.48145925101E+02  0.29173325606E+03  0.32234600501E+03  0.00000000000E+00 0. -1.
         11    1    4    4    0    0  0.10180853072E+02  0.55942991390E+02  0.15023406638E+03  0.16063481178E+03  0.00000000000E+00 0.  1.
        -11    1    3    3    0    0 -0.62717677621E+02 -0.53147602172E+02  0.23231229518E+02  0.85427540803E+02  0.00000000000E+00 0. -1.
         11    1    3    3    0    0 -0.65815022881E+02 -0.69599492034E+02 -0.76287588143E+02  0.12245612534E+03  0.00000000000E+00 0.  1.
         21    1    1    2  502  501 -0.10025035818E+02  0.18658177715E+02  0.90401704703E+01  0.23029407742E+02  0.00000000000E+00 0.  1.
<scales pt_clust_5="13000.00000" pt_clust_6="13000.00000" pt_clust_7="13000.00000" pt_clust_8="13000.00000" pt_clust_9="21.18086"></scales>
<clustering>
<clus scale="   21.181">  2  9  1 -1</clus>
<clus scale="   88.897">  5  6 -1 -1</clus>
<clus scale="   93.878">  7  8 -1 -1</clus>
<clus scale="  195.177">  1  5  2 -1</clus>
<clus scale="  195.177">  1  5  2 -1</clus>
</clustering>
</event>
<event>
 9    1  0.1175034E-005  0.1351393E+03  0.7546771E-02  0.1228249E+00
          2   -1    0    0  502    0  0.00000000000E+00  0.00000000000E+00  0.14266702847E+03  0.14266702847E+03  0.00000000000E+00 0. -1.
         -2   -1    0    0    0  501 -0.00000000000E+00 -0.00000000000E+00 -0.18070226865E+03  0.18070226865E+03  0.00000000000E+00 0.  1.
         23    2    1    2    0    0 -0.28785342766E+02 -0.70821896154E+02 -0.44482353425E+02  0.12697080249E+03  0.91096476258E+02 0.  0.
         23    2    1    2    0    0  0.63429933545E+02  0.27282684236E+02 -0.15843385644E+02  0.13645871663E+03  0.11662875781E+03 0.  0.
        -11    1    3    3    0    0 -0.55765842112E+02 -0.45147679655E+02 -0.38528384842E+01  0.71853924660E+02  0.00000000000E+00 0. -1.
         11    1    3    3    0    0  0.26980499346E+02 -0.25674216500E+02 -0.40629514941E+02  0.55116877834E+02  0.00000000000E+00 0.  1.
        -13    1    4    4    0    0  0.62684519494E+02  0.64759881350E+02 -0.31999295322E+02  0.95640713704E+02  0.00000000000E+00 0.  1.
         13    1    4    4    0    0  0.74541405055E+00 -0.37477197114E+02  0.16155909678E+02  0.40818002930E+02  0.00000000000E+00 0. -1.
         21    1    1    2  502  501 -0.34644590779E+02  0.43539211918E+02  0.22290498894E+02  0.59939777991E+02  0.00000000000E+00 0. -1.
<scales pt_clust_5="13000.00000" pt_clust_6="13000.00000" pt_clust_7="13000.00000" pt_clust_8="13000.00000" pt_clust_9="55.64091"></scales>
<clustering>
<clus scale="   55.641">  1  9  2 -1</clus>
<clus scale="   91.096">  5  6 -1 -1</clus>
<clus scale="  113.837">  2  5  1 -1</clus>
<clus scale="  116.629">  7  8 -1 -1</clus>
<clus scale="   55.641">  1  5  2 -1</clus>
</clustering>
</event>
<event>
 9    1  0.1175034E-005  0.1049788E+03  0.7546771E-02  0.1271024E+00
         -2   -1    0    0    0  501 -0.00000000000E+00  0.00000000000E+00  0.63520642200E+02  0.63520642200E+02  0.00000000000E+00 0.  1.
          2   -1    0    0  502    0  0.00000000000E+00 -0.00000000000E+00 -0.26104791707E+03  0.26104791707E+03  0.00000000000E+00 0. -1.
         23    2    1    2    0    0 -0.30127231798E+02 -0.42030366162E+02 -0.70304461402E+02  0.12463456314E+03  0.88976711898E+02 0.  0.
         23    2    1    2    0    0  0.95853517957E+01  0.54062997565E+02 -0.13768897826E+03  0.17392834948E+03  0.90984225797E+02 0.  0.
        -13    1    4    4    0    0  0.34722723049E+02  0.68837575215E+02 -0.98796340964E+02  0.12531957647E+03  0.00000000000E+00 0. -1.
         13    1    4    4    0    0 -0.25137371253E+02 -0.14774577650E+02 -0.38892637297E+02  0.48608773016E+02  0.00000000000E+00 0.  1.
        -13    1    3    3    0    0 -0.42906842173E+02  0.55046967401E+00 -0.17741284186E+01  0.42947033119E+02  0.00000000000E+00 0. -1.
         13    1    3    3    0    0  0.12779610374E+02 -0.42580835836E+02 -0.68530332983E+02  0.81687530019E+02  0.00000000000E+00 0.  1.
         21    1    1    2  502  501  0.20541880003E+02 -0.12032631403E+02  0.10466164789E+02  0.26005646655E+02  0.00000000000E+00 0.  1.
<scales pt_clust_5="13000.00000" pt_clust_6="13000.00000" pt_clust_7="13000.00000" pt_clust_8="13000.00000" pt_clust_9="23.80658"></scales>
<clustering>
<clus scale="   23.807">  1  9  2 -1</clus>
<clus scale="   88.977">  7  8 -1 -1</clus>
<clus scale="   90.984">  5  6 -1 -1</clus>
<clus scale="  103.244">  1  7  2 -1</clus>
<clus scale="  104.979">  2  5  1 -1</clus>
</clustering>
</event>
<event>
 9    1  0.1175034E-005  0.9438658E+02  0.7546771E-02  0.1293041E+00
         -1   -1    0    0    0  501 -0.00000000000E+00  0.00000000000E+00  0.37500882755E+03  0.37500882755E+03  0.00000000000E+00 0.  1.
          1   -1    0    0  502    0  0.00000000000E+00 -0.00000000000E+00 -0.13672487093E+03  0.13672487093E+03  0.00000000000E+00 0. -1.
         23    2    1    2    0    0 -0.14909145566E+02 -0.35538188322E+02  0.20590900473E+03  0.22814019813E+03  0.90355887062E+02 0.  0.
         23    2    1    2    0    0 -0.21832166289E+02  0.13362478637E+02 -0.10396445812E+03  0.14065952671E+03  0.91221130124E+02 0.  0.
        -11    1    4    4    0    0 -0.37012799110E+02  0.45549473674E+02 -0.57843394782E+02  0.82404855257E+02  0.00000000000E+00 0.  1.
         11    1    4    4    0    0  0.15180632821E+02 -0.32186995037E+02 -0.46121063339E+02  0.58254671451E+02  0.00000000000E+00 0. -1.
        -13    1    3    3    0    0 -0.21273719786E+02  0.11359992139E+02  0.91907308451E+01  0.25808721556E+02  0.00000000000E+00 0. -1.
         13    1    3    3    0    0  0.63645742199E+01 -0.46898180460E+02  0.19671827388E+03  0.20233147658E+03  0.00000000000E+00 0.  1.
         21    1    1    2  502  501  0.36741311854E+02  0.22175709685E+02  0.13633941001E+03  0.14293397364E+03  0.00000000000E+00 0.  1.
<scales pt_clust_5="13000.00000" pt_clust_6="13000.00000" pt_clust_7="13000.00000" pt_clust_8="13000.00000" pt_clust_9="42.91487"></scales>
<clustering>
<clus scale="   42.915">  1  9  2 -1</clus>
<clus scale="   90.356">  7  8 -1 -1</clus>
<clus scale="   91.221">  5  6 -1 -1</clus>
<clus scale="   93.551">  1  7  2 -1</clus>
<clus scale="   94.387">  2  5  1 -1</clus>
</clustering>
</event>
<event>
 9    1  0.1175034E-005  0.9524241E+02  0.7546771E-02  0.1291228E+00
         -1   -1    0    0    0  501 -0.00000000000E+00  0.00000000000E+00  0.68829702496E+02  0.68829702496E+02  0.00000000000E+00 0.  1.
          1   -1    0    0  502    0  0.00000000000E+00 -0.00000000000E+00 -0.37602959805E+03  0.37602959805E+03  0.00000000000E+00 0. -1.
         23    2    1    2    0    0 -0.12722935759E+02 -0.41142161359E+02  0.97024174863E+01  0.10119534040E+03  0.91059373371E+02 0.  0.
         23    2    1    2    0    0  0.10965381598E+01  0.21692476906E+02 -0.30212324319E+03  0.31661060079E+03  0.92152333174E+02 0.  0.
        -13    1    4    4    0    0  0.42735025386E+02  0.21768002097E+02 -0.21164627091E+03  0.21701214782E+03  0.00000000000E+00 0.  1.
         13    1    4    4    0    0 -0.41638487226E+02 -0.75525190476E-01 -0.90476972281E+02  0.99598452978E+02  0.00000000000E+00 0. -1.
        -13    1    3    3    0    0  0.21792190865E+02  0.20254901598E+02 -0.19010929185E+01  0.29812325902E+02  0.00000000000E+00 0. -1.
         13    1    3    3    0    0 -0.34515126623E+02 -0.61397062957E+02  0.11603510405E+02  0.71383014501E+02  0.00000000000E+00 0.  1.
         21    1    1    2  502  501  0.11626397599E+02  0.19449684453E+02 -0.14779069853E+02  0.27053359351E+02  0.00000000000E+00 0.  1.
<scales pt_clust_5="13000.00000" pt_clust_6="13000.00000" pt_clust_7="13000.00000" pt_clust_8="13000.00000" pt_clust_9="22.65973"></scales>
<clustering>
<clus scale="   22.660">  1  9  2 -1</clus>
<clus scale="   91.059">  7  8 -1 -1</clus>
<clus scale="   92.152">  5  6 -1 -1</clus>
<clus scale="   94.185">  1  7  2 -1</clus>
<clus scale="   95.242">  2  5  1 -1</clus>
</clustering>
</event>
<event>
 9    1  0.1175034E-005  0.1276324E+03  0.7546771E-02  0.1232195E+00
          1   -1    0    0  502    0  0.00000000000E+00  0.00000000000E+00  0.24401296962E+03  0.24401296962E+03  0.00000000000E+00 0. -1.
         -1   -1    0    0    0  501 -0.00000000000E+00 -0.00000000000E+00 -0.11966196268E+03  0.11966196268E+03  0.00000000000E+00 0.  1.
         23    2    1    2    0    0 -0.66982321447E+02 -0.46560183763E+02  0.44213737130E+01  0.12470672243E+03  0.94221738341E+02 0.  0.
         23    2    1    2    0    0  0.10788568501E+03 -0.53010492651E+01  0.79492373299E+02  0.16152245703E+03  0.90016912626E+02 0.  0.
        -13    1    3    3    0    0 -0.44114396778E+02  0.22356079734E+02  0.14165719724E+02  0.51444551893E+02  0.00000000000E+00 0.  1.
         13    1    3    3    0    0 -0.22867924669E+02 -0.68916263497E+02 -0.97443460113E+01  0.73262170540E+02  0.00000000000E+00 0. -1.
        -13    1    4    4    0    0  0.71709584958E+02  0.15965864233E+02  0.92000444684E+02  0.11773383209E+03  0.00000000000E+00 0. -1.
         13    1    4    4    0    0  0.36176100052E+02 -0.21266913498E+02 -0.12508071384E+02  0.43788624944E+02  0.00000000000E+00 0.  1.
         21    1    1    2  502  501 -0.40903363564E+02  0.51861233028E+02  0.40437259929E+02  0.77445752837E+02  0.00000000000E+00 0.  1.
<scales pt_clust_5="13000.00000" pt_clust_6="13000.00000" pt_clust_7="13000.00000" pt_clust_8="13000.00000" pt_clust_9="66.05053"></scales>
<clustering>
<clus scale="   66.051">  1  9  2 -1</clus>
<clus scale="   90.017">  7  8 -1 -1</clus>
<clus scale="   94.222">  5  6 -1 -1</clus>
<clus scale="  124.561">  1  7  2 -1</clus>
<clus scale="   66.051">  1  5  2 -1</clus>
</clustering>
</event>
<event>
 9    1  0.1175034E-005  0.1194875E+03  0.7546771E-02  0.1244616E+00
          2   -1    0    0  502    0  0.00000000000E+00  0.00000000000E+00  0.79999261125E+02  0.79999261125E+02  0.00000000000E+00 0. -1.
         -2   -1    0    0    0  501 -0.00000000000E+00 -0.00000000000E+00 -0.23821944292E+03  0.23821944292E+03  0.00000000000E+00 0.  1.
         23    2    1    2    0    0 -0.50147053231E+02  0.81472164147E+02 -0.56863892105E+02  0.14124255202E+03  0.86968475875E+02 0.  0.
         23    2    1    2    0    0  0.29992426342E+02 -0.57051322495E+02 -0.61323599676E+02  0.12593496511E+03  0.89132668110E+02 0.  0.
        -11    1    3    3    0    0 -0.65085799670E+01  0.49483569111E+02  0.14232042835E+02  0.51899289672E+02  0.00000000000E+00 0. -1.
         11    1    3    3    0    0 -0.43638473264E+02  0.31988595036E+02 -0.71095934940E+02  0.89343262344E+02  0.00000000000E+00 0.  1.
        -13    1    4    4    0    0  0.52767305576E+02 -0.66671053675E+02 -0.43910535275E+02  0.95695104598E+02  0.00000000000E+00 0.  1.
         13    1    4    4    0    0 -0.22774879234E+02  0.96197311803E+01 -0.17413064400E+02  0.30239860514E+02  0.00000000000E+00 0. -1.
         21    1    1    2  502  501  0.20154626889E+02 -0.24420841653E+02 -0.40032690012E+02  0.51041186915E+02  0.00000000000E+00 0. -1.
<scales pt_clust_5="13000.00000" pt_clust_6="13000.00000" pt_clust_7="13000.00000" pt_clust_8="13000.00000" pt_clust_9="31.66365"></scales>
<clustering>
<clus scale="   31.664">  2  9  1 -1</clus>
<clus scale="   86.968">  5  6 -1 -1</clus>
<clus scale="   89.133">  7  8 -1 -1</clus>
<clus scale="  117.882">  2  5  1 -1</clus>
<clus scale="  119.487">  1  5  2 -1</clus>
</clustering>
</event>
<event>
 9    1  0.1175034E-005  0.1058107E+03  0.7546771E-02  0.1271359E+00
         -2   -1    0    0    0  501 -0.00000000000E+00  0.00000000000E+00  0.80754995266E+02  0.80754995266E+02  0.00000000000E+00 0.  1.
          2   -1    0    0  502    0  0.00000000000E+00 -0.00000000000E+00 -0.18505446551E+03  0.18505446551E+03  0.00000000000E+00 0. -1.
         23    2    1    2    0    0 -0.21892764276E+02 -0.13790665694E+02 -0.33137597762E+01  0.95541363588E+02  0.91911346223E+02 0.  0.
         23    2    1    2    0    0  0.37524394120E+02  0.28349800194E+02 -0.10173190437E+03  0.14889350820E+03  0.98020942116E+02 0.  0.
        -11    1    3    3    0    0  0.20310057568E+01  0.37623354698E+02 -0.84098386339E+01  0.38605274109E+02  0.00000000000E+00 0.  1.
         11    1    3    3    0    0 -0.23923770033E+02 -0.51414020392E+02  0.50960788577E+01  0.56936089479E+02  0.00000000000E+00 0. -1.
        -13    1    4    4    0    0 -0.17640570027E+02 -0.23270171770E+02 -0.11943640680E+02  0.31549027842E+02  0.00000000000E+00 0. -1.
         13    1    4    4    0    0  0.55164964146E+02  0.51619971964E+02 -0.89788263688E+02  0.11734448036E+03  0.00000000000E+00 0.  1.
         21    1    1    2  502  501 -0.15631629843E+02 -0.14559134501E+02  0.74619389966E+00  0.21374588986E+02  0.00000000000E+00 0.  1.
<scales pt_clust_5="13000.00000" pt_clust_6="13000.00000" pt_clust_7="13000.00000" pt_clust_8="13000.00000" pt_clust_9="21.36156"></scales>
<clustering>
<clus scale="   21.362">  1  9  2 -1</clus>
<clus scale="   91.911">  5  6 -1 -1</clus>
<clus scale="   98.021">  7  8 -1 -1</clus>
<clus scale="  100.177">  1  5  2 -1</clus>
<clus scale="  105.811">  2  5  1 -1</clus>
</clustering>
</event>
<event>
 9    1  0.1175034E-005  0.1133050E+03  0.7546771E-02  0.1259550E+00
         -1   -1    0    0    0  501 -0.00000000000E+00  0.00000000000E+00  0.24092083280E+03  0.24092083280E+03  0.00000000000E+00 0.  1.
          1   -1    0    0  502    0  0.00000000000E+00 -0.00000000000E+00 -0.66060662114E+03  0.66060662114E+03  0.00000000000E+00 0. -1.
         23    2    1    2    0    0 -0.39061079885E+02 -0.23210000439E+02 -0.27625736183E+03  0.29547728929E+03  0.94468123917E+02 0.  0.
         23    2    1    2    0    0  0.14111999028E+02  0.37658011943E+02 -0.36522287658E+03  0.38238975297E+03  0.10590986367E+03 0.  0.
        -11    1    3    3    0    0 -0.29576382933E+02 -0.53169272032E+02 -0.10494170538E+03  0.12130332000E+03  0.00000000000E+00 0.  1.
         11    1    3    3    0    0 -0.94846969517E+01  0.29959271593E+02 -0.17131565645E+03  0.17417396928E+03  0.00000000000E+00 0. -1.
        -13    1    4    4    0    0  0.16592284190E+02  0.59894228714E+02 -0.34964758706E+03  0.35512822707E+03  0.00000000000E+00 0. -1.
         13    1    4    4    0    0 -0.24802851620E+01 -0.22236216770E+02 -0.15575289520E+02  0.27261525899E+02  0.00000000000E+00 0.  1.
         21    1    1    2  502  501  0.24949080858E+02 -0.14448011504E+02  0.22179445006E+03  0.22366041168E+03  0.00000000000E+00 0.  1.
<scales pt_clust_5="13000.00000" pt_clust_6="13000.00000" pt_clust_7="13000.00000" pt_clust_8="13000.00000" pt_clust_9="28.83057"></scales>
<clustering>
<clus scale="   28.831">  1  9  2 -1</clus>
<clus scale="   94.468">  5  6 -1 -1</clus>
<clus scale="  102.691">  1  5  2 -1</clus>
<clus scale="  105.910">  7  8 -1 -1</clus>
<clus scale="  113.305">  2  5  1 -1</clus>
</clustering>
</event>
<event>
 9    1  0.1175034E-005  0.9652670E+02  0.7546771E-02  0.1287803E+00
         -2   -1    0    0    0  501 -0.00000000000E+00  0.00000000000E+00  0.55996624743E+03  0.55996624743E+03  0.00000000000E+00 0.  1.
          2   -1    0    0  502    0  0.00000000000E+00 -0.00000000000E+00 -0.29393254673E+02  0.29393254673E+02  0.00000000000E+00 0. -1.
         23    2    1    2    0    0  0.52031288783E+02  0.17104391123E+02  0.30697545759E+03  0.32481258527E+03  0.90936619582E+02 0.  0.
         23    2    1    2    0    0 -0.23393596920E+02 -0.52820775819E+01  0.10047430626E+03  0.13758545028E+03  0.90881841910E+02 0.  0.
        -11    1    4    4    0    0 -0.69552023298E+01  0.20120511785E+02  0.10487123160E+03  0.10701021004E+03  0.00000000000E+00 0.  1.
         11    1    4    4    0    0 -0.16438394590E+02 -0.25402589367E+02 -0.43969253440E+01  0.30575240240E+02  0.00000000000E+00 0. -1.
        -11    1    3    3    0    0  0.41972645694E+02 -0.32514079049E+02  0.12238677461E+03  0.13340686235E+03  0.00000000000E+00 0. -1.
         11    1    3    3    0    0  0.10058643090E+02  0.49618470171E+02  0.18458868298E+03  0.19140572292E+03  0.00000000000E+00 0.  1.
         21    1    1    2  502  501 -0.28637691863E+02 -0.11822313541E+02  0.12312322891E+03  0.12696146656E+03  0.00000000000E+00 0.  1.
<scales pt_clust_5="13000.00000" pt_clust_6="13000.00000" pt_clust_7="13000.00000" pt_clust_8="13000.00000" pt_clust_9="30.98200"></scales>
<clustering>
<clus scale="   30.982">  1  9  2 -1</clus>
<clus scale="   90.882">  5  6 -1 -1</clus>
<clus scale="   90.937">  7  8 -1 -1</clus>
<clus scale="   96.475">  2  5  1 -1</clus>
<clus scale="   96.475">  2  5  1 -1</clus>
</clustering>
</event>
<event>
 9    1  0.1175034E-005  0.1011355E+03  0.7546771E-02  0.1278240E+00
          1   -1    0    0  502    0  0.00000000000E+00  0.00000000000E+00  0.71910063612E+03  0.71910063612E+03  0.00000000000E+00 0. -1.
         -1   -1    0    0    0  501 -0.00000000000E+00 -0.00000000000E+00 -0.28810690916E+02  0.28810690916E+02  0.00000000000E+00 0.  1.
         23    2    1    2    0    0  0.61442892384E+02  0.47518679749E+01  0.18090909159E+03  0.21166008428E+03  0.90961984283E+02 0.  0.
         23    2    1    2    0    0 -0.16119661313E+02  0.33696836729E+02  0.22612593599E+03  0.24682794285E+03  0.91628457145E+02 0.  0.
        -11    1    3    3    0    0  0.10392276629E+02 -0.20025472977E+02  0.53215659889E+00  0.22567724124E+02  0.00000000000E+00 0.  1.
         11    1    3    3    0    0  0.51050615755E+02  0.24777340952E+02  0.18037693499E+03  0.18909236016E+03  0.00000000000E+00 0. -1.
        -13    1    4    4    0    0 -0.21500438299E+02 -0.14749573294E+02  0.14857878951E+02  0.30009587241E+02  0.00000000000E+00 0.  1.
         13    1    4    4    0    0  0.53807769865E+01  0.48446410022E+02  0.21126805704E+03  0.21681835561E+03  0.00000000000E+00 0. -1.
         21    1    1    2  502  501 -0.45323231071E+02 -0.38448704704E+02  0.28325491762E+03  0.28942329990E+03  0.00000000000E+00 0.  1.
<scales pt_clust_5="13000.00000" pt_clust_6="13000.00000" pt_clust_7="13000.00000" pt_clust_8="13000.00000" pt_clust_9="59.43482"></scales>
<clustering>
<clus scale="   59.435">  1  9  2 -1</clus>
<clus scale="   90.962">  5  6 -1 -1</clus>
<clus scale="   91.628">  7  8 -1 -1</clus>
<clus scale="  100.532">  2  5  1 -1</clus>
<clus scale="   59.435">  1  5  2 -1</clus>
</clustering>
</event>
<event>
 9    1  0.1175034E-005  0.1868222E+03  0.7546771E-02  0.1190207E+00
          1   -1    0    0  502    0  0.00000000000E+00  0.00000000000E+00  0.12254315739E+04  0.12254315739E+04  0.00000000000E+00 0. -1.
         -1   -1    0    0    0  501 -0.00000000000E+00 -0.00000000000E+00 -0.41265287468E+02  0.41265287468E+02  0.00000000000E+00 0.  1.
         23    2    1    2    0    0  0.34494258602E+02 -0.15446446995E+02  0.24769774776E+03  0.26608837762E+03  0.89556707510E+02 0.  0.
         23    2    1    2    0    0 -0.68251336493E+02  0.16287460468E+03  0.59036366410E+03  0.62290067843E+03  0.91047336703E+02 0.  0.
        -11    1    3    3    0    0  0.35879632774E+02 -0.49193325853E+02  0.18651721153E+03  0.19620397946E+03  0.00000000000E+00 0.  1.
         11    1    3    3    0    0 -0.13853741719E+01  0.33746878858E+02  0.61180536222E+02  0.69884398164E+02  0.00000000000E+00 0. -1.
        -11    1    4    4    0    0 -0.13241800565E+02  0.58494057649E+02  0.35043419273E+03  0.35552921609E+03  0.00000000000E+00 0. -1.
         11    1    4    4    0    0 -0.55009535928E+02  0.10438054703E+03  0.23992947137E+03  0.26737146234E+03  0.00000000000E+00 0.  1.
         21    1    1    2  502  501  0.33757077891E+02 -0.14742815769E+03  0.34610487454E+03  0.37770780528E+03  0.00000000000E+00 0. -1.
<scales pt_clust_5="13000.00000" pt_clust_6="13000.00000" pt_clust_7="13000.00000" pt_clust_8="13000.00000" pt_clust_9="163.13471"></scales>
<clustering>
<clus scale="   89.557">  5  6 -1 -1</clus>
<clus scale="   91.047">  7  8 -1 -1</clus>
<clus scale="   97.205">  2  5  1 -1</clus>
<clus scale="  163.135">  2  9  1 -1</clus>
<clus scale="  186.822">  1  5  2 -1</clus>
</clustering>
</event>
<event>
 9    1  0.1175034E-005  0.9454028E+02  0.7546771E-02  0.1293779E+00
         -1   -1    0    0    0  501 -0.00000000000E+00  0.00000000000E+00  0.95621189928E+02  0.95621189928E+02  0.00000000000E+00 0.  1.
          1   -1    0    0  502    0  0.00000000000E+00 -0.00000000000E+00 -0.13307930896E+03  0.13307930896E+03  0.00000000000E+00 0. -1.
         23    2    1    2    0    0 -0.56877629147E+00  0.13027766803E+02  0.57112068234E+01  0.92888801933E+02  0.91791423493E+02 0.  0.
         23    2    1    2    0    0  0.32739810000E+01  0.82844030806E+01 -0.56556760079E+02  0.11049865461E+03  0.94508916375E+02 0.  0.
        -13    1    4    4    0    0  0.17668975978E+02 -0.39651436359E+02 -0.35983276387E+02  0.56384619330E+02  0.00000000000E+00 0. -1.
         13    1    4    4    0    0 -0.14394994978E+02  0.47935839440E+02 -0.20573483692E+02  0.54114035281E+02  0.00000000000E+00 0.  1.
        -13    1    3    3    0    0 -0.29541177641E+02  0.20715630892E+02  0.35508747385E+02  0.50623015324E+02  0.00000000000E+00 0.  1.
         13    1    3    3    0    0  0.28972401349E+02 -0.76878640891E+01 -0.29797540561E+02  0.42265786609E+02  0.00000000000E+00 0. -1.
         21    1    1    2  502  501 -0.27052047085E+01 -0.21312169884E+02  0.13387434223E+02  0.25313042345E+02  0.00000000000E+00 0. -1.
<scales pt_clust_5="13000.00000" pt_clust_6="13000.00000" pt_clust_7="13000.00000" pt_clust_8="13000.00000" pt_clust_9="21.48317"></scales>
<clustering>
<clus scale="   21.483">  1  9  2 -1</clus>
<clus scale="   91.791">  7  8 -1 -1</clus>
<clus scale="   91.824">  1  7  2 -1</clus>
<clus scale="   94.509">  5  6 -1 -1</clus>
<clus scale="   94.540">  2  5  1 -1</clus>
</clustering>
</event>
<event>
 9    1  0.1175034E-005  0.1166812E+03  0.7546771E-02  0.1249135E+00
          3   -1    0    0  502    0  0.00000000000E+00  0.00000000000E+00  0.22826916598E+03  0.22826916598E+03  0.00000000000E+00 0. -1.
         -3   -1    0    0    0  501 -0.00000000000E+00 -0.00000000000E+00 -0.19543707211E+03  0.19543707211E+03  0.00000000000E+00 0.  1.
         23    2    1    2    0    0  0.31367567002E+02 -0.79125263913E+01 -0.34187765944E+02  0.10472696446E+03  0.93554269877E+02 0.  0.
         23    2    1    2    0    0 -0.74411525733E+02  0.24175666087E+02  0.16788999735E+03  0.20810972532E+03  0.94873961482E+02 0.  0.
        -11    1    3    3    0    0  0.37649566634E+01  0.41797433406E+02 -0.11551670353E+02  0.43527478975E+02  0.00000000000E+00 0.  1.
         11    1    3    3    0    0  0.27602610338E+02 -0.49709959797E+02 -0.22636095591E+02  0.61199485489E+02  0.00000000000E+00 0. -1.
        -11    1    4    4    0    0 -0.51522611832E+02 -0.23952744524E+02  0.13240967476E+03  0.14408551444E+03  0.00000000000E+00 0. -1.
         11    1    4    4    0    0 -0.22888913901E+02  0.48128410611E+02  0.35480322592E+02  0.64024210880E+02  0.00000000000E+00 0.  1.
         21    1    1    2  502  501  0.43043958731E+02 -0.16263139696E+02 -0.10087013754E+03  0.11086954832E+03  0.00000000000E+00 0. -1.
<scales pt_clust_5="13000.00000" pt_clust_6="13000.00000" pt_clust_7="13000.00000" pt_clust_8="13000.00000" pt_clust_9="46.01383"></scales>
<clustering>
<clus scale="   46.014">  2  9  1 -1</clus>
<clus scale="   93.554">  5  6 -1 -1</clus>
<clus scale="   94.874">  7  8 -1 -1</clus>
<clus scale="  115.611">  2  5  1 -1</clus>
<clus scale="  116.681">  1  5  2 -1</clus>
</clustering>
</event>
<event>
 9    1  0.1175034E-005  0.9834230E+02  0.7546771E-02  0.1285329E+00
         -1   -1    0    0    0  501 -0.00000000000E+00  0.00000000000E+00  0.57534280768E+02  0.57534280768E+02  0.00000000000E+00 0.  1.
          1   -1    0    0  502    0  0.00000000000E+00 -0.00000000000E+00 -0.34425909217E+03  0.34425909217E+03  0.00000000000E+00 0. -1.
         23    2    1    2    0    0 -0.35920071938E+02  0.73888164760E+01 -0.71102167296E+02  0.12173273307E+03  0.91752351079E+02 0.  0.
         23    2    1    2    0    0  0.14723395230E+02  0.26744804632E+02 -0.21821264264E+03  0.23979761358E+03  0.94625974930E+02 0.  0.
        -11    1    3    3    0    0 -0.73317545154E-01 -0.26651215586E+02  0.85484723362E+01  0.27988730713E+02  0.00000000000E+00 0.  1.
         11    1    3    3    0    0 -0.35846754393E+02  0.34040032062E+02 -0.79650639632E+02  0.93744002352E+02  0.00000000000E+00 0. -1.
        -13    1    4    4    0    0  0.58663070749E+01 -0.34058191598E+02 -0.11065536454E+03  0.11592663057E+03  0.00000000000E+00 0.  1.
         13    1    4    4    0    0  0.88570881548E+01  0.60802996230E+02 -0.10755727810E+03  0.12387098301E+03  0.00000000000E+00 0. -1.
         21    1    1    2  502  501  0.21196676708E+02 -0.34133621108E+02  0.25899985326E+01  0.40263026287E+02  0.00000000000E+00 0.  1.
<scales pt_clust_5="13000.00000" pt_clust_6="13000.00000" pt_clust_7="13000.00000" pt_clust_8="13000.00000" pt_clust_9="40.17964"></scales>
<clustering>
<clus scale="   40.180">  1  9  2 -1</clus>
<clus scale="   91.752">  5  6 -1 -1</clus>
<clus scale="   94.626">  7  8 -1 -1</clus>
<clus scale="   95.580">  1  5  2 -1</clus>
<clus scale="   98.342">  2  5  1 -1</clus>
</clustering>
</event>
<event>
 9    1  0.1175034E-005  0.1102973E+03  0.7546771E-02  0.1260025E+00
         -2   -1    0    0    0  501 -0.00000000000E+00  0.00000000000E+00  0.72470662863E+02  0.72470662863E+02  0.00000000000E+00 0.  1.
          2   -1    0    0  502    0  0.00000000000E+00 -0.00000000000E+00 -0.28301279028E+03  0.28301279028E+03  0.00000000000E+00 0. -1.
         23    2    1    2    0    0 -0.52693751402E+02 -0.32216110853E+02 -0.37355859709E+02  0.11585793228E+03  0.90626105418E+02 0.  0.
         23    2    1    2    0    0  0.63062218210E+02  0.12799783309E+02 -0.18410131364E+03  0.21505649348E+03  0.90638423893E+02 0.  0.
        -11    1    3    3    0    0 -0.43090988756E+02 -0.63236154454E+02 -0.32014309948E+02  0.82949144562E+02  0.00000000000E+00 0.  1.
         11    1    3    3    0    0 -0.96027626458E+01  0.31020043601E+02 -0.53415497610E+01  0.32908787722E+02  0.00000000000E+00 0. -1.
        -11    1    4    4    0    0  0.47445068135E+02  0.45269337380E+02 -0.15645365833E+03  0.16964107581E+03  0.00000000000E+00 0. -1.
         11    1    4    4    0    0  0.15617150076E+02 -0.32469554071E+02 -0.27647655309E+02  0.45415417670E+02  0.00000000000E+00 0.  1.
         21    1    1    2  502  501 -0.10368466808E+02  0.19416327544E+02  0.10915045923E+02  0.24569027387E+02  0.00000000000E+00 0. -1.
<scales pt_clust_5="13000.00000" pt_clust_6="13000.00000" pt_clust_7="13000.00000" pt_clust_8="13000.00000" pt_clust_9="22.01134"></scales>
<clustering>
<clus scale="   22.011">  1  9  2 -1</clus>
<clus scale="   90.626">  5  6 -1 -1</clus>
<clus scale="   90.638">  7  8 -1 -1</clus>
<clus scale="  110.287">  1  5  2 -1</clus>
<clus scale="  110.297">  2  5  1 -1</clus>
</clustering>
</event>
<event>
 9    1  0.1175034E-005  0.1040715E+03  0.7546771E-02  0.1272102E+00
         -2   -1    0    0    0  501 -0.00000000000E+00  0.00000000000E+00  0.38040578852E+02  0.38040578852E+02  0.00000000000E+00 0.  1.
          2   -1    0    0  502    0  0.00000000000E+00 -0.00000000000E+00 -0.55851609270E+03  0.55851609270E+03  0.00000000000E+00 0. -1.
         23    2    1    2    0    0  0.26571100665E+02 -0.45605798517E+02 -0.11896501692E+03  0.15968498471E+03  0.92524087905E+02 0.  0.
         23    2    1    2    0    0 -0.41530185490E+02  0.23498722303E+02 -0.39630245164E+03  0.40967571704E+03  0.92204195670E+02 0.  0.
        -13    1    4    4    0    0  0.29406519329E+02  0.13581591665E+01 -0.11936086639E+03  0.12293740033E+03  0.00000000000E+00 0.  1.
         13    1    4    4    0    0 -0.70936704819E+02  0.22140563137E+02 -0.27694158525E+03  0.28673831670E+03  0.00000000000E+00 0. -1.
        -13    1    3    3    0    0  0.52326227147E+02 -0.49236494710E+02 -0.11146600102E+03  0.13261574508E+03  0.00000000000E+00 0.  1.
         13    1    3    3    0    0 -0.25755126482E+02  0.36306961926E+01 -0.74990159005E+01  0.27069239635E+02  0.00000000000E+00 0. -1.
         21    1    1    2  502  501  0.14959084825E+02  0.22107076214E+02 -0.52080452845E+01  0.27195969797E+02  0.00000000000E+00 0.  1.
<scales pt_clust_5="13000.00000" pt_clust_6="13000.00000" pt_clust_7="13000.00000" pt_clust_8="13000.00000" pt_clust_9="26.69264"></scales>
<clustering>
<clus scale="   26.693">  1  9  2 -1</clus>
<clus scale="   92.204">  5  6 -1 -1</clus>
<clus scale="   92.524">  7  8 -1 -1</clus>
<clus scale="  103.787">  2  5  1 -1</clus>
<clus scale="  103.787">  2  5  1 -1</clus>
</clustering>
</event>
<event>
 9    1  0.1175034E-005  0.1281827E+03  0.7546771E-02  0.1230646E+00
         -1   -1    0    0    0  501 -0.00000000000E+00  0.00000000000E+00  0.71360294628E+02  0.71360294628E+02  0.00000000000E+00 0.  1.
          1   -1    0    0  502    0  0.00000000000E+00 -0.00000000000E+00 -0.54889336133E+03  0.54889336133E+03  0.00000000000E+00 0. -1.
         23    2    1    2    0    0  0.36214576752E+02 -0.30592945959E+02 -0.16867163137E+02  0.10545755583E+03  0.92678859389E+02 0.  0.
         23    2    1    2    0    0 -0.30869871763E+02  0.95311522364E+02 -0.41197403847E+03  0.43362986497E+03  0.90967115725E+02 0.  0.
        -11    1    4    4    0    0 -0.53715566826E+02  0.98356732226E+02 -0.33227530637E+03  0.35066549319E+03  0.00000000000E+00 0. -1.
         11    1    4    4    0    0  0.22845695062E+02 -0.30452098627E+01 -0.79698732101E+02  0.82964371778E+02  0.00000000000E+00 0.  1.
        -13    1    3    3    0    0 -0.95469452271E+00  0.24658348101E+02  0.17758945079E+02  0.30402725256E+02  0.00000000000E+00 0. -1.
         13    1    3    3    0    0  0.37169271275E+02 -0.55251294059E+02 -0.34626108217E+02  0.75054830574E+02  0.00000000000E+00 0.  1.
         21    1    1    2  502  501 -0.53447049889E+01 -0.64718576405E+02 -0.48691865097E+02  0.81166235159E+02  0.00000000000E+00 0. -1.
<scales pt_clust_5="13000.00000" pt_clust_6="13000.00000" pt_clust_7="13000.00000" pt_clust_8="13000.00000" pt_clust_9="64.93889"></scales>
<clustering>
<clus scale="   64.939">  1  9  2 -1</clus>
<clus scale="   90.967">  5  6 -1 -1</clus>
<clus scale="   92.679">  7  8 -1 -1</clus>
<clus scale="  126.951">  2  5  1 -1</clus>
<clus scale="  126.951">  2  5  1 -1</clus>
</clustering>
</event>
<event>
 9    1  0.1240591E-005  0.1395185E+03  0.7546771E-02  0.1220028E+00
          2   -1    0    0  502    0  0.00000000000E+00  0.00000000000E+00  0.49979381971E+03  0.49979381971E+03  0.00000000000E+00 0. -1.
         -2   -1    0    0    0  501 -0.00000000000E+00 -0.00000000000E+00 -0.19875878773E+03  0.19875878773E+03  0.00000000000E+00 0.  1.
         23    2    1    2    0    0  0.73159354037E+02 -0.47225501996E+02 -0.92693316070E+02  0.16860894629E+03  0.11069953389E+03 0.  0.
         23    2    1    2    0    0 -0.46347889505E+02  0.71536573473E+02  0.44807099931E+03  0.46465195744E+03  0.88702947653E+02 0.  0.
        -11    1    3    3    0    0 -0.17844422435E+02 -0.32213867471E+02 -0.60674572445E+02  0.70975773409E+02  0.00000000000E+00 0.  1.
         11    1    3    3    0    0  0.91003776472E+02 -0.15011634525E+02 -0.32018743625E+02  0.97633172880E+02  0.00000000000E+00 0. -1.
        -13    1    4    4    0    0 -0.69736717506E+02  0.63828933284E+02  0.29987655104E+03  0.31442533033E+03  0.00000000000E+00 0.  1.
         13    1    4    4    0    0  0.23388828001E+02  0.77076401898E+01  0.14819444828E+03  0.15022662711E+03  0.00000000000E+00 0. -1.
         21    1    1    2  502  501 -0.26811464531E+02 -0.24311071477E+02 -0.54342651268E+02  0.65291703711E+02  0.00000000000E+00 0.  1.
<scales pt_clust_5="13000.00000" pt_clust_6="13000.00000" pt_clust_7="13000.00000" pt_clust_8="13000.00000" pt_clust_9="36.19230"></scales>
<clustering>
<clus scale="   36.192">  2  9  1 -1</clus>
<clus scale="   88.703">  7  8 -1 -1</clus>
<clus scale="  110.700">  5  6 -1 -1</clus>
<clus scale="  122.798">  1  7  2 -1</clus>
<clus scale="  122.798">  1  5  2 -1</clus>
</clustering>
</event>
<event>
 9    1  0.1175034E-005  0.1815947E+03  0.7546771E-02  0.1166488E+00
          1   -1    0    0  502    0  0.00000000000E+00  0.00000000000E+00  0.84275051731E+02  0.84275051731E+02  0.00000000000E+00 0. -1.
         -1   -1    0    0    0  501 -0.00000000000E+00 -0.00000000000E+00 -0.68056725290E+03  0.68056725290E+03  0.00000000000E+00 0.  1.
         23    2    1    2    0    0  0.14024161903E+03  0.34413870081E+02 -0.37315015003E+03  0.41026897649E+03  0.90705966947E+02 0.  0.
         23    2    1    2    0    0 -0.16343751241E+03  0.41058491106E+02 -0.12185155653E+03  0.22614478353E+03  0.88859671019E+02 0.  0.
        -13    1    3    3    0    0  0.13807028160E+03  0.81032873840E+01 -0.34492693018E+03  0.37162299860E+03  0.00000000000E+00 0.  1.
         13    1    3    3    0    0  0.21713374339E+01  0.26310582697E+02 -0.28223219846E+02  0.38645977883E+02  0.00000000000E+00 0. -1.
        -13    1    4    4    0    0 -0.23509978885E+02  0.39586354943E+02 -0.52945444837E+02  0.70164226881E+02  0.00000000000E+00 0.  1.
         13    1    4    4    0    0 -0.13992753353E+03  0.14721361639E+01 -0.68906111692E+02  0.15598055665E+03  0.00000000000E+00 0. -1.
         21    1    1    2  502  501  0.23195893376E+02 -0.75472361187E+02 -0.10129049461E+03  0.12842854461E+03  0.00000000000E+00 0.  1.
<scales pt_clust_5="13000.00000" pt_clust_6="13000.00000" pt_clust_7="13000.00000" pt_clust_8="13000.00000" pt_clust_9="78.95649"></scales>
<clustering>
<clus scale="   78.956">  2  9  1 -1</clus>
<clus scale="   88.860">  7  8 -1 -1</clus>
<clus scale="   90.706">  5  6 -1 -1</clus>
<clus scale="  180.680">  1  7  2 -1</clus>
<clus scale="  180.680">  1  5  2 -1</clus>
</clustering>
</event>
<event>
 9    1  0.1175034E-005  0.9647951E+02  0.7546771E-02  0.1292362E+00
          1   -1    0    0  502    0  0.00000000000E+00  0.00000000000E+00  0.13346732626E+03  0.13346732626E+03  0.00000000000E+00 0. -1.
         -1   -1    0    0    0  501 -0.00000000000E+00 -0.00000000000E+00 -0.27787839763E+03  0.27787839763E+03  0.00000000000E+00 0.  1.
         23    2    1    2    0    0  0.64189123531E+02 -0.40278391651E+02 -0.47078244495E+02  0.12684997801E+03  0.90177399625E+02 0.  0.
         23    2    1    2    0    0 -0.19455429826E+02  0.15131016178E+02  0.69379779811E+02  0.11006356113E+03  0.81810587586E+02 0.  0.
        -11    1    3    3    0    0  0.68742283824E+02  0.45285422613E+01 -0.12376973869E+02  0.69994276641E+02  0.00000000000E+00 0. -1.
         11    1    3    3    0    0 -0.45531602927E+01 -0.44806933912E+02 -0.34701270627E+02  0.56855701371E+02  0.00000000000E+00 0.  1.
        -13    1    4    4    0    0  0.28512583667E+02 -0.72235978476E+01  0.11352844228E+02  0.31528318466E+02  0.00000000000E+00 0.  1.
         13    1    4    4    0    0 -0.47968013493E+02  0.22354614026E+02  0.58026935583E+02  0.78535242662E+02  0.00000000000E+00 0. -1.
         21    1    1    2  502  501 -0.44733693705E+02  0.25147375473E+02 -0.16671260669E+03  0.17443218474E+03  0.00000000000E+00 0.  1.
<scales pt_clust_5="13000.00000" pt_clust_6="13000.00000" pt_clust_7="13000.00000" pt_clust_8="13000.00000" pt_clust_9="51.31758"></scales>
<clustering>
<clus scale="   51.318">  2  9  1 -1</clus>
<clus scale="   81.811">  7  8 -1 -1</clus>
<clus scale="   88.709">  1  7  2 -1</clus>
<clus scale="   90.177">  5  6 -1 -1</clus>
<clus scale="   88.709">  1  5  2 -1</clus>
</clustering>
</event>
<event>
 9    1  0.1175034E-005  0.1130753E+03  0.7546771E-02  0.1255643E+00
         -1   -1    0    0    0  501 -0.00000000000E+00  0.00000000000E+00  0.10061716662E+03  0.10061716662E+03  0.00000000000E+00 0.  1.
          1   -1    0    0  502    0  0.00000000000E+00 -0.00000000000E+00 -0.40517458289E+03  0.40517458289E+03  0.00000000000E+00 0. -1.
         23    2    1    2    0    0 -0.32108948896E+02  0.51679355967E+02  0.34300677037E+02  0.11713048804E+03  0.94028050872E+02 0.  0.
         23    2    1    2    0    0  0.35495152679E+01 -0.63745450754E+02 -0.33959887571E+03  0.35764867288E+03  0.92244757463E+02 0.  0.
        -13    1    4    4    0    0 -0.12574980017E+02  0.19876984394E+02 -0.11643990286E+03  0.11879173207E+03  0.00000000000E+00 0.  1.
         13    1    4    4    0    0  0.16124495285E+02 -0.83622435148E+02 -0.22315897285E+03  0.23885694081E+03  0.00000000000E+00 0. -1.
        -13    1    3    3    0    0  0.15993196767E+02  0.36492432046E+02  0.50339602592E+02  0.64199342119E+02  0.00000000000E+00 0.  1.
         13    1    3    3    0    0 -0.48102145662E+02  0.15186923922E+02 -0.16038925555E+02  0.52931145921E+02  0.00000000000E+00 0. -1.
         21    1    1    2  502  501  0.28559433628E+02  0.12066094786E+02  0.74078239440E+00  0.31012588591E+02  0.00000000000E+00 0. -1.
<scales pt_clust_5="13000.00000" pt_clust_6="13000.00000" pt_clust_7="13000.00000" pt_clust_8="13000.00000" pt_clust_9="31.00374"></scales>
<clustering>
<clus scale="   31.004">  1  9  2 -1</clus>
<clus scale="   92.245">  5  6 -1 -1</clus>
<clus scale="   94.028">  7  8 -1 -1</clus>
<clus scale="  111.597">  2  5  1 -1</clus>
<clus scale="  111.597">  2  5  1 -1</clus>
</clustering>
</event>
<event>
 9    1  0.1175034E-005  0.1052237E+03  0.7546771E-02  0.1273498E+00
          3   -1    0    0  502    0  0.00000000000E+00  0.00000000000E+00  0.60811992742E+02  0.60811992742E+02  0.00000000000E+00 0. -1.
         -3   -1    0    0    0  501 -0.00000000000E+00 -0.00000000000E+00 -0.40747380291E+03  0.40747380291E+03  0.00000000000E+00 0.  1.
         23    2    1    2    0    0  0.25670882172E+02  0.64045601077E+01 -0.30747556347E+03  0.32041507550E+03  0.86166036767E+02 0.  0.
         23    2    1    2    0    0 -0.49520209609E+02 -0.48587183995E+01 -0.60580674277E+01  0.10702153035E+03  0.94557122807E+02 0.  0.
        -11    1    3    3    0    0  0.17946861292E+01 -0.31943392971E+02 -0.52589631378E+02  0.61557051434E+02  0.00000000000E+00 0. -1.
         11    1    3    3    0    0  0.23876196042E+02  0.38347953078E+02 -0.25488593209E+03  0.25885802406E+03  0.00000000000E+00 0.  1.
        -11    1    4    4    0    0  0.57054981433E+01  0.33976527165E+02  0.13074238116E+02  0.36849597143E+02  0.00000000000E+00 0.  1.
         11    1    4    4    0    0 -0.55225707753E+02 -0.38835245565E+02 -0.19132305544E+02  0.70171933209E+02  0.00000000000E+00 0. -1.
         21    1    1    2  502  501  0.23849327438E+02 -0.15458417082E+01 -0.33128179267E+02  0.40849189800E+02  0.00000000000E+00 0.  1.
<scales pt_clust_5="13000.00000" pt_clust_6="13000.00000" pt_clust_7="13000.00000" pt_clust_8="13000.00000" pt_clust_9="23.89937"></scales>
<clustering>
<clus scale="   23.899">  2  9  1 -1</clus>
<clus scale="   86.166">  5  6 -1 -1</clus>
<clus scale="   94.557">  7  8 -1 -1</clus>
<clus scale="   97.753">  2  5  1 -1</clus>
<clus scale="  105.224">  1  5  2 -1</clus>
</clustering>
</event>
<event>
 9    1  0.1175034E-005  0.1020313E+03  0.7546771E-02  0.1277468E+00
         -2   -1    0    0    0  501 -0.00000000000E+00  0.00000000000E+00  0.24283742388E+03  0.24283742388E+03  0.00000000000E+00 0.  1.
          2   -1    0    0  502    0  0.00000000000E+00 -0.00000000000E+00 -0.85422251850E+02  0.85422251850E+02  0.00000000000E+00 0. -1.
         23    2    1    2    0    0  0.29203583273E+02 -0.53561325664E+02  0.88369512716E+02  0.14289179756E+03  0.94272106951E+02 0.  0.
         23    2    1    2    0    0 -0.28633146441E+02 -0.82586729427E+01  0.13854525038E+02  0.10249388389E+03  0.97082365116E+02 0.  0.
        -13    1    4    4    0    0  0.30912791247E+02  0.17728254601E+02 -0.17435739937E+01  0.35678168733E+02  0.00000000000E+00 0.  1.
         13    1    4    4    0    0 -0.59545937688E+02 -0.25986927544E+02  0.15598099031E+02  0.66815715155E+02  0.00000000000E+00 0. -1.
        -13    1    3    3    0    0  0.58489687375E+02 -0.53919281977E+02  0.79070514124E+02  0.11216273312E+03  0.00000000000E+00 0.  1.
         13    1    3    3    0    0 -0.29286104102E+02  0.35795631323E+00  0.92989985911E+01  0.30729064434E+02  0.00000000000E+00 0. -1.
         21    1    1    2  502  501 -0.57043683231E+00  0.61819998607E+02  0.55191134279E+02  0.82873994286E+02  0.00000000000E+00 0.  1.
<scales pt_clust_5="13000.00000" pt_clust_6="13000.00000" pt_clust_7="13000.00000" pt_clust_8="13000.00000" pt_clust_9="61.82263"></scales>
<clustering>
<clus scale="   61.823">  1  9  2 -1</clus>
<clus scale="   94.272">  7  8 -1 -1</clus>
<clus scale="   97.082">  5  6 -1 -1</clus>
<clus scale="   99.361">  1  7  2 -1</clus>
<clus scale="  102.031">  2  5  1 -1</clus>
</clustering>
</event>
<event>
 9    1  0.1175034E-005  0.1563909E+03  0.7546771E-02  0.1193547E+00
          1   -1    0    0  502    0  0.00000000000E+00  0.00000000000E+00  0.35899630944E+03  0.35899630944E+03  0.00000000000E+00 0. -1.
         -1   -1    0    0    0  501 -0.00000000000E+00 -0.00000000000E+00 -0.13743298353E+03  0.13743298353E+03  0.00000000000E+00 0.  1.
         23    2    1    2    0    0  0.10332724937E+03 -0.76108649432E+02 -0.18655864751E+02  0.15782565096E+03  0.89954698768E+02 0.  0.
         23    2    1    2    0    0 -0.71992860363E+02  0.10748263596E+03  0.24901923234E+03  0.29339731835E+03  0.85649981677E+02 0.  0.
        -13    1    3    3    0    0  0.54387639412E+02 -0.50600191871E+02 -0.54398487779E+02  0.92073830217E+02  0.00000000000E+00 0.  1.
         13    1    3    3    0    0  0.48939609961E+02 -0.25508457560E+02  0.35742623028E+02  0.65751820744E+02  0.00000000000E+00 0. -1.
        -13    1    4    4    0    0 -0.82331598285E+02  0.82623158627E+02  0.23651264951E+03  0.26371065924E+03  0.00000000000E+00 0. -1.
         13    1    4    4    0    0  0.10338737922E+02  0.24859477332E+02  0.12506582836E+02  0.29686659112E+02  0.00000000000E+00 0.  1.
         21    1    1    2  502  501 -0.31334389010E+02 -0.31373986527E+02 -0.88000416837E+01  0.45206323660E+02  0.00000000000E+00 0. -1.
<scales pt_clust_5="13000.00000" pt_clust_6="13000.00000" pt_clust_7="13000.00000" pt_clust_8="13000.00000" pt_clust_9="44.34153"></scales>
<clustering>
<clus scale="   44.342">  2  9  1 -1</clus>
<clus scale="   85.650">  7  8 -1 -1</clus>
<clus scale="   89.955">  5  6 -1 -1</clus>
<clus scale="  153.955">  1  7  2 -1</clus>
<clus scale="  153.955">  1  5  2 -1</clus>
</clustering>
</event>
<event>
 9    1  0.1175034E-005  0.9937785E+02  0.7546771E-02  0.1282117E+00
         -1   -1    0    0    0  501 -0.00000000000E+00  0.00000000000E+00  0.17033237461E+03  0.17033237461E+03  0.00000000000E+00 0.  1.
          1   -1    0    0  502    0  0.00000000000E+00 -0.00000000000E+00 -0.10092639254E+03  0.10092639254E+03  0.00000000000E+00 0. -1.
         23    2    1    2    0    0  0.51709842594E+02 -0.14896747110E+02  0.26163966632E+02  0.11043348507E+03  0.92817997061E+02 0.  0.
         23    2    1    2    0    0 -0.22389293854E+02  0.10446344059E+02 -0.14258397557E+02  0.96127537461E+02  0.91797576078E+02 0.  0.
        -11    1    4    4    0    0  0.32997150092E+02 -0.95832401407E+01  0.36859355025E+01  0.34557727447E+02  0.00000000000E+00 0. -1.
         11    1    4    4    0    0 -0.55386443946E+02  0.20029584199E+02 -0.17944333059E+02  0.61569810014E+02  0.00000000000E+00 0.  1.
        -11    1    3    3    0    0  0.69996494198E+01 -0.27307776046E+02  0.50651195774E+02  0.57967692363E+02  0.00000000000E+00 0.  1.
         11    1    3    3    0    0  0.44710193175E+02  0.12411028936E+02 -0.24487229142E+02  0.52465792703E+02  0.00000000000E+00 0. -1.
         21    1    1    2  502  501 -0.29320548740E+02  0.44504030510E+01  0.57500412992E+02  0.64697744629E+02  0.00000000000E+00 0. -1.
<scales pt_clust_5="13000.00000" pt_clust_6="13000.00000" pt_clust_7="13000.00000" pt_clust_8="13000.00000" pt_clust_9="29.65638"></scales>
<clustering>
<clus scale="   29.656">  1  9  2 -1</clus>
<clus scale="   91.798">  5  6 -1 -1</clus>
<clus scale="   92.818">  7  8 -1 -1</clus>
<clus scale="   98.425">  2  5  1 -1</clus>
<clus scale="   98.425">  2  5  1 -1</clus>
</clustering>
</event>
<event>
 9    1  0.1175034E-005  0.1245962E+03  0.7546771E-02  0.1236519E+00
         -1   -1    0    0    0  501 -0.00000000000E+00  0.00000000000E+00  0.80827237235E+02  0.80827237235E+02  0.00000000000E+00 0.  1.
          1   -1    0    0  502    0  0.00000000000E+00 -0.00000000000E+00 -0.10227371999E+04  0.10227371999E+04  0.00000000000E+00 0. -1.
         23    2    1    2    0    0  0.10658899563E+03  0.27077156255E+02 -0.55190060125E+03  0.56974580554E+03  0.89003499317E+02 0.  0.
         23    2    1    2    0    0 -0.50813923120E+02 -0.44512993023E+02 -0.44147146705E+03  0.45595197990E+03  0.91824236566E+02 0.  0.
        -11    1    4    4    0    0 -0.45719405713E+01 -0.63507613353E+02 -0.22985849164E+03  0.23851424648E+03  0.00000000000E+00 0. -1.
         11    1    4    4    0    0 -0.46241982549E+02  0.18994620331E+02 -0.21161297541E+03  0.21743773342E+03  0.00000000000E+00 0.  1.
        -11    1    3    3    0    0  0.28485343896E+02 -0.22496699584E+02 -0.67991451404E+02  0.77073690537E+02  0.00000000000E+00 0.  1.
         11    1    3    3    0    0  0.78103651736E+02  0.49573855839E+02 -0.48390914985E+03  0.49267211501E+03  0.00000000000E+00 0. -1.
         21    1    1    2  502  501 -0.55775072512E+02  0.17435836768E+02  0.51462105685E+02  0.77866651649E+02  0.00000000000E+00 0.  1.
<scales pt_clust_5="13000.00000" pt_clust_6="13000.00000" pt_clust_7="13000.00000" pt_clust_8="13000.00000" pt_clust_9="58.43686"></scales>
<clustering>
<clus scale="   58.437">  1  9  2 -1</clus>
<clus scale="   89.003">  7  8 -1 -1</clus>
<clus scale="   91.824">  5  6 -1 -1</clus>
<clus scale="  122.532">  1  7  2 -1</clus>
<clus scale="  124.596">  2  5  1 -1</clus>
</clustering>
</event>
<event>
 9    1  0.1175034E-005  0.1070347E+03  0.7546771E-02  0.1266671E+00
          3   -1    0    0  502    0  0.00000000000E+00  0.00000000000E+00  0.19558655691E+03  0.19558655691E+03  0.00000000000E+00 0. -1.
         -3   -1    0    0    0  501 -0.00000000000E+00 -0.00000000000E+00 -0.15695205206E+03  0.15695205206E+03  0.00000000000E+00 0.  1.
         23    2    1    2    0    0 -0.24183994381E+02 -0.30752049807E+02 -0.56394535673E+02  0.11537376242E+03  0.92737302358E+02 0.  0.
         23    2    1    2    0    0  0.23659158367E+02  0.51393796702E+02  0.14646597320E+03  0.18173818140E+03  0.91517250624E+02 0.  0.
        -11    1    3    3    0    0 -0.24860588109E+02 -0.60805280861E+02 -0.21065096424E+02  0.68986008068E+02  0.00000000000E+00 0.  1.
         11    1    3    3    0    0  0.67659372786E+00  0.30053231054E+02 -0.35329439248E+02  0.46387754348E+02  0.00000000000E+00 0. -1.
        -11    1    4    4    0    0 -0.11112002803E+02 -0.22934414495E+02  0.32381536535E+02  0.41207133884E+02  0.00000000000E+00 0.  1.
         11    1    4    4    0    0  0.34771161171E+02  0.74328211197E+02  0.11408443666E+03  0.14053104752E+03  0.00000000000E+00 0. -1.
         21    1    1    2  502  501  0.52483601351E+00 -0.20641746894E+02 -0.51436932675E+02  0.55426665159E+02  0.00000000000E+00 0.  1.
<scales pt_clust_5="13000.00000" pt_clust_6="13000.00000" pt_clust_7="13000.00000" pt_clust_8="13000.00000" pt_clust_9="20.64842"></scales>
<clustering>
<clus scale="   20.648">  2  9  1 -1</clus>
<clus scale="   91.517">  7  8 -1 -1</clus>
<clus scale="   92.737">  5  6 -1 -1</clus>
<clus scale="  105.979">  1  7  2 -1</clus>
<clus scale="  105.979">  1  5  2 -1</clus>
</clustering>
</event>
<event>
 9    1  0.1175034E-005  0.1070067E+03  0.7546771E-02  0.1267750E+00
         -1   -1    0    0    0  501 -0.00000000000E+00  0.00000000000E+00  0.15097569609E+03  0.15097569609E+03  0.00000000000E+00 0.  1.
          1   -1    0    0  502    0  0.00000000000E+00 -0.00000000000E+00 -0.15899604907E+03  0.15899604907E+03  0.00000000000E+00 0. -1.
         23    2    1    2    0    0 -0.17752869385E+02  0.14925315926E+02  0.89427230416E+02  0.13135424356E+03  0.93374398715E+02 0.  0.
         23    2    1    2    0    0  0.21580259744E+02 -0.46018487908E+02 -0.98604459087E+02  0.14726829711E+03  0.96859192347E+02 0.  0.
        -11    1    3    3    0    0  0.32608104864E+02  0.25047862647E+01  0.62001566433E+01  0.33286700038E+02  0.00000000000E+00 0. -1.
         11    1    3    3    0    0 -0.50360974248E+02  0.12420529661E+02  0.83227073772E+02  0.98067543525E+02  0.00000000000E+00 0.  1.
        -13    1    4    4    0    0  0.55460513982E+02 -0.49786042440E+01 -0.43493033559E+02  0.70656203404E+02  0.00000000000E+00 0. -1.
         13    1    4    4    0    0 -0.33880254238E+02 -0.41039883664E+02 -0.55111425528E+02  0.76612093707E+02  0.00000000000E+00 0.  1.
         21    1    1    2  502  501 -0.38273903597E+01  0.31093171983E+02  0.11568756940E+01  0.31349204492E+02  0.00000000000E+00 0.  1.
<scales pt_clust_5="13000.00000" pt_clust_6="13000.00000" pt_clust_7="13000.00000" pt_clust_8="13000.00000" pt_clust_9="31.32785"></scales>
<clustering>
<clus scale="   31.328">  1  9  2 -1</clus>
<clus scale="   93.374">  5  6 -1 -1</clus>
<clus scale="   96.859">  7  8 -1 -1</clus>
<clus scale="  103.863">  1  5  2 -1</clus>
<clus scale="  107.007">  2  5  1 -1</clus>
</clustering>
</event>
<event>
 9    1  0.1175034E-005  0.1642760E+03  0.7546771E-02  0.1185710E+00
         -2   -1    0    0    0  501 -0.00000000000E+00  0.00000000000E+00  0.15023524902E+03  0.15023524902E+03  0.00000000000E+00 0.  1.
          2   -1    0    0  502    0  0.00000000000E+00 -0.00000000000E+00 -0.24402612943E+03  0.24402612943E+03  0.00000000000E+00 0. -1.
         23    2    1    2    0    0 -0.83071991839E+02 -0.62726309894E+02 -0.14814787115E+02  0.13981015378E+03  0.92151263696E+02 0.  0.
         23    2    1    2    0    0  0.10315170459E+03  0.11468301347E+03 -0.69961202415E+02  0.19802461597E+03  0.10259976095E+03 0.  0.
        -13    1    4    4    0    0  0.68049010857E+01  0.22748200666E+02  0.24988032565E+02  0.34470118708E+02  0.00000000000E+00 0.  1.
         13    1    4    4    0    0  0.96346803507E+02  0.91934812807E+02 -0.94949234980E+02  0.16355449726E+03  0.00000000000E+00 0. -1.
        -13    1    3    3    0    0 -0.77517679277E+02 -0.83370358570E+02 -0.24328156782E+02  0.11641076626E+03  0.00000000000E+00 0.  1.
         13    1    3    3    0    0 -0.55543125621E+01  0.20644048676E+02  0.95133696664E+01  0.23399387517E+02  0.00000000000E+00 0. -1.
         21    1    1    2  502  501 -0.20079712754E+02 -0.51956703579E+02 -0.90148908804E+01  0.56426608694E+02  0.00000000000E+00 0.  1.
<scales pt_clust_5="13000.00000" pt_clust_6="13000.00000" pt_clust_7="13000.00000" pt_clust_8="13000.00000" pt_clust_9="55.70183"></scales>
<clustering>
<clus scale="   55.702">  1  9  2 -1</clus>
<clus scale="   92.151">  7  8 -1 -1</clus>
<clus scale="  102.600">  5  6 -1 -1</clus>
<clus scale="  157.961">  1  7  2 -1</clus>
<clus scale="  164.276">  2  5  1 -1</clus>
</clustering>
</event>
<event>
 9    1  0.1175034E-005  0.3052962E+03  0.7546771E-02  0.1082654E+00
         -3   -1    0    0    0  501 -0.00000000000E+00  0.00000000000E+00  0.84215340371E+03  0.84215340371E+03  0.00000000000E+00 0.  1.
          3   -1    0    0  502    0  0.00000000000E+00 -0.00000000000E+00 -0.12346734461E+03  0.12346734461E+03  0.00000000000E+00 0. -1.
         23    2    1    2    0    0  0.27418907098E+03  0.11625538868E+03  0.42295914214E+03  0.52519879591E+03  0.90798553235E+02 0.  0.
         23    2    1    2    0    0 -0.26983023833E+03 -0.88064861949E+02  0.26670868809E+03  0.39973088673E+03  0.89930417938E+02 0.  0.
        -11    1    4    4    0    0 -0.24272575405E+03 -0.67213116673E+02  0.18918265287E+03  0.31499757282E+03  0.00000000000E+00 0.  1.
         11    1    4    4    0    0 -0.27104484280E+02 -0.20851745276E+02  0.77526035219E+02  0.84733313908E+02  0.00000000000E+00 0. -1.
        -11    1    3    3    0    0  0.13215899867E+02  0.34796349142E+02  0.63224120599E+02  0.73367127165E+02  0.00000000000E+00 0.  1.
         11    1    3    3    0    0  0.26097317111E+03  0.81459039538E+02  0.35973502154E+03  0.45183166875E+03  0.00000000000E+00 0. -1.
         21    1    1    2  502  501 -0.43588326505E+01 -0.28190526732E+02  0.29018228869E+02  0.40691065680E+02  0.00000000000E+00 0. -1.
<scales pt_clust_5="13000.00000" pt_clust_6="13000.00000" pt_clust_7="13000.00000" pt_clust_8="13000.00000" pt_clust_9="28.52552"></scales>
<clustering>
<clus scale="   28.526">  2  9  1 -1</clus>
<clus scale="   89.930">  5  6 -1 -1</clus>
<clus scale="   90.799">  7  8 -1 -1</clus>
<clus scale="  305.039">  2  5  1 -1</clus>
<clus scale="   28.526">  2  5  1 -1</clus>
</clustering>
</event>
<event>
 9    1  0.1175034E-005  0.9678078E+02  0.7546771E-02  0.1287613E+00
         -1   -1    0    0    0  501 -0.00000000000E+00  0.00000000000E+00  0.27190698122E+02  0.27190698122E+02  0.00000000000E+00 0.  1.
          1   -1    0    0  502    0  0.00000000000E+00 -0.00000000000E+00 -0.46855355612E+03  0.46855355612E+03  0.00000000000E+00 0. -1.
         23    2    1    2    0    0  0.17136047830E+02  0.29463979352E+02 -0.17640037767E+03  0.20223432067E+03  0.92843185000E+02 0.  0.
         23    2    1    2    0    0 -0.19344902034E+02 -0.72443461165E+01 -0.24670180692E+03  0.26466477226E+03  0.93589285444E+02 0.  0.
        -11    1    3    3    0    0 -0.17642758243E+02  0.18626148825E+02 -0.39250005638E+01  0.25953920087E+02  0.00000000000E+00 0.  1.
         11    1    3    3    0    0  0.34778806073E+02  0.10837830527E+02 -0.17247537711E+03  0.17628040059E+03  0.00000000000E+00 0. -1.
        -13    1    4    4    0    0 -0.40989885609E+02  0.17855554129E+02 -0.21205764210E+03  0.21671971555E+03  0.00000000000E+00 0.  1.
         13    1    4    4    0    0  0.21644983575E+02 -0.25099900246E+02 -0.34644164821E+02  0.47945056705E+02  0.00000000000E+00 0. -1.
         21    1    1    2  502  501  0.22088542038E+01 -0.22219633235E+02 -0.18260673408E+02  0.28845161315E+02  0.00000000000E+00 0. -1.
<scales pt_clust_5="13000.00000" pt_clust_6="13000.00000" pt_clust_7="13000.00000" pt_clust_8="13000.00000" pt_clust_9="22.32915"></scales>
<clustering>
<clus scale="   22.329">  1  9  2 -1</clus>
<clus scale="   92.843">  5  6 -1 -1</clus>
<clus scale="   93.589">  7  8 -1 -1</clus>
<clus scale="   96.059">  1  5  2 -1</clus>
<clus scale="   96.781">  2  5  1 -1</clus>
</clustering>
</event>
<event>
 9    1  0.1175034E-005  0.9442454E+02  0.7546771E-02  0.1292793E+00
          1   -1    0    0  502    0  0.00000000000E+00  0.00000000000E+00  0.18463157925E+03  0.18463157925E+03  0.00000000000E+00 0. -1.
         -1   -1    0    0    0  501 -0.00000000000E+00 -0.00000000000E+00 -0.71380594794E+02  0.71380594794E+02  0.00000000000E+00 0.  1.
         23    2    1    2    0    0 -0.80122373144E+01 -0.81474831932E+01  0.28215961376E+02  0.98043925590E+02  0.93198140752E+02 0.  0.
         23    2    1    2    0    0 -0.23586968659E+02 -0.16416233959E+01  0.77801545702E+02  0.12410588555E+03  0.93755801407E+02 0.  0.
        -11    1    4    4    0    0 -0.30891439476E+02  0.19599066777E+02  0.90982596817E+02  0.98062415711E+02  0.00000000000E+00 0. -1.
         11    1    4    4    0    0  0.73044708163E+01 -0.21240690173E+02 -0.13181051115E+02  0.26043469843E+02  0.00000000000E+00 0.  1.
        -13    1    3    3    0    0  0.37811165853E+02  0.49960519974E-01  0.34357879947E+02  0.51089633720E+02  0.00000000000E+00 0.  1.
         13    1    3    3    0    0 -0.45823403167E+02 -0.81974437131E+01 -0.61419185704E+01  0.46954291870E+02  0.00000000000E+00 0. -1.
         21    1    1    2  502  501  0.31599205974E+02  0.97891065891E+01  0.72334773726E+01  0.33862362896E+02  0.00000000000E+00 0.  1.
<scales pt_clust_5="13000.00000" pt_clust_6="13000.00000" pt_clust_7="13000.00000" pt_clust_8="13000.00000" pt_clust_9="33.08076"></scales>
<clustering>
<clus scale="   33.081">  2  9  1 -1</clus>
<clus scale="   93.198">  7  8 -1 -1</clus>
<clus scale="   93.756">  5  6 -1 -1</clus>
<clus scale="   93.871">  2  7  1 -1</clus>
<clus scale="   94.425">  1  5  2 -1</clus>
</clustering>
</event>
<event>
 9    1  0.1175034E-005  0.1315387E+03  0.7546771E-02  0.1225673E+00
          1   -1    0    0  502    0  0.00000000000E+00  0.00000000000E+00  0.38403585599E+03  0.38403585599E+03  0.00000000000E+00 0. -1.
         -1   -1    0    0    0  501 -0.00000000000E+00 -0.00000000000E+00 -0.10620603663E+03  0.10620603663E+03  0.00000000000E+00 0.  1.
         23    2    1    2    0    0  0.78760492644E+02  0.13434579228E+02  0.18547357762E+02  0.12267389885E+03  0.91220490338E+02 0.  0.
         23    2    1    2    0    0 -0.94986583627E+02 -0.27826308331E+02  0.29616059402E+03  0.32478476638E+03  0.89315690199E+02 0.  0.
        -11    1    3    3    0    0  0.88502928284E+02 -0.16279699960E+02  0.13263303306E+02  0.90959948110E+02  0.00000000000E+00 0.  1.
         11    1    3    3    0    0 -0.97424356393E+01  0.29714279187E+02  0.52840544561E+01  0.31713950736E+02  0.00000000000E+00 0. -1.
        -11    1    4    4    0    0 -0.67388031279E+02 -0.59059094242E+02  0.17412687398E+03  0.19582975160E+03  0.00000000000E+00 0.  1.
         11    1    4    4    0    0 -0.27598552348E+02  0.31232785911E+02  0.12203372004E+03  0.12895501477E+03  0.00000000000E+00 0. -1.
         21    1    1    2  502  501  0.16226090982E+02  0.14391729104E+02 -0.36878132427E+02  0.42783227396E+02  0.00000000000E+00 0. -1.
<scales pt_clust_5="13000.00000" pt_clust_6="13000.00000" pt_clust_7="13000.00000" pt_clust_8="13000.00000" pt_clust_9="21.68889"></scales>
<clustering>
<clus scale="   21.689">  2  9  1 -1</clus>
<clus scale="   89.316">  7  8 -1 -1</clus>
<clus scale="   91.220">  5  6 -1 -1</clus>
<clus scale="  130.225">  1  7  2 -1</clus>
<clus scale="  130.225">  1  5  2 -1</clus>
</clustering>
</event>
<event>
 9    1  0.1175034E-005  0.1402402E+03  0.7546771E-02  0.1213986E+00
          2   -1    0    0  502    0  0.00000000000E+00  0.00000000000E+00  0.37678712807E+03  0.37678712807E+03  0.00000000000E+00 0. -1.
         -2   -1    0    0    0  501 -0.00000000000E+00 -0.00000000000E+00 -0.14060597358E+03  0.14060597358E+03  0.00000000000E+00 0.  1.
         23    2    1    2    0    0 -0.13188519102E+03 -0.63479953026E+01 -0.17366724054E+02  0.16015470130E+03  0.88960241620E+02 0.  0.
         23    2    1    2    0    0  0.97233393132E+02 -0.25593372356E+02  0.27355912886E+03  0.30603832022E+03  0.93356858406E+02 0.  0.
        -11    1    4    4    0    0  0.41094960234E+02  0.28220457997E+02  0.55877801875E+02  0.74883367636E+02  0.00000000000E+00 0. -1.
         11    1    4    4    0    0  0.56138432898E+02 -0.53813830353E+02  0.21768132699E+03  0.23115495258E+03  0.00000000000E+00 0.  1.
        -13    1    3    3    0    0 -0.59498549275E+02 -0.65359956380E+01  0.36336164084E+02  0.70022235220E+02  0.00000000000E+00 0. -1.
         13    1    3    3    0    0 -0.72386641749E+02  0.18800033545E+00 -0.53702888138E+02  0.90132466083E+02  0.00000000000E+00 0.  1.
         21    1    1    2  502  501  0.34651797893E+02  0.31941367658E+02 -0.20011250319E+02  0.51200080121E+02  0.00000000000E+00 0.  1.
<scales pt_clust_5="13000.00000" pt_clust_6="13000.00000" pt_clust_7="13000.00000" pt_clust_8="13000.00000" pt_clust_9="47.12747"></scales>
<clustering>
<clus scale="   47.127">  2  9  1 -1</clus>
<clus scale="   88.960">  7  8 -1 -1</clus>
<clus scale="   93.357">  5  6 -1 -1</clus>
<clus scale="  137.353">  2  7  1 -1</clus>
<clus scale="  140.240">  1  5  2 -1</clus>
</clustering>
</event>
<event>
 9    1  0.1175034E-005  0.2269993E+03  0.7546771E-02  0.1157811E+00
          1   -1    0    0  502    0  0.00000000000E+00  0.00000000000E+00  0.10084387561E+04  0.10084387561E+04  0.00000000000E+00 0. -1.
         -1   -1    0    0    0  501 -0.00000000000E+00 -0.00000000000E+00 -0.28727426142E+03  0.28727426142E+03  0.00000000000E+00 0.  1.
         23    2    1    2    0    0  0.22254596363E+02 -0.59111402429E+02 -0.12893276579E+03  0.17152171627E+03  0.93843572504E+02 0.  0.
         23    2    1    2    0    0  0.19260139788E+03 -0.68338925897E+02  0.84541863557E+03  0.87433419415E+03  0.89230636215E+02 0.  0.
        -11    1    3    3    0    0  0.36779966464E+02 -0.76228802718E+02 -0.12109796816E+03  0.14774408343E+03  0.00000000000E+00 0.  1.
         11    1    3    3    0    0 -0.14525370101E+02  0.17117400289E+02 -0.78347976295E+01  0.23777632833E+02  0.00000000000E+00 0. -1.
        -11    1    4    4    0    0  0.10678606645E+03 -0.82626720834E+02  0.55332383626E+03  0.56955922147E+03  0.00000000000E+00 0.  1.
         11    1    4    4    0    0  0.85815331430E+02  0.14287794938E+02  0.29209479930E+03  0.30477497268E+03  0.00000000000E+00 0. -1.
         21    1    1    2  502  501 -0.21485599424E+03  0.12745032833E+03  0.46786249271E+01  0.24985710713E+03  0.00000000000E+00 0.  1.
<scales pt_clust_5="13000.00000" pt_clust_6="13000.00000" pt_clust_7="13000.00000" pt_clust_8="13000.00000" pt_clust_9="208.72610"></scales>
<clustering>
<clus scale="   89.231">  7  8 -1 -1</clus>
<clus scale="   93.844">  5  6 -1 -1</clus>
<clus scale="  113.120">  2  5  1 -1</clus>
<clus scale="  208.726">  2  9  1 -1</clus>
<clus scale="  226.999">  1  5  2 -1</clus>
</clustering>
</event>
<event>
 9    1  0.1175034E-005  0.9597238E+02  0.7546771E-02  0.1289567E+00
         -1   -1    0    0    0  501 -0.00000000000E+00  0.00000000000E+00  0.51559423011E+02  0.51559423011E+02  0.00000000000E+00 0.  1.
          1   -1    0    0  502    0  0.00000000000E+00 -0.00000000000E+00 -0.32045256781E+03  0.32045256781E+03  0.00000000000E+00 0. -1.
         23    2    1    2    0    0  0.23769232596E+02 -0.16953137972E+02 -0.46844503049E+02  0.10485604337E+03  0.89151539864E+02 0.  0.
         23    2    1    2    0    0  0.13218229836E+02  0.39347343897E+02 -0.18602123600E+03  0.21087498440E+03  0.90229838382E+02 0.  0.
        -13    1    3    3    0    0 -0.69028641634E+01  0.33704654826E+02 -0.20423121980E+02  0.40009463906E+02  0.00000000000E+00 0.  1.
         13    1    3    3    0    0  0.30672096759E+02 -0.50657792798E+02 -0.26421381069E+02  0.64846579465E+02  0.00000000000E+00 0. -1.
        -13    1    4    4    0    0  0.24653381466E+02  0.65660871945E+02 -0.14115753499E+03  0.15762166414E+03  0.00000000000E+00 0.  1.
         13    1    4    4    0    0 -0.11435151630E+02 -0.26313528048E+02 -0.44863701006E+02  0.53253320264E+02  0.00000000000E+00 0. -1.
         21    1    1    2  502  501 -0.36987462432E+02 -0.22394205925E+02 -0.36027405758E+02  0.56280963049E+02  0.00000000000E+00 0. -1.
<scales pt_clust_5="13000.00000" pt_clust_6="13000.00000" pt_clust_7="13000.00000" pt_clust_8="13000.00000" pt_clust_9="43.23856"></scales>
<clustering>
<clus scale="   43.239">  1  9  2 -1</clus>
<clus scale="   89.152">  5  6 -1 -1</clus>
<clus scale="   90.230">  7  8 -1 -1</clus>
<clus scale="   94.959">  1  5  2 -1</clus>
<clus scale="   95.972">  2  5  1 -1</clus>
</clustering>
</event>
<event>
 9    1  0.1175034E-005  0.3689776E+03  0.7546771E-02  0.1055147E+00
          1   -1    0    0  502    0  0.00000000000E+00  0.00000000000E+00  0.14295369210E+04  0.14295369210E+04  0.00000000000E+00 0. -1.
         -1   -1    0    0    0  501 -0.00000000000E+00 -0.00000000000E+00 -0.17911486520E+03  0.17911486520E+03  0.00000000000E+00 0.  1.
         23    2    1    2    0    0 -0.31253881395E+02  0.38099872427E+03  0.37272803455E+03  0.54162105771E+03  0.91051355891E+02 0.  0.
         23    2    1    2    0    0 -0.15193198652E+03 -0.32712086399E+03  0.74955083580E+03  0.83707298888E+03  0.93666136183E+02 0.  0.
        -11    1    3    3    0    0  0.14346589642E+02  0.29188297631E+03  0.26394275119E+03  0.39378582046E+03  0.00000000000E+00 0.  1.
         11    1    3    3    0    0 -0.45600471037E+02  0.89115747966E+02  0.10878528337E+03  0.14783523725E+03  0.00000000000E+00 0. -1.
        -11    1    4    4    0    0 -0.12433975147E+03 -0.32057265312E+03  0.68079790831E+03  0.76270111556E+03  0.00000000000E+00 0. -1.
         11    1    4    4    0    0 -0.27592235058E+02 -0.65482108672E+01  0.68752927494E+02  0.74371873313E+02  0.00000000000E+00 0.  1.
         21    1    1    2  502  501  0.18318586792E+03 -0.53877860283E+02  0.12814318546E+03  0.22995773962E+03  0.00000000000E+00 0. -1.
<scales pt_clust_5="13000.00000" pt_clust_6="13000.00000" pt_clust_7="13000.00000" pt_clust_8="13000.00000" pt_clust_9="190.94472"></scales>
<clustering>
<clus scale="   91.051">  5  6 -1 -1</clus>
<clus scale="   93.666">  7  8 -1 -1</clus>
<clus scale="  190.945">  2  9  1 -1</clus>
<clus scale="  368.323">  2  5  1 -1</clus>
<clus scale="  368.978">  1  5  2 -1</clus>
</clustering>
</event>
<event>
 9    1  0.1175034E-005  0.1013733E+03  0.7546771E-02  0.1277534E+00
          2   -1    0    0  502    0  0.00000000000E+00  0.00000000000E+00  0.62454381174E+03  0.62454381174E+03  0.00000000000E+00 0. -1.
         -2   -1    0    0    0  501 -0.00000000000E+00 -0.00000000000E+00 -0.42151082740E+02  0.42151082740E+02  0.00000000000E+00 0.  1.
         23    2    1    2    0    0  0.16299685850E+02 -0.37049879182E+02  0.26151341135E+03  0.27982281427E+03  0.90956966563E+02 0.  0.
         23    2    1    2    0    0 -0.47619381873E+02  0.24384448437E+02  0.33431274675E+03  0.35051560194E+03  0.90741212842E+02 0.  0.
        -13    1    3    3    0    0  0.26542334089E+02  0.11364371059E+02  0.25013364005E+02  0.38200952963E+02  0.00000000000E+00 0. -1.
         13    1    3    3    0    0 -0.10242648238E+02 -0.48414250241E+02  0.23650004734E+03  0.24162186131E+03  0.00000000000E+00 0.  1.
        -13    1    4    4    0    0 -0.59691293521E+02  0.47974699438E+02  0.21317210417E+03  0.22651041545E+03  0.00000000000E+00 0.  1.
         13    1    4    4    0    0  0.12071911648E+02 -0.23590251001E+02  0.12114064258E+03  0.12400518649E+03  0.00000000000E+00 0. -1.
         21    1    1    2  502  501  0.31319696023E+02  0.12665430745E+02 -0.13433429096E+02  0.36356478270E+02  0.00000000000E+00 0. -1.
<scales pt_clust_5="13000.00000" pt_clust_6="13000.00000" pt_clust_7="13000.00000" pt_clust_8="13000.00000" pt_clust_9="33.78367"></scales>
<clustering>
<clus scale="   33.784">  2  9  1 -1</clus>
<clus scale="   90.741">  7  8 -1 -1</clus>
<clus scale="   90.957">  5  6 -1 -1</clus>
<clus scale="  101.180">  1  7  2 -1</clus>
<clus scale="  101.180">  1  5  2 -1</clus>
</clustering>
</event>
<event>
 9    1  0.1175034E-005  0.1184706E+03  0.7546771E-02  0.1245741E+00
          1   -1    0    0  502    0  0.00000000000E+00  0.00000000000E+00  0.19647743989E+03  0.19647743989E+03  0.00000000000E+00 0. -1.
         -1   -1    0    0    0  501 -0.00000000000E+00 -0.00000000000E+00 -0.26873111858E+03  0.26873111858E+03  0.00000000000E+00 0.  1.
         23    2    1    2    0    0  0.28499337676E+02  0.62427850226E+02 -0.38295713376E+02  0.12143730661E+03  0.92579744237E+02 0.  0.
         23    2    1    2    0    0 -0.11076821306E+02 -0.75274043051E+02  0.13100891849E+03  0.17739023883E+03  0.92277205100E+02 0.  0.
        -11    1    3    3    0    0 -0.20018716152E+02 -0.14063975396E+02 -0.52945793962E+01  0.25031519556E+02  0.00000000000E+00 0. -1.
         11    1    3    3    0    0  0.48518053828E+02  0.76491825623E+02 -0.33001133980E+02  0.96405787058E+02  0.00000000000E+00 0.  1.
        -13    1    4    4    0    0 -0.28945964541E+02  0.43909420005E+01  0.90838778543E+01  0.30653973180E+02  0.00000000000E+00 0.  1.
         13    1    4    4    0    0  0.17869143236E+02 -0.79664985051E+02  0.12192504063E+03  0.14673626565E+03  0.00000000000E+00 0. -1.
         21    1    1    2  502  501 -0.17422516371E+02  0.12846192824E+02 -0.16496688380E+03  0.16638101303E+03  0.00000000000E+00 0. -1.
<scales pt_clust_5="13000.00000" pt_clust_6="13000.00000" pt_clust_7="13000.00000" pt_clust_8="13000.00000" pt_clust_9="21.64645"></scales>
<clustering>
<clus scale="   21.646">  2  9  1 -1</clus>
<clus scale="   92.277">  7  8 -1 -1</clus>
<clus scale="   92.580">  5  6 -1 -1</clus>
<clus scale="  118.234">  1  7  2 -1</clus>
<clus scale="  118.234">  1  5  2 -1</clus>
</clustering>
</event>
<event>
 9    1  0.1175034E-005  0.1020525E+03  0.7546771E-02  0.1276446E+00
         -1   -1    0    0    0  501 -0.00000000000E+00  0.00000000000E+00  0.45348887497E+02  0.45348887497E+02  0.00000000000E+00 0.  1.
          1   -1    0    0  502    0  0.00000000000E+00 -0.00000000000E+00 -0.55197883089E+03  0.55197883089E+03  0.00000000000E+00 0. -1.
         23    2    1    2    0    0 -0.65042973688E+01  0.42125374794E+02 -0.90942562141E+02  0.13685696709E+03  0.92964653208E+02 0.  0.
         23    2    1    2    0    0 -0.68223165366E+02 -0.33524472940E+02 -0.29511666542E+03  0.31835999620E+03  0.92092075619E+02 0.  0.
        -11    1    4    4    0    0 -0.51081404377E+02  0.25973948825E+02 -0.13295146660E+03  0.14477585559E+03  0.00000000000E+00 0. -1.
         11    1    4    4    0    0 -0.17141760989E+02 -0.59498421764E+02 -0.16216519882E+03  0.17358414061E+03  0.00000000000E+00 0.  1.
        -13    1    3    3    0    0 -0.11256727458E+02  0.71482637538E+02 -0.60831565897E+02  0.94535500167E+02  0.00000000000E+00 0. -1.
         13    1    3    3    0    0  0.47524300893E+01 -0.29357262743E+02 -0.30110996244E+02  0.42321466921E+02  0.00000000000E+00 0.  1.
         21    1    1    2  502  501  0.74727462735E+02 -0.86009018543E+01 -0.12057071583E+03  0.14211075510E+03  0.00000000000E+00 0.  1.
<scales pt_clust_5="13000.00000" pt_clust_6="13000.00000" pt_clust_7="13000.00000" pt_clust_8="13000.00000" pt_clust_9="75.22080"></scales>
<clustering>
<clus scale="   75.221">  2  9  1 -1</clus>
<clus scale="   92.092">  5  6 -1 -1</clus>
<clus scale="   92.965">  7  8 -1 -1</clus>
<clus scale="  101.258">  2  5  1 -1</clus>
<clus scale="   75.221">  2  5  1 -1</clus>
</clustering>
</event>
<event>
 9    1  0.1175034E-005  0.1688341E+03  0.7546771E-02  0.1179192E+00
          1   -1    0    0  502    0  0.00000000000E+00  0.00000000000E+00  0.32137554892E+03  0.32137554892E+03  0.00000000000E+00 0. -1.
         -1   -1    0    0    0  501 -0.00000000000E+00 -0.00000000000E+00 -0.25973995698E+03  0.25973995698E+03  0.00000000000E+00 0.  1.
         23    2    1    2    0    0  0.10407118802E+03  0.59442000707E+01  0.30508658092E+02  0.14207356240E+03  0.91585878955E+02 0.  0.
         23    2    1    2    0    0 -0.15804013434E+03  0.10668411265E+03  0.15545878358E+03  0.26281427017E+03  0.92443081180E+02 0.  0.
        -13    1    4    4    0    0 -0.27145775790E+02  0.34329529168E+02  0.88945992904E+02  0.99130214213E+02  0.00000000000E+00 0. -1.
         13    1    4    4    0    0 -0.13089435855E+03  0.72354583478E+02  0.66512790678E+02  0.16368405595E+03  0.00000000000E+00 0.  1.
        -13    1    3    3    0    0  0.56346751047E+02 -0.40096300620E+02  0.18604106717E+00  0.69157098610E+02  0.00000000000E+00 0.  1.
         13    1    3    3    0    0  0.47724436975E+02  0.46040500691E+02  0.30322617024E+02  0.72916463790E+02  0.00000000000E+00 0. -1.
         21    1    1    2  502  501  0.53968946316E+02 -0.11262831272E+03 -0.12433184973E+03  0.17622767334E+03  0.00000000000E+00 0.  1.
<scales pt_clust_5="13000.00000" pt_clust_6="13000.00000" pt_clust_7="13000.00000" pt_clust_8="13000.00000" pt_clust_9="124.89109"></scales>
<clustering>
<clus scale="   91.586">  7  8 -1 -1</clus>
<clus scale="   92.443">  5  6 -1 -1</clus>
<clus scale="  124.891">  2  9  1 -1</clus>
<clus scale="  168.366">  2  7  1 -1</clus>
<clus scale="  168.834">  1  5  2 -1</clus>
</clustering>
</event>
<event>
 9    1  0.1175034E-005  0.1924019E+03  0.7546771E-02  0.1156609E+00
         -2   -1    0    0    0  501 -0.00000000000E+00  0.00000000000E+00  0.51517097798E+03  0.51517097798E+03  0.00000000000E+00 0.  1.
          2   -1    0    0  502    0  0.00000000000E+00 -0.00000000000E+00 -0.30544332727E+03  0.30544332727E+03  0.00000000000E+00 0. -1.
         23    2    1    2    0    0 -0.16334774958E+03 -0.68862259681E+02  0.21140739907E+03  0.29132737332E+03  0.93563090820E+02 0.  0.
         23    2    1    2    0    0  0.16640195549E+03  0.59858025949E+01 -0.22573377800E+03  0.29655750700E+03  0.96255783215E+02 0.  0.
        -11    1    3    3    0    0 -0.26063735030E+02 -0.50750534339E+02  0.93131060199E+02  0.10921689152E+03  0.00000000000E+00 0.  1.
         11    1    3    3    0    0 -0.13728401455E+03 -0.18111725342E+02  0.11827633887E+03  0.18211048180E+03  0.00000000000E+00 0. -1.
        -13    1    4    4    0    0  0.12930157219E+03  0.25275382192E+02 -0.10402511045E+03  0.16786591411E+03  0.00000000000E+00 0.  1.
         13    1    4    4    0    0  0.37100383295E+02 -0.19289579597E+02 -0.12170866756E+03  0.12869159289E+03  0.00000000000E+00 0. -1.
         21    1    1    2  502  501 -0.30542059110E+01  0.62876457086E+02  0.22405402964E+03  0.23272942493E+03  0.00000000000E+00 0.  1.
<scales pt_clust_5="13000.00000" pt_clust_6="13000.00000" pt_clust_7="13000.00000" pt_clust_8="13000.00000" pt_clust_9="62.95059"></scales>
<clustering>
<clus scale="   62.951">  1  9  2 -1</clus>
<clus scale="   93.563">  5  6 -1 -1</clus>
<clus scale="   96.256">  7  8 -1 -1</clus>
<clus scale="  191.069">  1  5  2 -1</clus>
<clus scale="  192.402">  2  5  1 -1</clus>
</clustering>
</event>
<event>
 9    1  0.1175034E-005  0.9460885E+02  0.7546771E-02  0.1292326E+00
         -3   -1    0    0    0  501 -0.00000000000E+00  0.00000000000E+00  0.18197314554E+03  0.18197314554E+03  0.00000000000E+00 0.  1.
          3   -1    0    0  502    0  0.00000000000E+00 -0.00000000000E+00 -0.12568472418E+03  0.12568472418E+03  0.00000000000E+00 0. -1.
         23    2    1    2    0    0  0.20403718754E+02 -0.98695987064E+01  0.41299270950E+02  0.10342103683E+03  0.92068237525E+02 0.  0.
         23    2    1    2    0    0 -0.38117761261E+01  0.23731708469E+02 -0.69223384088E+02  0.11729316368E+03  0.91586493096E+02 0.  0.
        -11    1    4    4    0    0  0.12996604801E+02 -0.26651586442E+02 -0.54716873685E+02  0.62234677327E+02  0.00000000000E+00 0.  1.
         11    1    4    4    0    0 -0.16808380927E+02  0.50383294911E+02 -0.14506510404E+02  0.55058486354E+02  0.00000000000E+00 0. -1.
        -13    1    3    3    0    0  0.96333985425E+00 -0.28633806428E+02  0.62711677025E+02  0.68946191552E+02  0.00000000000E+00 0.  1.
         13    1    3    3    0    0  0.19440378900E+02  0.18764207722E+02 -0.21412406075E+02  0.34474845281E+02  0.00000000000E+00 0. -1.
         21    1    1    2  502  501 -0.16591942628E+02 -0.13862109763E+02  0.84212534499E+02  0.86943669201E+02  0.00000000000E+00 0.  1.
<scales pt_clust_5="13000.00000" pt_clust_6="13000.00000" pt_clust_7="13000.00000" pt_clust_8="13000.00000" pt_clust_9="21.62061"></scales>
<clustering>
<clus scale="   21.621">  1  9  2 -1</clus>
<clus scale="   91.586">  5  6 -1 -1</clus>
<clus scale="   92.068">  7  8 -1 -1</clus>
<clus scale="   94.140">  2  5  1 -1</clus>
<clus scale="   94.140">  2  5  1 -1</clus>
</clustering>
</event>
<event>
 9    1  0.1175034E-005  0.9221201E+02  0.7546771E-02  0.1298007E+00
         -1   -1    0    0    0  501 -0.00000000000E+00  0.00000000000E+00  0.90906080767E+02  0.90906080767E+02  0.00000000000E+00 0.  1.
          1   -1    0    0  502    0  0.00000000000E+00 -0.00000000000E+00 -0.23681581053E+03  0.23681581053E+03  0.00000000000E+00 0. -1.
         23    2    1    2    0    0  0.25919870756E+02 -0.21804796270E+02  0.13365764983E+02  0.97766124145E+02  0.90731926665E+02 0.  0.
         23    2    1    2    0    0 -0.81201164803E+01 -0.19406391011E+02 -0.16032018684E+03  0.18505270945E+03  0.89996659165E+02 0.  0.
        -11    1    4    4    0    0 -0.40998959577E+02 -0.36867671670E+02 -0.92488114458E+02  0.10767632617E+03  0.00000000000E+00 0. -1.
         11    1    4    4    0    0  0.32878843097E+02  0.17461280659E+02 -0.67832072384E+02  0.77376383280E+02  0.00000000000E+00 0.  1.
        -11    1    3    3    0    0 -0.16238119392E+02 -0.45578590462E+02  0.49028026419E+01  0.48632518993E+02  0.00000000000E+00 0. -1.
         11    1    3    3    0    0  0.42157990148E+02  0.23773794191E+02  0.84629623408E+01  0.49133605151E+02  0.00000000000E+00 0.  1.
         21    1    1    2  502  501 -0.17799754276E+02  0.41211187282E+02  0.10446920999E+01  0.44903057702E+02  0.00000000000E+00 0.  1.
<scales pt_clust_5="13000.00000" pt_clust_6="13000.00000" pt_clust_7="13000.00000" pt_clust_8="13000.00000" pt_clust_9="44.89090"></scales>
<clustering>
<clus scale="   44.891">  1  9  2 -1</clus>
<clus scale="   89.997">  5  6 -1 -1</clus>
<clus scale="   90.732">  7  8 -1 -1</clus>
<clus scale="   91.489">  2  5  1 -1</clus>
<clus scale="   91.489">  2  5  1 -1</clus>
</clustering>
</event>
<event>
 9    1  0.1175034E-005  0.9666948E+02  0.7546771E-02  0.1288937E+00
         -1   -1    0    0    0  501 -0.00000000000E+00  0.00000000000E+00  0.65308802513E+02  0.65308802513E+02  0.00000000000E+00 0.  1.
          1   -1    0    0  502    0  0.00000000000E+00 -0.00000000000E+00 -0.23196003777E+03  0.23196003777E+03  0.00000000000E+00 0. -1.
         23    2    1    2    0    0 -0.50496457214E+01 -0.47570866983E+02 -0.42718396403E+02  0.10841367851E+03  0.87408111697E+02 0.  0.
         23    2    1    2    0    0 -0.12615994993E+02  0.27500735302E+02 -0.13030658373E+03  0.16136862558E+03  0.90247292417E+02 0.  0.
        -11    1    3    3    0    0 -0.33326350520E+02  0.28028028900E+01  0.45759025165E+01  0.33755595489E+02  0.00000000000E+00 0. -1.
         11    1    3    3    0    0  0.28276704798E+02 -0.50373669873E+02 -0.47294298920E+02  0.74658083025E+02  0.00000000000E+00 0.  1.
        -13    1    4    4    0    0 -0.94194761875E+00 -0.32874454564E+02 -0.35764660397E+02  0.48587323054E+02  0.00000000000E+00 0.  1.
         13    1    4    4    0    0 -0.11674047374E+02  0.60375189867E+02 -0.94541923329E+02  0.11278130253E+03  0.00000000000E+00 0. -1.
         21    1    1    2  502  501  0.17665640714E+02  0.20070131680E+02  0.63737448761E+01  0.27486536182E+02  0.00000000000E+00 0. -1.
<scales pt_clust_5="13000.00000" pt_clust_6="13000.00000" pt_clust_7="13000.00000" pt_clust_8="13000.00000" pt_clust_9="26.73733"></scales>
<clustering>
<clus scale="   26.737">  1  9  2 -1</clus>
<clus scale="   87.408">  5  6 -1 -1</clus>
<clus scale="   90.247">  7  8 -1 -1</clus>
<clus scale="   94.024">  1  5  2 -1</clus>
<clus scale="   96.669">  2  5  1 -1</clus>
</clustering>
</event>
<event>
 9    1  0.1175034E-005  0.1134934E+03  0.7546771E-02  0.1257953E+00
          1   -1    0    0  502    0  0.00000000000E+00  0.00000000000E+00  0.10762066418E+03  0.10762066418E+03  0.00000000000E+00 0. -1.
         -1   -1    0    0    0  501 -0.00000000000E+00 -0.00000000000E+00 -0.16354184941E+03  0.16354184941E+03  0.00000000000E+00 0.  1.
         23    2    1    2    0    0  0.44552095681E+01 -0.50972529781E+02 -0.23233098303E+02  0.10689469017E+03  0.90932118884E+02 0.  0.
         23    2    1    2    0    0 -0.55125975480E+01  0.81852506314E+02  0.54564504396E+01  0.11517916129E+03  0.80661296927E+02 0.  0.
        -11    1    3    3    0    0  0.25818648547E+02  0.16671395029E+02  0.38284682723E+01  0.30970876550E+02  0.00000000000E+00 0. -1.
         11    1    3    3    0    0 -0.21363438979E+02 -0.67643924810E+02 -0.27061566575E+02  0.75923813617E+02  0.00000000000E+00 0.  1.
        -13    1    4    4    0    0 -0.41829582379E+01  0.34658574279E+02 -0.37581515365E+02  0.51294095253E+02  0.00000000000E+00 0.  1.
         13    1    4    4    0    0 -0.13296393101E+01  0.47193932034E+02  0.43037965805E+02  0.63885066034E+02  0.00000000000E+00 0. -1.
         21    1    1    2  502  501  0.10573879799E+01 -0.30879976532E+02 -0.38144537365E+02  0.49088662140E+02  0.00000000000E+00 0. -1.
<scales pt_clust_5="13000.00000" pt_clust_6="13000.00000" pt_clust_7="13000.00000" pt_clust_8="13000.00000" pt_clust_9="30.89807"></scales>
<clustering>
<clus scale="   30.898">  2  9  1 -1</clus>
<clus scale="   80.661">  7  8 -1 -1</clus>
<clus scale="   90.932">  5  6 -1 -1</clus>
<clus scale="  105.444">  1  7  2 -1</clus>
<clus scale="  105.444">  1  5  2 -1</clus>
</clustering>
</event>
<event>
 9    1  0.1175034E-005  0.1751435E+03  0.7546771E-02  0.1172630E+00
         -1   -1    0    0    0  501 -0.00000000000E+00  0.00000000000E+00  0.14637752561E+03  0.14637752561E+03  0.00000000000E+00 0.  1.
          1   -1    0    0  502    0  0.00000000000E+00 -0.00000000000E+00 -0.59791148791E+03  0.59791148791E+03  0.00000000000E+00 0. -1.
         23    2    1    2    0    0 -0.15208980708E+03  0.10953083591E+03 -0.10456969725E+03  0.23302806031E+03  0.90768617256E+02 0.  0.
         23    2    1    2    0    0  0.90431742779E+02 -0.10819895175E+03 -0.39760783287E+03  0.43145956369E+03  0.90445857157E+02 0.  0.
        -11    1    4    4    0    0  0.49314671089E+02 -0.10098086580E+03 -0.35258483129E+03  0.37006098862E+03  0.00000000000E+00 0. -1.
         11    1    4    4    0    0  0.41117071690E+02 -0.72180859511E+01 -0.45023001576E+02  0.61398575065E+02  0.00000000000E+00 0.  1.
        -11    1    3    3    0    0 -0.56702812698E+02  0.95873236807E+01 -0.70034729219E+02  0.90620025601E+02  0.00000000000E+00 0. -1.
         11    1    3    3    0    0 -0.95386994379E+02  0.99943512229E+02 -0.34534968029E+02  0.14240803471E+03  0.00000000000E+00 0.  1.
         21    1    1    2  502  501  0.61658064297E+02 -0.13318841618E+01  0.50643567821E+02  0.79801389524E+02  0.00000000000E+00 0. -1.
<scales pt_clust_5="13000.00000" pt_clust_6="13000.00000" pt_clust_7="13000.00000" pt_clust_8="13000.00000" pt_clust_9="61.67245"></scales>
<clustering>
<clus scale="   61.672">  1  9  2 -1</clus>
<clus scale="   90.446">  5  6 -1 -1</clus>
<clus scale="   90.769">  7  8 -1 -1</clus>
<clus scale="  174.976">  2  5  1 -1</clus>
<clus scale="  174.976">  2  5  1 -1</clus>
</clustering>
</event>
<event>
 9    1  0.1175034E-005  0.2518536E+03  0.7546771E-02  0.1126944E+00
         -2   -1    0    0    0  501 -0.00000000000E+00  0.00000000000E+00  0.59705559307E+03  0.59705559307E+03  0.00000000000E+00 0.  1.
          2   -1    0    0  502    0  0.00000000000E+00 -0.00000000000E+00 -0.98581564232E+03  0.98581564232E+03  0.00000000000E+00 0. -1.
         23    2    1    2    0    0 -0.93742102748E+02 -0.87090837488E+02  0.40788924991E+03  0.44339695274E+03  0.11770650665E+03 0.  0.
         23    2    1    2    0    0 -0.53590698249E+01 -0.22329572341E+03 -0.77590736169E+03  0.81299137719E+03  0.95042336579E+02 0.  0.
        -13    1    3    3    0    0 -0.50526969156E+02  0.13222869547E+02  0.21955002233E+03  0.22567682911E+03  0.00000000000E+00 0.  1.
         13    1    3    3    0    0 -0.43215133592E+02 -0.10031370704E+03  0.18833922757E+03  0.21772012363E+03  0.00000000000E+00 0. -1.
        -13    1    4    4    0    0  0.12709440989E+02 -0.52503730977E+02 -0.82358952358E+02  0.98494510965E+02  0.00000000000E+00 0.  1.
         13    1    4    4    0    0 -0.18068510814E+02 -0.17079199243E+03 -0.69354840933E+03  0.71449686622E+03  0.00000000000E+00 0. -1.
         21    1    1    2  502  501  0.99101172572E+02  0.31038656090E+03 -0.20741937467E+02  0.32648290546E+03  0.00000000000E+00 0.  1.
<scales pt_clust_5="13000.00000" pt_clust_6="13000.00000" pt_clust_7="13000.00000" pt_clust_8="13000.00000" pt_clust_9="233.23207"></scales>
<clustering>
<clus scale="   95.042">  7  8 -1 -1</clus>
<clus scale="  117.707">  5  6 -1 -1</clus>
<clus scale="  173.860">  1  5  2 -1</clus>
<clus scale="  233.232">  1  9  2 -1</clus>
<clus scale="  251.854">  2  5  1 -1</clus>
</clustering>
</event>
<event>
 9    1  0.1175034E-005  0.1240733E+03  0.7546771E-02  0.1242559E+00
          2   -1    0    0  502    0  0.00000000000E+00  0.00000000000E+00  0.47377822426E+03  0.47377822426E+03  0.00000000000E+00 0. -1.
         -2   -1    0    0    0  501 -0.00000000000E+00 -0.00000000000E+00 -0.46937394643E+02  0.46937394643E+02  0.00000000000E+00 0.  1.
         23    2    1    2    0    0 -0.58761751491E+02 -0.75125437633E+02  0.15036700246E+03  0.19123161689E+03  0.69731779353E+02 0.  0.
         23    2    1    2    0    0  0.72776709981E+02  0.35974167669E+02  0.25532767088E+03  0.28283208966E+03  0.90615568017E+02 0.  0.
        -13    1    3    3    0    0 -0.90828365200E+01 -0.67138975338E+02  0.89794844112E+02  0.11248668347E+03  0.00000000000E+00 0. -1.
         13    1    3    3    0    0 -0.49678914971E+02 -0.79864622954E+01  0.60572158352E+02  0.78744933425E+02  0.00000000000E+00 0.  1.
        -13    1    4    4    0    0  0.50692618682E+02 -0.21222869047E+02  0.16287475177E+03  0.17189629584E+03  0.00000000000E+00 0. -1.
         13    1    4    4    0    0  0.22084091299E+02  0.57197036716E+02  0.92452919112E+02  0.11093579382E+03  0.00000000000E+00 0.  1.
         21    1    1    2  502  501 -0.14014958490E+02  0.39151269964E+02  0.21146156276E+02  0.46651912357E+02  0.00000000000E+00 0. -1.
<scales pt_clust_5="13000.00000" pt_clust_6="13000.00000" pt_clust_7="13000.00000" pt_clust_8="13000.00000" pt_clust_9="41.58414"></scales>
<clustering>
<clus scale="   41.584">  2  9  1 -1</clus>
<clus scale="   69.732">  5  6 -1 -1</clus>
<clus scale="   90.616">  7  8 -1 -1</clus>
<clus scale="  109.752">  2  5  1 -1</clus>
<clus scale="  124.073">  1  5  2 -1</clus>
</clustering>
</event>
<event>
 9    1  0.1175034E-005  0.9848517E+02  0.7546771E-02  0.1284236E+00
          2   -1    0    0  502    0  0.00000000000E+00  0.00000000000E+00  0.89260663176E+02  0.89260663176E+02  0.00000000000E+00 0. -1.
         -2   -1    0    0    0  501 -0.00000000000E+00 -0.00000000000E+00 -0.25600144107E+03  0.25600144107E+03  0.00000000000E+00 0.  1.
         23    2    1    2    0    0 -0.93201945320E+01  0.56336652004E+01 -0.16679825757E+03  0.18991086125E+03  0.90143620306E+02 0.  0.
         23    2    1    2    0    0  0.44942575609E+02 -0.72791501323E+01  0.34778843565E+02  0.10557941598E+03  0.88682715284E+02 0.  0.
        -11    1    3    3    0    0 -0.39269509396E+02  0.12517725514E+02 -0.14856968590E+03  0.15418086584E+03  0.00000000000E+00 0.  1.
         11    1    3    3    0    0  0.29949314864E+02 -0.68840603137E+01 -0.18228571667E+02  0.35729995413E+02  0.00000000000E+00 0. -1.
        -13    1    4    4    0    0  0.51405334469E+01 -0.34183292164E+02  0.44717047416E+02  0.56520234226E+02  0.00000000000E+00 0. -1.
         13    1    4    4    0    0  0.39802042162E+02  0.26904142032E+02 -0.99382038513E+01  0.49059181755E+02  0.00000000000E+00 0.  1.
         21    1    1    2  502  501 -0.35622381077E+02  0.16454849320E+01 -0.34721363886E+02  0.49771827014E+02  0.00000000000E+00 0. -1.
<scales pt_clust_5="13000.00000" pt_clust_6="13000.00000" pt_clust_7="13000.00000" pt_clust_8="13000.00000" pt_clust_9="35.66037"></scales>
<clustering>
<clus scale="   35.660">  2  9  1 -1</clus>
<clus scale="   88.683">  7  8 -1 -1</clus>
<clus scale="   90.144">  5  6 -1 -1</clus>
<clus scale="   97.150">  1  7  2 -1</clus>
<clus scale="   97.150">  1  5  2 -1</clus>
</clustering>
</event>
<event>
 9    1  0.1587514E-005  0.9702035E+02  0.7546771E-02  0.1286804E+00
         -1   -1    0    0    0  501 -0.00000000000E+00  0.00000000000E+00  0.18835128264E+03  0.18835128264E+03  0.00000000000E+00 0.  1.
          1   -1    0    0  502    0  0.00000000000E+00 -0.00000000000E+00 -0.14471959989E+03  0.14471959989E+03  0.00000000000E+00 0. -1.
         23    2    1    2    0    0  0.14345951670E+02 -0.25140527646E+02  0.12350360974E+03  0.15649668182E+03  0.91652699600E+02 0.  0.
         23    2    1    2    0    0 -0.33541647209E+02 -0.15262066601E+01 -0.98488299746E+02  0.13880968323E+03  0.91873889469E+02 0.  0.
        -11    1    4    4    0    0 -0.54912139812E+02 -0.26992921130E+02 -0.80167893852E+02  0.10085064251E+03  0.00000000000E+00 0. -1.
         11    1    4    4    0    0  0.21370492603E+02  0.25466714470E+02 -0.18320405894E+02  0.37959040717E+02  0.00000000000E+00 0.  1.
        -13    1    3    3    0    0 -0.28648133446E+02  0.17513912162E+02  0.29627053452E+02  0.44779626678E+02  0.00000000000E+00 0. -1.
         13    1    3    3    0    0  0.42994085116E+02 -0.42654439808E+02  0.93876556286E+02  0.11171705515E+03  0.00000000000E+00 0.  1.
         21    1    1    2  502  501  0.19195695539E+02  0.26666734306E+02  0.18616372761E+02  0.37764517481E+02  0.00000000000E+00 0. -1.
<scales pt_clust_5="13000.00000" pt_clust_6="13000.00000" pt_clust_7="13000.00000" pt_clust_8="13000.00000" pt_clust_9="32.85711"></scales>
<clustering>
<clus scale="   32.857">  1  9  2 -1</clus>
<clus scale="   91.653">  7  8 -1 -1</clus>
<clus scale="   91.874">  5  6 -1 -1</clus>
<clus scale="   96.811">  1  7  2 -1</clus>
<clus scale="   97.020">  2  5  1 -1</clus>
</clustering>
</event>
<event>
 9    1  0.1175034E-005  0.1021801E+03  0.7546771E-02  0.1278977E+00
         -3   -1    0    0    0  501 -0.00000000000E+00  0.00000000000E+00  0.30489791819E+03  0.30489791819E+03  0.00000000000E+00 0.  1.
          3   -1    0    0  502    0  0.00000000000E+00 -0.00000000000E+00 -0.15676950856E+03  0.15676950856E+03  0.00000000000E+00 0. -1.
         23    2    1    2    0    0 -0.22885727039E+02 -0.26945120616E+02  0.22515917697E+03  0.24779999002E+03  0.97254223808E+02 0.  0.
         23    2    1    2    0    0  0.31665297752E+02  0.23140863962E+01 -0.12587845799E+03  0.15846106896E+03  0.90865164472E+02 0.  0.
        -11    1    4    4    0    0  0.20990082664E+02  0.28817044528E+02 -0.12488242766E+03  0.12987157643E+03  0.00000000000E+00 0.  1.
         11    1    4    4    0    0  0.10675215088E+02 -0.26502958132E+02 -0.99603032426E+00  0.28589492534E+02  0.00000000000E+00 0. -1.
        -13    1    3    3    0    0 -0.42964251635E+02 -0.17230714093E+02  0.22011738559E+03  0.22493218504E+03  0.00000000000E+00 0.  1.
         13    1    3    3    0    0  0.20078524596E+02 -0.97144065232E+01  0.50417913814E+01  0.22867804975E+02  0.00000000000E+00 0. -1.
         21    1    1    2  502  501 -0.87795707130E+01  0.24631034220E+02  0.48847690643E+02  0.55406367773E+02  0.00000000000E+00 0. -1.
<scales pt_clust_5="13000.00000" pt_clust_6="13000.00000" pt_clust_7="13000.00000" pt_clust_8="13000.00000" pt_clust_9="26.14897"></scales>
<clustering>
<clus scale="   26.149">  1  9  2 -1</clus>
<clus scale="   90.865">  5  6 -1 -1</clus>
<clus scale="   96.119">  2  5  1 -1</clus>
<clus scale="   97.254">  7  8 -1 -1</clus>
<clus scale="   96.119">  2  5  1 -1</clus>
</clustering>
</event>
