<event>
 9    1  0.6399313E-006  0.4333186E+03  0.7546771E-02  0.1065878E+00
         21   -1    0    0  501  502  0.00000000000E+00  0.00000000000E+00  0.13343066799E+04  0.13343066799E+04  0.00000000000E+00 0. -1.
          1   -1    0    0  502    0 -0.00000000000E+00 -0.00000000000E+00 -0.73899243630E+02  0.73899243630E+02  0.00000000000E+00 0. -1.
         23    2    1    2    0    0  0.23681409927E+00 -0.14853475804E+03  0.19293030308E+03  0.25613280587E+03  0.79493911518E+02 0.  0.
         23    2    1    2    0    0  0.15181980353E+03  0.12684023675E+03  0.30769067424E+03  0.37691679122E+03  0.90857130090E+02 0.  0.
        -11    1    3    3    0    0 -0.13717782815E+01 -0.19957834466E+02  0.87768674561E+02  0.90019648780E+02  0.00000000000E+00 0.  1.
         11    1    3    3    0    0  0.16085923808E+01 -0.12857692357E+03  0.10516162852E+03  0.16611315709E+03  0.00000000000E+00 0. -1.
        -11    1    4    4    0    0  0.12493341291E+03  0.13966079802E+03  0.25591697780E+03  0.31718605848E+03  0.00000000000E+00 0. -1.
         11    1    4    4    0    0  0.26886390616E+02 -0.12820561264E+02  0.51773696436E+02  0.59730732744E+02  0.00000000000E+00 0.  1.
          1    1    1    2  501    0 -0.15205661762E+03  0.21694521285E+02  0.75978645893E+03  0.77515632642E+03  0.00000000000E+00 0. -1.
<scales pt_clust_5="13000.00000" pt_clust_6="13000.00000" pt_clust_7="13000.00000" pt_clust_8="13000.00000" pt_clust_9="13000.00000"></scales>
<clustering>
<clus scale="   79.494">  5  6 -1 -1</clus>
<clus scale="   90.857">  7  8 -1 -1</clus>
<clus scale="  153.597">  7  9 -1 -1</clus>
<clus scale="  168.469">  2  5  1 -1</clus>
<clus scale="  433.319">  1  5  2 -1</clus>
</clustering>
</event>
<event>
 9    1  0.6399313E-006  0.1523940E+03  0.7546771E-02  0.1221000E+00
          2   -1    0    0  502    0 -0.00000000000E+00  0.00000000000E+00  0.34068513229E+03  0.34068513229E+03  0.00000000000E+00 0. -1.
         21   -1    0    0  501  502  0.00000000000E+00 -0.00000000000E+00 -0.58182519210E+02  0.58182519210E+02  0.00000000000E+00 0.  1.
         23    2    1    2    0    0  0.23647775863E+01 -0.18220733022E+02  0.21144157569E+03  0.23072005661E+03  0.90479927631E+02 0.  0.
         23    2    1    2    0    0 -0.38143667297E+02  0.31423865275E+02  0.61867816328E+02  0.12891792547E+03  0.10173399700E+03 0.  0.
        -11    1    4    4    0    0  0.20702487800E+02  0.25459177527E+02  0.61571270762E+02  0.69769506983E+02  0.00000000000E+00 0. -1.
         11    1    4    4    0    0 -0.58846155097E+02  0.59646877484E+01  0.29654556581E+00  0.59148418482E+02  0.00000000000E+00 0.  1.
        -11    1    3    3    0    0  0.41381827603E+02 -0.26248667909E+02  0.84572460190E+02  0.97744305437E+02  0.00000000000E+00 0. -1.
         11    1    3    3    0    0 -0.39017050017E+02  0.80279348875E+01  0.12686911550E+03  0.13297575117E+03  0.00000000000E+00 0.  1.
          2    1    1    2  501    0  0.35778889710E+02 -0.13203132254E+02  0.91932210642E+01  0.39229669432E+02  0.00000000000E+00 0. -1.
<scales pt_clust_5="13000.00000" pt_clust_6="13000.00000" pt_clust_7="13000.00000" pt_clust_8="13000.00000" pt_clust_9="13000.00000"></scales>
<clustering>
<clus scale="   90.480">  7  8 -1 -1</clus>
<clus scale="   92.327">  1  7  2 -1</clus>
<clus scale="  101.734">  5  6 -1 -1</clus>
<clus scale="   39.999">  5  9 -1 -1</clus>
<clus scale="  152.394">  2  5  1 -1</clus>
</clustering>
</event>
<event>
 9    1  0.6399313E-006  0.1358489E+03  0.7546771E-02  0.1236473E+00
         21   -1    0    0  501  502  0.00000000000E+00  0.00000000000E+00  0.35293231391E+03  0.35293231391E+03  0.00000000000E+00 0. -1.
          2   -1    0    0  502    0 -0.00000000000E+00 -0.00000000000E+00 -0.20309183827E+03  0.20309183827E+03  0.00000000000E+00 0. -1.
         23    2    1    2    0    0 -0.15086013121E+02 -0.22231828977E+02 -0.17775836574E+03  0.20137515307E+03  0.90730775763E+02 0.  0.
         23    2    1    2    0    0  0.61035275505E+01  0.48495037599E+02  0.29034420304E+03  0.30819096156E+03  0.91065310778E+02 0.  0.
        -11    1    4    4    0    0  0.30077123673E+02 -0.67766048546E+01  0.38934650458E+02  0.49663495125E+02  0.00000000000E+00 0.  1.
         11    1    4    4    0    0 -0.23973596123E+02  0.55271642454E+02  0.25140955258E+03  0.25852746643E+03  0.00000000000E+00 0. -1.
        -11    1    3    3    0    0  0.34381461772E+01  0.25666144924E+02 -0.13352820941E+02  0.29135368051E+02  0.00000000000E+00 0.  1.
         11    1    3    3    0    0 -0.18524159299E+02 -0.47897973901E+02 -0.16440554480E+03  0.17223978502E+03  0.00000000000E+00 0. -1.
          2    1    1    2  501    0  0.89824855709E+01 -0.26263208622E+02  0.37254638346E+02  0.46458037544E+02  0.00000000000E+00 0. -1.
<scales pt_clust_5="13000.00000" pt_clust_6="13000.00000" pt_clust_7="13000.00000" pt_clust_8="13000.00000" pt_clust_9="13000.00000"></scales>
<clustering>
<clus scale="   90.731">  7  8 -1 -1</clus>
<clus scale="   91.065">  5  6 -1 -1</clus>
<clus scale="   27.757">  5  9 -1 -1</clus>
<clus scale="   94.625">  2  7  1 -1</clus>
<clus scale="  135.849">  1  5  2 -1</clus>
</clustering>
</event>
<event>
 9    1  0.6399313E-006  0.1452634E+03  0.7546771E-02  0.1217371E+00
         21   -1    0    0  501  502  0.00000000000E+00  0.00000000000E+00  0.27797124890E+02  0.27797124890E+02  0.00000000000E+00 0.  1.
          2   -1    0    0  502    0 -0.00000000000E+00 -0.00000000000E+00 -0.60960630570E+03  0.60960630570E+03  0.00000000000E+00 0. -1.
         23    2    1    2    0    0  0.11060844707E+02  0.70950300624E+02 -0.26222947333E+03  0.28635834245E+03  0.89891691309E+02 0.  0.
         23    2    1    2    0    0 -0.30902045135E+02 -0.43211246933E+02 -0.19365787878E+03  0.22058653043E+03  0.91284692803E+02 0.  0.
        -11    1    4    4    0    0 -0.62476652919E+02 -0.35592427927E+02 -0.14813804560E+03  0.16466643143E+03  0.00000000000E+00 0.  1.
         11    1    4    4    0    0  0.31574607784E+02 -0.76188190061E+01 -0.45519833172E+02  0.55920098997E+02  0.00000000000E+00 0. -1.
        -11    1    3    3    0    0 -0.37903654655E+02  0.35930747189E+02 -0.15257564741E+03  0.16126696441E+03  0.00000000000E+00 0.  1.
         11    1    3    3    0    0  0.48964499362E+02  0.35019553435E+02 -0.10965382592E+03  0.12509137804E+03  0.00000000000E+00 0. -1.
          2    1    1    2  501    0  0.19841200428E+02 -0.27739053691E+02 -0.12592182870E+03  0.13045855770E+03  0.00000000000E+00 0. -1.
<scales pt_clust_5="13000.00000" pt_clust_6="13000.00000" pt_clust_7="13000.00000" pt_clust_8="13000.00000" pt_clust_9="13000.00000"></scales>
<clustering>
<clus scale="   89.892">  7  8 -1 -1</clus>
<clus scale="   91.285">  5  6 -1 -1</clus>
<clus scale="   34.105">  5  9 -1 -1</clus>
<clus scale="  115.051">  2  7  1 -1</clus>
<clus scale="  145.263">  1  5  2 -1</clus>
</clustering>
</event>
<event>
 9    1  0.6399313E-006  0.2027864E+03  0.7546771E-02  0.1172408E+00
         21   -1    0    0  501  502  0.00000000000E+00  0.00000000000E+00  0.10515177777E+03  0.10515177777E+03  0.00000000000E+00 0. -1.
          1   -1    0    0  502    0 -0.00000000000E+00 -0.00000000000E+00 -0.24932631519E+03  0.24932631519E+03  0.00000000000E+00 0. -1.
         23    2    1    2    0    0 -0.47514168378E+01  0.65035149572E+02 -0.89675101328E+02  0.14449595034E+03  0.92656943747E+02 0.  0.
         23    2    1    2    0    0 -0.47673375502E+02  0.10734688017E+02 -0.29070904370E+02  0.11439952200E+03  0.99268065832E+02 0.  0.
        -11    1    4    4    0    0  0.78538668730E+01 -0.28910456258E+02  0.14667290588E+02  0.33356065702E+02  0.00000000000E+00 0.  1.
         11    1    4    4    0    0 -0.55527242375E+02  0.39645144275E+02 -0.43738194958E+02  0.81043456297E+02  0.00000000000E+00 0. -1.
        -13    1    3    3    0    0  0.19620770649E+02 -0.15805476064E+02 -0.66007631036E+01  0.26045302610E+02  0.00000000000E+00 0.  1.
         13    1    3    3    0    0 -0.24372187487E+02  0.80840625636E+02 -0.83074338225E+02  0.11845064773E+03  0.00000000000E+00 0. -1.
          1    1    1    2  501    0  0.52424792340E+02 -0.75769837589E+02 -0.25428531722E+02  0.95582620626E+02  0.00000000000E+00 0. -1.
<scales pt_clust_5="13000.00000" pt_clust_6="13000.00000" pt_clust_7="13000.00000" pt_clust_8="13000.00000" pt_clust_9="13000.00000"></scales>
<clustering>
<clus scale="   92.657">  7  8 -1 -1</clus>
<clus scale="   99.268">  5  6 -1 -1</clus>
<clus scale="   92.138">  5  9 -1 -1</clus>
<clus scale="  113.302">  2  7  1 -1</clus>
<clus scale="  202.786">  1  5  2 -1</clus>
</clustering>
</event>
<event>
 9    1  0.6399313E-006  0.2240876E+03  0.7546771E-02  0.1152980E+00
         21   -1    0    0  501  502  0.00000000000E+00  0.00000000000E+00  0.21317180242E+03  0.21317180242E+03  0.00000000000E+00 0.  1.
          1   -1    0    0  502    0 -0.00000000000E+00 -0.00000000000E+00 -0.15917863216E+03  0.15917863216E+03  0.00000000000E+00 0. -1.
         23    2    1    2    0    0 -0.47639463117E+02  0.82068190061E+02  0.67235297910E+02  0.14787191488E+03  0.91328044204E+02 0.  0.
         23    2    1    2    0    0 -0.55151068980E+02 -0.68362731311E+02 -0.42906544375E+01  0.12039268032E+03  0.82224596794E+02 0.  0.
        -11    1    4    4    0    0 -0.20097741955E+02  0.17837212839E+02 -0.50129598542E+01  0.27335236601E+02  0.00000000000E+00 0. -1.
         11    1    4    4    0    0 -0.35053327025E+02 -0.86199944150E+02  0.72230541669E+00  0.93057443722E+02  0.00000000000E+00 0.  1.
        -13    1    3    3    0    0 -0.44366747608E+02  0.10212834285E+03  0.57948527752E+02  0.12552544991E+03  0.00000000000E+00 0.  1.
         13    1    3    3    0    0 -0.32727155088E+01 -0.20060152786E+02  0.92867701582E+01  0.22346464968E+02  0.00000000000E+00 0. -1.
          1    1    1    2  501    0  0.10279053210E+03 -0.13705458750E+02 -0.89514732109E+01  0.10408583939E+03  0.00000000000E+00 0. -1.
<scales pt_clust_5="13000.00000" pt_clust_6="13000.00000" pt_clust_7="13000.00000" pt_clust_8="13000.00000" pt_clust_9="13000.00000"></scales>
<clustering>
<clus scale="   82.225">  5  6 -1 -1</clus>
<clus scale="   91.328">  7  8 -1 -1</clus>
<clus scale="  103.700">  5  9 -1 -1</clus>
<clus scale="  131.702">  2  7  1 -1</clus>
<clus scale="  224.088">  1  5  2 -1</clus>
</clustering>
</event>
<event>
 9    1  0.6399313E-006  0.2025410E+03  0.7546771E-02  0.1157782E+00
         -2   -1    0    0    0  501 -0.00000000000E+00  0.00000000000E+00  0.52167561485E+02  0.52167561485E+02  0.00000000000E+00 0.  1.
         21   -1    0    0  501  502  0.00000000000E+00 -0.00000000000E+00 -0.62767179704E+03  0.62767179704E+03  0.00000000000E+00 0.  1.
         23    2    1    2    0    0 -0.68625522310E+02 -0.11125529099E+03 -0.25582030551E+03  0.30139428236E+03  0.91144295722E+02 0.  0.
         23    2    1    2    0    0  0.41610276048E+02  0.13833950260E+02 -0.15460183361E+03  0.18486604909E+03  0.91383455278E+02 0.  0.
        -11    1    4    4    0    0 -0.22279036155E+02  0.24126899625E+02 -0.77725688174E+02  0.84378583418E+02  0.00000000000E+00 0. -1.
         11    1    4    4    0    0  0.63889312202E+02 -0.10292949366E+02 -0.76876145432E+02  0.10048746567E+03  0.00000000000E+00 0.  1.
        -13    1    3    3    0    0 -0.14902597850E+02 -0.59539824143E+02 -0.40519000558E+02  0.73545003147E+02  0.00000000000E+00 0. -1.
         13    1    3    3    0    0 -0.53722924460E+02 -0.51715466843E+02 -0.21530130495E+03  0.22784927921E+03  0.00000000000E+00 0.  1.
         -2    1    1    2    0  502  0.27015246263E+02  0.97421340727E+02 -0.16508209643E+03  0.19357902707E+03  0.00000000000E+00 0.  1.
<scales pt_clust_5="13000.00000" pt_clust_6="13000.00000" pt_clust_7="13000.00000" pt_clust_8="13000.00000" pt_clust_9="13000.00000"></scales>
<clustering>
<clus scale="   91.144">  7  8 -1 -1</clus>
<clus scale="   91.383">  5  6 -1 -1</clus>
<clus scale="  101.098">  5  9 -1 -1</clus>
<clus scale="  159.357">  1  7  2 -1</clus>
<clus scale="  202.541">  2  5  1 -1</clus>
</clustering>
</event>
<event>
 9    1  0.6399313E-006  0.2916539E+03  0.7546771E-02  0.1113503E+00
         -1   -1    0    0    0  501 -0.00000000000E+00  0.00000000000E+00  0.49394737008E+02  0.49394737008E+02  0.00000000000E+00 0.  1.
         21   -1    0    0  501  502  0.00000000000E+00 -0.00000000000E+00 -0.10726670757E+04  0.10726670757E+04  0.00000000000E+00 0.  1.
         23    2    1    2    0    0 -0.12703683488E+03 -0.17788243133E+02 -0.24365673691E+03  0.28967818473E+03  0.89944795604E+02 0.  0.
         23    2    1    2    0    0  0.45212917300E+02 -0.24121826627E+02 -0.93335956362E+02  0.13997380775E+03  0.90857006860E+02 0.  0.
        -11    1    4    4    0    0  0.58306290869E+02  0.16317990175E+02 -0.43963875656E+02  0.74824613069E+02  0.00000000000E+00 0. -1.
         11    1    4    4    0    0 -0.13093373569E+02 -0.40439816802E+02 -0.49372080706E+02  0.65149194681E+02  0.00000000000E+00 0.  1.
        -13    1    3    3    0    0 -0.97571030922E+02  0.13417658334E+02 -0.10253537515E+03  0.14217469109E+03  0.00000000000E+00 0.  1.
         13    1    3    3    0    0 -0.29465803955E+02 -0.31205901466E+02 -0.14112136177E+03  0.14750349364E+03  0.00000000000E+00 0. -1.
         -1    1    1    2    0  502  0.81823917577E+02  0.41910069760E+02 -0.68627964543E+03  0.69240982024E+03  0.00000000000E+00 0.  1.
<scales pt_clust_5="13000.00000" pt_clust_6="13000.00000" pt_clust_7="13000.00000" pt_clust_8="13000.00000" pt_clust_9="13000.00000"></scales>
<clustering>
<clus scale="   89.945">  7  8 -1 -1</clus>
<clus scale="   90.857">  5  6 -1 -1</clus>
<clus scale="   91.933">  5  9 -1 -1</clus>
<clus scale="  156.668">  1  7  2 -1</clus>
<clus scale="  291.654">  2  5  1 -1</clus>
</clustering>
</event>
<event>
 9    1  0.6399313E-006  0.1415208E+03  0.7546771E-02  0.1229865E+00
         21   -1    0    0  501  502  0.00000000000E+00  0.00000000000E+00  0.23847411755E+02  0.23847411755E+02  0.00000000000E+00 0.  1.
          1   -1    0    0  502    0 -0.00000000000E+00 -0.00000000000E+00 -0.62595461540E+03  0.62595461540E+03  0.00000000000E+00 0. -1.
         23    2    1    2    0    0  0.19189124172E+02  0.27303445906E+02 -0.32209636839E+03  0.33605975405E+03  0.89868721568E+02 0.  0.
         23    2    1    2    0    0 -0.92387882793E+01 -0.52663039461E+02 -0.25224907682E+03  0.27484711401E+03  0.95145091254E+02 0.  0.
        -11    1    4    4    0    0 -0.40346298833E+02 -0.62640779999E+02 -0.19756025773E+03  0.21114390018E+03  0.00000000000E+00 0.  1.
         11    1    4    4    0    0  0.31107510554E+02  0.99777405384E+01 -0.54688819091E+02  0.63703213834E+02  0.00000000000E+00 0. -1.
        -11    1    3    3    0    0 -0.33474538280E+02  0.87106032813E+01 -0.73011891553E+02  0.80790814025E+02  0.00000000000E+00 0.  1.
         11    1    3    3    0    0  0.52663662452E+02  0.18592842624E+02 -0.24908447683E+03  0.25526894002E+03  0.00000000000E+00 0. -1.
          1    1    1    2  501    0 -0.99503358924E+01  0.25359593555E+02 -0.27761758438E+02  0.38895159097E+02  0.00000000000E+00 0. -1.
<scales pt_clust_5="13000.00000" pt_clust_6="13000.00000" pt_clust_7="13000.00000" pt_clust_8="13000.00000" pt_clust_9="13000.00000"></scales>
<clustering>
<clus scale="   89.869">  7  8 -1 -1</clus>
<clus scale="   95.145">  5  6 -1 -1</clus>
<clus scale="   27.242">  5  9 -1 -1</clus>
<clus scale="   95.865">  2  7  1 -1</clus>
<clus scale="  141.521">  1  5  2 -1</clus>
</clustering>
</event>
<event>
 9    1  0.6399313E-006  0.5395718E+03  0.7546771E-02  0.1035892E+00
         21   -1    0    0  501  502  0.00000000000E+00  0.00000000000E+00  0.98296113803E+03  0.98296113803E+03  0.00000000000E+00 0.  1.
         -1   -1    0    0    0  501 -0.00000000000E+00 -0.00000000000E+00 -0.33316248625E+03  0.33316248625E+03  0.00000000000E+00 0.  1.
         23    2    1    2    0    0 -0.68257857447E+02 -0.17074685829E+03 -0.21482368699E+03  0.29695261924E+03  0.90653278254E+02 0.  0.
         23    2    1    2    0    0 -0.64231875279E+02  0.72076028107E+02 -0.71180172940E+01  0.13191641340E+03  0.89613538730E+02 0.  0.
        -13    1    3    3    0    0 -0.45567338397E+02 -0.43040033905E+02 -0.25971975725E+02  0.67848141980E+02  0.00000000000E+00 0. -1.
         13    1    3    3    0    0 -0.22690519051E+02 -0.12770682439E+03 -0.18885171127E+03  0.22910447726E+03  0.00000000000E+00 0.  1.
        -13    1    4    4    0    0 -0.83355449702E+01 -0.18500726271E+02  0.12293293563E+02  0.23725160677E+02  0.00000000000E+00 0.  1.
         13    1    4    4    0    0 -0.55896330309E+02  0.90576754379E+02 -0.19411310857E+02  0.10819125272E+03  0.00000000000E+00 0. -1.
         -1    1    1    2    0  502  0.13248973273E+03  0.98670830183E+02  0.87174035606E+03  0.88725459164E+03  0.00000000000E+00 0.  1.
<scales pt_clust_5="13000.00000" pt_clust_6="13000.00000" pt_clust_7="13000.00000" pt_clust_8="13000.00000" pt_clust_9="13000.00000"></scales>
<clustering>
<clus scale="   89.614">  7  8 -1 -1</clus>
<clus scale="   90.653">  5  6 -1 -1</clus>
<clus scale="  165.195">  7  9 -1 -1</clus>
<clus scale="  205.016">  2  5  1 -1</clus>
<clus scale="  539.572">  1  5  2 -1</clus>
</clustering>
</event>
<event>
 9    1  0.6399313E-006  0.6481180E+03  0.7546771E-02  0.1041600E+00
         21   -1    0    0  501  502  0.00000000000E+00  0.00000000000E+00  0.33094803346E+03  0.33094803346E+03  0.00000000000E+00 0. -1.
          1   -1    0    0  502    0 -0.00000000000E+00 -0.00000000000E+00 -0.63229639550E+03  0.63229639550E+03  0.00000000000E+00 0. -1.
         23    2    1    2    0    0 -0.13123143249E+02  0.44128168842E+02 -0.29878193346E+03  0.31512138453E+03  0.88945663464E+02 0.  0.
         23    2    1    2    0    0  0.42716445323E+02  0.14834186012E+03 -0.26651581421E+03  0.32011427358E+03  0.87249451352E+02 0.  0.
        -11    1    3    3    0    0 -0.45502264622E+02  0.49273987689E+02 -0.21180173267E+03  0.22216740515E+03  0.00000000000E+00 0.  1.
         11    1    3    3    0    0  0.32379121373E+02 -0.51458188471E+01 -0.86980200792E+02  0.92953979378E+02  0.00000000000E+00 0. -1.
        -11    1    4    4    0    0 -0.12400048103E+00  0.24556356755E+02 -0.16305946709E+01  0.24610747087E+02  0.00000000000E+00 0.  1.
         11    1    4    4    0    0  0.42840445804E+02  0.12378550336E+03 -0.26488521954E+03  0.29550352650E+03  0.00000000000E+00 0. -1.
          1    1    1    2  501    0 -0.29593302074E+02 -0.19247002896E+03  0.26394938563E+03  0.32800877085E+03  0.00000000000E+00 0. -1.
<scales pt_clust_5="13000.00000" pt_clust_6="13000.00000" pt_clust_7="13000.00000" pt_clust_8="13000.00000" pt_clust_9="13000.00000"></scales>
<clustering>
<clus scale="   87.249">  7  8 -1 -1</clus>
<clus scale="   88.946">  5  6 -1 -1</clus>
<clus scale="  100.154">  2  5  1 -1</clus>
<clus scale="  190.644">  7  9 -1 -1</clus>
<clus scale="  648.118">  1  5  2 -1</clus>
</clustering>
</event>
<event>
 9    1  0.6399313E-006  0.1861921E+03  0.7546771E-02  0.1183225E+00
         21   -1    0    0  501  502  0.00000000000E+00  0.00000000000E+00  0.10544651966E+03  0.10544651966E+03  0.00000000000E+00 0. -1.
          2   -1    0    0  502    0 -0.00000000000E+00 -0.00000000000E+00 -0.27275800318E+03  0.27275800318E+03  0.00000000000E+00 0. -1.
         23    2    1    2    0    0  0.17286979960E+02 -0.66678059178E+02 -0.15335577335E+03  0.19149015781E+03  0.91682517776E+02 0.  0.
         23    2    1    2    0    0  0.50208333749E+01  0.44707014617E+01  0.40642058694E+02  0.10099207940E+03  0.92208607122E+02 0.  0.
        -11    1    3    3    0    0  0.34613229878E+02 -0.13337015044E+02 -0.12140017147E+03  0.12694074714E+03  0.00000000000E+00 0. -1.
         11    1    3    3    0    0 -0.17326249919E+02 -0.53341044134E+02 -0.31955601881E+02  0.64549410664E+02  0.00000000000E+00 0.  1.
        -13    1    4    4    0    0 -0.28538071402E+02  0.78524207650E+01 -0.17054140055E+02  0.34160294557E+02  0.00000000000E+00 0.  1.
         13    1    4    4    0    0  0.33558904777E+02 -0.33817193033E+01  0.57696198749E+02  0.66831784843E+02  0.00000000000E+00 0. -1.
          2    1    1    2  501    0 -0.22307813335E+02  0.62207357717E+02 -0.54597768865E+02  0.85722285637E+02  0.00000000000E+00 0. -1.
<scales pt_clust_5="13000.00000" pt_clust_6="13000.00000" pt_clust_7="13000.00000" pt_clust_8="13000.00000" pt_clust_9="13000.00000"></scales>
<clustering>
<clus scale="   91.683">  5  6 -1 -1</clus>
<clus scale="   92.209">  7  8 -1 -1</clus>
<clus scale="   66.086">  7  9 -1 -1</clus>
<clus scale="  114.676">  2  5  1 -1</clus>
<clus scale="  186.192">  1  5  2 -1</clus>
</clustering>
</event>
<event>
 9    1  0.6399313E-006  0.3009698E+03  0.7546771E-02  0.1117909E+00
          3   -1    0    0  502    0 -0.00000000000E+00  0.00000000000E+00  0.68360513242E+02  0.68360513242E+02  0.00000000000E+00 0. -1.
         21   -1    0    0  501  502  0.00000000000E+00 -0.00000000000E+00 -0.98557911259E+03  0.98557911259E+03  0.00000000000E+00 0.  1.
         23    2    1    2    0    0  0.91140176975E+02 -0.45321176948E+01 -0.61249716268E+03  0.62564301806E+03  0.89159070187E+02 0.  0.
         23    2    1    2    0    0 -0.73003087447E+02 -0.93751565709E+02 -0.56612153599E+02  0.16081417324E+03  0.92398352426E+02 0.  0.
        -11    1    3    3    0    0  0.84391607292E+02  0.32127833684E+02 -0.43542201219E+03  0.44468693457E+03  0.00000000000E+00 0.  1.
         11    1    3    3    0    0  0.67485696830E+01 -0.36659951378E+02 -0.17707515049E+03  0.18095608348E+03  0.00000000000E+00 0. -1.
        -13    1    4    4    0    0  0.17596451364E+02 -0.42751303734E+02 -0.22319556046E+02  0.51336844991E+02  0.00000000000E+00 0.  1.
         13    1    4    4    0    0 -0.90599538811E+02 -0.51000261975E+02 -0.34292597554E+02  0.10947732825E+03  0.00000000000E+00 0. -1.
          3    1    1    2  501    0 -0.18137089529E+02  0.98283683404E+02 -0.24810928306E+03  0.26748243453E+03  0.00000000000E+00 0. -1.
<scales pt_clust_5="13000.00000" pt_clust_6="13000.00000" pt_clust_7="13000.00000" pt_clust_8="13000.00000" pt_clust_9="13000.00000"></scales>
<clustering>
<clus scale="   89.159">  5  6 -1 -1</clus>
<clus scale="   92.398">  7  8 -1 -1</clus>
<clus scale="   99.943">  7  9 -1 -1</clus>
<clus scale="  127.579">  1  5  2 -1</clus>
<clus scale="  300.970">  2  5  1 -1</clus>
</clustering>
</event>
<event>
 9    1  0.6399313E-006  0.8153793E+03  0.7546771E-02  0.1013252E+00
         21   -1    0    0  501  502  0.00000000000E+00  0.00000000000E+00  0.21883161936E+03  0.21883161936E+03  0.00000000000E+00 0.  1.
         -1   -1    0    0    0  501 -0.00000000000E+00 -0.00000000000E+00 -0.11237181218E+04  0.11237181218E+04  0.00000000000E+00 0.  1.
         23    2    1    2    0    0 -0.22938992629E+02  0.68067158726E+02 -0.31522445632E+03  0.33629690039E+03  0.92573278386E+02 0.  0.
         23    2    1    2    0    0  0.36050189837E+03 -0.20135382859E+03 -0.45022113989E+03  0.61746264279E+03  0.89755542558E+02 0.  0.
        -13    1    4    4    0    0  0.13821025674E+03 -0.12779840051E+03 -0.20960049414E+03  0.28172126896E+03  0.00000000000E+00 0. -1.
         13    1    4    4    0    0  0.22229164163E+03 -0.73555428080E+02 -0.24062064575E+03  0.33574137382E+03  0.00000000000E+00 0.  1.
        -13    1    3    3    0    0 -0.14382177188E+02  0.91288636344E+02 -0.25032549485E+03  0.26683949392E+03  0.00000000000E+00 0. -1.
         13    1    3    3    0    0 -0.85568154411E+01 -0.23221477618E+02 -0.64898961476E+02  0.69457406472E+02  0.00000000000E+00 0.  1.
         -1    1    1    2    0  502 -0.33756290574E+03  0.13328666987E+03 -0.13944090621E+03  0.38879019795E+03  0.00000000000E+00 0.  1.
<scales pt_clust_5="13000.00000" pt_clust_6="13000.00000" pt_clust_7="13000.00000" pt_clust_8="13000.00000" pt_clust_9="13000.00000"></scales>
<clustering>
<clus scale="   89.756">  5  6 -1 -1</clus>
<clus scale="   92.573">  7  8 -1 -1</clus>
<clus scale="  117.171">  2  7  1 -1</clus>
<clus scale="  378.697">  5  9 -1 -1</clus>
<clus scale="  815.379">  1  5  2 -1</clus>
</clustering>
</event>
<event>
 9    1  0.6399313E-006  0.3165586E+03  0.7546771E-02  0.1095691E+00
         -1   -1    0    0    0  501 -0.00000000000E+00  0.00000000000E+00  0.34342720505E+03  0.34342720505E+03  0.00000000000E+00 0.  1.
         21   -1    0    0  501  502  0.00000000000E+00 -0.00000000000E+00 -0.34859732042E+03  0.34859732042E+03  0.00000000000E+00 0.  1.
         23    2    1    2    0    0 -0.27080110312E+02  0.16789536434E+03  0.22774526641E+03  0.29901189014E+03  0.92833282453E+02 0.  0.
         23    2    1    2    0    0  0.26442543887E+02 -0.20488653707E+02  0.21461264749E+02  0.99011575585E+02  0.90684690865E+02 0.  0.
        -11    1    4    4    0    0  0.28337581873E+02 -0.40728662607E+02 -0.19477824459E+02  0.53303172043E+02  0.00000000000E+00 0. -1.
         11    1    4    4    0    0 -0.18950379855E+01  0.20240008900E+02  0.40939089207E+02  0.45708403542E+02  0.00000000000E+00 0.  1.
        -13    1    3    3    0    0 -0.42024470200E+02  0.44930250861E+02  0.11994798329E+03  0.13480468179E+03  0.00000000000E+00 0.  1.
         13    1    3    3    0    0  0.14944359888E+02  0.12296511348E+03  0.10779728313E+03  0.16420720835E+03  0.00000000000E+00 0. -1.
         -1    1    1    2    0  502  0.63756642474E+00 -0.14740671063E+03 -0.25437664654E+03  0.29400105975E+03  0.00000000000E+00 0.  1.
<scales pt_clust_5="13000.00000" pt_clust_6="13000.00000" pt_clust_7="13000.00000" pt_clust_8="13000.00000" pt_clust_9="13000.00000"></scales>
<clustering>
<clus scale="   90.685">  5  6 -1 -1</clus>
<clus scale="   92.833">  7  8 -1 -1</clus>
<clus scale="  147.408">  5  9 -1 -1</clus>
<clus scale="  193.753">  1  7  2 -1</clus>
<clus scale="  316.559">  2  5  1 -1</clus>
</clustering>
</event>
<event>
 9    1  0.6399313E-006  0.3738004E+03  0.7546771E-02  0.1088718E+00
         21   -1    0    0  501  502  0.00000000000E+00  0.00000000000E+00  0.86792016173E+02  0.86792016173E+02  0.00000000000E+00 0.  1.
         -2   -1    0    0    0  501 -0.00000000000E+00 -0.00000000000E+00 -0.83068835188E+03  0.83068835188E+03  0.00000000000E+00 0.  1.
         23    2    1    2    0    0  0.10205747336E+03  0.37954151940E+02 -0.33423103880E+03  0.36290629510E+03  0.90190610415E+02 0.  0.
         23    2    1    2    0    0  0.60684131981E+02 -0.12064972171E+02 -0.36868197995E+03  0.38476620504E+03  0.91052198077E+02 0.  0.
        -11    1    3    3    0    0  0.48307384942E+02  0.29389949425E+02 -0.28150292928E+03  0.28712588138E+03  0.00000000000E+00 0.  1.
         11    1    3    3    0    0  0.53750088414E+02  0.85642025144E+01 -0.52728109523E+02  0.75780413717E+02  0.00000000000E+00 0. -1.
        -13    1    4    4    0    0  0.81874101941E+02 -0.22877029456E+02 -0.31002442143E+03  0.32146830159E+03  0.00000000000E+00 0.  1.
         13    1    4    4    0    0 -0.21189969960E+02  0.10812057285E+02 -0.58657558519E+02  0.63297903449E+02  0.00000000000E+00 0. -1.
         -2    1    1    2    0  502 -0.16274160534E+03 -0.25889179768E+02 -0.40983316959E+02  0.16980786792E+03  0.00000000000E+00 0.  1.
<scales pt_clust_5="13000.00000" pt_clust_6="13000.00000" pt_clust_7="13000.00000" pt_clust_8="13000.00000" pt_clust_9="13000.00000"></scales>
<clustering>
<clus scale="   90.191">  5  6 -1 -1</clus>
<clus scale="   91.052">  7  8 -1 -1</clus>
<clus scale="  141.388">  2  5  1 -1</clus>
<clus scale="  141.529">  7  9 -1 -1</clus>
<clus scale="  373.800">  1  5  2 -1</clus>
</clustering>
</event>
<event>
 9    1  0.6399313E-006  0.1378571E+03  0.7546771E-02  0.1234042E+00
         -1   -1    0    0    0  501 -0.00000000000E+00  0.00000000000E+00  0.17682971884E+03  0.17682971884E+03  0.00000000000E+00 0.  1.
         21   -1    0    0  501  502  0.00000000000E+00 -0.00000000000E+00 -0.79139762496E+02  0.79139762496E+02  0.00000000000E+00 0. -1.
         23    2    1    2    0    0 -0.94240465786E+01 -0.26293454189E+02  0.61947832277E+02  0.11355430171E+03  0.90977398985E+02 0.  0.
         23    2    1    2    0    0 -0.25893190533E+01  0.53876527640E+02  0.16583143834E+02  0.10674707877E+03  0.90612103846E+02 0.  0.
        -11    1    4    4    0    0 -0.21021619610E+02  0.48325213264E+01 -0.29789895042E+02  0.36779064697E+02  0.00000000000E+00 0.  1.
         11    1    4    4    0    0  0.18432300557E+02  0.49044006314E+02  0.46373038875E+02  0.69968014075E+02  0.00000000000E+00 0. -1.
        -11    1    3    3    0    0  0.74238951114E+01 -0.37170237034E+02 -0.97223435668E+01  0.39131377489E+02  0.00000000000E+00 0. -1.
         11    1    3    3    0    0 -0.16847941690E+02  0.10876782845E+02  0.71670175843E+02  0.74422924221E+02  0.00000000000E+00 0.  1.
         -1    1    1    2    0  502  0.12013365632E+02 -0.27583073451E+02  0.19158980231E+02  0.35668100851E+02  0.00000000000E+00 0.  1.
<scales pt_clust_5="13000.00000" pt_clust_6="13000.00000" pt_clust_7="13000.00000" pt_clust_8="13000.00000" pt_clust_9="13000.00000"></scales>
<clustering>
<clus scale="   90.612">  5  6 -1 -1</clus>
<clus scale="   30.086">  5  9 -1 -1</clus>
<clus scale="   90.977">  7  8 -1 -1</clus>
<clus scale="   95.169">  1  7  2 -1</clus>
<clus scale="  137.857">  2  5  1 -1</clus>
</clustering>
</event>
<event>
 9    1  0.6399313E-006  0.1746645E+03  0.7546771E-02  0.1189971E+00
          1   -1    0    0  502    0 -0.00000000000E+00  0.00000000000E+00  0.56658038226E+02  0.56658038226E+02  0.00000000000E+00 0. -1.
         21   -1    0    0  501  502  0.00000000000E+00 -0.00000000000E+00 -0.55497457683E+03  0.55497457683E+03  0.00000000000E+00 0. -1.
         23    2    1    2    0    0  0.53047445294E+02  0.29719644116E+02 -0.48388910404E+02  0.12899138187E+03  0.10295630747E+03 0.  0.
         23    2    1    2    0    0 -0.51995479949E+02  0.32458342418E+01 -0.18258638908E+03  0.21327314389E+03  0.97126613515E+02 0.  0.
        -11    1    3    3    0    0 -0.21330362907E+02 -0.81098128451E+01 -0.38778115974E+02  0.44994396591E+02  0.00000000000E+00 0.  1.
         11    1    3    3    0    0  0.74377808201E+02  0.37829456961E+02 -0.96107944300E+01  0.83996985281E+02  0.00000000000E+00 0. -1.
        -11    1    4    4    0    0  0.18030144853E+01 -0.39914549053E+02 -0.83229644428E+02  0.92323322074E+02  0.00000000000E+00 0.  1.
         11    1    4    4    0    0 -0.53798494435E+02  0.43160383294E+02 -0.99356744649E+02  0.12094982181E+03  0.00000000000E+00 0. -1.
          1    1    1    2  501    0 -0.10519653450E+01 -0.32965478358E+02 -0.26734123912E+03  0.26936808929E+03  0.00000000000E+00 0. -1.
<scales pt_clust_5="13000.00000" pt_clust_6="13000.00000" pt_clust_7="13000.00000" pt_clust_8="13000.00000" pt_clust_9="13000.00000"></scales>
<clustering>
<clus scale="   97.127">  7  8 -1 -1</clus>
<clus scale="   32.982">  7  9 -1 -1</clus>
<clus scale="  102.956">  5  6 -1 -1</clus>
<clus scale="  119.571">  1  5  2 -1</clus>
<clus scale="  174.665">  2  5  1 -1</clus>
</clustering>
</event>
<event>
 9    1  0.6399313E-006  0.1555619E+03  0.7546771E-02  0.1213050E+00
         21   -1    0    0  501  502  0.00000000000E+00  0.00000000000E+00  0.47002967879E+02  0.47002967879E+02  0.00000000000E+00 0.  1.
         -1   -1    0    0    0  501 -0.00000000000E+00 -0.00000000000E+00 -0.39587133373E+03  0.39587133373E+03  0.00000000000E+00 0.  1.
         23    2    1    2    0    0  0.58566509263E+02  0.17821055713E+02 -0.21252679312E+03  0.23602041855E+03  0.82403726541E+02 0.  0.
         23    2    1    2    0    0 -0.42079548718E+02 -0.54999963579E+02 -0.10432503291E+03  0.15509337803E+03  0.91512616636E+02 0.  0.
        -11    1    4    4    0    0 -0.18265234337E+02 -0.32711898998E+02 -0.11486085194E+03  0.12081681352E+03  0.00000000000E+00 0.  1.
         11    1    4    4    0    0 -0.23814314381E+02 -0.22288064581E+02  0.10535819026E+02  0.34276564512E+02  0.00000000000E+00 0. -1.
        -13    1    3    3    0    0 -0.12237438182E+01 -0.24017495688E+02 -0.24506991803E+02  0.34335554390E+02  0.00000000000E+00 0. -1.
         13    1    3    3    0    0  0.59790253081E+02  0.41838551400E+02 -0.18801980131E+03  0.20168486416E+03  0.00000000000E+00 0.  1.
         -1    1    1    2    0  502 -0.16486960545E+02  0.37178907866E+02 -0.32016539825E+02  0.51760505025E+02  0.00000000000E+00 0.  1.
<scales pt_clust_5="13000.00000" pt_clust_6="13000.00000" pt_clust_7="13000.00000" pt_clust_8="13000.00000" pt_clust_9="13000.00000"></scales>
<clustering>
<clus scale="   82.404">  7  8 -1 -1</clus>
<clus scale="   91.513">  5  6 -1 -1</clus>
<clus scale="   40.671">  5  9 -1 -1</clus>
<clus scale="  102.655">  2  7  1 -1</clus>
<clus scale="  155.562">  1  5  2 -1</clus>
</clustering>
</event>
<event>
 9    1  0.6399313E-006  0.2818128E+03  0.7546771E-02  0.1133114E+00
         21   -1    0    0  501  502  0.00000000000E+00  0.00000000000E+00  0.58121565630E+03  0.58121565630E+03  0.00000000000E+00 0. -1.
          4   -1    0    0  502    0 -0.00000000000E+00 -0.00000000000E+00 -0.82930501230E+02  0.82930501230E+02  0.00000000000E+00 0. -1.
         23    2    1    2    0    0 -0.30698856534E+02 -0.45812426806E+02  0.30316657988E+03  0.32137844999E+03  0.91284909615E+02 0.  0.
         23    2    1    2    0    0  0.12044702695E+02 -0.32713282023E+02 -0.27404049786E+02  0.10605990659E+03  0.96345670151E+02 0.  0.
        -11    1    3    3    0    0 -0.60642612627E+02 -0.41142140708E+02  0.24589994819E+03  0.25658719127E+03  0.00000000000E+00 0. -1.
         11    1    3    3    0    0  0.29943756092E+02 -0.46702860986E+01  0.57266631691E+02  0.64791258719E+02  0.00000000000E+00 0.  1.
        -13    1    4    4    0    0 -0.35683016216E+02 -0.35337937209E+02  0.14233745915E+01  0.50240157720E+02  0.00000000000E+00 0.  1.
         13    1    4    4    0    0  0.47727718912E+02  0.26246551860E+01 -0.28827424377E+02  0.55819748867E+02  0.00000000000E+00 0. -1.
          4    1    1    2  501    0  0.18654153839E+02  0.78525708829E+02  0.22252262498E+03  0.23670780095E+03  0.00000000000E+00 0. -1.
<scales pt_clust_5="13000.00000" pt_clust_6="13000.00000" pt_clust_7="13000.00000" pt_clust_8="13000.00000" pt_clust_9="13000.00000"></scales>
<clustering>
<clus scale="   91.285">  5  6 -1 -1</clus>
<clus scale="   96.346">  7  8 -1 -1</clus>
<clus scale="   80.711">  7  9 -1 -1</clus>
<clus scale="  106.650">  2  5  1 -1</clus>
<clus scale="  281.813">  1  5  2 -1</clus>
</clustering>
</event>
<event>
 9    1  0.6399313E-006  0.1700351E+03  0.7546771E-02  0.1204988E+00
         -1   -1    0    0    0  501 -0.00000000000E+00  0.00000000000E+00  0.53730131636E+03  0.53730131636E+03  0.00000000000E+00 0.  1.
         21   -1    0    0  501  502  0.00000000000E+00 -0.00000000000E+00 -0.32345971410E+02  0.32345971410E+02  0.00000000000E+00 0.  1.
         23    2    1    2    0    0  0.13613363856E+02 -0.20976185808E+02  0.16790209600E+03  0.19213328438E+03  0.89993116828E+02 0.  0.
         23    2    1    2    0    0 -0.58816151969E+01  0.64476290719E+02  0.29882725413E+03  0.31909084237E+03  0.91265833744E+02 0.  0.
        -13    1    4    4    0    0 -0.14207524205E+02 -0.17988677348E+02  0.11754653583E+03  0.11976073790E+03  0.00000000000E+00 0. -1.
         13    1    4    4    0    0  0.83259090082E+01  0.82464968067E+02  0.18128071830E+03  0.19933010447E+03  0.00000000000E+00 0.  1.
        -13    1    3    3    0    0  0.24820611184E+02  0.30864023407E+02  0.84070159416E+02  0.92932461415E+02  0.00000000000E+00 0. -1.
         13    1    3    3    0    0 -0.11207247329E+02 -0.51840209216E+02  0.83831936587E+02  0.99200822961E+02  0.00000000000E+00 0.  1.
         -1    1    1    2    0  502 -0.77317486586E+01 -0.43500104910E+02  0.38225994810E+02  0.58423161022E+02  0.00000000000E+00 0.  1.
<scales pt_clust_5="13000.00000" pt_clust_6="13000.00000" pt_clust_7="13000.00000" pt_clust_8="13000.00000" pt_clust_9="13000.00000"></scales>
<clustering>
<clus scale="   89.993">  7  8 -1 -1</clus>
<clus scale="   91.266">  5  6 -1 -1</clus>
<clus scale="   44.182">  5  9 -1 -1</clus>
<clus scale="   93.403">  1  7  2 -1</clus>
<clus scale="  170.035">  2  5  1 -1</clus>
</clustering>
</event>
<event>
 9    1  0.6399313E-006  0.4017475E+03  0.7546771E-02  0.1078846E+00
         21   -1    0    0  501  502  0.00000000000E+00  0.00000000000E+00  0.96680368221E+02  0.96680368221E+02  0.00000000000E+00 0. -1.
          1   -1    0    0  502    0 -0.00000000000E+00 -0.00000000000E+00 -0.78897993159E+03  0.78897993159E+03  0.00000000000E+00 0. -1.
         23    2    1    2    0    0 -0.44184013940E+02  0.10733544945E+03 -0.15194855821E+03  0.21232511759E+03  0.92306367166E+02 0.  0.
         23    2    1    2    0    0 -0.13386239184E+03 -0.79182562789E+02 -0.41248448386E+03  0.45233075940E+03  0.10134420692E+03 0.  0.
        -13    1    4    4    0    0 -0.74659910009E+02  0.75731921390E+01 -0.11971006467E+03  0.14128678277E+03  0.00000000000E+00 0.  1.
         13    1    4    4    0    0 -0.59202481831E+02 -0.86755754928E+02 -0.29277441918E+03  0.31104397663E+03  0.00000000000E+00 0. -1.
        -13    1    3    3    0    0 -0.28635492767E+02 -0.75099189752E+00 -0.47377663689E+01  0.29034494399E+02  0.00000000000E+00 0.  1.
         13    1    3    3    0    0 -0.15548521174E+02  0.10808644135E+03 -0.14721079184E+03  0.18329062319E+03  0.00000000000E+00 0. -1.
          1    1    1    2  501    0  0.17804640578E+03 -0.28152886666E+02 -0.12786652131E+03  0.22100442283E+03  0.00000000000E+00 0. -1.
<scales pt_clust_5="13000.00000" pt_clust_6="13000.00000" pt_clust_7="13000.00000" pt_clust_8="13000.00000" pt_clust_9="13000.00000"></scales>
<clustering>
<clus scale="   92.306">  7  8 -1 -1</clus>
<clus scale="  101.344">  5  6 -1 -1</clus>
<clus scale="  148.302">  2  7  1 -1</clus>
<clus scale="  165.368">  5  9 -1 -1</clus>
<clus scale="  401.748">  1  5  2 -1</clus>
</clustering>
</event>
<event>
 9    1  0.6399313E-006  0.1540425E+03  0.7546771E-02  0.1218985E+00
          2   -1    0    0  502    0 -0.00000000000E+00  0.00000000000E+00  0.46045499525E+03  0.46045499525E+03  0.00000000000E+00 0. -1.
         21   -1    0    0  501  502  0.00000000000E+00 -0.00000000000E+00 -0.53156478505E+02  0.53156478505E+02  0.00000000000E+00 0. -1.
         23    2    1    2    0    0  0.25213381329E+01  0.23615651182E+02  0.32671622561E+03  0.33976501739E+03  0.90181588149E+02 0.  0.
         23    2    1    2    0    0  0.34848876163E+02 -0.45054205841E+02  0.43439609680E+02  0.11696303762E+03  0.92460947678E+02 0.  0.
        -11    1    4    4    0    0  0.87744351799E+01 -0.47791804628E+02  0.66285694959E+02  0.82187837656E+02  0.00000000000E+00 0. -1.
         11    1    4    4    0    0  0.26074440983E+02  0.27375987869E+01 -0.22846085279E+02  0.34775199961E+02  0.00000000000E+00 0.  1.
        -13    1    3    3    0    0 -0.20483067506E+02 -0.29158146241E+02  0.11938059993E+03  0.12458523663E+03  0.00000000000E+00 0.  1.
         13    1    3    3    0    0  0.23004405638E+02  0.52773797423E+02  0.20733562568E+03  0.21517978076E+03  0.00000000000E+00 0. -1.
          2    1    1    2  501    0 -0.37370214296E+02  0.21438554659E+02  0.37142681457E+02  0.56883418746E+02  0.00000000000E+00 0. -1.
<scales pt_clust_5="13000.00000" pt_clust_6="13000.00000" pt_clust_7="13000.00000" pt_clust_8="13000.00000" pt_clust_9="13000.00000"></scales>
<clustering>
<clus scale="   90.182">  7  8 -1 -1</clus>
<clus scale="   92.461">  5  6 -1 -1</clus>
<clus scale="   43.083">  5  9 -1 -1</clus>
<clus scale="   93.257">  1  7  2 -1</clus>
<clus scale="  154.042">  2  5  1 -1</clus>
</clustering>
</event>
<event>
 9    1  0.6399313E-006  0.2850429E+03  0.7546771E-02  0.1126534E+00
          1   -1    0    0  502    0 -0.00000000000E+00  0.00000000000E+00  0.65308745157E+03  0.65308745157E+03  0.00000000000E+00 0. -1.
         21   -1    0    0  501  502  0.00000000000E+00 -0.00000000000E+00 -0.63238081907E+02  0.63238081907E+02  0.00000000000E+00 0.  1.
         23    2    1    2    0    0 -0.80697848687E+02 -0.22740711906E+01  0.18772261845E+03  0.22342048969E+03  0.90330612480E+02 0.  0.
         23    2    1    2    0    0 -0.39469820514E+02  0.91338992286E+02  0.15334687404E+03  0.20262198163E+03  0.87405522819E+02 0.  0.
        -11    1    4    4    0    0 -0.27214520672E+02  0.40190883365E+02  0.14026202551E+03  0.14842295321E+03  0.00000000000E+00 0. -1.
         11    1    4    4    0    0 -0.12255299841E+02  0.51148108920E+02  0.13084848532E+02  0.54199028418E+02  0.00000000000E+00 0.  1.
        -13    1    3    3    0    0 -0.10075503849E+03  0.13220915302E+01  0.15707756415E+03  0.18661909566E+03  0.00000000000E+00 0.  1.
         13    1    3    3    0    0  0.20057189800E+02 -0.35961627208E+01  0.30645054301E+02  0.36801394024E+02  0.00000000000E+00 0. -1.
          1    1    1    2  501    0  0.12016766920E+03 -0.89064921095E+02  0.24877987717E+03  0.29028306216E+03  0.00000000000E+00 0. -1.
<scales pt_clust_5="13000.00000" pt_clust_6="13000.00000" pt_clust_7="13000.00000" pt_clust_8="13000.00000" pt_clust_9="13000.00000"></scales>
<clustering>
<clus scale="   87.406">  5  6 -1 -1</clus>
<clus scale="   90.331">  7  8 -1 -1</clus>
<clus scale="  121.148">  1  7  2 -1</clus>
<clus scale="  115.325">  5  9 -1 -1</clus>
<clus scale="  285.043">  2  5  1 -1</clus>
</clustering>
</event>
<event>
 9    1  0.6399313E-006  0.1554111E+03  0.7546771E-02  0.1214107E+00
         21   -1    0    0  501  502  0.00000000000E+00  0.00000000000E+00  0.14094735939E+03  0.14094735939E+03  0.00000000000E+00 0. -1.
         -1   -1    0    0    0  501 -0.00000000000E+00 -0.00000000000E+00 -0.11635949849E+03  0.11635949849E+03  0.00000000000E+00 0.  1.
         23    2    1    2    0    0  0.25326007447E+02  0.32394361649E+02  0.12141279579E+02  0.10139815314E+03  0.91887830913E+02 0.  0.
         23    2    1    2    0    0  0.94405569410E+01 -0.59777920685E+02  0.20533544757E+01  0.11044891516E+03  0.92370031282E+02 0.  0.
        -11    1    4    4    0    0 -0.23211695525E+02 -0.27203073155E+02  0.37845299449E+02  0.52067808564E+02  0.00000000000E+00 0. -1.
         11    1    4    4    0    0  0.32652252466E+02 -0.32574847530E+02 -0.35791944973E+02  0.58381106598E+02  0.00000000000E+00 0.  1.
        -13    1    3    3    0    0  0.54965810342E+02  0.24470612868E+02  0.28559158674E+02  0.66600876457E+02  0.00000000000E+00 0.  1.
         13    1    3    3    0    0 -0.29639802894E+02  0.79237487810E+01 -0.16417879095E+02  0.34797276680E+02  0.00000000000E+00 0. -1.
         -1    1    1    2    0  502 -0.34766564388E+02  0.27383559036E+02  0.10393226851E+02  0.45459789586E+02  0.00000000000E+00 0.  1.
<scales pt_clust_5="13000.00000" pt_clust_6="13000.00000" pt_clust_7="13000.00000" pt_clust_8="13000.00000" pt_clust_9="13000.00000"></scales>
<clustering>
<clus scale="   91.888">  7  8 -1 -1</clus>
<clus scale="   92.370">  5  6 -1 -1</clus>
<clus scale="   44.256">  5  9 -1 -1</clus>
<clus scale="  100.669">  2  7  1 -1</clus>
<clus scale="  155.411">  1  5  2 -1</clus>
</clustering>
</event>
<event>
 9    1  0.6399313E-006  0.1780123E+03  0.7546771E-02  0.1181601E+00
         21   -1    0    0  501  502  0.00000000000E+00  0.00000000000E+00  0.65143177568E+02  0.65143177568E+02  0.00000000000E+00 0. -1.
          1   -1    0    0  502    0 -0.00000000000E+00 -0.00000000000E+00 -0.45203503096E+03  0.45203503096E+03  0.00000000000E+00 0. -1.
         23    2    1    2    0    0  0.26598310521E+02  0.88269776702E+02 -0.68366357448E+02  0.15228525700E+03  0.10008904569E+03 0.  0.
         23    2    1    2    0    0 -0.15857924742E+02 -0.11722949186E+02 -0.95582740775E+02  0.12893057154E+03  0.84250404320E+02 0.  0.
        -11    1    3    3    0    0 -0.27308439188E+01  0.65186745448E+02 -0.88443522724E+02  0.10990462230E+03  0.00000000000E+00 0. -1.
         11    1    3    3    0    0  0.29329154440E+02  0.23083031254E+02  0.20077165276E+02  0.42380634700E+02  0.00000000000E+00 0.  1.
        -11    1    4    4    0    0  0.15938517347E+02 -0.38830665582E+02 -0.31713190856E+02  0.52607826405E+02  0.00000000000E+00 0.  1.
         11    1    4    4    0    0 -0.31796442089E+02  0.27107716396E+02 -0.63869549919E+02  0.76322745132E+02  0.00000000000E+00 0. -1.
          1    1    1    2  501    0 -0.10740385779E+02 -0.76546827516E+02 -0.22294275517E+03  0.23596237999E+03  0.00000000000E+00 0. -1.
<scales pt_clust_5="13000.00000" pt_clust_6="13000.00000" pt_clust_7="13000.00000" pt_clust_8="13000.00000" pt_clust_9="13000.00000"></scales>
<clustering>
<clus scale="   84.250">  7  8 -1 -1</clus>
<clus scale="   77.297">  7  9 -1 -1</clus>
<clus scale="  100.089">  5  6 -1 -1</clus>
<clus scale="  136.077">  2  5  1 -1</clus>
<clus scale="  178.012">  1  5  2 -1</clus>
</clustering>
</event>
<event>
 9    1  0.6399313E-006  0.3218550E+03  0.7546771E-02  0.1115361E+00
         21   -1    0    0  501  502  0.00000000000E+00  0.00000000000E+00  0.40304960860E+03  0.40304960860E+03  0.00000000000E+00 0. -1.
          1   -1    0    0  502    0 -0.00000000000E+00 -0.00000000000E+00 -0.12196733334E+03  0.12196733334E+03  0.00000000000E+00 0. -1.
         23    2    1    2    0    0 -0.63772501922E+02 -0.13817097927E+02  0.25716233639E+02  0.11416116823E+03  0.90075543088E+02 0.  0.
         23    2    1    2    0    0 -0.66665047291E+01  0.14295261322E+03  0.16534916595E+03  0.23840093072E+03  0.94946117230E+02 0.  0.
        -11    1    4    4    0    0 -0.12845025841E+02  0.21420176060E+02  0.94163669630E+02  0.97419789106E+02  0.00000000000E+00 0.  1.
         11    1    4    4    0    0  0.61785211120E+01  0.12153243716E+03  0.71185496317E+02  0.14098114161E+03  0.00000000000E+00 0. -1.
        -13    1    3    3    0    0  0.13751522333E+02 -0.26325970852E+02  0.19195392950E+02  0.35364165737E+02  0.00000000000E+00 0.  1.
         13    1    3    3    0    0 -0.77524024256E+02  0.12508872925E+02  0.65208406887E+01  0.78797002493E+02  0.00000000000E+00 0. -1.
          1    1    1    2  501    0  0.70439006652E+02 -0.12913551529E+03  0.90016875669E+02  0.17245484299E+03  0.00000000000E+00 0. -1.
<scales pt_clust_5="13000.00000" pt_clust_6="13000.00000" pt_clust_7="13000.00000" pt_clust_8="13000.00000" pt_clust_9="13000.00000"></scales>
<clustering>
<clus scale="   90.076">  7  8 -1 -1</clus>
<clus scale="   94.946">  5  6 -1 -1</clus>
<clus scale="  111.227">  2  7  1 -1</clus>
<clus scale="  141.291">  5  9 -1 -1</clus>
<clus scale="  321.855">  1  5  2 -1</clus>
</clustering>
</event>
<event>
 9    1  0.6399313E-006  0.4360196E+03  0.7546771E-02  0.1066223E+00
         21   -1    0    0  501  502  0.00000000000E+00  0.00000000000E+00  0.72682615464E+02  0.72682615464E+02  0.00000000000E+00 0.  1.
          1   -1    0    0  502    0 -0.00000000000E+00 -0.00000000000E+00 -0.12786330679E+04  0.12786330679E+04  0.00000000000E+00 0. -1.
         23    2    1    2    0    0  0.65704223046E+02  0.11901145501E+03 -0.22962572256E+03  0.28205283854E+03  0.91351299483E+02 0.  0.
         23    2    1    2    0    0  0.10119196832E+03 -0.19126367056E+03 -0.71224334379E+03  0.74861709041E+03  0.79469246589E+02 0.  0.
        -13    1    4    4    0    0  0.75312828142E+02 -0.72453861243E+02 -0.40291257058E+03  0.41624526859E+03  0.00000000000E+00 0.  1.
         13    1    4    4    0    0  0.25879140178E+02 -0.11880980932E+03 -0.30933077321E+03  0.33237182182E+03  0.00000000000E+00 0. -1.
        -13    1    3    3    0    0  0.82292558553E+01  0.82021916974E+02 -0.69037413031E+02  0.10752432243E+03  0.00000000000E+00 0.  1.
         13    1    3    3    0    0  0.57474967190E+02  0.36989538033E+02 -0.16058830953E+03  0.17452851611E+03  0.00000000000E+00 0. -1.
          1    1    1    2  501    0 -0.16689619137E+03  0.72252215550E+02 -0.26408138606E+03  0.32064575439E+03  0.00000000000E+00 0. -1.
<scales pt_clust_5="13000.00000" pt_clust_6="13000.00000" pt_clust_7="13000.00000" pt_clust_8="13000.00000" pt_clust_9="13000.00000"></scales>
<clustering>
<clus scale="   79.469">  5  6 -1 -1</clus>
<clus scale="   91.351">  7  8 -1 -1</clus>
<clus scale="  163.786">  2  7  1 -1</clus>
<clus scale="  182.295">  5  9 -1 -1</clus>
<clus scale="  436.020">  1  5  2 -1</clus>
</clustering>
</event>
<event>
 9    1  0.6399313E-006  0.2713083E+03  0.7546771E-02  0.1135009E+00
          2   -1    0    0  502    0 -0.00000000000E+00  0.00000000000E+00  0.87566371094E+03  0.87566371094E+03  0.00000000000E+00 0. -1.
         21   -1    0    0  501  502  0.00000000000E+00 -0.00000000000E+00 -0.11054701427E+03  0.11054701427E+03  0.00000000000E+00 0. -1.
         23    2    1    2    0    0 -0.54277053454E+02 -0.43127332165E+02 -0.51864729280E+02  0.12535832129E+03  0.90657560422E+02 0.  0.
         23    2    1    2    0    0  0.60242701278E+02 -0.88907942722E+02  0.46410979503E+03  0.48404039419E+03  0.85810232673E+02 0.  0.
        -11    1    4    4    0    0  0.20685909086E+02 -0.89397465105E+02  0.25002451989E+03  0.26633076080E+03  0.00000000000E+00 0. -1.
         11    1    4    4    0    0  0.39556792192E+02  0.48952238211E+00  0.21408527513E+03  0.21770963339E+03  0.00000000000E+00 0.  1.
        -13    1    3    3    0    0 -0.48401824489E+02 -0.70674402511E+02 -0.42882638575E+02  0.95794198547E+02  0.00000000000E+00 0.  1.
         13    1    3    3    0    0 -0.58752289647E+01  0.27547070346E+02 -0.89820907044E+01  0.29564122741E+02  0.00000000000E+00 0. -1.
          2    1    1    2  501    0 -0.59656478242E+01  0.13203527489E+03  0.35287163092E+03  0.37681200973E+03  0.00000000000E+00 0. -1.
<scales pt_clust_5="13000.00000" pt_clust_6="13000.00000" pt_clust_7="13000.00000" pt_clust_8="13000.00000" pt_clust_9="13000.00000"></scales>
<clustering>
<clus scale="   85.810">  5  6 -1 -1</clus>
<clus scale="   90.658">  7  8 -1 -1</clus>
<clus scale="  114.126">  1  7  2 -1</clus>
<clus scale="  117.075">  5  9 -1 -1</clus>
<clus scale="  271.308">  2  5  1 -1</clus>
</clustering>
</event>
<event>
 9    1  0.7858467E-006  0.6215518E+03  0.7546771E-02  0.1047318E+00
          1   -1    0    0  502    0 -0.00000000000E+00  0.00000000000E+00  0.33402929520E+03  0.33402929520E+03  0.00000000000E+00 0. -1.
         21   -1    0    0  501  502  0.00000000000E+00 -0.00000000000E+00 -0.39258324664E+03  0.39258324664E+03  0.00000000000E+00 0. -1.
         23    2    1    2    0    0  0.25565214940E+02  0.20207254477E+02  0.24964684680E+02  0.99474632139E+02  0.90609346149E+02 0.  0.
         23    2    1    2    0    0 -0.56771049330E+02  0.83734339050E+02  0.24553896599E+03  0.28064611402E+03  0.90765995390E+02 0.  0.
        -11    1    4    4    0    0  0.63002310299E+01  0.33182824460E+02  0.15769997466E+03  0.16127639244E+03  0.00000000000E+00 0.  1.
         11    1    4    4    0    0 -0.63071280360E+02  0.50551514590E+02  0.87838991330E+02  0.11936972159E+03  0.00000000000E+00 0. -1.
        -13    1    3    3    0    0 -0.17297514446E+02 -0.27267168588E+02  0.97144568384E+01  0.33720515424E+02  0.00000000000E+00 0.  1.
         13    1    3    3    0    0  0.42862729386E+02  0.47474423065E+02  0.15250227842E+02  0.65754116715E+02  0.00000000000E+00 0. -1.
          1    1    1    2  501    0  0.31205834390E+02 -0.10394159353E+03 -0.32905760211E+03  0.34649179567E+03  0.00000000000E+00 0. -1.
<scales pt_clust_5="13000.00000" pt_clust_6="13000.00000" pt_clust_7="13000.00000" pt_clust_8="13000.00000" pt_clust_9="13000.00000"></scales>
<clustering>
<clus scale="   90.609">  7  8 -1 -1</clus>
<clus scale="   90.766">  5  6 -1 -1</clus>
<clus scale="   96.291">  1  7  2 -1</clus>
<clus scale="  108.144">  5  9 -1 -1</clus>
<clus scale="  621.552">  2  5  1 -1</clus>
</clustering>
</event>
<event>
 9    1  0.6399313E-006  0.1885826E+03  0.7546771E-02  0.1186332E+00
         21   -1    0    0  501  502  0.00000000000E+00  0.00000000000E+00  0.22211364258E+03  0.22211364258E+03  0.00000000000E+00 0. -1.
         -2   -1    0    0    0  501 -0.00000000000E+00 -0.00000000000E+00 -0.10838819065E+03  0.10838819065E+03  0.00000000000E+00 0.  1.
         23    2    1    2    0    0 -0.15562795863E+02  0.45806482990E+02 -0.12255827350E+02  0.10370970108E+03  0.90912388016E+02 0.  0.
         23    2    1    2    0    0  0.18977786284E+01 -0.22479647623E+02 -0.25990504340E+01  0.95400446211E+02  0.92658264355E+02 0.  0.
        -13    1    4    4    0    0  0.23607826718E+02 -0.39951392592E+02  0.27852638938E+02  0.54122201990E+02  0.00000000000E+00 0. -1.
         13    1    4    4    0    0 -0.21710048090E+02  0.17471744970E+02 -0.30451689372E+02  0.41278244221E+02  0.00000000000E+00 0.  1.
        -13    1    3    3    0    0 -0.98238664854E+01 -0.24655210194E+02  0.11784446497E+02  0.29038955244E+02  0.00000000000E+00 0. -1.
         13    1    3    3    0    0 -0.57389293773E+01  0.70461693184E+02 -0.24040273847E+02  0.74670745834E+02  0.00000000000E+00 0.  1.
         -2    1    1    2    0  502  0.13665017234E+02 -0.23326835368E+02  0.12858032971E+03  0.13139168594E+03  0.00000000000E+00 0.  1.
<scales pt_clust_5="13000.00000" pt_clust_6="13000.00000" pt_clust_7="13000.00000" pt_clust_8="13000.00000" pt_clust_9="13000.00000"></scales>
<clustering>
<clus scale="   90.912">  7  8 -1 -1</clus>
<clus scale="   92.658">  5  6 -1 -1</clus>
<clus scale="   27.035">  5  9 -1 -1</clus>
<clus scale="  102.983">  2  7  1 -1</clus>
<clus scale="  188.583">  1  5  2 -1</clus>
</clustering>
</event>
<event>
 9    1  0.6399313E-006  0.4464151E+03  0.7546771E-02  0.1076544E+00
         -1   -1    0    0    0  501 -0.00000000000E+00  0.00000000000E+00  0.42605223436E+02  0.42605223436E+02  0.00000000000E+00 0.  1.
         21   -1    0    0  501  502  0.00000000000E+00 -0.00000000000E+00 -0.18524101078E+04  0.18524101078E+04  0.00000000000E+00 0.  1.
         23    2    1    2    0    0 -0.52522573791E+02 -0.44599269427E+02 -0.40079102200E+03  0.41697390145E+03  0.92119897848E+02 0.  0.
         23    2    1    2    0    0  0.10772486140E+03 -0.16437018204E+03 -0.88778465594E+03  0.91377605797E+03  0.90569786852E+02 0.  0.
        -11    1    4    4    0    0  0.76447719232E+02 -0.16186465886E+03 -0.81647619481E+03  0.83586948638E+03  0.00000000000E+00 0.  1.
         11    1    4    4    0    0  0.31277142171E+02 -0.25055231765E+01 -0.71308461125E+02  0.77906571589E+02  0.00000000000E+00 0. -1.
        -11    1    3    3    0    0 -0.16020963965E+02 -0.62667188062E+02 -0.32029155430E+03  0.32675759746E+03  0.00000000000E+00 0. -1.
         11    1    3    3    0    0 -0.36501609826E+02  0.18067918636E+02 -0.80499467706E+02  0.90216303985E+02  0.00000000000E+00 0.  1.
         -1    1    1    2    0  502 -0.55202287612E+02  0.20896945146E+03 -0.52122920638E+03  0.56426537178E+03  0.00000000000E+00 0.  1.
<scales pt_clust_5="13000.00000" pt_clust_6="13000.00000" pt_clust_7="13000.00000" pt_clust_8="13000.00000" pt_clust_9="13000.00000"></scales>
<clustering>
<clus scale="   90.570">  5  6 -1 -1</clus>
<clus scale="   92.120">  7  8 -1 -1</clus>
<clus scale="  115.038">  1  7  2 -1</clus>
<clus scale="  201.383">  5  9 -1 -1</clus>
<clus scale="  446.415">  2  5  1 -1</clus>
</clustering>
</event>
<event>
 9    1  0.6399313E-006  0.1472750E+03  0.7546771E-02  0.1224476E+00
         21   -1    0    0  501  502  0.00000000000E+00  0.00000000000E+00  0.12083522080E+03  0.12083522080E+03  0.00000000000E+00 0. -1.
         -3   -1    0    0    0  501 -0.00000000000E+00 -0.00000000000E+00 -0.17044912809E+03  0.17044912809E+03  0.00000000000E+00 0.  1.
         23    2    1    2    0    0  0.49752665895E+01  0.22343811758E+02 -0.97698882116E+02  0.13635825195E+03  0.92328230287E+02 0.  0.
         23    2    1    2    0    0 -0.46774828487E+01  0.13108447534E+02 -0.52259004049E+01  0.90902657623E+02  0.89678720360E+02 0.  0.
        -13    1    3    3    0    0  0.18851798662E+02 -0.32589203461E+02 -0.30439439588E+02  0.48414935480E+02  0.00000000000E+00 0.  1.
         13    1    3    3    0    0 -0.13876532073E+02  0.54933015220E+02 -0.67259442527E+02  0.87943316475E+02  0.00000000000E+00 0. -1.
        -13    1    4    4    0    0 -0.30026042400E+02  0.17045199589E+02 -0.36640430833E+02  0.50345041691E+02  0.00000000000E+00 0.  1.
         13    1    4    4    0    0  0.25348559551E+02 -0.39367520550E+01  0.31414530428E+02  0.40557615932E+02  0.00000000000E+00 0. -1.
         -3    1    1    2    0  502 -0.29778374076E+00 -0.35452259292E+02  0.53310875233E+02  0.64023439319E+02  0.00000000000E+00 0.  1.
<scales pt_clust_5="13000.00000" pt_clust_6="13000.00000" pt_clust_7="13000.00000" pt_clust_8="13000.00000" pt_clust_9="13000.00000"></scales>
<clustering>
<clus scale="   89.679">  7  8 -1 -1</clus>
<clus scale="   35.454">  7  9 -1 -1</clus>
<clus scale="   92.328">  5  6 -1 -1</clus>
<clus scale="   95.124">  2  5  1 -1</clus>
<clus scale="  147.275">  1  5  2 -1</clus>
</clustering>
</event>
<event>
 9    1  0.6399313E-006  0.2388619E+03  0.7546771E-02  0.1155459E+00
          2   -1    0    0  502    0 -0.00000000000E+00  0.00000000000E+00  0.62214195148E+02  0.62214195148E+02  0.00000000000E+00 0. -1.
         21   -1    0    0  501  502  0.00000000000E+00 -0.00000000000E+00 -0.71124054767E+03  0.71124054767E+03  0.00000000000E+00 0. -1.
         23    2    1    2    0    0 -0.37905276152E+02 -0.39287535872E+02 -0.25449734678E+02  0.10569521397E+03  0.86853145172E+02 0.  0.
         23    2    1    2    0    0 -0.23334782414E+02  0.10684699989E+03 -0.29548822170E+03  0.32723548912E+03  0.88368448657E+02 0.  0.
        -13    1    4    4    0    0  0.67666132273E+01  0.87616221624E+02 -0.12348029566E+03  0.15155781987E+03  0.00000000000E+00 0. -1.
         13    1    4    4    0    0 -0.30101395641E+02  0.19230778262E+02 -0.17200792604E+03  0.17567766925E+03  0.00000000000E+00 0.  1.
        -13    1    3    3    0    0 -0.17716982330E+02  0.22686336911E+02  0.11237213977E+02  0.30900425940E+02  0.00000000000E+00 0.  1.
         13    1    3    3    0    0 -0.20188293823E+02 -0.61973872783E+02 -0.36686948655E+02  0.74794788032E+02  0.00000000000E+00 0. -1.
          2    1    1    2  501    0  0.61240058566E+02 -0.67559464014E+02 -0.32808839614E+03  0.34052403973E+03  0.00000000000E+00 0. -1.
<scales pt_clust_5="13000.00000" pt_clust_6="13000.00000" pt_clust_7="13000.00000" pt_clust_8="13000.00000" pt_clust_9="13000.00000"></scales>
<clustering>
<clus scale="   86.853">  7  8 -1 -1</clus>
<clus scale="   88.368">  5  6 -1 -1</clus>
<clus scale="   91.185">  5  9 -1 -1</clus>
<clus scale="  102.586">  1  7  2 -1</clus>
<clus scale="  238.862">  2  5  1 -1</clus>
</clustering>
</event>
<event>
 9    1  0.6399313E-006  0.2622639E+03  0.7546771E-02  0.1133382E+00
         21   -1    0    0  501  502  0.00000000000E+00  0.00000000000E+00  0.11981269811E+03  0.11981269811E+03  0.00000000000E+00 0.  1.
          1   -1    0    0  502    0 -0.00000000000E+00 -0.00000000000E+00 -0.42560912110E+03  0.42560912110E+03  0.00000000000E+00 0. -1.
         23    2    1    2    0    0 -0.55180642225E+01 -0.94209599783E+02  0.13587367308E+02  0.13215633417E+03  0.91513837129E+02 0.  0.
         23    2    1    2    0    0 -0.49932685223E+02  0.34571538922E+02 -0.29769344366E+03  0.32899238699E+03  0.12619881118E+03 0.  0.
        -11    1    4    4    0    0  0.34884659102E+02  0.29363152580E+02 -0.52742541191E+02  0.69720225339E+02  0.00000000000E+00 0.  1.
         11    1    4    4    0    0 -0.84817344325E+02  0.52083863426E+01 -0.24495090247E+03  0.25927216165E+03  0.00000000000E+00 0. -1.
        -11    1    3    3    0    0  0.42515640087E+02 -0.35743456362E+02  0.97360238149E+01  0.56391173817E+02  0.00000000000E+00 0. -1.
         11    1    3    3    0    0 -0.48033704309E+02 -0.58466143421E+02  0.38513434931E+01  0.75765160350E+02  0.00000000000E+00 0.  1.
          1    1    1    2  501    0  0.55450749445E+02  0.59638060861E+02 -0.21690346636E+02  0.84273098047E+02  0.00000000000E+00 0. -1.
<scales pt_clust_5="13000.00000" pt_clust_6="13000.00000" pt_clust_7="13000.00000" pt_clust_8="13000.00000" pt_clust_9="13000.00000"></scales>
<clustering>
<clus scale="   91.514">  7  8 -1 -1</clus>
<clus scale="  126.199">  5  6 -1 -1</clus>
<clus scale="   81.434">  5  9 -1 -1</clus>
<clus scale="  131.456">  2  7  1 -1</clus>
<clus scale="  262.264">  1  5  2 -1</clus>
</clustering>
</event>
<event>
 9    1  0.6399313E-006  0.3332315E+03  0.7546771E-02  0.1094439E+00
          1   -1    0    0  502    0 -0.00000000000E+00  0.00000000000E+00  0.80163268449E+03  0.80163268449E+03  0.00000000000E+00 0. -1.
         21   -1    0    0  501  502  0.00000000000E+00 -0.00000000000E+00 -0.99177383655E+02  0.99177383655E+02  0.00000000000E+00 0. -1.
         23    2    1    2    0    0  0.14181213844E+03 -0.13561125954E+02  0.45337352779E+03  0.48477522750E+03  0.95733373232E+02 0.  0.
         23    2    1    2    0    0  0.42319575400E+02 -0.61680276893E+02  0.15413814431E+03  0.19562601737E+03  0.94422286139E+02 0.  0.
        -13    1    3    3    0    0  0.10559792464E+03 -0.52935122678E+02  0.31537009718E+03  0.33676601238E+03  0.00000000000E+00 0. -1.
         13    1    3    3    0    0  0.36214213799E+02  0.39373996724E+02  0.13800343061E+03  0.14800921511E+03  0.00000000000E+00 0.  1.
        -13    1    4    4    0    0 -0.11415043787E+02 -0.18895871234E+02  0.11390191645E+03  0.11602156586E+03  0.00000000000E+00 0.  1.
         13    1    4    4    0    0  0.53734619187E+02 -0.42784405659E+02  0.40236227860E+02  0.79604451503E+02  0.00000000000E+00 0. -1.
          1    1    1    2  501    0 -0.18413171384E+03  0.75241402846E+02  0.94943628743E+02  0.22040882329E+03  0.00000000000E+00 0. -1.
<scales pt_clust_5="13000.00000" pt_clust_6="13000.00000" pt_clust_7="13000.00000" pt_clust_8="13000.00000" pt_clust_9="13000.00000"></scales>
<clustering>
<clus scale="   94.422">  7  8 -1 -1</clus>
<clus scale="   95.733">  5  6 -1 -1</clus>
<clus scale="  171.638">  1  5  2 -1</clus>
<clus scale="  135.644">  7  9 -1 -1</clus>
<clus scale="  333.232">  2  5  1 -1</clus>
</clustering>
</event>
<event>
 9    1  0.6399313E-006  0.2308257E+03  0.7546771E-02  0.1144155E+00
         -1   -1    0    0    0  501 -0.00000000000E+00  0.00000000000E+00  0.17533416828E+03  0.17533416828E+03  0.00000000000E+00 0.  1.
         21   -1    0    0  501  502  0.00000000000E+00 -0.00000000000E+00 -0.20649113258E+03  0.20649113258E+03  0.00000000000E+00 0. -1.
         23    2    1    2    0    0 -0.94340643308E+02 -0.69583646255E+02  0.20499490788E+01  0.14862327769E+03  0.91338029172E+02 0.  0.
         23    2    1    2    0    0  0.30160869111E+02  0.78542648372E+02  0.44824315921E+02  0.13177135779E+03  0.90971675796E+02 0.  0.
        -11    1    4    4    0    0 -0.22838473669E+02 -0.58980630681E+01  0.34801515703E+01  0.23843122330E+02  0.00000000000E+00 0. -1.
         11    1    4    4    0    0  0.52999342780E+02  0.84440711440E+02  0.41344164351E+02  0.10792823546E+03  0.00000000000E+00 0.  1.
        -13    1    3    3    0    0 -0.28672819445E+02 -0.41177423560E+02  0.43090419475E+02  0.66139965501E+02  0.00000000000E+00 0.  1.
         13    1    3    3    0    0 -0.65667823863E+02 -0.28406222695E+02 -0.41040470396E+02  0.82483312185E+02  0.00000000000E+00 0. -1.
         -1    1    1    2    0  502  0.64179774197E+02 -0.89590021167E+01 -0.78031229298E+02  0.10143066539E+03  0.00000000000E+00 0.  1.
<scales pt_clust_5="13000.00000" pt_clust_6="13000.00000" pt_clust_7="13000.00000" pt_clust_8="13000.00000" pt_clust_9="13000.00000"></scales>
<clustering>
<clus scale="   90.972">  5  6 -1 -1</clus>
<clus scale="   64.802">  5  9 -1 -1</clus>
<clus scale="   91.338">  7  8 -1 -1</clus>
<clus scale="  148.609">  1  7  2 -1</clus>
<clus scale="  230.826">  2  5  1 -1</clus>
</clustering>
</event>
<event>
 9    1  0.6399313E-006  0.6847102E+03  0.7546771E-02  0.9915645E-01
         21   -1    0    0  501  502  0.00000000000E+00  0.00000000000E+00  0.13254071798E+04  0.13254071798E+04  0.00000000000E+00 0. -1.
          1   -1    0    0  502    0 -0.00000000000E+00 -0.00000000000E+00 -0.45196683611E+03  0.45196683611E+03  0.00000000000E+00 0. -1.
         23    2    1    2    0    0  0.25096484921E+02  0.37924474635E+03 -0.24849484561E+03  0.46300471409E+03  0.90372926178E+02 0.  0.
         23    2    1    2    0    0 -0.99644992778E+02 -0.15849618929E+03  0.48180350530E+02  0.21562599275E+03  0.95514689782E+02 0.  0.
        -13    1    3    3    0    0  0.22719002140E+02  0.25027681746E+03 -0.21244850452E+03  0.32907294858E+03  0.00000000000E+00 0. -1.
         13    1    3    3    0    0  0.23774827806E+01  0.12896792889E+03 -0.36046341093E+02  0.13393176551E+03  0.00000000000E+00 0.  1.
        -13    1    4    4    0    0 -0.11352167684E+03 -0.10471944071E+03  0.31364677216E+02  0.15759782788E+03  0.00000000000E+00 0.  1.
         13    1    4    4    0    0  0.13876684062E+02 -0.53776748588E+02  0.16815673314E+02  0.58028164871E+02  0.00000000000E+00 0. -1.
          1    1    1    2  501    0  0.74548507857E+02 -0.22074855705E+03  0.10737548388E+04  0.10987433091E+04  0.00000000000E+00 0. -1.
<scales pt_clust_5="13000.00000" pt_clust_6="13000.00000" pt_clust_7="13000.00000" pt_clust_8="13000.00000" pt_clust_9="13000.00000"></scales>
<clustering>
<clus scale="   90.373">  5  6 -1 -1</clus>
<clus scale="   95.515">  7  8 -1 -1</clus>
<clus scale="  232.997">  7  9 -1 -1</clus>
<clus scale="  390.671">  2  5  1 -1</clus>
<clus scale="  684.710">  1  5  2 -1</clus>
</clustering>
</event>
<event>
 9    1  0.6399313E-006  0.1572582E+03  0.7546771E-02  0.1201304E+00
          2   -1    0    0  502    0 -0.00000000000E+00  0.00000000000E+00  0.47000875785E+03  0.47000875785E+03  0.00000000000E+00 0. -1.
         21   -1    0    0  501  502  0.00000000000E+00 -0.00000000000E+00 -0.53032522918E+02  0.53032522918E+02  0.00000000000E+00 0. -1.
         23    2    1    2    0    0 -0.35402246961E+02 -0.79928309295E+02  0.79043148171E+02  0.15030958386E+03  0.93291468051E+02 0.  0.
         23    2    1    2    0    0  0.26465105678E+02  0.27552518540E+02  0.26961659650E+03  0.28618553123E+03  0.88031278992E+02 0.  0.
        -13    1    4    4    0    0 -0.26588232643E+02  0.85671547952E+01  0.16510520895E+03  0.16745166550E+03  0.00000000000E+00 0.  1.
         13    1    4    4    0    0  0.53053338321E+02  0.18985363744E+02  0.10451138754E+03  0.11873386572E+03  0.00000000000E+00 0. -1.
        -13    1    3    3    0    0  0.15586061990E+02 -0.56949190175E+02  0.75261999145E+01  0.59521250617E+02  0.00000000000E+00 0. -1.
         13    1    3    3    0    0 -0.50988308951E+02 -0.22979119120E+02  0.71516948257E+02  0.90788333244E+02  0.00000000000E+00 0.  1.
          2    1    1    2  501    0  0.89371412834E+01  0.52375790755E+02  0.68316490262E+02  0.86546165676E+02  0.00000000000E+00 0. -1.
<scales pt_clust_5="13000.00000" pt_clust_6="13000.00000" pt_clust_7="13000.00000" pt_clust_8="13000.00000" pt_clust_9="13000.00000"></scales>
<clustering>
<clus scale="   88.031">  5  6 -1 -1</clus>
<clus scale="   53.133">  5  9 -1 -1</clus>
<clus scale="   93.291">  7  8 -1 -1</clus>
<clus scale="  127.848">  1  7  2 -1</clus>
<clus scale="  157.258">  2  5  1 -1</clus>
</clustering>
</event>
<event>
 9    1  0.1084125E-005  0.4762100E+03  0.7546771E-02  0.1047780E+00
         21   -1    0    0  501  502  0.00000000000E+00  0.00000000000E+00  0.14216807316E+03  0.14216807316E+03  0.00000000000E+00 0.  1.
          1   -1    0    0  502    0 -0.00000000000E+00 -0.00000000000E+00 -0.84307431712E+03  0.84307431712E+03  0.00000000000E+00 0. -1.
         23    2    1    2    0    0  0.15277864917E+03 -0.85364504916E+02 -0.27147149865E+03  0.34400130994E+03  0.11837107892E+03 0.  0.
         23    2    1    2    0    0  0.44954853055E+02  0.46675558057E+02 -0.42510746978E+03  0.43971168342E+03  0.91817520869E+02 0.  0.
        -11    1    4    4    0    0  0.63430491802E+02  0.61760708126E+02 -0.33497406346E+03  0.34647573587E+03  0.00000000000E+00 0.  1.
         11    1    4    4    0    0 -0.18475638746E+02 -0.15085150068E+02 -0.90133406324E+02  0.93235947548E+02  0.00000000000E+00 0. -1.
        -11    1    3    3    0    0  0.15619973489E+03 -0.10612003704E+03 -0.25486763776E+03  0.31720235217E+03  0.00000000000E+00 0.  1.
         11    1    3    3    0    0 -0.34210857239E+01  0.20755532129E+02 -0.16603860883E+02  0.26798957773E+02  0.00000000000E+00 0. -1.
          1    1    1    2  501    0 -0.19773350222E+03  0.38688946858E+02 -0.43272755327E+01  0.20152939692E+03  0.00000000000E+00 0. -1.
<scales pt_clust_5="13000.00000" pt_clust_6="13000.00000" pt_clust_7="13000.00000" pt_clust_8="13000.00000" pt_clust_9="13000.00000"></scales>
<clustering>
<clus scale="   91.818">  5  6 -1 -1</clus>
<clus scale="  118.371">  7  8 -1 -1</clus>
<clus scale="  201.483">  5  9 -1 -1</clus>
<clus scale="  211.282">  2  7  1 -1</clus>
<clus scale="  476.210">  1  5  2 -1</clus>
</clustering>
</event>
<event>
 9    1  0.6399313E-006  0.1314342E+03  0.7546771E-02  0.1230055E+00
          3   -1    0    0  502    0 -0.00000000000E+00  0.00000000000E+00  0.54833066343E+03  0.54833066343E+03  0.00000000000E+00 0. -1.
         21   -1    0    0  501  502  0.00000000000E+00 -0.00000000000E+00 -0.31251041457E+02  0.31251041457E+02  0.00000000000E+00 0.  1.
         23    2    1    2    0    0  0.69903793583E+02 -0.14278695147E+02  0.16331948951E+03  0.20219440099E+03  0.95492924583E+02 0.  0.
         23    2    1    2    0    0 -0.38217410914E+02  0.11517934633E+02  0.27863274653E+03  0.29580438434E+03  0.90943900539E+02 0.  0.
        -13    1    3    3    0    0  0.19300879653E+02 -0.13257923377E+02 -0.70594383790E+01  0.24456740541E+02  0.00000000000E+00 0.  1.
         13    1    3    3    0    0  0.50602913930E+02 -0.10207717695E+01  0.17037892789E+03  0.17773766045E+03  0.00000000000E+00 0. -1.
        -13    1    4    4    0    0 -0.57290061032E+02 -0.80105611298E+01  0.24850733307E+03  0.25515135659E+03  0.00000000000E+00 0. -1.
         13    1    4    4    0    0  0.19072650118E+02  0.19528495763E+02  0.30125413457E+02  0.40653027750E+02  0.00000000000E+00 0.  1.
          3    1    1    2  501    0 -0.31686382669E+02  0.27607605134E+01  0.75127385939E+02  0.81582919556E+02  0.00000000000E+00 0. -1.
<scales pt_clust_5="13000.00000" pt_clust_6="13000.00000" pt_clust_7="13000.00000" pt_clust_8="13000.00000" pt_clust_9="13000.00000"></scales>
<clustering>
<clus scale="   90.944">  7  8 -1 -1</clus>
<clus scale="   31.806">  7  9 -1 -1</clus>
<clus scale="   95.493">  5  6 -1 -1</clus>
<clus scale="  119.203">  1  5  2 -1</clus>
<clus scale="  131.434">  2  5  1 -1</clus>
</clustering>
</event>
<event>
 9    1  0.6399313E-006  0.1915965E+03  0.7546771E-02  0.1173316E+00
         21   -1    0    0  501  502  0.00000000000E+00  0.00000000000E+00  0.36606848137E+03  0.36606848137E+03  0.00000000000E+00 0. -1.
          1   -1    0    0  502    0 -0.00000000000E+00 -0.00000000000E+00 -0.11567332081E+03  0.11567332081E+03  0.00000000000E+00 0. -1.
         23    2    1    2    0    0 -0.90087124583E+02  0.28198799994E+02 -0.36677078047E+02  0.13660461482E+03  0.91677425786E+02 0.  0.
         23    2    1    2    0    0  0.28850170738E+02 -0.23536682570E+02  0.77519054151E+02  0.12676998063E+03  0.93140305216E+02 0.  0.
        -11    1    3    3    0    0  0.46047098311E+01  0.30993458449E+02 -0.27030423044E+02  0.41381657642E+02  0.00000000000E+00 0.  1.
         11    1    3    3    0    0 -0.94691834414E+02 -0.27946584553E+01 -0.96466550031E+01  0.95222957176E+02  0.00000000000E+00 0. -1.
        -13    1    4    4    0    0  0.18848492041E+02  0.32046433492E+02  0.95226411284E+01  0.38378643096E+02  0.00000000000E+00 0.  1.
         13    1    4    4    0    0  0.10001678696E+02 -0.55583116063E+02  0.67996413023E+02  0.88391337539E+02  0.00000000000E+00 0. -1.
          1    1    1    2  501    0  0.61236953845E+02 -0.46621174238E+01  0.20955318446E+03  0.21836720672E+03  0.00000000000E+00 0. -1.
<scales pt_clust_5="13000.00000" pt_clust_6="13000.00000" pt_clust_7="13000.00000" pt_clust_8="13000.00000" pt_clust_9="13000.00000"></scales>
<clustering>
<clus scale="   91.677">  5  6 -1 -1</clus>
<clus scale="   93.140">  7  8 -1 -1</clus>
<clus scale="   61.414">  7  9 -1 -1</clus>
<clus scale="  131.589">  2  5  1 -1</clus>
<clus scale="  191.596">  1  5  2 -1</clus>
</clustering>
</event>
<event>
 9    1  0.6399313E-006  0.3914334E+03  0.7546771E-02  0.1094870E+00
         21   -1    0    0  501  502  0.00000000000E+00  0.00000000000E+00  0.22399156437E+03  0.22399156437E+03  0.00000000000E+00 0. -1.
          1   -1    0    0  502    0 -0.00000000000E+00 -0.00000000000E+00 -0.37176107062E+03  0.37176107062E+03  0.00000000000E+00 0. -1.
         23    2    1    2    0    0  0.55768288427E+02  0.27748440000E+01 -0.17439636175E+03  0.20341467625E+03  0.88575604826E+02 0.  0.
         23    2    1    2    0    0 -0.13080790250E+03 -0.54926617834E+02  0.15856794238E+03  0.23184122480E+03  0.92081053771E+02 0.  0.
        -11    1    4    4    0    0 -0.79284101089E+02 -0.24078324385E+02  0.26886319978E+02  0.87112620169E+02  0.00000000000E+00 0.  1.
         11    1    4    4    0    0 -0.51523801413E+02 -0.30848293449E+02  0.13168162240E+03  0.14472860463E+03  0.00000000000E+00 0. -1.
        -11    1    3    3    0    0 -0.22803679705E+02  0.11582577940E+02 -0.45780017658E+02  0.52440193903E+02  0.00000000000E+00 0. -1.
         11    1    3    3    0    0  0.78571968132E+02 -0.88077339401E+01 -0.12861634409E+03  0.15097448235E+03  0.00000000000E+00 0.  1.
          1    1    1    2  501    0  0.75039614075E+02  0.52151773834E+02 -0.13194108689E+03  0.16049673394E+03  0.00000000000E+00 0. -1.
<scales pt_clust_5="13000.00000" pt_clust_6="13000.00000" pt_clust_7="13000.00000" pt_clust_8="13000.00000" pt_clust_9="13000.00000"></scales>
<clustering>
<clus scale="   88.576">  7  8 -1 -1</clus>
<clus scale="   92.081">  5  6 -1 -1</clus>
<clus scale="   91.382">  5  9 -1 -1</clus>
<clus scale="  104.706">  2  7  1 -1</clus>
<clus scale="  391.433">  1  5  2 -1</clus>
</clustering>
</event>
<event>
 9    1  0.6399313E-006  0.2205151E+03  0.7546771E-02  0.1155713E+00
         21   -1    0    0  501  502  0.00000000000E+00  0.00000000000E+00  0.99360196706E+02  0.99360196706E+02  0.00000000000E+00 0. -1.
          3   -1    0    0  502    0 -0.00000000000E+00 -0.00000000000E+00 -0.30845331943E+03  0.30845331943E+03  0.00000000000E+00 0. -1.
         23    2    1    2    0    0  0.89712720303E+02 -0.10895954035E+02 -0.78823564243E+02  0.15169429533E+03  0.92902696170E+02 0.  0.
         23    2    1    2    0    0 -0.32318340297E+02 -0.70688996762E+02 -0.68881714512E+02  0.13899242439E+03  0.92373124123E+02 0.  0.
        -11    1    4    4    0    0  0.27815407607E+02 -0.11596138428E+02 -0.21520933062E-01  0.30135822370E+02  0.00000000000E+00 0. -1.
         11    1    4    4    0    0 -0.60133747904E+02 -0.59092858334E+02 -0.68860193579E+02  0.10885660202E+03  0.00000000000E+00 0.  1.
        -13    1    3    3    0    0  0.43953070767E+02 -0.51872699001E+02 -0.45526597731E+02  0.81824937717E+02  0.00000000000E+00 0.  1.
         13    1    3    3    0    0  0.45759649535E+02  0.40976744966E+02 -0.33296966512E+02  0.69869357608E+02  0.00000000000E+00 0. -1.
          3    1    1    2  501    0 -0.57394380006E+02  0.81584950797E+02 -0.61387843965E+02  0.11712679642E+03  0.00000000000E+00 0. -1.
<scales pt_clust_5="13000.00000" pt_clust_6="13000.00000" pt_clust_7="13000.00000" pt_clust_8="13000.00000" pt_clust_9="13000.00000"></scales>
<clustering>
<clus scale="   92.373">  5  6 -1 -1</clus>
<clus scale="   92.903">  7  8 -1 -1</clus>
<clus scale="   99.751">  5  9 -1 -1</clus>
<clus scale="  129.607">  2  7  1 -1</clus>
<clus scale="  220.515">  1  5  2 -1</clus>
</clustering>
</event>
<event>
 9    1  0.6399313E-006  0.2389262E+03  0.7546771E-02  0.1148698E+00
         21   -1    0    0  501  502  0.00000000000E+00  0.00000000000E+00  0.27891009760E+02  0.27891009760E+02  0.00000000000E+00 0.  1.
          2   -1    0    0  502    0 -0.00000000000E+00 -0.00000000000E+00 -0.12562043751E+04  0.12562043751E+04  0.00000000000E+00 0. -1.
         23    2    1    2    0    0  0.75273940303E+02  0.23629452772E+02 -0.25562622792E+03  0.28249366198E+03  0.90737993847E+02 0.  0.
         23    2    1    2    0    0 -0.12667877877E+03  0.35108997356E+02 -0.67324090937E+03  0.69214945446E+03  0.92398000939E+02 0.  0.
        -11    1    4    4    0    0 -0.11567266737E+03  0.35770752680E+00 -0.59067514408E+03  0.60189485773E+03  0.00000000000E+00 0. -1.
         11    1    4    4    0    0 -0.11006111400E+02  0.34751289830E+02 -0.82565765290E+02  0.90254596730E+02  0.00000000000E+00 0.  1.
        -13    1    3    3    0    0  0.20622684166E+02 -0.15670842530E+02 -0.99241258451E+01  0.27737315689E+02  0.00000000000E+00 0.  1.
         13    1    3    3    0    0  0.54651256137E+02  0.39300295302E+02 -0.24570210208E+03  0.25475634629E+03  0.00000000000E+00 0. -1.
          2    1    1    2  501    0  0.51404838462E+02 -0.58738450128E+02 -0.29944622810E+03  0.30945226847E+03  0.00000000000E+00 0. -1.
<scales pt_clust_5="13000.00000" pt_clust_6="13000.00000" pt_clust_7="13000.00000" pt_clust_8="13000.00000" pt_clust_9="13000.00000"></scales>
<clustering>
<clus scale="   90.738">  7  8 -1 -1</clus>
<clus scale="   92.398">  5  6 -1 -1</clus>
<clus scale="   78.056">  5  9 -1 -1</clus>
<clus scale="  120.241">  2  7  1 -1</clus>
<clus scale="  238.926">  1  5  2 -1</clus>
</clustering>
</event>
<event>
 9    1  0.6399313E-006  0.3206943E+03  0.7546771E-02  0.1119362E+00
          1   -1    0    0  502    0 -0.00000000000E+00  0.00000000000E+00  0.31486855853E+03  0.31486855853E+03  0.00000000000E+00 0. -1.
         21   -1    0    0  501  502  0.00000000000E+00 -0.00000000000E+00 -0.14586482929E+03  0.14586482929E+03  0.00000000000E+00 0. -1.
         23    2    1    2    0    0  0.22038641868E+01  0.49262474750E+02  0.82900098302E+01  0.10202219882E+03  0.88927815409E+02 0.  0.
         23    2    1    2    0    0  0.88500270223E+02  0.32417245212E+02 -0.27950037820E+02  0.13400509220E+03  0.91065825115E+02 0.  0.
        -13    1    3    3    0    0  0.38911196008E+02  0.43924887609E+02  0.21720885265E+02  0.62572148620E+02  0.00000000000E+00 0. -1.
         13    1    3    3    0    0 -0.36707331821E+02  0.53375871405E+01 -0.13430875434E+02  0.39450050201E+02  0.00000000000E+00 0.  1.
        -13    1    4    4    0    0  0.65704414155E+02  0.62140489428E+02 -0.61018032783E+01  0.90640732947E+02  0.00000000000E+00 0. -1.
         13    1    4    4    0    0  0.22795856068E+02 -0.29723244216E+02 -0.21848234542E+02  0.43364359251E+02  0.00000000000E+00 0.  1.
          1    1    1    2  501    0 -0.90704134410E+02 -0.81679719962E+02  0.18866375723E+03  0.22470609681E+03  0.00000000000E+00 0. -1.
<scales pt_clust_5="13000.00000" pt_clust_6="13000.00000" pt_clust_7="13000.00000" pt_clust_8="13000.00000" pt_clust_9="13000.00000"></scales>
<clustering>
<clus scale="   88.928">  5  6 -1 -1</clus>
<clus scale="   91.066">  7  8 -1 -1</clus>
<clus scale="  101.685">  1  5  2 -1</clus>
<clus scale="   98.571">  7  9 -1 -1</clus>
<clus scale="  320.694">  2  5  1 -1</clus>
</clustering>
</event>
<event>
 9    1  0.6399313E-006  0.1429114E+03  0.7546771E-02  0.1230337E+00
         21   -1    0    0  501  502  0.00000000000E+00  0.00000000000E+00  0.12891709302E+03  0.12891709302E+03  0.00000000000E+00 0.  1.
          1   -1    0    0  502    0 -0.00000000000E+00 -0.00000000000E+00 -0.34246471188E+03  0.34246471188E+03  0.00000000000E+00 0. -1.
         23    2    1    2    0    0 -0.83831517437E+01 -0.14185072155E+02 -0.29349135530E+03  0.30762993471E+03  0.90705609465E+02 0.  0.
         23    2    1    2    0    0 -0.25748161556E+02  0.31272633777E+01  0.24557976452E+02  0.97760930713E+02  0.91001965730E+02 0.  0.
        -11    1    3    3    0    0  0.26870573492E+02  0.22842376503E+02 -0.70209198489E+02  0.78569290671E+02  0.00000000000E+00 0.  1.
         11    1    3    3    0    0 -0.35253725236E+02 -0.37027448658E+02 -0.22328215681E+03  0.22906064404E+03  0.00000000000E+00 0. -1.
        -11    1    4    4    0    0  0.31952854150E+02 -0.13333315800E+02  0.90037463484E+01  0.35774706804E+02  0.00000000000E+00 0.  1.
         11    1    4    4    0    0 -0.57701015707E+02  0.16460579177E+02  0.15554230104E+02  0.61986223909E+02  0.00000000000E+00 0. -1.
          1    1    1    2  501    0  0.34131313300E+02  0.11057808777E+02  0.55385759992E+02  0.65990939472E+02  0.00000000000E+00 0. -1.
<scales pt_clust_5="13000.00000" pt_clust_6="13000.00000" pt_clust_7="13000.00000" pt_clust_8="13000.00000" pt_clust_9="13000.00000"></scales>
<clustering>
<clus scale="   90.706">  5  6 -1 -1</clus>
<clus scale="   91.002">  7  8 -1 -1</clus>
<clus scale="   35.878">  7  9 -1 -1</clus>
<clus scale="   92.190">  2  5  1 -1</clus>
<clus scale="  142.911">  1  5  2 -1</clus>
</clustering>
</event>
<event>
 9    1  0.6399313E-006  0.3680364E+03  0.7546771E-02  0.1078490E+00
          2   -1    0    0  502    0 -0.00000000000E+00  0.00000000000E+00  0.78301071216E+03  0.78301071216E+03  0.00000000000E+00 0. -1.
         21   -1    0    0  501  502  0.00000000000E+00 -0.00000000000E+00 -0.17582199210E+03  0.17582199210E+03  0.00000000000E+00 0. -1.
         23    2    1    2    0    0 -0.65117067772E+02 -0.16154451273E+03  0.55366728460E+03  0.58692496434E+03  0.87158416796E+02 0.  0.
         23    2    1    2    0    0  0.15356522188E+03 -0.59061200657E+01  0.28195606418E+02  0.18084704799E+03  0.91068671442E+02 0.  0.
        -11    1    3    3    0    0  0.62339207542E+01 -0.98566365400E+02  0.30901886127E+03  0.32441770417E+03  0.00000000000E+00 0.  1.
         11    1    3    3    0    0 -0.71350988526E+02 -0.62978147328E+02  0.24464842333E+03  0.26250726017E+03  0.00000000000E+00 0. -1.
        -11    1    4    4    0    0  0.12237499105E+02  0.18980733887E+02 -0.19281311981E+02  0.29695010270E+02  0.00000000000E+00 0.  1.
         11    1    4    4    0    0  0.14132772278E+03 -0.24886853953E+02  0.47476918399E+02  0.15115203772E+03  0.00000000000E+00 0. -1.
          2    1    1    2  501    0 -0.88448154109E+02  0.16745063279E+03  0.25325829041E+02  0.19106069194E+03  0.00000000000E+00 0. -1.
<scales pt_clust_5="13000.00000" pt_clust_6="13000.00000" pt_clust_7="13000.00000" pt_clust_8="13000.00000" pt_clust_9="13000.00000"></scales>
<clustering>
<clus scale="   87.158">  5  6 -1 -1</clus>
<clus scale="   91.069">  7  8 -1 -1</clus>
<clus scale="  189.375">  7  9 -1 -1</clus>
<clus scale="  194.765">  1  5  2 -1</clus>
<clus scale="  368.036">  2  5  1 -1</clus>
</clustering>
</event>
<event>
 9    1  0.6399313E-006  0.1805409E+03  0.7546771E-02  0.1192983E+00
         -3   -1    0    0    0  501 -0.00000000000E+00  0.00000000000E+00  0.16883231750E+03  0.16883231750E+03  0.00000000000E+00 0.  1.
         21   -1    0    0  501  502  0.00000000000E+00 -0.00000000000E+00 -0.30695735497E+03  0.30695735497E+03  0.00000000000E+00 0.  1.
         23    2    1    2    0    0 -0.45552751338E+02  0.66952755761E+01  0.12235539528E+03  0.15885898803E+03  0.90252177005E+02 0.  0.
         23    2    1    2    0    0  0.48603967477E+02  0.22049797397E+02 -0.76507749719E+02  0.13070088758E+03  0.91546420071E+02 0.  0.
        -11    1    4    4    0    0 -0.10598964887E+02 -0.23000065121E+02 -0.19875899457E+01  0.25402589751E+02  0.00000000000E+00 0. -1.
         11    1    4    4    0    0  0.59202932364E+02  0.45049862518E+02 -0.74520159774E+02  0.10529829783E+03  0.00000000000E+00 0.  1.
        -11    1    3    3    0    0  0.14184256603E+02  0.30095479221E+02  0.22481733331E+02  0.40154194532E+02  0.00000000000E+00 0. -1.
         11    1    3    3    0    0 -0.59737007941E+02 -0.23400203645E+02  0.99873661948E+02  0.11870479350E+03  0.00000000000E+00 0.  1.
         -3    1    1    2    0  502 -0.30512161382E+01 -0.28745072973E+02 -0.18397268303E+03  0.18622979687E+03  0.00000000000E+00 0.  1.
<scales pt_clust_5="13000.00000" pt_clust_6="13000.00000" pt_clust_7="13000.00000" pt_clust_8="13000.00000" pt_clust_9="13000.00000"></scales>
<clustering>
<clus scale="   90.252">  7  8 -1 -1</clus>
<clus scale="   91.546">  5  6 -1 -1</clus>
<clus scale="   28.907">  5  9 -1 -1</clus>
<clus scale="  101.318">  1  7  2 -1</clus>
<clus scale="  180.541">  2  5  1 -1</clus>
</clustering>
</event>
<event>
 9    1  0.6399313E-006  0.3072854E+03  0.7546771E-02  0.1113173E+00
         -2   -1    0    0    0  501 -0.00000000000E+00  0.00000000000E+00  0.10405652024E+03  0.10405652024E+03  0.00000000000E+00 0.  1.
         21   -1    0    0  501  502  0.00000000000E+00 -0.00000000000E+00 -0.47220398488E+03  0.47220398488E+03  0.00000000000E+00 0.  1.
         23    2    1    2    0    0  0.69293528610E+02 -0.81542283113E+02 -0.95189036767E+02  0.16524880032E+03  0.82434678651E+02 0.  0.
         23    2    1    2    0    0  0.27230503590E+02  0.52218280212E+02  0.11990400075E+02  0.10873266073E+03  0.90613314154E+02 0.  0.
        -11    1    4    4    0    0  0.40707806741E+02 -0.25225017278E+01  0.28771298901E+02  0.49912685613E+02  0.00000000000E+00 0. -1.
         11    1    4    4    0    0 -0.13477303151E+02  0.54740781940E+02 -0.16780898827E+02  0.58819975119E+02  0.00000000000E+00 0.  1.
        -13    1    3    3    0    0  0.11925126469E+02 -0.76570672624E+02 -0.54982325205E+02  0.95017538551E+02  0.00000000000E+00 0.  1.
         13    1    3    3    0    0  0.57368402142E+02 -0.49716104892E+01 -0.40206711562E+02  0.70231261770E+02  0.00000000000E+00 0. -1.
         -2    1    1    2    0  502 -0.96524032200E+02  0.29324002902E+02 -0.28494882794E+03  0.30227904407E+03  0.00000000000E+00 0.  1.
<scales pt_clust_5="13000.00000" pt_clust_6="13000.00000" pt_clust_7="13000.00000" pt_clust_8="13000.00000" pt_clust_9="13000.00000"></scales>
<clustering>
<clus scale="   82.435">  7  8 -1 -1</clus>
<clus scale="   90.613">  5  6 -1 -1</clus>
<clus scale="  100.880">  5  9 -1 -1</clus>
<clus scale="  135.079">  1  7  2 -1</clus>
<clus scale="  307.285">  2  5  1 -1</clus>
</clustering>
</event>
<event>
 9    1  0.6399313E-006  0.1852745E+03  0.7546771E-02  0.1185340E+00
         21   -1    0    0  501  502  0.00000000000E+00  0.00000000000E+00  0.55566042583E+02  0.55566042583E+02  0.00000000000E+00 0. -1.
          1   -1    0    0  502    0 -0.00000000000E+00 -0.00000000000E+00 -0.46355755701E+03  0.46355755701E+03  0.00000000000E+00 0. -1.
         23    2    1    2    0    0  0.56881347797E+02  0.24630410868E+02 -0.25755656714E+03  0.28046630164E+03  0.92107633847E+02 0.  0.
         23    2    1    2    0    0  0.83008418535E+01 -0.14801618745E+00 -0.14242937739E+03  0.16857024746E+03  0.89782375219E+02 0.  0.
        -11    1    4    4    0    0 -0.33177497066E+02  0.13127292814E+02 -0.25674766279E+02  0.43957544878E+02  0.00000000000E+00 0.  1.
         11    1    4    4    0    0  0.41478338920E+02 -0.13275309001E+02 -0.11675461111E+03  0.12461270258E+03  0.00000000000E+00 0. -1.
        -11    1    3    3    0    0 -0.25242597194E+02  0.11532760384E+02 -0.59207163862E+02  0.65388695719E+02  0.00000000000E+00 0.  1.
         11    1    3    3    0    0  0.82123944990E+02  0.13097650484E+02 -0.19834940328E+03  0.21507760593E+03  0.00000000000E+00 0. -1.
          1    1    1    2  501    0 -0.65182189650E+02 -0.24482394681E+02 -0.80055698917E+01  0.70087050488E+02  0.00000000000E+00 0. -1.
<scales pt_clust_5="13000.00000" pt_clust_6="13000.00000" pt_clust_7="13000.00000" pt_clust_8="13000.00000" pt_clust_9="13000.00000"></scales>
<clustering>
<clus scale="   89.782">  5  6 -1 -1</clus>
<clus scale="   69.628">  5  9 -1 -1</clus>
<clus scale="   92.108">  7  8 -1 -1</clus>
<clus scale="  111.022">  2  7  1 -1</clus>
<clus scale="  185.274">  1  5  2 -1</clus>
</clustering>
</event>
<event>
 9    1  0.6399313E-006  0.2575337E+03  0.7546771E-02  0.1135752E+00
         21   -1    0    0  501  502  0.00000000000E+00  0.00000000000E+00  0.58167049302E+02  0.58167049302E+02  0.00000000000E+00 0.  1.
          1   -1    0    0  502    0 -0.00000000000E+00 -0.00000000000E+00 -0.70065058367E+03  0.70065058367E+03  0.00000000000E+00 0. -1.
         23    2    1    2    0    0  0.98919572963E+02 -0.13595389570E+02 -0.12653677046E+03  0.18216811580E+03  0.84874917394E+02 0.  0.
         23    2    1    2    0    0 -0.24997456905E+02  0.26352733968E+02 -0.48629906438E+03  0.49598840408E+03  0.90544892323E+02 0.  0.
        -11    1    3    3    0    0  0.65071682115E+02 -0.41586182467E+02 -0.44541133448E+02  0.89149576299E+02  0.00000000000E+00 0.  1.
         11    1    3    3    0    0  0.33847890848E+02  0.27990792897E+02 -0.81995637010E+02  0.93018539499E+02  0.00000000000E+00 0. -1.
        -11    1    4    4    0    0  0.32564866042E+02  0.18582391503E+02 -0.14427400513E+03  0.14906630850E+03  0.00000000000E+00 0.  1.
         11    1    4    4    0    0 -0.57562322947E+02  0.77703424648E+01 -0.34202505925E+03  0.34692209557E+03  0.00000000000E+00 0. -1.
          1    1    1    2  501    0 -0.73922116057E+02 -0.12757344397E+02 -0.29647699532E+02  0.80661113097E+02  0.00000000000E+00 0. -1.
<scales pt_clust_5="13000.00000" pt_clust_6="13000.00000" pt_clust_7="13000.00000" pt_clust_8="13000.00000" pt_clust_9="13000.00000"></scales>
<clustering>
<clus scale="   84.875">  5  6 -1 -1</clus>
<clus scale="   90.545">  7  8 -1 -1</clus>
<clus scale="   75.015">  7  9 -1 -1</clus>
<clus scale="  131.048">  2  5  1 -1</clus>
<clus scale="  257.534">  1  5  2 -1</clus>
</clustering>
</event>
<event>
 9    1  0.6399313E-006  0.3219131E+03  0.7546771E-02  0.1113949E+00
          2   -1    0    0  502    0 -0.00000000000E+00  0.00000000000E+00  0.89485471079E+03  0.89485471079E+03  0.00000000000E+00 0. -1.
         21   -1    0    0  501  502  0.00000000000E+00 -0.00000000000E+00 -0.53384093762E+02  0.53384093762E+02  0.00000000000E+00 0.  1.
         23    2    1    2    0    0  0.68085988134E+02  0.17761358266E+02  0.22511879519E+03  0.25288450244E+03  0.91219142721E+02 0.  0.
         23    2    1    2    0    0 -0.12535827177E+03  0.84929122909E+02  0.49754345167E+03  0.52819905027E+03  0.92288125918E+02 0.  0.
        -11    1    4    4    0    0 -0.10674663601E+03  0.35724669653E+02  0.41755431304E+03  0.43246121290E+03  0.00000000000E+00 0. -1.
         11    1    4    4    0    0 -0.18611635761E+02  0.49204453256E+02  0.79989138628E+02  0.95737837371E+02  0.00000000000E+00 0.  1.
        -13    1    3    3    0    0 -0.13916838790E+02 -0.20251917789E+02  0.41607200639E+02  0.48321607186E+02  0.00000000000E+00 0.  1.
         13    1    3    3    0    0  0.82002826924E+02  0.38013276055E+02  0.18351159455E+03  0.20456289526E+03  0.00000000000E+00 0. -1.
          2    1    1    2  501    0  0.57272283634E+02 -0.10269048118E+03  0.11880837016E+03  0.16715525184E+03  0.00000000000E+00 0. -1.
<scales pt_clust_5="13000.00000" pt_clust_6="13000.00000" pt_clust_7="13000.00000" pt_clust_8="13000.00000" pt_clust_9="13000.00000"></scales>
<clustering>
<clus scale="   91.219">  7  8 -1 -1</clus>
<clus scale="   92.288">  5  6 -1 -1</clus>
<clus scale="  115.205">  1  7  2 -1</clus>
<clus scale="  122.335">  5  9 -1 -1</clus>
<clus scale="  321.913">  2  5  1 -1</clus>
</clustering>
</event>
<event>
 9    1  0.6399313E-006  0.1912660E+03  0.7546771E-02  0.1181262E+00
         21   -1    0    0  501  502  0.00000000000E+00  0.00000000000E+00  0.15612837041E+03  0.15612837041E+03  0.00000000000E+00 0. -1.
         -1   -1    0    0    0  501 -0.00000000000E+00 -0.00000000000E+00 -0.14916953429E+03  0.14916953429E+03  0.00000000000E+00 0.  1.
         23    2    1    2    0    0 -0.62163917323E+02 -0.28035965255E+01 -0.19376405438E+02  0.11222737045E+03  0.91363695302E+02 0.  0.
         23    2    1    2    0    0  0.49543182210E+02  0.25198879834E+02 -0.45749636194E+02  0.11653909450E+03  0.91645081084E+02 0.  0.
        -11    1    3    3    0    0 -0.15238567718E+02 -0.39270609136E+02  0.13596876727E+02  0.44263639082E+02  0.00000000000E+00 0.  1.
         11    1    3    3    0    0 -0.46925349605E+02  0.36467012611E+02 -0.32973282165E+02  0.67963731365E+02  0.00000000000E+00 0. -1.
        -11    1    4    4    0    0  0.46493671609E+02  0.57332400053E+02 -0.24005854512E+02  0.77620529800E+02  0.00000000000E+00 0. -1.
         11    1    4    4    0    0  0.30495106018E+01 -0.32133520220E+02 -0.21743781682E+02  0.38918564702E+02  0.00000000000E+00 0.  1.
         -1    1    1    2    0  502  0.12620735112E+02 -0.22395283308E+02  0.72084877758E+02  0.76531439752E+02  0.00000000000E+00 0.  1.
<scales pt_clust_5="13000.00000" pt_clust_6="13000.00000" pt_clust_7="13000.00000" pt_clust_8="13000.00000" pt_clust_9="13000.00000"></scales>
<clustering>
<clus scale="   91.364">  5  6 -1 -1</clus>
<clus scale="   91.645">  7  8 -1 -1</clus>
<clus scale="   25.707">  7  9 -1 -1</clus>
<clus scale="  110.542">  2  5  1 -1</clus>
<clus scale="  191.266">  1  5  2 -1</clus>
</clustering>
</event>
<event>
 9    1  0.6399313E-006  0.2163848E+03  0.7546771E-02  0.1159542E+00
         21   -1    0    0  501  502  0.00000000000E+00  0.00000000000E+00  0.81108745398E+02  0.81108745398E+02  0.00000000000E+00 0. -1.
         -1   -1    0    0    0  501 -0.00000000000E+00 -0.00000000000E+00 -0.36292708965E+03  0.36292708965E+03  0.00000000000E+00 0.  1.
         23    2    1    2    0    0  0.69609023841E+02 -0.51806824728E+02 -0.84867681208E+02  0.15144061477E+03  0.90566954236E+02 0.  0.
         23    2    1    2    0    0 -0.44279821148E+02  0.56037242050E+02 -0.22553644338E+03  0.25416851372E+03  0.92919701985E+02 0.  0.
        -13    1    3    3    0    0 -0.13434376448E+02 -0.35967613174E+02 -0.41095006102E+02  0.56240120862E+02  0.00000000000E+00 0. -1.
         13    1    3    3    0    0  0.83043400289E+02 -0.15839211554E+02 -0.43772675106E+02  0.95200493907E+02  0.00000000000E+00 0.  1.
        -13    1    4    4    0    0  0.21858034412E+02 -0.35049948363E+01 -0.84919604996E+02  0.87757609185E+02  0.00000000000E+00 0.  1.
         13    1    4    4    0    0 -0.66137855559E+02  0.59542236886E+02 -0.14061683839E+03  0.16641090454E+03  0.00000000000E+00 0. -1.
         -1    1    1    2    0  502 -0.25329202693E+02 -0.42304173217E+01  0.28585780334E+02  0.38426706561E+02  0.00000000000E+00 0.  1.
<scales pt_clust_5="13000.00000" pt_clust_6="13000.00000" pt_clust_7="13000.00000" pt_clust_8="13000.00000" pt_clust_9="13000.00000"></scales>
<clustering>
<clus scale="   90.567">  5  6 -1 -1</clus>
<clus scale="   92.920">  7  8 -1 -1</clus>
<clus scale="   25.680">  7  9 -1 -1</clus>
<clus scale="  125.426">  2  5  1 -1</clus>
<clus scale="  216.385">  1  5  2 -1</clus>
</clustering>
</event>
<event>
 9    1  0.6399313E-006  0.2474634E+03  0.7546771E-02  0.1139793E+00
          1   -1    0    0  502    0 -0.00000000000E+00  0.00000000000E+00  0.31112832534E+03  0.31112832534E+03  0.00000000000E+00 0. -1.
         21   -1    0    0  501  502  0.00000000000E+00 -0.00000000000E+00 -0.14453447743E+03  0.14453447743E+03  0.00000000000E+00 0. -1.
         23    2    1    2    0    0 -0.49771656770E+02 -0.84264726090E+02  0.15925776057E+03  0.20809069631E+03  0.91438185165E+02 0.  0.
         23    2    1    2    0    0 -0.44091147052E+02  0.23049200500E+02  0.63561663383E+02  0.12219714120E+03  0.91742909112E+02 0.  0.
        -11    1    3    3    0    0  0.76238669093E+01 -0.61448664229E+02  0.11963593313E+03  0.13471012649E+03  0.00000000000E+00 0. -1.
         11    1    3    3    0    0 -0.57395523679E+02 -0.22816061861E+02  0.39621827442E+02  0.73380569820E+02  0.00000000000E+00 0.  1.
        -13    1    4    4    0    0  0.23438890044E+02 -0.13182891035E+02  0.99646565167E+01  0.28678642960E+02  0.00000000000E+00 0.  1.
         13    1    4    4    0    0 -0.67530037096E+02  0.36232091535E+02  0.53597006867E+02  0.93518498236E+02  0.00000000000E+00 0. -1.
          1    1    1    2  501    0  0.93862803822E+02  0.61215525590E+02 -0.56225576049E+02  0.12537496527E+03  0.00000000000E+00 0. -1.
<scales pt_clust_5="13000.00000" pt_clust_6="13000.00000" pt_clust_7="13000.00000" pt_clust_8="13000.00000" pt_clust_9="13000.00000"></scales>
<clustering>
<clus scale="   91.438">  5  6 -1 -1</clus>
<clus scale="   91.743">  7  8 -1 -1</clus>
<clus scale="  112.061">  7  9 -1 -1</clus>
<clus scale="  133.935">  1  5  2 -1</clus>
<clus scale="  247.463">  2  5  1 -1</clus>
</clustering>
</event>
<event>
 9    1  0.6399313E-006  0.2229319E+03  0.7546771E-02  0.1168358E+00
         -3   -1    0    0    0  501 -0.00000000000E+00  0.00000000000E+00  0.13202651570E+03  0.13202651570E+03  0.00000000000E+00 0.  1.
         21   -1    0    0  501  502  0.00000000000E+00 -0.00000000000E+00 -0.19686809451E+03  0.19686809451E+03  0.00000000000E+00 0. -1.
         23    2    1    2    0    0 -0.31353238601E+02 -0.53547740996E+01 -0.48472887953E+02  0.10536255035E+03  0.87976968421E+02 0.  0.
         23    2    1    2    0    0 -0.25277637540E+01 -0.13769650496E+01  0.80083208732E+02  0.12108105905E+03  0.90769030602E+02 0.  0.
        -13    1    4    4    0    0 -0.26921101937E+02  0.19630871470E+02  0.82323758462E+02  0.88810573985E+02  0.00000000000E+00 0.  1.
         13    1    4    4    0    0  0.24393338183E+02 -0.21007836519E+02 -0.22405497302E+01  0.32270485061E+02  0.00000000000E+00 0. -1.
        -13    1    3    3    0    0 -0.45071522348E+02 -0.30565185320E+02 -0.69700106380E+01  0.54902219707E+02  0.00000000000E+00 0.  1.
         13    1    3    3    0    0  0.13718283747E+02  0.25210411221E+02 -0.41502877315E+02  0.50460330640E+02  0.00000000000E+00 0. -1.
         -3    1    1    2    0  502  0.33881002355E+02  0.67317391492E+01 -0.96451899594E+02  0.10245100081E+03  0.00000000000E+00 0.  1.
<scales pt_clust_5="13000.00000" pt_clust_6="13000.00000" pt_clust_7="13000.00000" pt_clust_8="13000.00000" pt_clust_9="13000.00000"></scales>
<clustering>
<clus scale="   87.977">  7  8 -1 -1</clus>
<clus scale="   90.769">  5  6 -1 -1</clus>
<clus scale="   34.543">  5  9 -1 -1</clus>
<clus scale="   93.550">  1  7  2 -1</clus>
<clus scale="  222.932">  2  5  1 -1</clus>
</clustering>
</event>
<event>
 9    1  0.6399313E-006  0.3466529E+03  0.7546771E-02  0.1077892E+00
         21   -1    0    0  501  502  0.00000000000E+00  0.00000000000E+00  0.86459932188E+02  0.86459932188E+02  0.00000000000E+00 0. -1.
          2   -1    0    0  502    0 -0.00000000000E+00 -0.00000000000E+00 -0.10125132690E+04  0.10125132690E+04  0.00000000000E+00 0. -1.
         23    2    1    2    0    0 -0.21313613641E+03  0.53505352191E+02 -0.46802189160E+03  0.52455085554E+03  0.88426657039E+02 0.  0.
         23    2    1    2    0    0  0.26614146494E+03 -0.72178559933E+02 -0.38491347072E+03  0.48220254444E+03  0.91213431281E+02 0.  0.
        -11    1    3    3    0    0 -0.15275929497E+03  0.71103776556E+02 -0.38616530663E+03  0.42132504469E+03  0.00000000000E+00 0. -1.
         11    1    3    3    0    0 -0.60376841444E+02 -0.17598424364E+02 -0.81856584975E+02  0.10322581085E+03  0.00000000000E+00 0.  1.
        -11    1    4    4    0    0  0.18958967409E+02  0.14415366343E+02 -0.62050910166E+02  0.66464732637E+02  0.00000000000E+00 0.  1.
         11    1    4    4    0    0  0.24718249753E+03 -0.86593926276E+02 -0.32286256055E+03  0.41573781180E+03  0.00000000000E+00 0. -1.
          2    1    1    2  501    0 -0.53005328532E+02  0.18673207742E+02 -0.73117974472E+02  0.92219801188E+02  0.00000000000E+00 0. -1.
<scales pt_clust_5="13000.00000" pt_clust_6="13000.00000" pt_clust_7="13000.00000" pt_clust_8="13000.00000" pt_clust_9="13000.00000"></scales>
<clustering>
<clus scale="   88.427">  5  6 -1 -1</clus>
<clus scale="   91.213">  7  8 -1 -1</clus>
<clus scale="   56.198">  7  9 -1 -1</clus>
<clus scale="  236.874">  2  5  1 -1</clus>
<clus scale="  346.653">  1  5  2 -1</clus>
</clustering>
</event>
<event>
 9    1  0.6399313E-006  0.2422444E+03  0.7546771E-02  0.1149515E+00
         21   -1    0    0  501  502  0.00000000000E+00  0.00000000000E+00  0.12743780353E+03  0.12743780353E+03  0.00000000000E+00 0.  1.
         -2   -1    0    0    0  501 -0.00000000000E+00 -0.00000000000E+00 -0.37756944717E+03  0.37756944717E+03  0.00000000000E+00 0.  1.
         23    2    1    2    0    0 -0.16373220416E+01  0.63477631918E+02 -0.23674194375E+03  0.26239310501E+03  0.93655235025E+02 0.  0.
         23    2    1    2    0    0  0.24649780677E+02  0.49568094218E+02  0.41912946344E+02  0.11467942745E+03  0.91269208155E+02 0.  0.
        -11    1    4    4    0    0  0.44621540976E+02  0.45025310520E+02 -0.49022494380E+01  0.63579812488E+02  0.00000000000E+00 0.  1.
         11    1    4    4    0    0 -0.19971760299E+02  0.45427836982E+01  0.46815195782E+02  0.51099614962E+02  0.00000000000E+00 0. -1.
        -11    1    3    3    0    0  0.31623962600E+02  0.11787893744E+02 -0.16269452846E+03  0.16615817476E+03  0.00000000000E+00 0.  1.
         11    1    3    3    0    0 -0.33261284642E+02  0.51689738174E+02 -0.74047415299E+02  0.96234930254E+02  0.00000000000E+00 0. -1.
         -2    1    1    2    0  502 -0.23012458635E+02 -0.11304572614E+03 -0.55302646236E+02  0.12793471824E+03  0.00000000000E+00 0.  1.
<scales pt_clust_5="13000.00000" pt_clust_6="13000.00000" pt_clust_7="13000.00000" pt_clust_8="13000.00000" pt_clust_9="13000.00000"></scales>
<clustering>
<clus scale="   91.269">  5  6 -1 -1</clus>
<clus scale="   93.655">  7  8 -1 -1</clus>
<clus scale="  113.152">  2  7  1 -1</clus>
<clus scale="   71.806">  5  9 -1 -1</clus>
<clus scale="  242.244">  1  5  2 -1</clus>
</clustering>
</event>
<event>
 9    1  0.6399313E-006  0.5330290E+03  0.7546771E-02  0.1025898E+00
         21   -1    0    0  501  502  0.00000000000E+00  0.00000000000E+00  0.47947343306E+03  0.47947343306E+03  0.00000000000E+00 0. -1.
          2   -1    0    0  502    0 -0.00000000000E+00 -0.00000000000E+00 -0.98861504786E+03  0.98861504786E+03  0.00000000000E+00 0. -1.
         23    2    1    2    0    0 -0.22683278633E+03 -0.14857971572E+03 -0.80792728268E+03  0.85702971755E+03  0.90688465517E+02 0.  0.
         23    2    1    2    0    0 -0.70568793178E+02 -0.93815096750E+02  0.77684669319E+02  0.16823984309E+03  0.92133110257E+02 0.  0.
        -11    1    3    3    0    0 -0.26283442310E+02 -0.34894297966E+01 -0.27126879095E+02  0.37932348061E+02  0.00000000000E+00 0.  1.
         11    1    3    3    0    0 -0.20054934402E+03 -0.14509028592E+03 -0.78080040359E+03  0.81909736949E+03  0.00000000000E+00 0. -1.
        -13    1    4    4    0    0 -0.89496627010E+02 -0.64602329030E+02  0.41205013798E+02  0.11781748735E+03  0.00000000000E+00 0.  1.
         13    1    4    4    0    0  0.18927833833E+02 -0.29212767720E+02  0.36479655521E+02  0.50422355740E+02  0.00000000000E+00 0. -1.
          2    1    1    2  501    0  0.29740157951E+03  0.24239481247E+03  0.22110099856E+03  0.44281892030E+03  0.00000000000E+00 0. -1.
<scales pt_clust_5="13000.00000" pt_clust_6="13000.00000" pt_clust_7="13000.00000" pt_clust_8="13000.00000" pt_clust_9="13000.00000"></scales>
<clustering>
<clus scale="   90.688">  5  6 -1 -1</clus>
<clus scale="   92.133">  7  8 -1 -1</clus>
<clus scale="  285.926">  2  5  1 -1</clus>
<clus scale="  193.216">  7  9 -1 -1</clus>
<clus scale="  533.029">  1  5  2 -1</clus>
</clustering>
</event>
<event>
 9    1  0.6399313E-006  0.2031708E+03  0.7546771E-02  0.1154025E+00
          1   -1    0    0  502    0 -0.00000000000E+00  0.00000000000E+00  0.19728217862E+03  0.19728217862E+03  0.00000000000E+00 0. -1.
         21   -1    0    0  501  502  0.00000000000E+00 -0.00000000000E+00 -0.20064339727E+03  0.20064339727E+03  0.00000000000E+00 0. -1.
         23    2    1    2    0    0  0.72216557892E+02  0.13110028159E+03 -0.67069571868E+02  0.18500037728E+03  0.85582107120E+02 0.  0.
         23    2    1    2    0    0 -0.56649306601E+02 -0.78009618400E+02  0.80805948440E+02  0.15501763786E+03  0.90588201454E+02 0.  0.
        -11    1    4    4    0    0 -0.42551777682E+02  0.62023457736E+01  0.10131880611E+02  0.44178930291E+02  0.00000000000E+00 0.  1.
         11    1    4    4    0    0 -0.14097528919E+02 -0.84211964174E+02  0.70674067829E+02  0.11083870757E+03  0.00000000000E+00 0. -1.
        -11    1    3    3    0    0  0.36727697538E+02  0.46700997821E+02 -0.71954327821E+02  0.93313087271E+02  0.00000000000E+00 0.  1.
         11    1    3    3    0    0  0.35488860354E+02  0.84399283764E+02  0.48847559533E+01  0.91687290012E+02  0.00000000000E+00 0. -1.
          1    1    1    2  501    0 -0.15567251292E+02 -0.53090663185E+02 -0.17097595223E+02  0.57907560755E+02  0.00000000000E+00 0. -1.
<scales pt_clust_5="13000.00000" pt_clust_6="13000.00000" pt_clust_7="13000.00000" pt_clust_8="13000.00000" pt_clust_9="13000.00000"></scales>
<clustering>
<clus scale="   85.582">  7  8 -1 -1</clus>
<clus scale="   90.588">  5  6 -1 -1</clus>
<clus scale="   55.326">  5  9 -1 -1</clus>
<clus scale="  172.415">  1  7  2 -1</clus>
<clus scale="  203.171">  2  5  1 -1</clus>
</clustering>
</event>
<event>
 9    1  0.6399313E-006  0.2660957E+03  0.7546771E-02  0.1146051E+00
         21   -1    0    0  501  502  0.00000000000E+00  0.00000000000E+00  0.56567793379E+03  0.56567793379E+03  0.00000000000E+00 0. -1.
          1   -1    0    0  502    0 -0.00000000000E+00 -0.00000000000E+00 -0.10628375999E+03  0.10628375999E+03  0.00000000000E+00 0. -1.
         23    2    1    2    0    0  0.35563783269E+01 -0.19703788490E+02 -0.43960461415E+02  0.10259995365E+03  0.90517076921E+02 0.  0.
         23    2    1    2    0    0 -0.56060156773E+02  0.87586792524E+00  0.61671909347E+02  0.12417103079E+03  0.92040817912E+02 0.  0.
        -11    1    4    4    0    0  0.56240339641E+01  0.36086235212E+02  0.24783143478E+02  0.44136723150E+02  0.00000000000E+00 0.  1.
         11    1    4    4    0    0 -0.61684190737E+02 -0.35210367287E+02  0.36888765870E+02  0.80034307636E+02  0.00000000000E+00 0. -1.
        -11    1    3    3    0    0 -0.42546045824E+02  0.68184655175E-02 -0.21236740426E+02  0.47551710860E+02  0.00000000000E+00 0. -1.
         11    1    3    3    0    0  0.46102424151E+02 -0.19710606956E+02 -0.22723720989E+02  0.55048242795E+02  0.00000000000E+00 0.  1.
          1    1    1    2  501    0  0.52503778446E+02  0.18827920565E+02  0.44168272587E+03  0.44519070933E+03  0.00000000000E+00 0. -1.
<scales pt_clust_5="13000.00000" pt_clust_6="13000.00000" pt_clust_7="13000.00000" pt_clust_8="13000.00000" pt_clust_9="13000.00000"></scales>
<clustering>
<clus scale="   90.517">  7  8 -1 -1</clus>
<clus scale="   92.041">  5  6 -1 -1</clus>
<clus scale="   55.778">  5  9 -1 -1</clus>
<clus scale="   92.705">  2  7  1 -1</clus>
<clus scale="  266.096">  1  5  2 -1</clus>
</clustering>
</event>
<event>
 9    1  0.6399313E-006  0.6994587E+03  0.7546771E-02  0.1021556E+00
         21   -1    0    0  501  502  0.00000000000E+00  0.00000000000E+00  0.15069595952E+03  0.15069595952E+03  0.00000000000E+00 0. -1.
          1   -1    0    0  502    0 -0.00000000000E+00 -0.00000000000E+00 -0.12056276509E+04  0.12056276509E+04  0.00000000000E+00 0. -1.
         23    2    1    2    0    0 -0.57410300796E+02 -0.94487049999E+02 -0.26143487980E+03  0.29855255270E+03  0.92529374227E+02 0.  0.
         23    2    1    2    0    0 -0.14512988400E+03  0.33869604489E+03 -0.38744496492E+03  0.54246662164E+03  0.91535461420E+02 0.  0.
        -13    1    3    3    0    0 -0.79963124594E+02 -0.50159987739E+02 -0.16770659242E+03  0.19244642581E+03  0.00000000000E+00 0.  1.
         13    1    3    3    0    0  0.22552823798E+02 -0.44327062261E+02 -0.93728287379E+02  0.10610612690E+03  0.00000000000E+00 0. -1.
        -13    1    4    4    0    0 -0.14241448433E+03  0.30198245320E+03 -0.30517318725E+03  0.45233390499E+03  0.00000000000E+00 0. -1.
         13    1    4    4    0    0 -0.27153996766E+01  0.36713591693E+02 -0.82271777667E+02  0.90132716651E+02  0.00000000000E+00 0.  1.
          1    1    1    2  501    0  0.20254018480E+03 -0.24420899489E+03 -0.40605184662E+03  0.51530443603E+03  0.00000000000E+00 0. -1.
<scales pt_clust_5="13000.00000" pt_clust_6="13000.00000" pt_clust_7="13000.00000" pt_clust_8="13000.00000" pt_clust_9="13000.00000"></scales>
<clustering>
<clus scale="   91.535">  7  8 -1 -1</clus>
<clus scale="   92.529">  5  6 -1 -1</clus>
<clus scale="  144.172">  2  5  1 -1</clus>
<clus scale="  339.238">  7  9 -1 -1</clus>
<clus scale="  699.459">  1  5  2 -1</clus>
</clustering>
</event>
<event>
 9    1  0.6399313E-006  0.5198109E+03  0.7546771E-02  0.1054685E+00
         21   -1    0    0  501  502  0.00000000000E+00  0.00000000000E+00  0.53157978509E+03  0.53157978509E+03  0.00000000000E+00 0.  1.
          2   -1    0    0  502    0 -0.00000000000E+00 -0.00000000000E+00 -0.34345917109E+03  0.34345917109E+03  0.00000000000E+00 0. -1.
         23    2    1    2    0    0 -0.38511614379E+02 -0.91876351267E+02 -0.19004160692E+03  0.23222481578E+03  0.88815225832E+02 0.  0.
         23    2    1    2    0    0  0.17969843579E+03  0.18761655443E+03  0.38356396720E+03  0.47214169417E+03  0.91131570362E+02 0.  0.
        -11    1    3    3    0    0  0.28222839003E+01 -0.88160324191E+02 -0.10170824607E+03  0.13462828591E+03  0.00000000000E+00 0.  1.
         11    1    3    3    0    0 -0.41333898279E+02 -0.37160270755E+01 -0.88333360848E+02  0.97596529871E+02  0.00000000000E+00 0. -1.
        -11    1    4    4    0    0  0.14856110290E+03  0.19300005878E+03  0.34442578716E+03  0.42183947995E+03  0.00000000000E+00 0.  1.
         11    1    4    4    0    0  0.31137332886E+02 -0.53835043486E+01  0.39138180040E+02  0.50302214217E+02  0.00000000000E+00 0. -1.
          2    1    1    2  501    0 -0.14118682141E+03 -0.95740203165E+02 -0.54017462834E+01  0.17067244624E+03  0.00000000000E+00 0. -1.
<scales pt_clust_5="13000.00000" pt_clust_6="13000.00000" pt_clust_7="13000.00000" pt_clust_8="13000.00000" pt_clust_9="13000.00000"></scales>
<clustering>
<clus scale="   88.815">  5  6 -1 -1</clus>
<clus scale="   91.132">  7  8 -1 -1</clus>
<clus scale="  133.464">  2  5  1 -1</clus>
<clus scale="  228.981">  7  9 -1 -1</clus>
<clus scale="  519.811">  1  5  2 -1</clus>
</clustering>
</event>
<event>
 9    1  0.6399313E-006  0.2025927E+03  0.7546771E-02  0.1172884E+00
         21   -1    0    0  501  502  0.00000000000E+00  0.00000000000E+00  0.18160892384E+03  0.18160892384E+03  0.00000000000E+00 0. -1.
         -1   -1    0    0    0  501 -0.00000000000E+00 -0.00000000000E+00 -0.14346239795E+03  0.14346239795E+03  0.00000000000E+00 0.  1.
         23    2    1    2    0    0 -0.18335478736E+02  0.62957188110E+02  0.48040660324E+02  0.12223714133E+03  0.91291929337E+02 0.  0.
         23    2    1    2    0    0  0.44521135954E+02  0.30993721150E+02 -0.69784898514E+01  0.10525875846E+03  0.89933111896E+02 0.  0.
        -11    1    4    4    0    0  0.72054928529E+02  0.16544492006E+02 -0.45875070843E+01  0.74072114607E+02  0.00000000000E+00 0. -1.
         11    1    4    4    0    0 -0.27533792576E+02  0.14449229144E+02 -0.23909827671E+01  0.31186643857E+02  0.00000000000E+00 0.  1.
        -11    1    3    3    0    0  0.10135431802E+02 -0.19981139812E+02  0.20384558724E+02  0.30290314630E+02  0.00000000000E+00 0.  1.
         11    1    3    3    0    0 -0.28470910538E+02  0.82938327922E+02  0.27656101599E+02  0.91946826704E+02  0.00000000000E+00 0. -1.
         -1    1    1    2    0  502 -0.26185657218E+02 -0.93950909260E+02 -0.29156445813E+01  0.97575421998E+02  0.00000000000E+00 0.  1.
<scales pt_clust_5="13000.00000" pt_clust_6="13000.00000" pt_clust_7="13000.00000" pt_clust_8="13000.00000" pt_clust_9="13000.00000"></scales>
<clustering>
<clus scale="   89.933">  5  6 -1 -1</clus>
<clus scale="   91.292">  7  8 -1 -1</clus>
<clus scale="   97.532">  5  9 -1 -1</clus>
<clus scale="  112.401">  2  7  1 -1</clus>
<clus scale="  202.593">  1  5  2 -1</clus>
</clustering>
</event>
<event>
 9    1  0.6399313E-006  0.1694026E+03  0.7546771E-02  0.1188747E+00
         21   -1    0    0  501  502  0.00000000000E+00  0.00000000000E+00  0.49706994622E+03  0.49706994622E+03  0.00000000000E+00 0. -1.
         -2   -1    0    0    0  501 -0.00000000000E+00 -0.00000000000E+00 -0.57114971268E+02  0.57114971268E+02  0.00000000000E+00 0.  1.
         23    2    1    2    0    0 -0.83688064199E+02 -0.53194195145E+02  0.31833690373E+03  0.34564670964E+03  0.91104056540E+02 0.  0.
         23    2    1    2    0    0  0.16044996454E+02  0.40141178567E+02  0.73358646149E+02  0.12442555741E+03  0.90727461358E+02 0.  0.
        -11    1    4    4    0    0 -0.17705134825E+02 -0.15888455012E+02  0.49286397916E+02  0.54727176259E+02  0.00000000000E+00 0. -1.
         11    1    4    4    0    0  0.33750131279E+02  0.56029633578E+02  0.24072248234E+02  0.69698381153E+02  0.00000000000E+00 0.  1.
        -11    1    3    3    0    0 -0.70836527726E+02  0.68999794765E+01  0.14062858907E+03  0.15761289110E+03  0.00000000000E+00 0.  1.
         11    1    3    3    0    0 -0.12851536473E+02 -0.60094174622E+02  0.17770831467E+03  0.18803381854E+03  0.00000000000E+00 0. -1.
         -2    1    1    2    0  502  0.67643067745E+02  0.13053016578E+02  0.48259425071E+02  0.84112650440E+02  0.00000000000E+00 0.  1.
<scales pt_clust_5="13000.00000" pt_clust_6="13000.00000" pt_clust_7="13000.00000" pt_clust_8="13000.00000" pt_clust_9="13000.00000"></scales>
<clustering>
<clus scale="   90.727">  5  6 -1 -1</clus>
<clus scale="   68.891">  5  9 -1 -1</clus>
<clus scale="   91.104">  7  8 -1 -1</clus>
<clus scale="  134.660">  2  7  1 -1</clus>
<clus scale="  169.403">  1  5  2 -1</clus>
</clustering>
</event>
<event>
 9    1  0.6399313E-006  0.1230457E+03  0.7546771E-02  0.1254873E+00
          3   -1    0    0  502    0 -0.00000000000E+00  0.00000000000E+00  0.16357617424E+03  0.16357617424E+03  0.00000000000E+00 0. -1.
         21   -1    0    0  501  502  0.00000000000E+00 -0.00000000000E+00 -0.11150060509E+03  0.11150060509E+03  0.00000000000E+00 0.  1.
         23    2    1    2    0    0  0.28703692184E+02 -0.26315623801E+01  0.10854073347E+03  0.13969379673E+03  0.83080918126E+02 0.  0.
         23    2    1    2    0    0 -0.29084181359E+02 -0.20154185282E+02 -0.46259303215E+02  0.11041310736E+03  0.93803253427E+02 0.  0.
        -11    1    4    4    0    0  0.91450767047E+01 -0.45109704943E+02 -0.86974198617E+00  0.46035577102E+02  0.00000000000E+00 0.  1.
         11    1    4    4    0    0 -0.38229258063E+02  0.24955519661E+02 -0.45389561229E+02  0.64377530259E+02  0.00000000000E+00 0. -1.
        -11    1    3    3    0    0 -0.26783763615E+02 -0.33605424158E+01  0.14867155391E+02  0.30817130757E+02  0.00000000000E+00 0. -1.
         11    1    3    3    0    0  0.55487455799E+02  0.72898003574E+00  0.93673578077E+02  0.10887666597E+03  0.00000000000E+00 0.  1.
          3    1    1    2  501    0  0.38048917451E+00  0.22785747662E+02 -0.10205861100E+02  0.24969875237E+02  0.00000000000E+00 0. -1.
<scales pt_clust_5="13000.00000" pt_clust_6="13000.00000" pt_clust_7="13000.00000" pt_clust_8="13000.00000" pt_clust_9="13000.00000"></scales>
<clustering>
<clus scale="   83.081">  7  8 -1 -1</clus>
<clus scale="   87.939">  1  7  2 -1</clus>
<clus scale="   93.803">  5  6 -1 -1</clus>
<clus scale="   23.023">  5  9 -1 -1</clus>
<clus scale="  123.046">  2  5  1 -1</clus>
</clustering>
</event>
<event>
 9    1  0.6399313E-006  0.2060731E+03  0.7546771E-02  0.1151779E+00
         21   -1    0    0  501  502  0.00000000000E+00  0.00000000000E+00  0.33591847487E+02  0.33591847487E+02  0.00000000000E+00 0.  1.
          1   -1    0    0  502    0 -0.00000000000E+00 -0.00000000000E+00 -0.12008541212E+04  0.12008541212E+04  0.00000000000E+00 0. -1.
         23    2    1    2    0    0  0.21429355342E+02  0.14625714188E+03 -0.34166530907E+03  0.38351913962E+03  0.92202918661E+02 0.  0.
         23    2    1    2    0    0 -0.19142820211E+02 -0.49123457009E+02 -0.47017802140E+03  0.48246678212E+03  0.94484191522E+02 0.  0.
        -13    1    3    3    0    0  0.22927793459E+02  0.52897974548E+02 -0.46903870816E+02  0.74322624562E+02  0.00000000000E+00 0.  1.
         13    1    3    3    0    0 -0.14984381162E+01  0.93359167337E+02 -0.29476143825E+03  0.30919651505E+03  0.00000000000E+00 0. -1.
        -13    1    4    4    0    0  0.24902076723E+02  0.82231945726E+01 -0.53736724837E+02  0.59794397315E+02  0.00000000000E+00 0.  1.
         13    1    4    4    0    0 -0.44044896934E+02 -0.57346651582E+02 -0.41644129656E+03  0.42267238480E+03  0.00000000000E+00 0. -1.
          1    1    1    2  501    0 -0.22865351308E+01 -0.97133684875E+02 -0.35541894325E+03  0.36846004696E+03  0.00000000000E+00 0. -1.
<scales pt_clust_5="13000.00000" pt_clust_6="13000.00000" pt_clust_7="13000.00000" pt_clust_8="13000.00000" pt_clust_9="13000.00000"></scales>
<clustering>
<clus scale="   92.203">  5  6 -1 -1</clus>
<clus scale="   94.484">  7  8 -1 -1</clus>
<clus scale="   97.161">  7  9 -1 -1</clus>
<clus scale="  174.218">  2  5  1 -1</clus>
<clus scale="  206.073">  1  5  2 -1</clus>
</clustering>
</event>
<event>
 9    1  0.9343701E-006  0.2453164E+03  0.7546771E-02  0.1147538E+00
         -1   -1    0    0    0  501 -0.00000000000E+00  0.00000000000E+00  0.75406334923E+03  0.75406334923E+03  0.00000000000E+00 0.  1.
         21   -1    0    0  501  502  0.00000000000E+00 -0.00000000000E+00 -0.54014315971E+02  0.54014315971E+02  0.00000000000E+00 0.  1.
         23    2    1    2    0    0  0.55807557831E+02 -0.40670866820E+02  0.42247208149E+03  0.43763317811E+03  0.90947985292E+02 0.  0.
         23    2    1    2    0    0  0.21753511810E+02 -0.16147384026E+02  0.25469176071E+03  0.27161248254E+03  0.90396318583E+02 0.  0.
        -11    1    4    4    0    0  0.11331607272E+02  0.32212241393E+02  0.17114265432E+03  0.17451602204E+03  0.00000000000E+00 0. -1.
         11    1    4    4    0    0  0.10421904538E+02 -0.48359625419E+02  0.83549106384E+02  0.97096460505E+02  0.00000000000E+00 0.  1.
        -13    1    3    3    0    0  0.69470346786E+02 -0.24559375181E+02  0.40023726039E+03  0.40696333569E+03  0.00000000000E+00 0.  1.
         13    1    3    3    0    0 -0.13662788954E+02 -0.16111491639E+02  0.22234821094E+02  0.30669842418E+02  0.00000000000E+00 0. -1.
         -1    1    1    2    0  502 -0.77561069641E+02  0.56818250846E+02  0.22885191066E+02  0.98832004549E+02  0.00000000000E+00 0.  1.
<scales pt_clust_5="13000.00000" pt_clust_6="13000.00000" pt_clust_7="13000.00000" pt_clust_8="13000.00000" pt_clust_9="13000.00000"></scales>
<clustering>
<clus scale="   90.396">  5  6 -1 -1</clus>
<clus scale="   90.948">  7  8 -1 -1</clus>
<clus scale="   96.146">  5  9 -1 -1</clus>
<clus scale="  114.193">  1  7  2 -1</clus>
<clus scale="  245.316">  2  5  1 -1</clus>
</clustering>
</event>
<event>
 9    1  0.6399313E-006  0.2428825E+03  0.7546771E-02  0.1157163E+00
         -3   -1    0    0    0  501 -0.00000000000E+00  0.00000000000E+00  0.56963199581E+02  0.56963199581E+02  0.00000000000E+00 0.  1.
         21   -1    0    0  501  502  0.00000000000E+00 -0.00000000000E+00 -0.55216937450E+03  0.55216937450E+03  0.00000000000E+00 0.  1.
         23    2    1    2    0    0 -0.19478794260E+02 -0.13950774899E+02 -0.61744045290E+02  0.11226105803E+03  0.90643093916E+02 0.  0.
         23    2    1    2    0    0  0.77186213359E+02  0.80767432955E+02 -0.20481176080E+03  0.25176826601E+03  0.94648363176E+02 0.  0.
        -11    1    4    4    0    0  0.61879717077E+02  0.14059608082E+01 -0.61609484358E+02  0.87331578906E+02  0.00000000000E+00 0.  1.
         11    1    4    4    0    0  0.15306496282E+02  0.79361472146E+02 -0.14320227644E+03  0.16443668711E+03  0.00000000000E+00 0. -1.
        -11    1    3    3    0    0  0.30209038681E+02 -0.88746173369E+01  0.16813186728E+01  0.31530488157E+02  0.00000000000E+00 0. -1.
         11    1    3    3    0    0 -0.49687832941E+02 -0.50761575624E+01 -0.63425363963E+02  0.80730569871E+02  0.00000000000E+00 0.  1.
         -3    1    1    2    0  502 -0.57707419099E+02 -0.66816658055E+02 -0.22865036883E+03  0.24510325003E+03  0.00000000000E+00 0.  1.
<scales pt_clust_5="13000.00000" pt_clust_6="13000.00000" pt_clust_7="13000.00000" pt_clust_8="13000.00000" pt_clust_9="13000.00000"></scales>
<clustering>
<clus scale="   90.643">  7  8 -1 -1</clus>
<clus scale="   93.756">  1  7  2 -1</clus>
<clus scale="   94.648">  5  6 -1 -1</clus>
<clus scale="   94.342">  5  9 -1 -1</clus>
<clus scale="  242.882">  2  5  1 -1</clus>
</clustering>
</event>
<event>
 9    1  0.6399313E-006  0.3806017E+03  0.7546771E-02  0.1074280E+00
          1   -1    0    0  502    0 -0.00000000000E+00  0.00000000000E+00  0.10891717076E+04  0.10891717076E+04  0.00000000000E+00 0. -1.
         21   -1    0    0  501  502  0.00000000000E+00 -0.00000000000E+00 -0.76874045374E+02  0.76874045374E+02  0.00000000000E+00 0.  1.
         23    2    1    2    0    0  0.10705842568E+03  0.13803598692E+03  0.31868936137E+03  0.37487567040E+03  0.91942476642E+02 0.  0.
         23    2    1    2    0    0 -0.71167393629E+02  0.25483232998E+02  0.57180943686E+03  0.58413949367E+03  0.92405210378E+02 0.  0.
        -13    1    3    3    0    0  0.13847636665E+02  0.72627319551E+02  0.18522055865E+03  0.19943204340E+03  0.00000000000E+00 0.  1.
         13    1    3    3    0    0  0.93210789013E+02  0.65408667373E+02  0.13346880272E+03  0.17544362700E+03  0.00000000000E+00 0. -1.
        -13    1    4    4    0    0  0.40865543687E+01  0.42116581987E+02  0.20378135410E+03  0.20812819772E+03  0.00000000000E+00 0.  1.
         13    1    4    4    0    0 -0.75253947997E+02 -0.16633348988E+02  0.36802808276E+03  0.37601129596E+03  0.00000000000E+00 0. -1.
          1    1    1    2  501    0 -0.35891032050E+02 -0.16351921992E+03  0.12179886396E+03  0.20703058887E+03  0.00000000000E+00 0. -1.
<scales pt_clust_5="13000.00000" pt_clust_6="13000.00000" pt_clust_7="13000.00000" pt_clust_8="13000.00000" pt_clust_9="13000.00000"></scales>
<clustering>
<clus scale="   91.942">  5  6 -1 -1</clus>
<clus scale="   92.405">  7  8 -1 -1</clus>
<clus scale="  167.412">  7  9 -1 -1</clus>
<clus scale="  197.405">  1  5  2 -1</clus>
<clus scale="  380.602">  2  5  1 -1</clus>
</clustering>
</event>
<event>
 9    1  0.6399313E-006  0.3999489E+03  0.7546771E-02  0.1052068E+00
          2   -1    0    0  502    0 -0.00000000000E+00  0.00000000000E+00  0.58170297946E+03  0.58170297946E+03  0.00000000000E+00 0. -1.
         21   -1    0    0  501  502  0.00000000000E+00 -0.00000000000E+00 -0.22008071761E+03  0.22008071761E+03  0.00000000000E+00 0. -1.
         23    2    1    2    0    0 -0.19889138131E+03 -0.22832974364E+03  0.16515708447E+03  0.35618559256E+03  0.88876658403E+02 0.  0.
         23    2    1    2    0    0  0.71196908562E+02 -0.16703692038E+02  0.12234476370E+02  0.11350141052E+03  0.85935293451E+02 0.  0.
        -11    1    4    4    0    0  0.18320635452E+02 -0.47669531524E+02  0.27858960898E+00  0.51069634141E+02  0.00000000000E+00 0. -1.
         11    1    4    4    0    0  0.52876273110E+02  0.30965839486E+02  0.11955886761E+02  0.62431776375E+02  0.00000000000E+00 0.  1.
        -13    1    3    3    0    0 -0.40391708202E+02 -0.50624622677E+02  0.80828555261E+02  0.10357411770E+03  0.00000000000E+00 0.  1.
         13    1    3    3    0    0 -0.15849967311E+03 -0.17770512096E+03  0.84328529208E+02  0.25261147486E+03  0.00000000000E+00 0. -1.
          2    1    1    2  501    0  0.12769447275E+03  0.24503343567E+03  0.18423070101E+03  0.33209669400E+03  0.00000000000E+00 0. -1.
<scales pt_clust_5="13000.00000" pt_clust_6="13000.00000" pt_clust_7="13000.00000" pt_clust_8="13000.00000" pt_clust_9="13000.00000"></scales>
<clustering>
<clus scale="   85.935">  5  6 -1 -1</clus>
<clus scale="   88.877">  7  8 -1 -1</clus>
<clus scale="  276.310">  5  9 -1 -1</clus>
<clus scale="  315.581">  1  7  2 -1</clus>
<clus scale="  399.949">  2  5  1 -1</clus>
</clustering>
</event>
<event>
 9    1  0.6399313E-006  0.1353945E+03  0.7546771E-02  0.1238168E+00
          1   -1    0    0  502    0 -0.00000000000E+00  0.00000000000E+00  0.19176277277E+03  0.19176277277E+03  0.00000000000E+00 0. -1.
         21   -1    0    0  501  502  0.00000000000E+00 -0.00000000000E+00 -0.10496468093E+03  0.10496468093E+03  0.00000000000E+00 0.  1.
         23    2    1    2    0    0 -0.90473697655E+01 -0.11043899914E+02  0.12559643531E+03  0.15588363749E+03  0.91221824424E+02 0.  0.
         23    2    1    2    0    0  0.41087671030E+02  0.16832429569E+02 -0.35974494424E+02  0.10816259677E+03  0.91833848312E+02 0.  0.
        -13    1    4    4    0    0  0.47104374484E+02 -0.23176701201E+02  0.21908421471E+01  0.52543138119E+02  0.00000000000E+00 0. -1.
         13    1    4    4    0    0 -0.60167034537E+01  0.40009130770E+02 -0.38165336571E+02  0.55619458654E+02  0.00000000000E+00 0.  1.
        -13    1    3    3    0    0  0.26193029465E+02 -0.39118431903E+02  0.59068217125E+02  0.75533971042E+02  0.00000000000E+00 0.  1.
         13    1    3    3    0    0 -0.35240399230E+02  0.28074531989E+02  0.66528218183E+02  0.80349666452E+02  0.00000000000E+00 0. -1.
          1    1    1    2  501    0 -0.32040301264E+02 -0.57885296551E+01 -0.28238490406E+01  0.32681219440E+02  0.00000000000E+00 0. -1.
<scales pt_clust_5="13000.00000" pt_clust_6="13000.00000" pt_clust_7="13000.00000" pt_clust_8="13000.00000" pt_clust_9="13000.00000"></scales>
<clustering>
<clus scale="   91.222">  7  8 -1 -1</clus>
<clus scale="   91.834">  5  6 -1 -1</clus>
<clus scale="   32.559">  5  9 -1 -1</clus>
<clus scale="   92.332">  1  7  2 -1</clus>
<clus scale="  135.394">  2  5  1 -1</clus>
</clustering>
</event>
<event>
 9    1  0.6399313E-006  0.1407178E+03  0.7546771E-02  0.1226171E+00
          1   -1    0    0  502    0 -0.00000000000E+00  0.00000000000E+00  0.97272207934E+03  0.97272207934E+03  0.00000000000E+00 0. -1.
         21   -1    0    0  501  502  0.00000000000E+00 -0.00000000000E+00 -0.17580188586E+02  0.17580188586E+02  0.00000000000E+00 0.  1.
         23    2    1    2    0    0 -0.47084597813E+02 -0.20049820747E+02  0.58333021226E+03  0.59275298910E+03  0.91994645964E+02 0.  0.
         23    2    1    2    0    0  0.59745500529E+02 -0.24523316427E+01  0.33637826231E+03  0.35370669334E+03  0.91556271193E+02 0.  0.
        -11    1    3    3    0    0 -0.74011404070E+02 -0.47152550923E+01  0.39811688562E+03  0.40496540122E+03  0.00000000000E+00 0. -1.
         11    1    3    3    0    0  0.26926806257E+02 -0.15334565654E+02  0.18521332663E+03  0.18778758788E+03  0.00000000000E+00 0.  1.
        -13    1    4    4    0    0  0.36399687280E+02  0.34690372085E+02  0.86887570365E+02  0.10038829132E+03  0.00000000000E+00 0.  1.
         13    1    4    4    0    0  0.23345813248E+02 -0.37142703727E+02  0.24949069195E+03  0.25331840203E+03  0.00000000000E+00 0. -1.
          1    1    1    2  501    0 -0.12660902716E+02  0.22502152389E+02  0.35433416180E+02  0.43842585484E+02  0.00000000000E+00 0. -1.
<scales pt_clust_5="13000.00000" pt_clust_6="13000.00000" pt_clust_7="13000.00000" pt_clust_8="13000.00000" pt_clust_9="13000.00000"></scales>
<clustering>
<clus scale="   91.556">  7  8 -1 -1</clus>
<clus scale="   25.819">  7  9 -1 -1</clus>
<clus scale="   91.995">  5  6 -1 -1</clus>
<clus scale="  105.271">  1  5  2 -1</clus>
<clus scale="  140.718">  2  5  1 -1</clus>
</clustering>
</event>
<event>
 9    1  0.6399313E-006  0.2041089E+03  0.7546771E-02  0.1175293E+00
         21   -1    0    0  501  502  0.00000000000E+00  0.00000000000E+00  0.37792923405E+02  0.37792923405E+02  0.00000000000E+00 0.  1.
         -4   -1    0    0    0  501 -0.00000000000E+00 -0.00000000000E+00 -0.69657904539E+03  0.69657904539E+03  0.00000000000E+00 0. -1.
         23    2    1    2    0    0 -0.25847708586E+02  0.54876922545E+02 -0.34236940528E+03  0.35783512240E+03  0.84555215603E+02 0.  0.
         23    2    1    2    0    0  0.67804033305E+02 -0.45254027360E+02 -0.11738704700E+03  0.17290545707E+03  0.97320421062E+02 0.  0.
        -11    1    3    3    0    0  0.11795525406E+02 -0.16351895136E+02 -0.38410340111E+02  0.43380561564E+02  0.00000000000E+00 0.  1.
         11    1    3    3    0    0 -0.37643233992E+02  0.71228817681E+02 -0.30395906517E+03  0.31445456084E+03  0.00000000000E+00 0. -1.
        -11    1    4    4    0    0  0.79780114219E+02 -0.13295561388E+02 -0.11230840446E+03  0.13840092590E+03  0.00000000000E+00 0.  1.
         11    1    4    4    0    0 -0.11976080914E+02 -0.31958465972E+02 -0.50786425459E+01  0.34504531173E+02  0.00000000000E+00 0. -1.
         -4    1    1    2    0  502 -0.41956324719E+02 -0.96228951847E+01 -0.19902966970E+03  0.20363138932E+03  0.00000000000E+00 0. -1.
<scales pt_clust_5="13000.00000" pt_clust_6="13000.00000" pt_clust_7="13000.00000" pt_clust_8="13000.00000" pt_clust_9="13000.00000"></scales>
<clustering>
<clus scale="   84.555">  5  6 -1 -1</clus>
<clus scale="   97.320">  7  8 -1 -1</clus>
<clus scale="   43.046">  7  9 -1 -1</clus>
<clus scale="  104.063">  2  5  1 -1</clus>
<clus scale="  204.109">  1  5  2 -1</clus>
</clustering>
</event>
<event>
 9    1  0.6399313E-006  0.2530860E+03  0.7546771E-02  0.1132833E+00
          2   -1    0    0  502    0 -0.00000000000E+00  0.00000000000E+00  0.10854207562E+03  0.10854207562E+03  0.00000000000E+00 0. -1.
         21   -1    0    0  501  502  0.00000000000E+00 -0.00000000000E+00 -0.59218831937E+03  0.59218831937E+03  0.00000000000E+00 0. -1.
         23    2    1    2    0    0 -0.77759215599E+02 -0.87982645482E+02 -0.41175401388E+03  0.43763151029E+03  0.90512592170E+02 0.  0.
         23    2    1    2    0    0  0.11103275253E+02  0.70081652818E+02  0.47319528079E+02  0.12534946308E+03  0.91862012677E+02 0.  0.
        -13    1    4    4    0    0 -0.13742947462E+02  0.82998053809E+02  0.48889911602E+02  0.97302461415E+02  0.00000000000E+00 0. -1.
         13    1    4    4    0    0  0.24846222715E+02 -0.12916400991E+02 -0.15703835231E+01  0.28047001661E+02  0.00000000000E+00 0.  1.
        -13    1    3    3    0    0 -0.93178449853E+02 -0.47157153319E+02 -0.28024344690E+03  0.29906923974E+03  0.00000000000E+00 0. -1.
         13    1    3    3    0    0  0.15419234254E+02 -0.40825492164E+02 -0.13151056697E+03  0.13856227056E+03  0.00000000000E+00 0.  1.
          2    1    1    2  501    0  0.66655940346E+02  0.17900992665E+02 -0.11921175795E+03  0.13774942162E+03  0.00000000000E+00 0. -1.
<scales pt_clust_5="13000.00000" pt_clust_6="13000.00000" pt_clust_7="13000.00000" pt_clust_8="13000.00000" pt_clust_9="13000.00000"></scales>
<clustering>
<clus scale="   90.513">  7  8 -1 -1</clus>
<clus scale="   91.862">  5  6 -1 -1</clus>
<clus scale="   69.018">  5  9 -1 -1</clus>
<clus scale="  148.257">  1  7  2 -1</clus>
<clus scale="  253.086">  2  5  1 -1</clus>
</clustering>
</event>
<event>
 9    1  0.6399313E-006  0.1822967E+03  0.7546771E-02  0.1192372E+00
         21   -1    0    0  501  502  0.00000000000E+00  0.00000000000E+00  0.38451194264E+03  0.38451194264E+03  0.00000000000E+00 0. -1.
          2   -1    0    0  502    0 -0.00000000000E+00 -0.00000000000E+00 -0.93006870266E+02  0.93006870266E+02  0.00000000000E+00 0. -1.
         23    2    1    2    0    0  0.40826688641E+02  0.30715667113E+01 -0.33209013307E+02  0.10513283851E+03  0.90960552666E+02 0.  0.
         23    2    1    2    0    0  0.78045350482E+01 -0.12730217729E+02  0.79248750712E+02  0.12196329944E+03  0.91497063948E+02 0.  0.
        -11    1    3    3    0    0  0.11889180938E+02  0.44370605069E+02 -0.29448397248E+02  0.54564744278E+02  0.00000000000E+00 0. -1.
         11    1    3    3    0    0  0.28937507703E+02 -0.41299038358E+02 -0.37606160590E+01  0.50568094234E+02  0.00000000000E+00 0.  1.
        -11    1    4    4    0    0 -0.16153987833E+02 -0.37086367734E+02  0.56800639071E+01  0.40848661185E+02  0.00000000000E+00 0.  1.
         11    1    4    4    0    0  0.23958522881E+02  0.24356150005E+02  0.73568686805E+02  0.81114638260E+02  0.00000000000E+00 0. -1.
          2    1    1    2  501    0 -0.48631223689E+02  0.96586510175E+01  0.24546533497E+03  0.25042267495E+03  0.00000000000E+00 0. -1.
<scales pt_clust_5="13000.00000" pt_clust_6="13000.00000" pt_clust_7="13000.00000" pt_clust_8="13000.00000" pt_clust_9="13000.00000"></scales>
<clustering>
<clus scale="   90.961">  5  6 -1 -1</clus>
<clus scale="   91.497">  7  8 -1 -1</clus>
<clus scale="   49.581">  7  9 -1 -1</clus>
<clus scale="   99.750">  2  5  1 -1</clus>
<clus scale="  182.297">  1  5  2 -1</clus>
</clustering>
</event>
<event>
 9    1  0.6399313E-006  0.2670579E+03  0.7546771E-02  0.1129433E+00
          1   -1    0    0  502    0 -0.00000000000E+00  0.00000000000E+00  0.47233126347E+03  0.47233126347E+03  0.00000000000E+00 0. -1.
         21   -1    0    0  501  502  0.00000000000E+00 -0.00000000000E+00 -0.10591415098E+03  0.10591415098E+03  0.00000000000E+00 0. -1.
         23    2    1    2    0    0 -0.82983823464E+02  0.58035054820E+02  0.16616912010E+02  0.13815437600E+03  0.92499336747E+02 0.  0.
         23    2    1    2    0    0  0.66157646415E+02 -0.10283512320E+02  0.36880672460E+03  0.38601167080E+03  0.92217271053E+02 0.  0.
        -13    1    3    3    0    0 -0.94724225630E+02  0.28413068425E+02  0.30365983125E+02  0.10345083040E+03  0.00000000000E+00 0. -1.
         13    1    3    3    0    0  0.11740402166E+02  0.29621986395E+02 -0.13749071115E+02  0.34703545604E+02  0.00000000000E+00 0.  1.
        -13    1    4    4    0    0  0.23748218199E+02  0.37405118750E+02  0.21450732358E+03  0.21903541414E+03  0.00000000000E+00 0.  1.
         13    1    4    4    0    0  0.42409428215E+02 -0.47688631071E+02  0.15429940102E+03  0.16697625666E+03  0.00000000000E+00 0. -1.
          1    1    1    2  501    0  0.16826177050E+02 -0.47751542499E+02 -0.19006524128E+02  0.54079367642E+02  0.00000000000E+00 0. -1.
<scales pt_clust_5="13000.00000" pt_clust_6="13000.00000" pt_clust_7="13000.00000" pt_clust_8="13000.00000" pt_clust_9="13000.00000"></scales>
<clustering>
<clus scale="   92.217">  7  8 -1 -1</clus>
<clus scale="   50.629">  7  9 -1 -1</clus>
<clus scale="   92.499">  5  6 -1 -1</clus>
<clus scale="  137.151">  1  5  2 -1</clus>
<clus scale="  267.058">  2  5  1 -1</clus>
</clustering>
</event>
<event>
 9    1  0.6399313E-006  0.1433281E+03  0.7546771E-02  0.1226394E+00
         21   -1    0    0  501  502  0.00000000000E+00  0.00000000000E+00  0.27403396646E+02  0.27403396646E+02  0.00000000000E+00 0.  1.
          2   -1    0    0  502    0 -0.00000000000E+00 -0.00000000000E+00 -0.57560478105E+03  0.57560478105E+03  0.00000000000E+00 0. -1.
         23    2    1    2    0    0 -0.37939019746E+02 -0.10658204852E+02 -0.30498775057E+03  0.32070369166E+03  0.90996501572E+02 0.  0.
         23    2    1    2    0    0  0.54215343082E+02  0.24357783663E+02 -0.14188918712E+03  0.17877072023E+03  0.91070433938E+02 0.  0.
        -11    1    4    4    0    0 -0.41559003742E+00  0.43780509694E+02 -0.93527820187E+02  0.10326838283E+03  0.00000000000E+00 0. -1.
         11    1    4    4    0    0  0.54630933119E+02 -0.19422726032E+02 -0.48361366938E+02  0.75502337395E+02  0.00000000000E+00 0.  1.
        -13    1    3    3    0    0 -0.52721961621E+02  0.25834789825E+02 -0.20503698405E+03  0.21327729938E+03  0.00000000000E+00 0. -1.
         13    1    3    3    0    0  0.14782941875E+02 -0.36492994677E+02 -0.99950766523E+02  0.10742639229E+03  0.00000000000E+00 0.  1.
          2    1    1    2  501    0 -0.16276323335E+02 -0.13699578810E+02 -0.10132444671E+03  0.10353376581E+03  0.00000000000E+00 0. -1.
<scales pt_clust_5="13000.00000" pt_clust_6="13000.00000" pt_clust_7="13000.00000" pt_clust_8="13000.00000" pt_clust_9="13000.00000"></scales>
<clustering>
<clus scale="   90.997">  7  8 -1 -1</clus>
<clus scale="   91.070">  5  6 -1 -1</clus>
<clus scale="   21.274">  5  9 -1 -1</clus>
<clus scale="   99.163">  2  7  1 -1</clus>
<clus scale="  143.328">  1  5  2 -1</clus>
</clustering>
</event>
<event>
 9    1  0.6399313E-006  0.3880300E+03  0.7546771E-02  0.1086902E+00
         -1   -1    0    0    0  501 -0.00000000000E+00  0.00000000000E+00  0.69388513965E+03  0.69388513965E+03  0.00000000000E+00 0.  1.
         21   -1    0    0  501  502  0.00000000000E+00 -0.00000000000E+00 -0.97696594653E+02  0.97696594653E+02  0.00000000000E+00 0.  1.
         23    2    1    2    0    0  0.60474906550E+02 -0.78448113568E+02  0.14663469709E+03  0.19772488676E+03  0.88216073421E+02 0.  0.
         23    2    1    2    0    0  0.45086868146E+02  0.19452397624E+03  0.33064506185E+03  0.39699091963E+03  0.91669135107E+02 0.  0.
        -13    1    3    3    0    0  0.56924784740E+02 -0.13090373913E+02  0.10499393331E+03  0.12014788820E+03  0.00000000000E+00 0. -1.
         13    1    3    3    0    0  0.35501218101E+01 -0.65357739655E+02  0.41640763779E+02  0.77576998562E+02  0.00000000000E+00 0.  1.
        -13    1    4    4    0    0  0.55138160764E+02  0.11827326541E+03  0.13984561336E+03  0.19127356759E+03  0.00000000000E+00 0.  1.
         13    1    4    4    0    0 -0.10051292618E+02  0.76250710830E+02  0.19079944850E+03  0.20571735204E+03  0.00000000000E+00 0. -1.
         -1    1    1    2    0  502 -0.10556177470E+03 -0.11607586267E+03  0.11890878605E+03  0.19686592791E+03  0.00000000000E+00 0.  1.
<scales pt_clust_5="13000.00000" pt_clust_6="13000.00000" pt_clust_7="13000.00000" pt_clust_8="13000.00000" pt_clust_9="13000.00000"></scales>
<clustering>
<clus scale="   88.216">  5  6 -1 -1</clus>
<clus scale="   91.669">  7  8 -1 -1</clus>
<clus scale="  132.640">  1  5  2 -1</clus>
<clus scale="  164.812">  7  9 -1 -1</clus>
<clus scale="  388.030">  2  5  1 -1</clus>
</clustering>
</event>
<event>
 9    1  0.6399313E-006  0.2306830E+03  0.7546771E-02  0.1142351E+00
          1   -1    0    0  502    0 -0.00000000000E+00  0.00000000000E+00  0.72047253489E+03  0.72047253489E+03  0.00000000000E+00 0. -1.
         21   -1    0    0  501  502  0.00000000000E+00 -0.00000000000E+00 -0.79232593718E+02  0.79232593718E+02  0.00000000000E+00 0.  1.
         23    2    1    2    0    0 -0.40900499251E+02  0.11927743961E+03  0.51243261736E+03  0.53549692932E+03  0.90938526114E+02 0.  0.
         23    2    1    2    0    0  0.75260198669E+02 -0.14023953819E+03  0.69294550830E+02  0.19236274941E+03  0.82888280288E+02 0.  0.
        -11    1    3    3    0    0 -0.19449796695E+02  0.30945387489E+02  0.39131663011E+02  0.53546229076E+02  0.00000000000E+00 0.  1.
         11    1    3    3    0    0 -0.21450702556E+02  0.88332052122E+02  0.47330095435E+03  0.48195070024E+03  0.00000000000E+00 0. -1.
        -13    1    4    4    0    0  0.19189210660E+02 -0.10667819641E+03  0.66061038179E+02  0.12693511792E+03  0.00000000000E+00 0.  1.
         13    1    4    4    0    0  0.56070988009E+02 -0.33561341779E+02  0.32335126514E+01  0.65427631490E+02  0.00000000000E+00 0. -1.
          1    1    1    2  501    0 -0.34359699418E+02  0.20962098582E+02  0.59512772981E+02  0.71845449883E+02  0.00000000000E+00 0. -1.
<scales pt_clust_5="13000.00000" pt_clust_6="13000.00000" pt_clust_7="13000.00000" pt_clust_8="13000.00000" pt_clust_9="13000.00000"></scales>
<clustering>
<clus scale="   82.888">  7  8 -1 -1</clus>
<clus scale="   40.249">  7  9 -1 -1</clus>
<clus scale="   90.939">  5  6 -1 -1</clus>
<clus scale="  155.466">  1  5  2 -1</clus>
<clus scale="  230.683">  2  5  1 -1</clus>
</clustering>
</event>
<event>
 9    1  0.6399313E-006  0.1942203E+03  0.7546771E-02  0.1183654E+00
         21   -1    0    0  501  502  0.00000000000E+00  0.00000000000E+00  0.23432708228E+03  0.23432708228E+03  0.00000000000E+00 0.  1.
         -2   -1    0    0    0  501 -0.00000000000E+00 -0.00000000000E+00 -0.15305972061E+03  0.15305972061E+03  0.00000000000E+00 0.  1.
         23    2    1    2    0    0  0.72423449599E+01  0.33001475082E+01 -0.85323824842E+02  0.13150766189E+03  0.99753533848E+02 0.  0.
         23    2    1    2    0    0  0.12715361236E+02  0.22294581780E+02  0.12017825046E+02  0.97935086735E+02  0.93744996170E+02 0.  0.
        -11    1    4    4    0    0 -0.36122379776E+01 -0.27646674797E+02  0.31344558302E+02  0.41950783373E+02  0.00000000000E+00 0. -1.
         11    1    4    4    0    0  0.16327599214E+02  0.49941256577E+02 -0.19326733255E+02  0.55984303362E+02  0.00000000000E+00 0.  1.
        -11    1    3    3    0    0  0.52100989261E+02  0.61638739535E+01 -0.60787150067E+02  0.80296849486E+02  0.00000000000E+00 0.  1.
         11    1    3    3    0    0 -0.44858644301E+02 -0.28637264453E+01 -0.24536674774E+02  0.51210812400E+02  0.00000000000E+00 0. -1.
         -2    1    1    2    0  502 -0.19957706196E+02 -0.25594729289E+02  0.15457336146E+03  0.15794405427E+03  0.00000000000E+00 0.  1.
<scales pt_clust_5="13000.00000" pt_clust_6="13000.00000" pt_clust_7="13000.00000" pt_clust_8="13000.00000" pt_clust_9="13000.00000"></scales>
<clustering>
<clus scale="   93.745">  5  6 -1 -1</clus>
<clus scale="   32.456">  5  9 -1 -1</clus>
<clus scale="   99.754">  7  8 -1 -1</clus>
<clus scale="  100.071">  2  7  1 -1</clus>
<clus scale="  194.220">  1  5  2 -1</clus>
</clustering>
</event>
<event>
 9    1  0.6399313E-006  0.1471793E+03  0.7546771E-02  0.1223763E+00
         21   -1    0    0  501  502  0.00000000000E+00  0.00000000000E+00  0.63023404433E+02  0.63023404433E+02  0.00000000000E+00 0.  1.
          1   -1    0    0  502    0 -0.00000000000E+00 -0.00000000000E+00 -0.32408971744E+03  0.32408971744E+03  0.00000000000E+00 0. -1.
         23    2    1    2    0    0 -0.49334959558E+00 -0.43722181762E+02 -0.11551761671E+02  0.97424899967E+02  0.86291919460E+02 0.  0.
         23    2    1    2    0    0  0.34217312484E+02  0.44740875240E+02 -0.22262558877E+03  0.24654474363E+03  0.89719493142E+02 0.  0.
        -11    1    3    3    0    0  0.30520252934E+02 -0.13962033453E+00  0.18875187525E+02  0.35885624380E+02  0.00000000000E+00 0.  1.
         11    1    3    3    0    0 -0.31013602530E+02 -0.43582561427E+02 -0.30426949196E+02  0.61539275587E+02  0.00000000000E+00 0. -1.
        -11    1    4    4    0    0 -0.29245001700E+02  0.53844480552E+01 -0.83631689516E+02  0.88761038167E+02  0.00000000000E+00 0. -1.
         11    1    4    4    0    0  0.63462314183E+02  0.39356427185E+02 -0.13899389925E+03  0.15778370547E+03  0.00000000000E+00 0.  1.
          1    1    1    2  501    0 -0.33723962888E+02 -0.10186934779E+01 -0.26888962571E+02  0.43143478272E+02  0.00000000000E+00 0. -1.
<scales pt_clust_5="13000.00000" pt_clust_6="13000.00000" pt_clust_7="13000.00000" pt_clust_8="13000.00000" pt_clust_9="13000.00000"></scales>
<clustering>
<clus scale="   86.292">  5  6 -1 -1</clus>
<clus scale="   89.719">  7  8 -1 -1</clus>
<clus scale="   33.739">  7  9 -1 -1</clus>
<clus scale="   96.738">  2  5  1 -1</clus>
<clus scale="  147.179">  1  5  2 -1</clus>
</clustering>
</event>
<event>
 9    1  0.6399313E-006  0.2385569E+03  0.7546771E-02  0.1153077E+00
          2   -1    0    0  502    0 -0.00000000000E+00  0.00000000000E+00  0.17435391729E+03  0.17435391729E+03  0.00000000000E+00 0. -1.
         21   -1    0    0  501  502  0.00000000000E+00 -0.00000000000E+00 -0.17385443963E+03  0.17385443963E+03  0.00000000000E+00 0. -1.
         23    2    1    2    0    0  0.56138874040E+01 -0.56099573205E+02  0.10671589896E+02  0.10943465655E+03  0.93184673511E+02 0.  0.
         23    2    1    2    0    0  0.34568713300E+02  0.12453727494E+03 -0.17624462432E+02  0.15906235901E+03  0.91025730381E+02 0.  0.
        -13    1    3    3    0    0 -0.13000185639E+02 -0.39597780692E+02  0.48633545064E+02  0.64048503245E+02  0.00000000000E+00 0. -1.
         13    1    3    3    0    0  0.18614073043E+02 -0.16501792513E+02 -0.37961955169E+02  0.45386153303E+02  0.00000000000E+00 0.  1.
        -13    1    4    4    0    0  0.55991659023E+02  0.76836729972E+02 -0.38748401040E+02  0.10266638952E+03  0.00000000000E+00 0. -1.
         13    1    4    4    0    0 -0.21422945723E+02  0.47700544965E+02  0.21123938609E+02  0.56395969499E+02  0.00000000000E+00 0.  1.
          2    1    1    2  501    0 -0.40182600704E+02 -0.68437701732E+02  0.74523502049E+01  0.79711341359E+02  0.00000000000E+00 0. -1.
<scales pt_clust_5="13000.00000" pt_clust_6="13000.00000" pt_clust_7="13000.00000" pt_clust_8="13000.00000" pt_clust_9="13000.00000"></scales>
<clustering>
<clus scale="   91.026">  7  8 -1 -1</clus>
<clus scale="   79.362">  7  9 -1 -1</clus>
<clus scale="   93.185">  5  6 -1 -1</clus>
<clus scale="  108.913">  1  5  2 -1</clus>
<clus scale="  238.557">  2  5  1 -1</clus>
</clustering>
</event>
<event>
 9    1  0.6399313E-006  0.6473485E+03  0.7546771E-02  0.1005429E+00
         21   -1    0    0  501  502  0.00000000000E+00  0.00000000000E+00  0.11279420058E+03  0.11279420058E+03  0.00000000000E+00 0. -1.
          1   -1    0    0  502    0 -0.00000000000E+00 -0.00000000000E+00 -0.19844477765E+04  0.19844477765E+04  0.00000000000E+00 0. -1.
         23    2    1    2    0    0 -0.24858535549E+03  0.13582143747E+03 -0.62679064288E+03  0.69412265572E+03  0.93260974417E+02 0.  0.
         23    2    1    2    0    0 -0.31482056730E+02 -0.30563558149E+03 -0.61916273677E+03  0.69687904034E+03  0.88733723570E+02 0.  0.
        -11    1    3    3    0    0 -0.61966800308E+02  0.60316938734E+02 -0.28093787679E+03  0.29394575699E+03  0.00000000000E+00 0.  1.
         11    1    3    3    0    0 -0.18661855518E+03  0.75504498737E+02 -0.34585276609E+03  0.40017689874E+03  0.00000000000E+00 0. -1.
        -13    1    4    4    0    0 -0.18448577393E+02 -0.27579632109E+03 -0.59582084988E+03  0.65681538189E+03  0.00000000000E+00 0. -1.
         13    1    4    4    0    0 -0.13033479337E+02 -0.29839260410E+02 -0.23341886883E+02  0.40063658454E+02  0.00000000000E+00 0.  1.
          1    1    1    2  501    0  0.28006741222E+03  0.16981414402E+03 -0.62570019631E+03  0.70624028104E+03  0.00000000000E+00 0. -1.
<scales pt_clust_5="13000.00000" pt_clust_6="13000.00000" pt_clust_7="13000.00000" pt_clust_8="13000.00000" pt_clust_9="13000.00000"></scales>
<clustering>
<clus scale="   88.734">  7  8 -1 -1</clus>
<clus scale="   93.261">  5  6 -1 -1</clus>
<clus scale="  298.228">  2  5  1 -1</clus>
<clus scale="  284.150">  7  9 -1 -1</clus>
<clus scale="  647.349">  1  5  2 -1</clus>
</clustering>
</event>
<event>
 9    1  0.6399313E-006  0.1644824E+03  0.7546771E-02  0.1197679E+00
          4   -1    0    0  502    0 -0.00000000000E+00  0.00000000000E+00  0.18497244544E+03  0.18497244544E+03  0.00000000000E+00 0. -1.
         21   -1    0    0  501  502  0.00000000000E+00 -0.00000000000E+00 -0.36558107073E+03  0.36558107073E+03  0.00000000000E+00 0.  1.
         23    2    1    2    0    0  0.47960180344E+02  0.58993619595E+00  0.14317420147E+03  0.18738719532E+03  0.11097108669E+03 0.  0.
         23    2    1    2    0    0 -0.80352699949E+02 -0.22010433292E+02 -0.23433924293E+03  0.26565597416E+03  0.93365948109E+02 0.  0.
        -11    1    3    3    0    0  0.31051377503E+02  0.25697976179E+02 -0.75111529923E+00  0.40313002849E+02  0.00000000000E+00 0.  1.
         11    1    3    3    0    0  0.16908802842E+02 -0.25108039983E+02  0.14392531677E+03  0.14707419247E+03  0.00000000000E+00 0. -1.
        -13    1    4    4    0    0 -0.10171993954E+03 -0.16363800028E+02 -0.19378133517E+03  0.21946736867E+03  0.00000000000E+00 0.  1.
         13    1    4    4    0    0  0.21367239591E+02 -0.56466332648E+01 -0.40557907758E+02  0.46188605485E+02  0.00000000000E+00 0. -1.
          4    1    1    2  501    0  0.32392519604E+02  0.21420497097E+02 -0.89443583833E+02  0.97510346687E+02  0.00000000000E+00 0. -1.
<scales pt_clust_5="13000.00000" pt_clust_6="13000.00000" pt_clust_7="13000.00000" pt_clust_8="13000.00000" pt_clust_9="13000.00000"></scales>
<clustering>
<clus scale="   93.366">  7  8 -1 -1</clus>
<clus scale="   38.834">  7  9 -1 -1</clus>
<clus scale="  110.971">  5  6 -1 -1</clus>
<clus scale="  120.893">  1  5  2 -1</clus>
<clus scale="  164.482">  2  5  1 -1</clus>
</clustering>
</event>
<event>
 9    1  0.6399313E-006  0.2102712E+03  0.7546771E-02  0.1149422E+00
         21   -1    0    0  501  502  0.00000000000E+00  0.00000000000E+00  0.35653814880E+02  0.35653814880E+02  0.00000000000E+00 0. -1.
          1   -1    0    0  502    0 -0.00000000000E+00 -0.00000000000E+00 -0.11385151922E+04  0.11385151922E+04  0.00000000000E+00 0. -1.
         23    2    1    2    0    0 -0.13085338216E+03 -0.61930593691E+02 -0.68206270592E+03  0.70375909094E+03  0.95442743154E+02 0.  0.
         23    2    1    2    0    0  0.21823334844E+02  0.31316198178E+02 -0.21187772921E+03  0.23276995208E+03  0.88502634122E+02 0.  0.
        -13    1    3    3    0    0 -0.16471729024E+02  0.23782569188E+02 -0.83586297770E+02  0.88451103040E+02  0.00000000000E+00 0.  1.
         13    1    3    3    0    0 -0.11438165314E+03 -0.85713162878E+02 -0.59847640815E+03  0.61530798790E+03  0.00000000000E+00 0. -1.
        -13    1    4    4    0    0  0.51236588604E+02  0.40683210055E+02 -0.13918722368E+03  0.15379660213E+03  0.00000000000E+00 0.  1.
         13    1    4    4    0    0 -0.29413253761E+02 -0.93670118771E+01 -0.72690505530E+02  0.78973349951E+02  0.00000000000E+00 0. -1.
          1    1    1    2  501    0  0.10903004732E+03  0.30614395513E+02 -0.20892094223E+03  0.23763996409E+03  0.00000000000E+00 0. -1.
<scales pt_clust_5="13000.00000" pt_clust_6="13000.00000" pt_clust_7="13000.00000" pt_clust_8="13000.00000" pt_clust_9="13000.00000"></scales>
<clustering>
<clus scale="   88.503">  7  8 -1 -1</clus>
<clus scale="   95.443">  5  6 -1 -1</clus>
<clus scale="  113.247">  7  9 -1 -1</clus>
<clus scale="  173.399">  2  5  1 -1</clus>
<clus scale="  210.271">  1  5  2 -1</clus>
</clustering>
</event>
<event>
 9    1  0.6508053E-006  0.3816217E+03  0.7546771E-02  0.1075168E+00
         21   -1    0    0  501  502  0.00000000000E+00  0.00000000000E+00  0.18306222634E+03  0.18306222634E+03  0.00000000000E+00 0. -1.
          1   -1    0    0  502    0 -0.00000000000E+00 -0.00000000000E+00 -0.47486564815E+03  0.47486564815E+03  0.00000000000E+00 0. -1.
         23    2    1    2    0    0 -0.16628901101E+03  0.10134857937E+02 -0.26115933556E+02  0.19292789744E+03  0.93725029179E+02 0.  0.
         23    2    1    2    0    0  0.28826298879E+02  0.63288128223E+02 -0.28586440915E+03  0.30785660219E+03  0.90669092935E+02 0.  0.
        -11    1    4    4    0    0  0.26850543643E+02  0.85733542696E+02 -0.20315965293E+03  0.22213742732E+03  0.00000000000E+00 0.  1.
         11    1    4    4    0    0  0.19757552362E+01 -0.22445414473E+02 -0.82704756216E+02  0.85719174870E+02  0.00000000000E+00 0. -1.
        -13    1    3    3    0    0 -0.46397004851E+02  0.14691187345E+02  0.33373045652E+02  0.59010789021E+02  0.00000000000E+00 0.  1.
         13    1    3    3    0    0 -0.11989200616E+03 -0.45563294076E+01 -0.59488979208E+02  0.13391710842E+03  0.00000000000E+00 0. -1.
          1    1    1    2  501    0  0.13746271213E+03 -0.73422986161E+02  0.20176920893E+02  0.15714337486E+03  0.00000000000E+00 0. -1.
<scales pt_clust_5="13000.00000" pt_clust_6="13000.00000" pt_clust_7="13000.00000" pt_clust_8="13000.00000" pt_clust_9="13000.00000"></scales>
<clustering>
<clus scale="   90.669">  5  6 -1 -1</clus>
<clus scale="   93.725">  7  8 -1 -1</clus>
<clus scale="  155.843">  5  9 -1 -1</clus>
<clus scale="  191.152">  2  7  1 -1</clus>
<clus scale="  381.622">  1  5  2 -1</clus>
</clustering>
</event>
<event>
 9    1  0.6399313E-006  0.7188302E+03  0.7546771E-02  0.1014574E+00
         -2   -1    0    0    0  501 -0.00000000000E+00  0.00000000000E+00  0.34863287502E+03  0.34863287502E+03  0.00000000000E+00 0.  1.
         21   -1    0    0  501  502  0.00000000000E+00 -0.00000000000E+00 -0.58409239197E+03  0.58409239197E+03  0.00000000000E+00 0.  1.
         23    2    1    2    0    0 -0.35530460238E+01 -0.13722430129E+03  0.29061414280E+02  0.16676958021E+03  0.90135420801E+02 0.  0.
         23    2    1    2    0    0 -0.18162556728E+03  0.68551123448E+02  0.17780925067E+03  0.28153529705E+03  0.99794241533E+02 0.  0.
        -11    1    4    4    0    0 -0.10805658239E+03  0.83075893877E+02  0.79161285286E+02  0.15762086864E+03  0.00000000000E+00 0.  1.
         11    1    4    4    0    0 -0.73568984891E+02 -0.14524770430E+02  0.98647965384E+02  0.12391442841E+03  0.00000000000E+00 0. -1.
        -13    1    3    3    0    0 -0.25142868145E+02 -0.11262663358E+03  0.52231912787E+02  0.12666923511E+03  0.00000000000E+00 0.  1.
         13    1    3    3    0    0  0.21589822122E+02 -0.24597667709E+02 -0.23170498507E+02  0.40100345099E+02  0.00000000000E+00 0. -1.
         -2    1    1    2    0  502  0.18517861331E+03  0.68673177838E+02 -0.44233018190E+03  0.48442038974E+03  0.00000000000E+00 0.  1.
<scales pt_clust_5="13000.00000" pt_clust_6="13000.00000" pt_clust_7="13000.00000" pt_clust_8="13000.00000" pt_clust_9="13000.00000"></scales>
<clustering>
<clus scale="   90.135">  7  8 -1 -1</clus>
<clus scale="   99.794">  5  6 -1 -1</clus>
<clus scale="  164.218">  1  7  2 -1</clus>
<clus scale="  193.513">  5  9 -1 -1</clus>
<clus scale="  718.830">  2  5  1 -1</clus>
</clustering>
</event>
<event>
 9    1  0.6399313E-006  0.2594014E+03  0.7546771E-02  0.1131390E+00
         -1   -1    0    0    0  501 -0.00000000000E+00  0.00000000000E+00  0.13177782483E+03  0.13177782483E+03  0.00000000000E+00 0.  1.
         21   -1    0    0  501  502  0.00000000000E+00 -0.00000000000E+00 -0.58087203120E+03  0.58087203120E+03  0.00000000000E+00 0.  1.
         23    2    1    2    0    0  0.61113941240E+02  0.91112639666E+02  0.49195076752E+02  0.15088363204E+03  0.91155295617E+02 0.  0.
         23    2    1    2    0    0  0.44486614576E+01  0.47211790572E+02 -0.24591819030E+03  0.26659970935E+03  0.91383285932E+02 0.  0.
        -11    1    4    4    0    0  0.46144838074E+02  0.35634345904E+02 -0.11915845605E+03  0.13265704029E+03  0.00000000000E+00 0.  1.
         11    1    4    4    0    0 -0.41696176617E+02  0.11577444668E+02 -0.12675973424E+03  0.13394266906E+03  0.00000000000E+00 0. -1.
        -11    1    3    3    0    0  0.26971097979E+02  0.74952361121E+02  0.71479375904E+02  0.10702615448E+03  0.00000000000E+00 0.  1.
         11    1    3    3    0    0  0.34142843261E+02  0.16160278544E+02 -0.22284299152E+02  0.43857477553E+02  0.00000000000E+00 0. -1.
         -1    1    1    2    0  502 -0.65562602698E+02 -0.13832443024E+03 -0.25237109283E+03  0.29516651465E+03  0.00000000000E+00 0.  1.
<scales pt_clust_5="13000.00000" pt_clust_6="13000.00000" pt_clust_7="13000.00000" pt_clust_8="13000.00000" pt_clust_9="13000.00000"></scales>
<clustering>
<clus scale="   91.155">  7  8 -1 -1</clus>
<clus scale="   91.383">  5  6 -1 -1</clus>
<clus scale="  142.638">  1  7  2 -1</clus>
<clus scale="   80.664">  5  9 -1 -1</clus>
<clus scale="  259.401">  2  5  1 -1</clus>
</clustering>
</event>
<event>
 9    1  0.6399313E-006  0.2025648E+03  0.7546771E-02  0.1157645E+00
          2   -1    0    0  502    0 -0.00000000000E+00  0.00000000000E+00  0.74546605349E+03  0.74546605349E+03  0.00000000000E+00 0. -1.
         21   -1    0    0  501  502  0.00000000000E+00 -0.00000000000E+00 -0.48134384432E+02  0.48134384432E+02  0.00000000000E+00 0. -1.
         23    2    1    2    0    0 -0.85100398307E+02 -0.99843160313E+02  0.42604201598E+03  0.45502903930E+03  0.91262767702E+02 0.  0.
         23    2    1    2    0    0  0.78213155238E+01  0.21478058151E+02  0.12585039232E+03  0.15618246134E+03  0.89622318797E+02 0.  0.
        -13    1    4    4    0    0  0.64967386400E+01  0.55377492585E+02  0.58768457969E+02  0.81009912666E+02  0.00000000000E+00 0.  1.
         13    1    4    4    0    0  0.13245768838E+01 -0.33899434434E+02  0.67081934348E+02  0.75172548678E+02  0.00000000000E+00 0. -1.
        -13    1    3    3    0    0 -0.86706422788E+02 -0.70145187323E+02  0.40077572932E+03  0.41600425030E+03  0.00000000000E+00 0.  1.
         13    1    3    3    0    0  0.16060244814E+01 -0.29697972990E+02  0.25266286658E+02  0.39024788991E+02  0.00000000000E+00 0. -1.
          2    1    1    2  501    0  0.77279082783E+02  0.78365102162E+02  0.14543926076E+03  0.18238893729E+03  0.00000000000E+00 0. -1.
<scales pt_clust_5="13000.00000" pt_clust_6="13000.00000" pt_clust_7="13000.00000" pt_clust_8="13000.00000" pt_clust_9="13000.00000"></scales>
<clustering>
<clus scale="   89.622">  5  6 -1 -1</clus>
<clus scale="   91.263">  7  8 -1 -1</clus>
<clus scale="  110.060">  5  9 -1 -1</clus>
<clus scale="  159.811">  1  7  2 -1</clus>
<clus scale="  202.565">  2  5  1 -1</clus>
</clustering>
</event>
<event>
 9    1  0.6399313E-006  0.1948402E+03  0.7546771E-02  0.1164577E+00
         21   -1    0    0  501  502  0.00000000000E+00  0.00000000000E+00  0.34528615621E+03  0.34528615621E+03  0.00000000000E+00 0. -1.
          1   -1    0    0  502    0 -0.00000000000E+00 -0.00000000000E+00 -0.98492685730E+02  0.98492685730E+02  0.00000000000E+00 0. -1.
         23    2    1    2    0    0  0.44703131048E+02 -0.11407203407E+03  0.18368416141E+03  0.23897287852E+03  0.91418633933E+02 0.  0.
         23    2    1    2    0    0 -0.19217753421E+02  0.54884753584E+02 -0.78654015800E+01  0.10894122436E+03  0.91785988043E+02 0.  0.
        -11    1    4    4    0    0 -0.13160912907E+02 -0.25138431629E+02 -0.93715456155E+00  0.28390643388E+02  0.00000000000E+00 0.  1.
         11    1    4    4    0    0 -0.60568405138E+01  0.80023185212E+02 -0.69282470185E+01  0.80550580974E+02  0.00000000000E+00 0. -1.
        -13    1    3    3    0    0  0.47683096508E+02 -0.13000959110E+02  0.80807826981E+02  0.94723848802E+02  0.00000000000E+00 0.  1.
         13    1    3    3    0    0 -0.29799654597E+01 -0.10107107496E+03  0.10287633443E+03  0.14424902971E+03  0.00000000000E+00 0. -1.
          1    1    1    2  501    0 -0.25485377628E+02  0.59187280484E+02  0.70974710647E+02  0.95864739062E+02  0.00000000000E+00 0. -1.
<scales pt_clust_5="13000.00000" pt_clust_6="13000.00000" pt_clust_7="13000.00000" pt_clust_8="13000.00000" pt_clust_9="13000.00000"></scales>
<clustering>
<clus scale="   91.419">  7  8 -1 -1</clus>
<clus scale="   91.786">  5  6 -1 -1</clus>
<clus scale="   64.441">  5  9 -1 -1</clus>
<clus scale="  152.867">  2  7  1 -1</clus>
<clus scale="  194.840">  1  5  2 -1</clus>
</clustering>
</event>
<event>
 9    1  0.6399313E-006  0.3232010E+03  0.7546771E-02  0.1101535E+00
         21   -1    0    0  501  502  0.00000000000E+00  0.00000000000E+00  0.24782914616E+03  0.24782914616E+03  0.00000000000E+00 0. -1.
          1   -1    0    0  502    0 -0.00000000000E+00 -0.00000000000E+00 -0.36274712236E+03  0.36274712236E+03  0.00000000000E+00 0. -1.
         23    2    1    2    0    0  0.11863492051E+03 -0.32378900593E+02 -0.22071826153E+03  0.27049892861E+03  0.96594419294E+02 0.  0.
         23    2    1    2    0    0  0.62726129451E+02 -0.13437342729E+02 -0.21370191336E+02  0.11388430569E+03  0.91639623036E+02 0.  0.
        -11    1    3    3    0    0  0.84070221370E+02  0.23987338826E+02 -0.15049608888E+03  0.17404673888E+03  0.00000000000E+00 0. -1.
         11    1    3    3    0    0  0.34564699138E+02 -0.56366239419E+02 -0.70222172648E+02  0.96452189732E+02  0.00000000000E+00 0.  1.
        -13    1    4    4    0    0  0.79244779381E+02 -0.31520387068E+02 -0.71962234039E+01  0.85586538026E+02  0.00000000000E+00 0. -1.
         13    1    4    4    0    0 -0.16518649930E+02  0.18083044339E+02 -0.14173967932E+02  0.28297767668E+02  0.00000000000E+00 0.  1.
          1    1    1    2  501    0 -0.18136104996E+03  0.45816243321E+02  0.12717047666E+03  0.22619303422E+03  0.00000000000E+00 0. -1.
<scales pt_clust_5="13000.00000" pt_clust_6="13000.00000" pt_clust_7="13000.00000" pt_clust_8="13000.00000" pt_clust_9="13000.00000"></scales>
<clustering>
<clus scale="   91.640">  7  8 -1 -1</clus>
<clus scale="   96.594">  5  6 -1 -1</clus>
<clus scale="  156.375">  2  5  1 -1</clus>
<clus scale="  135.094">  7  9 -1 -1</clus>
<clus scale="  323.201">  1  5  2 -1</clus>
</clustering>
</event>
<event>
 9    1  0.6399313E-006  0.2120457E+03  0.7546771E-02  0.1160139E+00
         21   -1    0    0  501  502  0.00000000000E+00  0.00000000000E+00  0.27154875516E+03  0.27154875516E+03  0.00000000000E+00 0.  1.
          3   -1    0    0  502    0 -0.00000000000E+00 -0.00000000000E+00 -0.12915981267E+03  0.12915981267E+03  0.00000000000E+00 0. -1.
         23    2    1    2    0    0 -0.20892256661E+02  0.91094133957E+02  0.13516529761E+03  0.18853986283E+03  0.92428321249E+02 0.  0.
         23    2    1    2    0    0 -0.26050548580E+02 -0.98264503768E+01 -0.30078647317E+02  0.11117601040E+03  0.10334500499E+03 0.  0.
        -11    1    4    4    0    0 -0.33216978720E+02 -0.52905644614E+02 -0.24699753140E+02  0.67174792240E+02  0.00000000000E+00 0. -1.
         11    1    4    4    0    0  0.71664301401E+01  0.43079194238E+02 -0.53788941772E+01  0.44001218161E+02  0.00000000000E+00 0.  1.
        -11    1    3    3    0    0 -0.52671154901E+02  0.55957838024E+02  0.51871925660E+02  0.92715839351E+02  0.00000000000E+00 0. -1.
         11    1    3    3    0    0  0.31778898240E+02  0.35136295934E+02  0.83293371948E+02  0.95824023479E+02  0.00000000000E+00 0.  1.
          3    1    1    2  501    0  0.46942805241E+02 -0.81267683581E+02  0.37302292201E+02  0.10099269460E+03  0.00000000000E+00 0. -1.
<scales pt_clust_5="13000.00000" pt_clust_6="13000.00000" pt_clust_7="13000.00000" pt_clust_8="13000.00000" pt_clust_9="13000.00000"></scales>
<clustering>
<clus scale="   92.428">  7  8 -1 -1</clus>
<clus scale="  103.345">  5  6 -1 -1</clus>
<clus scale="   93.851">  5  9 -1 -1</clus>
<clus scale="  131.444">  2  7  1 -1</clus>
<clus scale="  212.046">  1  5  2 -1</clus>
</clustering>
</event>
<event>
 9    1  0.6399313E-006  0.2575975E+03  0.7546771E-02  0.1146593E+00
          3   -1    0    0  502    0 -0.00000000000E+00  0.00000000000E+00  0.10077188289E+03  0.10077188289E+03  0.00000000000E+00 0. -1.
         21   -1    0    0  501  502  0.00000000000E+00 -0.00000000000E+00 -0.42634402995E+03  0.42634402995E+03  0.00000000000E+00 0.  1.
         23    2    1    2    0    0  0.28906719778E+01 -0.43596755430E+02  0.12981138298E+02  0.10170459711E+03  0.90919096198E+02 0.  0.
         23    2    1    2    0    0 -0.95955012847E+02  0.96077147471E+01 -0.28115613787E+03  0.31090952986E+03  0.91193690703E+02 0.  0.
        -11    1    3    3    0    0  0.16666137783E+02  0.25049219455E+02  0.97050472479E+01  0.31613470008E+02  0.00000000000E+00 0.  1.
         11    1    3    3    0    0 -0.13775465805E+02 -0.68645974884E+02  0.32760910500E+01  0.70091127103E+02  0.00000000000E+00 0. -1.
        -11    1    4    4    0    0 -0.25104524629E+02  0.24444071049E+02 -0.19616549158E+03  0.19927029345E+03  0.00000000000E+00 0. -1.
         11    1    4    4    0    0 -0.70850488218E+02 -0.14836356302E+02 -0.84990646291E+02  0.11163923641E+03  0.00000000000E+00 0.  1.
          3    1    1    2  501    0  0.93064340869E+02  0.33989040683E+02 -0.57397147479E+02  0.11450178587E+03  0.00000000000E+00 0. -1.
<scales pt_clust_5="13000.00000" pt_clust_6="13000.00000" pt_clust_7="13000.00000" pt_clust_8="13000.00000" pt_clust_9="13000.00000"></scales>
<clustering>
<clus scale="   90.919">  5  6 -1 -1</clus>
<clus scale="   91.194">  7  8 -1 -1</clus>
<clus scale="   99.077">  7  9 -1 -1</clus>
<clus scale="  100.873">  1  5  2 -1</clus>
<clus scale="  257.597">  2  5  1 -1</clus>
</clustering>
</event>
<event>
 9    1  0.6399313E-006  0.3022202E+03  0.7546771E-02  0.1120569E+00
         21   -1    0    0  501  502  0.00000000000E+00  0.00000000000E+00  0.34916291927E+03  0.34916291927E+03  0.00000000000E+00 0. -1.
          1   -1    0    0  502    0 -0.00000000000E+00 -0.00000000000E+00 -0.15893178511E+03  0.15893178511E+03  0.00000000000E+00 0. -1.
         23    2    1    2    0    0  0.16858677535E+02  0.69956661246E+02 -0.43902805992E+02  0.12579151600E+03  0.93369693488E+02 0.  0.
         23    2    1    2    0    0  0.81648317697E+02 -0.28588582478E+02  0.24518683950E+03  0.27489223627E+03  0.89249092243E+02 0.  0.
        -11    1    3    3    0    0 -0.18085047941E+02 -0.15188886974E+02 -0.19360266228E+02  0.30538355473E+02  0.00000000000E+00 0.  1.
         11    1    3    3    0    0  0.34943725476E+02  0.85145548220E+02 -0.24542539764E+02  0.95253160525E+02  0.00000000000E+00 0. -1.
        -13    1    4    4    0    0  0.62029668763E+02 -0.20750986825E+02  0.24519152110E+03  0.25376596557E+03  0.00000000000E+00 0. -1.
         13    1    4    4    0    0  0.19618648934E+02 -0.78375956531E+01 -0.46816053592E-02  0.21126270697E+02  0.00000000000E+00 0.  1.
          1    1    1    2  501    0 -0.98506995232E+02 -0.41368078768E+02 -0.11052899338E+02  0.10741095212E+03  0.00000000000E+00 0. -1.
<scales pt_clust_5="13000.00000" pt_clust_6="13000.00000" pt_clust_7="13000.00000" pt_clust_8="13000.00000" pt_clust_9="13000.00000"></scales>
<clustering>
<clus scale="   89.249">  7  8 -1 -1</clus>
<clus scale="   93.370">  5  6 -1 -1</clus>
<clus scale="  106.841">  7  9 -1 -1</clus>
<clus scale="  117.882">  2  5  1 -1</clus>
<clus scale="  302.220">  1  5  2 -1</clus>
</clustering>
</event>
<event>
 9    1  0.6399313E-006  0.1655949E+03  0.7546771E-02  0.1208858E+00
          2   -1    0    0  502    0 -0.00000000000E+00  0.00000000000E+00  0.40770481014E+03  0.40770481014E+03  0.00000000000E+00 0. -1.
         21   -1    0    0  501  502  0.00000000000E+00 -0.00000000000E+00 -0.42826068740E+02  0.42826068740E+02  0.00000000000E+00 0.  1.
         23    2    1    2    0    0 -0.78049539494E+01 -0.43117357946E+01  0.88985739304E+02  0.12875668273E+03  0.92629979898E+02 0.  0.
         23    2    1    2    0    0 -0.42858003653E+02  0.58481006692E+01  0.23667929304E+03  0.25768979346E+03  0.92281813709E+02 0.  0.
        -11    1    4    4    0    0  0.11783066274E+02  0.36872603421E+02  0.10112060638E+03  0.10827652825E+03  0.00000000000E+00 0.  1.
         11    1    4    4    0    0 -0.54641069927E+02 -0.31024502752E+02  0.13555868666E+03  0.14941326521E+03  0.00000000000E+00 0. -1.
        -11    1    3    3    0    0  0.11277480381E+01  0.42632794821E+02  0.26949139226E+02  0.50448816784E+02  0.00000000000E+00 0.  1.
         11    1    3    3    0    0 -0.89327019875E+01 -0.46944530615E+02  0.62036600078E+02  0.78307865944E+02  0.00000000000E+00 0. -1.
          2    1    1    2  501    0  0.50662957603E+02 -0.15363648746E+01  0.39213709052E+02  0.64084402686E+02  0.00000000000E+00 0. -1.
<scales pt_clust_5="13000.00000" pt_clust_6="13000.00000" pt_clust_7="13000.00000" pt_clust_8="13000.00000" pt_clust_9="13000.00000"></scales>
<clustering>
<clus scale="   92.282">  5  6 -1 -1</clus>
<clus scale="   50.686">  5  9 -1 -1</clus>
<clus scale="   92.630">  7  8 -1 -1</clus>
<clus scale="   93.058">  1  7  2 -1</clus>
<clus scale="  165.595">  2  5  1 -1</clus>
</clustering>
</event>
<event>
 9    1  0.6409589E-006  0.2845207E+03  0.7546771E-02  0.1125462E+00
         21   -1    0    0  501  502  0.00000000000E+00  0.00000000000E+00  0.49331076207E+03  0.49331076207E+03  0.00000000000E+00 0.  1.
         -3   -1    0    0    0  501 -0.00000000000E+00 -0.00000000000E+00 -0.85037597494E+02  0.85037597494E+02  0.00000000000E+00 0.  1.
         23    2    1    2    0    0 -0.86725218200E+02 -0.17382717269E+01  0.12186450675E+03  0.17463813702E+03  0.90128995530E+02 0.  0.
         23    2    1    2    0    0 -0.14356555303E+02 -0.16353098340E+02 -0.57383989612E+01  0.94041487612E+02  0.91309022907E+02 0.  0.
        -11    1    4    4    0    0 -0.44725169721E+02 -0.35269466511E+02  0.35759998406E+01  0.57070691685E+02  0.00000000000E+00 0.  1.
         11    1    4    4    0    0  0.30368614418E+02  0.18916368171E+02 -0.93143988017E+01  0.36970795927E+02  0.00000000000E+00 0. -1.
        -13    1    3    3    0    0 -0.98768604039E+02 -0.22145573915E+02  0.95038279810E+02  0.13884501510E+03  0.00000000000E+00 0.  1.
         13    1    3    3    0    0  0.12043385839E+02  0.20407302188E+02  0.26826226937E+02  0.35793121919E+02  0.00000000000E+00 0. -1.
         -3    1    1    2    0  502  0.10108177350E+03  0.18091370067E+02  0.29214705679E+03  0.30966873493E+03  0.00000000000E+00 0.  1.
<scales pt_clust_5="13000.00000" pt_clust_6="13000.00000" pt_clust_7="13000.00000" pt_clust_8="13000.00000" pt_clust_9="13000.00000"></scales>
<clustering>
<clus scale="   90.129">  7  8 -1 -1</clus>
<clus scale="   91.309">  5  6 -1 -1</clus>
<clus scale="  102.688">  5  9 -1 -1</clus>
<clus scale="  125.090">  2  7  1 -1</clus>
<clus scale="  284.521">  1  5  2 -1</clus>
</clustering>
</event>
<event>
 9    1  0.6399313E-006  0.5817212E+03  0.7546771E-02  0.1020523E+00
          2   -1    0    0  502    0 -0.00000000000E+00  0.00000000000E+00  0.13468405615E+04  0.13468405615E+04  0.00000000000E+00 0. -1.
         21   -1    0    0  501  502  0.00000000000E+00 -0.00000000000E+00 -0.17492619461E+03  0.17492619461E+03  0.00000000000E+00 0. -1.
         23    2    1    2    0    0 -0.14650682936E+03  0.19292991873E+03  0.57828862390E+02  0.26495089631E+03  0.90380282904E+02 0.  0.
         23    2    1    2    0    0 -0.17023615387E+03 -0.17866890065E+03  0.46287981234E+03  0.53252424204E+03  0.91768314467E+02 0.  0.
        -11    1    4    4    0    0 -0.39669742968E+02 -0.36398432284E+02  0.19502823226E+03  0.20232287502E+03  0.00000000000E+00 0.  1.
         11    1    4    4    0    0 -0.13056641090E+03 -0.14227046837E+03  0.26785158008E+03  0.33020136701E+03  0.00000000000E+00 0. -1.
        -13    1    3    3    0    0 -0.39896978228E+02  0.51085706759E+02 -0.24558799458E+02  0.69315603854E+02  0.00000000000E+00 0.  1.
         13    1    3    3    0    0 -0.10660985114E+03  0.14184421197E+03  0.82387661848E+02  0.19563529246E+03  0.00000000000E+00 0. -1.
          2    1    1    2  501    0  0.31674298323E+03 -0.14261018080E+02  0.65120569213E+03  0.72429161774E+03  0.00000000000E+00 0. -1.
<scales pt_clust_5="13000.00000" pt_clust_6="13000.00000" pt_clust_7="13000.00000" pt_clust_8="13000.00000" pt_clust_9="13000.00000"></scales>
<clustering>
<clus scale="   90.380">  7  8 -1 -1</clus>
<clus scale="   91.768">  5  6 -1 -1</clus>
<clus scale="  258.563">  1  7  2 -1</clus>
<clus scale="  251.486">  5  9 -1 -1</clus>
<clus scale="  581.721">  2  5  1 -1</clus>
</clustering>
</event>
<event>
 9    1  0.6399313E-006  0.3971622E+03  0.7546771E-02  0.1091711E+00
          1   -1    0    0  502    0 -0.00000000000E+00  0.00000000000E+00  0.12627684672E+04  0.12627684672E+04  0.00000000000E+00 0. -1.
         21   -1    0    0  501  502  0.00000000000E+00 -0.00000000000E+00 -0.58229547082E+02  0.58229547082E+02  0.00000000000E+00 0. -1.
         23    2    1    2    0    0  0.36394967013E+02 -0.50822919249E+02  0.10243438753E+03  0.14951510085E+03  0.89187436826E+02 0.  0.
         23    2    1    2    0    0 -0.11073935031E+03 -0.10517111667E+03  0.83213723971E+03  0.85094654141E+03  0.91287803931E+02 0.  0.
        -11    1    4    4    0    0 -0.90983394222E+02 -0.25095871465E+02  0.39728416640E+03  0.40834114373E+03  0.00000000000E+00 0.  1.
         11    1    4    4    0    0 -0.19755956089E+02 -0.80075245202E+02  0.43485307330E+03  0.44260539768E+03  0.00000000000E+00 0. -1.
        -11    1    3    3    0    0  0.13915985866E+02 -0.69357449878E+02  0.96714704319E+02  0.11982422354E+03  0.00000000000E+00 0. -1.
         11    1    3    3    0    0  0.22478981147E+02  0.18534530629E+02  0.57196832128E+01  0.29690877305E+02  0.00000000000E+00 0.  1.
          1    1    1    2  501    0  0.74344383298E+02  0.15599403592E+03  0.26996729293E+03  0.32053637207E+03  0.00000000000E+00 0. -1.
<scales pt_clust_5="13000.00000" pt_clust_6="13000.00000" pt_clust_7="13000.00000" pt_clust_8="13000.00000" pt_clust_9="13000.00000"></scales>
<clustering>
<clus scale="   89.187">  7  8 -1 -1</clus>
<clus scale="   91.288">  5  6 -1 -1</clus>
<clus scale="  108.913">  1  7  2 -1</clus>
<clus scale="  165.566">  5  9 -1 -1</clus>
<clus scale="  397.162">  2  5  1 -1</clus>
</clustering>
</event>
<event>
 9    1  0.6399313E-006  0.2672991E+03  0.7546771E-02  0.1121334E+00
          2   -1    0    0  502    0 -0.00000000000E+00  0.00000000000E+00  0.72382227403E+02  0.72382227403E+02  0.00000000000E+00 0. -1.
         21   -1    0    0  501  502  0.00000000000E+00 -0.00000000000E+00 -0.68899121300E+03  0.68899121300E+03  0.00000000000E+00 0. -1.
         23    2    1    2    0    0  0.26991791942E+02 -0.13561015930E+03 -0.32710250754E+03  0.36733944796E+03  0.93933739690E+02 0.  0.
         23    2    1    2    0    0 -0.59268952966E+02 -0.76790401862E+01 -0.18833816508E+03  0.21568423112E+03  0.86467604840E+02 0.  0.
        -13    1    4    4    0    0 -0.52385669518E+02  0.22570327710E+02 -0.56653220634E+02  0.80394436823E+02  0.00000000000E+00 0.  1.
         13    1    4    4    0    0 -0.68832834486E+01 -0.30249367896E+02 -0.13168494444E+03  0.13528979430E+03  0.00000000000E+00 0. -1.
        -13    1    3    3    0    0  0.18995180244E+02  0.77503805842E+01 -0.69019404822E+02  0.72003913183E+02  0.00000000000E+00 0.  1.
         13    1    3    3    0    0  0.79966116979E+01 -0.14336053988E+03 -0.25808310272E+03  0.29533553478E+03  0.00000000000E+00 0. -1.
          2    1    1    2  501    0  0.32277161024E+02  0.14328919948E+03 -0.10116831298E+03  0.17834976132E+03  0.00000000000E+00 0. -1.
<scales pt_clust_5="13000.00000" pt_clust_6="13000.00000" pt_clust_7="13000.00000" pt_clust_8="13000.00000" pt_clust_9="13000.00000"></scales>
<clustering>
<clus scale="   86.468">  5  6 -1 -1</clus>
<clus scale="   93.934">  7  8 -1 -1</clus>
<clus scale="  146.880">  5  9 -1 -1</clus>
<clus scale="  167.159">  1  7  2 -1</clus>
<clus scale="  267.299">  2  5  1 -1</clus>
</clustering>
</event>
<event>
 9    1  0.6399313E-006  0.2069109E+03  0.7546771E-02  0.1178404E+00
          4   -1    0    0  502    0 -0.00000000000E+00  0.00000000000E+00  0.91695367457E+02  0.91695367457E+02  0.00000000000E+00 0. -1.
         21   -1    0    0  501  502  0.00000000000E+00 -0.00000000000E+00 -0.24779898894E+03  0.24779898894E+03  0.00000000000E+00 0. -1.
         23    2    1    2    0    0 -0.86486483725E+01 -0.92802653836E+01 -0.33301266564E+02  0.98885693083E+02  0.92241441323E+02 0.  0.
         23    2    1    2    0    0 -0.55342497703E+02 -0.23753441241E+02 -0.14886812343E+02  0.11087101697E+03  0.91889864508E+02 0.  0.
        -13    1    4    4    0    0 -0.57443004152E+02 -0.54225834545E+02 -0.14556436113E+02  0.80324527328E+02  0.00000000000E+00 0. -1.
         13    1    4    4    0    0  0.21005064488E+01  0.30472393304E+02 -0.33037622937E+00  0.30546489642E+02  0.00000000000E+00 0.  1.
        -13    1    3    3    0    0 -0.16669626119E+02  0.39912984386E+02 -0.16284138675E+02  0.46217917845E+02  0.00000000000E+00 0.  1.
         13    1    3    3    0    0  0.80209777465E+01 -0.49193249769E+02 -0.17017127889E+02  0.52667775238E+02  0.00000000000E+00 0. -1.
          4    1    1    2  501    0  0.63991146075E+02  0.33033706625E+02 -0.10791554257E+03  0.12973764634E+03  0.00000000000E+00 0. -1.
<scales pt_clust_5="13000.00000" pt_clust_6="13000.00000" pt_clust_7="13000.00000" pt_clust_8="13000.00000" pt_clust_9="13000.00000"></scales>
<clustering>
<clus scale="   91.890">  5  6 -1 -1</clus>
<clus scale="   72.015">  5  9 -1 -1</clus>
<clus scale="   92.241">  7  8 -1 -1</clus>
<clus scale="   93.110">  1  7  2 -1</clus>
<clus scale="  206.911">  2  5  1 -1</clus>
</clustering>
</event>
<event>
 9    1  0.6399313E-006  0.2092325E+03  0.7546771E-02  0.1163600E+00
          1   -1    0    0  502    0 -0.00000000000E+00  0.00000000000E+00  0.13830712595E+03  0.13830712595E+03  0.00000000000E+00 0. -1.
         21   -1    0    0  501  502  0.00000000000E+00 -0.00000000000E+00 -0.36239921139E+03  0.36239921139E+03  0.00000000000E+00 0. -1.
         23    2    1    2    0    0 -0.85926535820E+02 -0.64362465833E+01  0.66439347919E+02  0.14267453205E+03  0.92287812391E+02 0.  0.
         23    2    1    2    0    0  0.26885997085E+02 -0.45121657326E+02 -0.82305289057E+02  0.13554106426E+03  0.94012758146E+02 0.  0.
        -13    1    4    4    0    0  0.53879186151E+02 -0.39595617957E+01 -0.23666520167E+02  0.58980920701E+02  0.00000000000E+00 0.  1.
         13    1    4    4    0    0 -0.26993189067E+02 -0.41162095531E+02 -0.58638768889E+02  0.76560143556E+02  0.00000000000E+00 0. -1.
        -13    1    3    3    0    0 -0.74078244258E+02 -0.25876619714E+02  0.83229200326E+02  0.11438656174E+03  0.00000000000E+00 0. -1.
         13    1    3    3    0    0 -0.11848291563E+02  0.19440373131E+02 -0.16789852406E+02  0.28287970310E+02  0.00000000000E+00 0.  1.
          1    1    1    2  501    0  0.59040538736E+02  0.51557903910E+02 -0.20822614431E+03  0.22249074103E+03  0.00000000000E+00 0. -1.
<scales pt_clust_5="13000.00000" pt_clust_6="13000.00000" pt_clust_7="13000.00000" pt_clust_8="13000.00000" pt_clust_9="13000.00000"></scales>
<clustering>
<clus scale="   92.288">  7  8 -1 -1</clus>
<clus scale="   94.013">  5  6 -1 -1</clus>
<clus scale="   78.384">  5  9 -1 -1</clus>
<clus scale="  126.261">  1  7  2 -1</clus>
<clus scale="  209.233">  2  5  1 -1</clus>
</clustering>
</event>
<event>
 9    1  0.6399313E-006  0.6380018E+03  0.7546771E-02  0.1014370E+00
         -3   -1    0    0    0  501 -0.00000000000E+00  0.00000000000E+00  0.72946213062E+03  0.72946213062E+03  0.00000000000E+00 0.  1.
         21   -1    0    0  501  502  0.00000000000E+00 -0.00000000000E+00 -0.27262245660E+03  0.27262245660E+03  0.00000000000E+00 0.  1.
         23    2    1    2    0    0  0.20195823367E+03  0.80740220299E+02  0.21587320016E+03  0.32009402679E+03  0.92481544735E+02 0.  0.
         23    2    1    2    0    0  0.15397228719E+03  0.83680598056E+02  0.20956392170E+03  0.28866262922E+03  0.93269333194E+02 0.  0.
        -11    1    3    3    0    0  0.15908600378E+03  0.10057378572E+03  0.16089797245E+03  0.24761179397E+03  0.00000000000E+00 0.  1.
         11    1    3    3    0    0  0.42872229889E+02 -0.19833565420E+02  0.54975227712E+02  0.72482232822E+02  0.00000000000E+00 0. -1.
        -13    1    4    4    0    0  0.21770609584E+02  0.56353077959E+02  0.42453436139E+02  0.73837138874E+02  0.00000000000E+00 0. -1.
         13    1    4    4    0    0  0.13220167761E+03  0.27327520098E+02  0.16711048556E+03  0.21482549035E+03  0.00000000000E+00 0.  1.
         -3    1    1    2    0  502 -0.35593052086E+03 -0.16442081836E+03  0.31402552144E+02  0.39332793121E+03  0.00000000000E+00 0.  1.
<scales pt_clust_5="13000.00000" pt_clust_6="13000.00000" pt_clust_7="13000.00000" pt_clust_8="13000.00000" pt_clust_9="13000.00000"></scales>
<clustering>
<clus scale="   92.482">  5  6 -1 -1</clus>
<clus scale="   93.269">  7  8 -1 -1</clus>
<clus scale="  236.345">  1  5  2 -1</clus>
<clus scale="  292.167">  7  9 -1 -1</clus>
<clus scale="  638.002">  2  5  1 -1</clus>
</clustering>
</event>
<event>
 9    1  0.6399313E-006  0.2532204E+03  0.7546771E-02  0.1151173E+00
          1   -1    0    0  502    0 -0.00000000000E+00  0.00000000000E+00  0.66977262202E+03  0.66977262202E+03  0.00000000000E+00 0. -1.
         21   -1    0    0  501  502  0.00000000000E+00 -0.00000000000E+00 -0.51246866889E+02  0.51246866889E+02  0.00000000000E+00 0.  1.
         23    2    1    2    0    0 -0.52236739428E+01  0.18632908804E+02  0.29610680706E+03  0.31105055472E+03  0.93267005659E+02 0.  0.
         23    2    1    2    0    0  0.80183553145E+02 -0.40417091305E+01  0.59661445476E+02  0.13633890702E+03  0.92644869712E+02 0.  0.
        -11    1    4    4    0    0  0.52445997444E+02  0.37414168378E+02  0.86636947890E+01  0.65003555677E+02  0.00000000000E+00 0.  1.
         11    1    4    4    0    0  0.27737555701E+02 -0.41455877509E+02  0.50997750686E+02  0.71335351344E+02  0.00000000000E+00 0. -1.
        -13    1    3    3    0    0  0.43588688196E+02  0.15053225681E+02  0.13371983965E+03  0.14144811366E+03  0.00000000000E+00 0.  1.
         13    1    3    3    0    0 -0.48812362139E+02  0.35796831237E+01  0.16238696742E+03  0.16960244106E+03  0.00000000000E+00 0. -1.
          1    1    1    2  501    0 -0.74959879202E+02 -0.14591199674E+02  0.26275750259E+03  0.27363002716E+03  0.00000000000E+00 0. -1.
<scales pt_clust_5="13000.00000" pt_clust_6="13000.00000" pt_clust_7="13000.00000" pt_clust_8="13000.00000" pt_clust_9="13000.00000"></scales>
<clustering>
<clus scale="   92.645">  5  6 -1 -1</clus>
<clus scale="   76.367">  5  9 -1 -1</clus>
<clus scale="   93.267">  7  8 -1 -1</clus>
<clus scale="   95.253">  1  7  2 -1</clus>
<clus scale="  253.220">  2  5  1 -1</clus>
</clustering>
</event>
<event>
 9    1  0.6399313E-006  0.1748081E+03  0.7546771E-02  0.1193697E+00
         21   -1    0    0  501  502  0.00000000000E+00  0.00000000000E+00  0.41387859709E+02  0.41387859709E+02  0.00000000000E+00 0.  1.
         -1   -1    0    0    0  501 -0.00000000000E+00 -0.00000000000E+00 -0.49184468018E+03  0.49184468018E+03  0.00000000000E+00 0.  1.
         23    2    1    2    0    0 -0.38328720448E+02 -0.46502931085E+02 -0.19180906941E+03  0.22105226012E+03  0.91879100911E+02 0.  0.
         23    2    1    2    0    0  0.34957311940E+02  0.72061617328E+00 -0.86968954792E+02  0.13446985283E+03  0.96415814459E+02 0.  0.
        -11    1    3    3    0    0 -0.14146246898E+02 -0.56957604305E+02 -0.18464867028E+03  0.19375091336E+03  0.00000000000E+00 0.  1.
         11    1    3    3    0    0 -0.24182473550E+02  0.10454673219E+02 -0.71603991237E+01  0.27301346757E+02  0.00000000000E+00 0. -1.
        -11    1    4    4    0    0  0.22914199710E+02  0.20062462224E+02  0.12132003829E+02  0.32783356383E+02  0.00000000000E+00 0.  1.
         11    1    4    4    0    0  0.12043112231E+02 -0.19341846051E+02 -0.99100958621E+02  0.10168649645E+03  0.00000000000E+00 0. -1.
         -1    1    1    2    0  502  0.33714085084E+01  0.45782314912E+02 -0.17167879627E+03  0.17771042694E+03  0.00000000000E+00 0.  1.
<scales pt_clust_5="13000.00000" pt_clust_6="13000.00000" pt_clust_7="13000.00000" pt_clust_8="13000.00000" pt_clust_9="13000.00000"></scales>
<clustering>
<clus scale="   91.879">  5  6 -1 -1</clus>
<clus scale="   96.416">  7  8 -1 -1</clus>
<clus scale="   45.906">  7  9 -1 -1</clus>
<clus scale="  109.879">  2  5  1 -1</clus>
<clus scale="  174.808">  1  5  2 -1</clus>
</clustering>
</event>
<event>
 9    1  0.6399313E-006  0.3349549E+03  0.7546771E-02  0.1097921E+00
          1   -1    0    0  502    0 -0.00000000000E+00  0.00000000000E+00  0.73556726257E+03  0.73556726257E+03  0.00000000000E+00 0. -1.
         21   -1    0    0  501  502  0.00000000000E+00 -0.00000000000E+00 -0.81982812408E+02  0.81982812408E+02  0.00000000000E+00 0. -1.
         23    2    1    2    0    0 -0.85511659074E+02 -0.89967196715E+02  0.24027662559E+03  0.28555557850E+03  0.91666740369E+02 0.  0.
         23    2    1    2    0    0 -0.44086314131E+02 -0.69044518760E+02  0.10327516952E+03  0.16024107347E+03  0.91108135318E+02 0.  0.
        -13    1    4    4    0    0 -0.30347539195E+02  0.10705344845E+02  0.60932344575E+02  0.68908113883E+02  0.00000000000E+00 0.  1.
         13    1    4    4    0    0 -0.13738774937E+02 -0.79749863605E+02  0.42342824946E+02  0.91332959583E+02  0.00000000000E+00 0. -1.
        -13    1    3    3    0    0  0.41336423763E+00 -0.42744555651E+02  0.13539409319E+03  0.14198178890E+03  0.00000000000E+00 0. -1.
         13    1    3    3    0    0 -0.85925023312E+02 -0.47222641064E+02  0.10488253239E+03  0.14357378960E+03  0.00000000000E+00 0.  1.
          1    1    1    2  501    0  0.12959797321E+03  0.15901171548E+03  0.31003265505E+03  0.37175342301E+03  0.00000000000E+00 0. -1.
<scales pt_clust_5="13000.00000" pt_clust_6="13000.00000" pt_clust_7="13000.00000" pt_clust_8="13000.00000" pt_clust_9="13000.00000"></scales>
<clustering>
<clus scale="   91.108">  5  6 -1 -1</clus>
<clus scale="   91.667">  7  8 -1 -1</clus>
<clus scale="  154.302">  1  7  2 -1</clus>
<clus scale="  116.073">  5  9 -1 -1</clus>
<clus scale="  334.955">  2  5  1 -1</clus>
</clustering>
</event>
<event>
 9    1  0.6399313E-006  0.1273847E+03  0.7546771E-02  0.1246784E+00
         21   -1    0    0  501  502  0.00000000000E+00  0.00000000000E+00  0.94624407025E+02  0.94624407025E+02  0.00000000000E+00 0.  1.
          1   -1    0    0  502    0 -0.00000000000E+00 -0.00000000000E+00 -0.20650538929E+03  0.20650538929E+03  0.00000000000E+00 0. -1.
         23    2    1    2    0    0 -0.18450106800E+02 -0.40030220488E+01 -0.14238795767E+03  0.17014299469E+03  0.91202398689E+02 0.  0.
         23    2    1    2    0    0 -0.58088982308E+01  0.23796131688E+02  0.15263841851E+02  0.96164113113E+02  0.91730870490E+02 0.  0.
        -11    1    3    3    0    0 -0.39219453345E+02 -0.22843980800E+02 -0.30231266867E+02  0.54533865404E+02  0.00000000000E+00 0.  1.
         11    1    3    3    0    0  0.20769346546E+02  0.18840958751E+02 -0.11215669081E+03  0.11560912929E+03  0.00000000000E+00 0. -1.
        -13    1    4    4    0    0  0.24480930170E+02 -0.20302820362E+02  0.26617697415E+02  0.41473151222E+02  0.00000000000E+00 0. -1.
         13    1    4    4    0    0 -0.30289828401E+02  0.44098952049E+02 -0.11353855564E+02  0.54690961891E+02  0.00000000000E+00 0.  1.
          1    1    1    2  501    0  0.24259005030E+02 -0.19793109639E+02  0.15243133557E+02  0.34822688507E+02  0.00000000000E+00 0. -1.
<scales pt_clust_5="13000.00000" pt_clust_6="13000.00000" pt_clust_7="13000.00000" pt_clust_8="13000.00000" pt_clust_9="13000.00000"></scales>
<clustering>
<clus scale="   91.202">  5  6 -1 -1</clus>
<clus scale="   91.731">  7  8 -1 -1</clus>
<clus scale="   31.309">  7  9 -1 -1</clus>
<clus scale="   93.136">  2  5  1 -1</clus>
<clus scale="  127.385">  1  5  2 -1</clus>
</clustering>
</event>
<event>
 9    1  0.6399313E-006  0.4251794E+03  0.7546771E-02  0.1037600E+00
         21   -1    0    0  501  502  0.00000000000E+00  0.00000000000E+00  0.68019402325E+03  0.68019402325E+03  0.00000000000E+00 0. -1.
          1   -1    0    0  502    0 -0.00000000000E+00 -0.00000000000E+00 -0.32813448405E+03  0.32813448405E+03  0.00000000000E+00 0. -1.
         23    2    1    2    0    0 -0.25055795820E+03  0.29261951211E+03 -0.75162453243E+02  0.40558798763E+03  0.10220935402E+03 0.  0.
         23    2    1    2    0    0  0.15449833422E+03 -0.12993358383E+03  0.30859792395E+03  0.37965795144E+03  0.90305093657E+02 0.  0.
        -11    1    3    3    0    0 -0.19595050990E+03  0.15323102734E+03 -0.42310084414E+02  0.25232220138E+03  0.00000000000E+00 0. -1.
         11    1    3    3    0    0 -0.54607448307E+02  0.13938848477E+03 -0.32852368829E+02  0.15326578625E+03  0.00000000000E+00 0.  1.
        -11    1    4    4    0    0  0.49840810853E+02 -0.12158433255E+02  0.29555523653E+02  0.59206949796E+02  0.00000000000E+00 0.  1.
         11    1    4    4    0    0  0.10465752337E+03 -0.11777515057E+03  0.27904240030E+03  0.32045100164E+03  0.00000000000E+00 0. -1.
          1    1    1    2  501    0  0.96059623982E+02 -0.16268592828E+03  0.11862406850E+03  0.22308256823E+03  0.00000000000E+00 0. -1.
<scales pt_clust_5="13000.00000" pt_clust_6="13000.00000" pt_clust_7="13000.00000" pt_clust_8="13000.00000" pt_clust_9="13000.00000"></scales>
<clustering>
<clus scale="   90.305">  7  8 -1 -1</clus>
<clus scale="  102.209">  5  6 -1 -1</clus>
<clus scale="  188.929">  7  9 -1 -1</clus>
<clus scale="  398.563">  2  5  1 -1</clus>
<clus scale="  425.179">  1  5  2 -1</clus>
</clustering>
</event>
<event>
 9    1  0.6399313E-006  0.3461253E+03  0.7546771E-02  0.1093929E+00
         21   -1    0    0  501  502  0.00000000000E+00  0.00000000000E+00  0.98191914227E+02  0.98191914227E+02  0.00000000000E+00 0. -1.
          1   -1    0    0  502    0 -0.00000000000E+00 -0.00000000000E+00 -0.67007471157E+03  0.67007471157E+03  0.00000000000E+00 0. -1.
         23    2    1    2    0    0 -0.24273974226E+02 -0.12325060499E+03 -0.25755646127E+03  0.30071582564E+03  0.91185193957E+02 0.  0.
         23    2    1    2    0    0 -0.11913193615E+03  0.43283495289E+02 -0.23382728295E+03  0.28468447926E+03  0.10150948380E+03 0.  0.
        -11    1    4    4    0    0 -0.74521977851E+02  0.73307466103E+02 -0.18266481816E+03  0.21046126855E+03  0.00000000000E+00 0. -1.
         11    1    4    4    0    0 -0.44609958300E+02 -0.30023970814E+02 -0.51162464794E+02  0.74223210701E+02  0.00000000000E+00 0.  1.
        -13    1    3    3    0    0  0.29914837943E+02 -0.40144279475E+02 -0.50464637272E+02  0.71085443790E+02  0.00000000000E+00 0. -1.
         13    1    3    3    0    0 -0.54188812169E+02 -0.83106325513E+02 -0.20709182400E+03  0.22963038185E+03  0.00000000000E+00 0.  1.
          1    1    1    2  501    0  0.14340591038E+03  0.79967109699E+02 -0.80499053122E+02  0.18286632090E+03  0.00000000000E+00 0. -1.
<scales pt_clust_5="13000.00000" pt_clust_6="13000.00000" pt_clust_7="13000.00000" pt_clust_8="13000.00000" pt_clust_9="13000.00000"></scales>
<clustering>
<clus scale="   91.185">  7  8 -1 -1</clus>
<clus scale="  101.509">  5  6 -1 -1</clus>
<clus scale="  155.225">  2  7  1 -1</clus>
<clus scale="  140.590">  5  9 -1 -1</clus>
<clus scale="  346.125">  1  5  2 -1</clus>
</clustering>
</event>
<event>
 9    1  0.6399313E-006  0.1184695E+03  0.7546771E-02  0.1256804E+00
         21   -1    0    0  501  502  0.00000000000E+00  0.00000000000E+00  0.52700003826E+03  0.52700003826E+03  0.00000000000E+00 0.  1.
          3   -1    0    0  502    0 -0.00000000000E+00 -0.00000000000E+00 -0.22413712633E+02  0.22413712633E+02  0.00000000000E+00 0. -1.
         23    2    1    2    0    0 -0.54621001787E+01 -0.20400849038E+02  0.17281790741E+03  0.19712791227E+03  0.92451909087E+02 0.  0.
         23    2    1    2    0    0  0.18827476748E+02  0.46063873473E+01  0.21415582501E+03  0.23286716172E+03  0.89379555495E+02 0.  0.
        -13    1    3    3    0    0  0.98151196022E+01 -0.53528420402E+02  0.12965816248E+03  0.14061602846E+03  0.00000000000E+00 0. -1.
         13    1    3    3    0    0 -0.15277219781E+02  0.33127571364E+02  0.43159744938E+02  0.56511883810E+02  0.00000000000E+00 0.  1.
        -13    1    4    4    0    0  0.45148892584E+02  0.18458706843E+02  0.67817210511E+02  0.83536341800E+02  0.00000000000E+00 0. -1.
         13    1    4    4    0    0 -0.26321415836E+02 -0.13852319495E+02  0.14633861449E+03  0.14933081992E+03  0.00000000000E+00 0.  1.
          3    1    1    2  501    0 -0.13365376569E+02  0.15794461691E+02  0.11761259321E+03  0.11941867690E+03  0.00000000000E+00 0. -1.
<scales pt_clust_5="13000.00000" pt_clust_6="13000.00000" pt_clust_7="13000.00000" pt_clust_8="13000.00000" pt_clust_9="13000.00000"></scales>
<clustering>
<clus scale="   89.380">  7  8 -1 -1</clus>
<clus scale="   20.691">  7  9 -1 -1</clus>
<clus scale="   92.452">  5  6 -1 -1</clus>
<clus scale="   94.833">  2  5  1 -1</clus>
<clus scale="  118.470">  1  5  2 -1</clus>
</clustering>
</event>
<event>
 9    1  0.6399313E-006  0.3578558E+03  0.7546771E-02  0.1073104E+00
         21   -1    0    0  501  502  0.00000000000E+00  0.00000000000E+00  0.17836555581E+03  0.17836555581E+03  0.00000000000E+00 0.  1.
          2   -1    0    0  502    0 -0.00000000000E+00 -0.00000000000E+00 -0.57806048767E+03  0.57806048767E+03  0.00000000000E+00 0. -1.
         23    2    1    2    0    0  0.19377527182E+03  0.12048063225E+03 -0.38965299507E+02  0.24830538020E+03  0.89848920719E+02 0.  0.
         23    2    1    2    0    0 -0.93814868093E+02 -0.15709298060E+03 -0.34413837646E+03  0.40038108774E+03  0.91620735874E+02 0.  0.
        -11    1    3    3    0    0  0.13306002328E+03  0.38318313242E+02 -0.45983020249E+02  0.14590305369E+03  0.00000000000E+00 0. -1.
         11    1    3    3    0    0  0.60715248542E+02  0.82162319012E+02  0.70177207420E+01  0.10240232651E+03  0.00000000000E+00 0.  1.
        -13    1    4    4    0    0  0.15402130699E+02 -0.39431755958E+02 -0.94911790681E+02  0.10392466992E+03  0.00000000000E+00 0.  1.
         13    1    4    4    0    0 -0.10921699879E+03 -0.11766122464E+03 -0.24922658578E+03  0.29645641782E+03  0.00000000000E+00 0. -1.
          2    1    1    2  501    0 -0.99960403726E+02  0.36612348345E+02 -0.16591255894E+02  0.10773957553E+03  0.00000000000E+00 0. -1.
<scales pt_clust_5="13000.00000" pt_clust_6="13000.00000" pt_clust_7="13000.00000" pt_clust_8="13000.00000" pt_clust_9="13000.00000"></scales>
<clustering>
<clus scale="   89.849">  5  6 -1 -1</clus>
<clus scale="   91.621">  7  8 -1 -1</clus>
<clus scale="  106.454">  7  9 -1 -1</clus>
<clus scale="  245.229">  2  5  1 -1</clus>
<clus scale="  357.856">  1  5  2 -1</clus>
</clustering>
</event>
<event>
 9    1  0.6399313E-006  0.1615407E+03  0.7546771E-02  0.1209713E+00
          3   -1    0    0  502    0 -0.00000000000E+00  0.00000000000E+00  0.64305121763E+02  0.64305121763E+02  0.00000000000E+00 0. -1.
         21   -1    0    0  501  502  0.00000000000E+00 -0.00000000000E+00 -0.26298141791E+03  0.26298141791E+03  0.00000000000E+00 0.  1.
         23    2    1    2    0    0 -0.33403751786E+02 -0.14002227710E+02 -0.80017231403E+02  0.12684855257E+03  0.91520079506E+02 0.  0.
         23    2    1    2    0    0  0.19256326283E+02 -0.26308675321E+02 -0.12331983581E+03  0.15746309515E+03  0.92324925838E+02 0.  0.
        -11    1    3    3    0    0  0.23103428939E+02 -0.20479940370E+02 -0.58292141971E+02  0.65963400472E+02  0.00000000000E+00 0. -1.
         11    1    3    3    0    0 -0.56507180725E+02  0.64777126595E+01 -0.21725089432E+02  0.60885152095E+02  0.00000000000E+00 0.  1.
        -11    1    4    4    0    0 -0.35799368624E+02 -0.10622921303E+02 -0.29636233103E+02  0.47673342272E+02  0.00000000000E+00 0.  1.
         11    1    4    4    0    0  0.55055694907E+02 -0.15685754018E+02 -0.93683602702E+02  0.10978975287E+03  0.00000000000E+00 0. -1.
          3    1    1    2  501    0  0.14147425504E+02  0.40310903032E+02  0.46607710660E+01  0.42974891955E+02  0.00000000000E+00 0. -1.
<scales pt_clust_5="13000.00000" pt_clust_6="13000.00000" pt_clust_7="13000.00000" pt_clust_8="13000.00000" pt_clust_9="13000.00000"></scales>
<clustering>
<clus scale="   91.520">  5  6 -1 -1</clus>
<clus scale="   92.325">  7  8 -1 -1</clus>
<clus scale="   42.721">  7  9 -1 -1</clus>
<clus scale="   98.427">  1  5  2 -1</clus>
<clus scale="  161.541">  2  5  1 -1</clus>
</clustering>
</event>
<event>
 9    1  0.6399313E-006  0.1909545E+03  0.7546771E-02  0.1191710E+00
         -1   -1    0    0    0  501 -0.00000000000E+00  0.00000000000E+00  0.32166226548E+03  0.32166226548E+03  0.00000000000E+00 0.  1.
         21   -1    0    0  501  502  0.00000000000E+00 -0.00000000000E+00 -0.65998137278E+02  0.65998137278E+02  0.00000000000E+00 0. -1.
         23    2    1    2    0    0  0.10028518865E+02 -0.10052160277E+02  0.13692818107E+03  0.16280078809E+03  0.86908875919E+02 0.  0.
         23    2    1    2    0    0 -0.70907742949E+02  0.40946968230E+02  0.83002939218E+02  0.14780368084E+03  0.90839847723E+02 0.  0.
        -11    1    4    4    0    0  0.25811273155E+00 -0.24715089423E+02  0.23779304651E+02  0.34298069874E+02  0.00000000000E+00 0.  1.
         11    1    4    4    0    0 -0.71165855681E+02  0.65662057653E+02  0.59223634567E+02  0.11350561097E+03  0.00000000000E+00 0. -1.
        -13    1    3    3    0    0 -0.60733088752E+01 -0.44761806037E+02  0.99510862277E+02  0.10928364961E+03  0.00000000000E+00 0.  1.
         13    1    3    3    0    0  0.16101827740E+02  0.34709645760E+02  0.37417318796E+02  0.53517138482E+02  0.00000000000E+00 0. -1.
         -1    1    1    2    0  502  0.60879224084E+02 -0.30894807953E+02  0.35733007908E+02  0.77055933825E+02  0.00000000000E+00 0.  1.
<scales pt_clust_5="13000.00000" pt_clust_6="13000.00000" pt_clust_7="13000.00000" pt_clust_8="13000.00000" pt_clust_9="13000.00000"></scales>
<clustering>
<clus scale="   86.909">  7  8 -1 -1</clus>
<clus scale="   88.061">  1  7  2 -1</clus>
<clus scale="   90.840">  5  6 -1 -1</clus>
<clus scale="   72.713">  5  9 -1 -1</clus>
<clus scale="  190.955">  2  5  1 -1</clus>
</clustering>
</event>
<event>
 9    1  0.6399313E-006  0.3576762E+03  0.7546771E-02  0.1100994E+00
         21   -1    0    0  501  502  0.00000000000E+00  0.00000000000E+00  0.26514086258E+03  0.26514086258E+03  0.00000000000E+00 0. -1.
          1   -1    0    0  502    0 -0.00000000000E+00 -0.00000000000E+00 -0.37128472293E+03  0.37128472293E+03  0.00000000000E+00 0. -1.
         23    2    1    2    0    0  0.24445970698E+02 -0.65876667176E+02 -0.22988731107E+03  0.25794877478E+03  0.93552412351E+02 0.  0.
         23    2    1    2    0    0  0.41478315100E+02 -0.55142321431E+02 -0.75630227296E+02  0.13611041342E+03  0.89693852206E+02 0.  0.
        -11    1    4    4    0    0  0.55676212898E+02 -0.33987444336E+02 -0.86560749487E+02  0.10838703985E+03  0.00000000000E+00 0. -1.
         11    1    4    4    0    0 -0.14197897798E+02 -0.21154877094E+02  0.10930522190E+02  0.27723373570E+02  0.00000000000E+00 0.  1.
        -13    1    3    3    0    0  0.30640154074E+02  0.80802763261E+01 -0.26049502520E+02  0.41020561780E+02  0.00000000000E+00 0.  1.
         13    1    3    3    0    0 -0.61941833762E+01 -0.73956943502E+02 -0.20383780855E+03  0.21692821300E+03  0.00000000000E+00 0. -1.
          1    1    1    2  501    0 -0.65924285798E+02  0.12101898861E+03  0.19937367802E+03  0.24236639731E+03  0.00000000000E+00 0. -1.
<scales pt_clust_5="13000.00000" pt_clust_6="13000.00000" pt_clust_7="13000.00000" pt_clust_8="13000.00000" pt_clust_9="13000.00000"></scales>
<clustering>
<clus scale="   89.694">  5  6 -1 -1</clus>
<clus scale="   93.552">  7  8 -1 -1</clus>
<clus scale="  117.002">  2  7  1 -1</clus>
<clus scale="  126.084">  5  9 -1 -1</clus>
<clus scale="  357.676">  1  5  2 -1</clus>
</clustering>
</event>
<event>
 9    1  0.6399313E-006  0.2742326E+03  0.7546771E-02  0.1116562E+00
         -1   -1    0    0    0  501 -0.00000000000E+00  0.00000000000E+00  0.63183717769E+02  0.63183717769E+02  0.00000000000E+00 0.  1.
         21   -1    0    0  501  502  0.00000000000E+00 -0.00000000000E+00 -0.79995844040E+03  0.79995844040E+03  0.00000000000E+00 0.  1.
         23    2    1    2    0    0 -0.89158759695E+02 -0.12457656834E+03 -0.31415770066E+03  0.35934786486E+03  0.83469882492E+02 0.  0.
         23    2    1    2    0    0 -0.36358242750E+02  0.68305829808E+01 -0.11829200432E+03  0.15417685762E+03  0.91700198800E+02 0.  0.
        -13    1    3    3    0    0 -0.60949706693E+02 -0.13143131226E+03 -0.25036834919E+03  0.28926349037E+03  0.00000000000E+00 0.  1.
         13    1    3    3    0    0 -0.28209053002E+02  0.68547439178E+01 -0.63789351474E+02  0.70084374485E+02  0.00000000000E+00 0. -1.
        -13    1    4    4    0    0 -0.29536380211E+02 -0.32157254532E+02 -0.10277177003E+03  0.11166254292E+03  0.00000000000E+00 0. -1.
         13    1    4    4    0    0 -0.68218625386E+01  0.38987837513E+02 -0.15520234289E+02  0.42514314705E+02  0.00000000000E+00 0.  1.
         -1    1    1    2    0  502  0.12551700245E+03  0.11774598536E+03 -0.30432501765E+03  0.34961743569E+03  0.00000000000E+00 0.  1.
<scales pt_clust_5="13000.00000" pt_clust_6="13000.00000" pt_clust_7="13000.00000" pt_clust_8="13000.00000" pt_clust_9="13000.00000"></scales>
<clustering>
<clus scale="   83.470">  5  6 -1 -1</clus>
<clus scale="   91.700">  7  8 -1 -1</clus>
<clus scale="  172.101">  7  9 -1 -1</clus>
<clus scale="  174.459">  1  5  2 -1</clus>
<clus scale="  274.233">  2  5  1 -1</clus>
</clustering>
</event>
<event>
 9    1  0.6399313E-006  0.2195531E+03  0.7546771E-02  0.1153530E+00
         -1   -1    0    0    0  501 -0.00000000000E+00  0.00000000000E+00  0.22892402192E+03  0.22892402192E+03  0.00000000000E+00 0.  1.
         21   -1    0    0  501  502  0.00000000000E+00 -0.00000000000E+00 -0.14022134314E+03  0.14022134314E+03  0.00000000000E+00 0.  1.
         23    2    1    2    0    0  0.88670451641E+02 -0.53112242051E+02  0.24366654163E+02  0.14036013153E+03  0.91781661782E+02 0.  0.
         23    2    1    2    0    0 -0.26267342550E+02 -0.43681771218E+02  0.43950307856E+02  0.11182880370E+03  0.89308349861E+02 0.  0.
        -11    1    3    3    0    0  0.88963708557E+02 -0.66802591300E+01  0.28721418717E+02  0.93723461286E+02  0.00000000000E+00 0.  1.
         11    1    3    3    0    0 -0.29325691602E+00 -0.46431982921E+02 -0.43547645540E+01  0.46636670249E+02  0.00000000000E+00 0. -1.
        -13    1    4    4    0    0 -0.79544405280E+01 -0.32855447917E+02 -0.23455872785E+02  0.41145249422E+02  0.00000000000E+00 0.  1.
         13    1    4    4    0    0 -0.18312902022E+02 -0.10826323301E+02  0.67406180640E+02  0.70683554277E+02  0.00000000000E+00 0. -1.
         -1    1    1    2    0  502 -0.62403109091E+02  0.96794013268E+02  0.20385716762E+02  0.11695642982E+03  0.00000000000E+00 0.  1.
<scales pt_clust_5="13000.00000" pt_clust_6="13000.00000" pt_clust_7="13000.00000" pt_clust_8="13000.00000" pt_clust_9="13000.00000"></scales>
<clustering>
<clus scale="   89.308">  7  8 -1 -1</clus>
<clus scale="   91.782">  5  6 -1 -1</clus>
<clus scale="  115.166">  7  9 -1 -1</clus>
<clus scale="  138.229">  1  5  2 -1</clus>
<clus scale="  219.553">  2  5  1 -1</clus>
</clustering>
</event>
<event>
 9    1  0.6399313E-006  0.1917662E+03  0.7546771E-02  0.1186912E+00
          1   -1    0    0  502    0 -0.00000000000E+00  0.00000000000E+00  0.41357535531E+03  0.41357535531E+03  0.00000000000E+00 0. -1.
         21   -1    0    0  501  502  0.00000000000E+00 -0.00000000000E+00 -0.70528415484E+02  0.70528415484E+02  0.00000000000E+00 0. -1.
         23    2    1    2    0    0  0.14093425366E+02  0.20296942622E+02  0.25572504768E+03  0.27339211752E+03  0.93473843346E+02 0.  0.
         23    2    1    2    0    0 -0.17968858497E+02  0.39187163380E+02 -0.41049255918E+01  0.10156844071E+03  0.91873739906E+02 0.  0.
        -13    1    4    4    0    0 -0.27769448738E+02  0.66081862608E+02  0.40828087923E+01  0.71795711408E+02  0.00000000000E+00 0. -1.
         13    1    4    4    0    0  0.98005902409E+01 -0.26894699228E+02 -0.81877343841E+01  0.29772729300E+02  0.00000000000E+00 0.  1.
        -13    1    3    3    0    0 -0.27202380699E+02  0.18708029005E+02  0.32334958686E+02  0.46211572340E+02  0.00000000000E+00 0.  1.
         13    1    3    3    0    0  0.41295806065E+02  0.15889136173E+01  0.22339008900E+03  0.22718054518E+03  0.00000000000E+00 0. -1.
          1    1    1    2  501    0  0.38754331302E+01 -0.59484106002E+02  0.91426817738E+02  0.10914321257E+03  0.00000000000E+00 0. -1.
<scales pt_clust_5="13000.00000" pt_clust_6="13000.00000" pt_clust_7="13000.00000" pt_clust_8="13000.00000" pt_clust_9="13000.00000"></scales>
<clustering>
<clus scale="   91.874">  5  6 -1 -1</clus>
<clus scale="   59.610">  5  9 -1 -1</clus>
<clus scale="   93.474">  7  8 -1 -1</clus>
<clus scale="   96.685">  1  7  2 -1</clus>
<clus scale="  191.766">  2  5  1 -1</clus>
</clustering>
</event>
<event>
 9    1  0.6399313E-006  0.2313383E+03  0.7546771E-02  0.1130157E+00
         21   -1    0    0  501  502  0.00000000000E+00  0.00000000000E+00  0.76123271250E+02  0.76123271250E+02  0.00000000000E+00 0. -1.
          2   -1    0    0  502    0 -0.00000000000E+00 -0.00000000000E+00 -0.73348002848E+03  0.73348002848E+03  0.00000000000E+00 0. -1.
         23    2    1    2    0    0 -0.64896561434E+02  0.17435406025E+03 -0.46366485788E+03  0.50788491759E+03  0.91384282373E+02 0.  0.
         23    2    1    2    0    0  0.48673663539E+02 -0.10576479397E+03 -0.17536415905E+03  0.22889272782E+03  0.89910930368E+02 0.  0.
        -11    1    4    4    0    0  0.79661927362E+01 -0.10158146126E+03 -0.14792879629E+03  0.17962511592E+03  0.00000000000E+00 0.  1.
         11    1    4    4    0    0  0.40707470803E+02 -0.41833327141E+01 -0.27435362768E+02  0.49267611896E+02  0.00000000000E+00 0. -1.
        -11    1    3    3    0    0 -0.82741018912E+01  0.89149292034E+02 -0.12262911309E+03  0.15183529369E+03  0.00000000000E+00 0.  1.
         11    1    3    3    0    0 -0.56622459543E+02  0.85204768211E+02 -0.34103574479E+03  0.35604962389E+03  0.00000000000E+00 0. -1.
          2    1    1    2  501    0  0.16222897895E+02 -0.68589266270E+02 -0.18327740287E+02  0.72825654324E+02  0.00000000000E+00 0. -1.
<scales pt_clust_5="13000.00000" pt_clust_6="13000.00000" pt_clust_7="13000.00000" pt_clust_8="13000.00000" pt_clust_9="13000.00000"></scales>
<clustering>
<clus scale="   89.911">  5  6 -1 -1</clus>
<clus scale="   70.482">  5  9 -1 -1</clus>
<clus scale="   91.384">  7  8 -1 -1</clus>
<clus scale="  207.273">  2  7  1 -1</clus>
<clus scale="  231.338">  1  5  2 -1</clus>
</clustering>
</event>
<event>
 9    1  0.6399313E-006  0.2316657E+03  0.7546771E-02  0.1146415E+00
         21   -1    0    0  501  502  0.00000000000E+00  0.00000000000E+00  0.14064613490E+03  0.14064613490E+03  0.00000000000E+00 0.  1.
          1   -1    0    0  502    0 -0.00000000000E+00 -0.00000000000E+00 -0.25091176414E+03  0.25091176414E+03  0.00000000000E+00 0. -1.
         23    2    1    2    0    0  0.59851790708E+01  0.10635260847E+03 -0.71908242260E+02  0.15673825971E+03  0.89718376349E+02 0.  0.
         23    2    1    2    0    0  0.73033784593E+02 -0.92938607447E+02 -0.19766857073E+02  0.15254242594E+03  0.94376610593E+02 0.  0.
        -11    1    3    3    0    0  0.45610648421E+02  0.36279208966E+02 -0.23760472260E+02  0.62937050254E+02  0.00000000000E+00 0.  1.
         11    1    3    3    0    0 -0.39625469351E+02  0.70073399501E+02 -0.48147770000E+02  0.93801209453E+02  0.00000000000E+00 0. -1.
        -11    1    4    4    0    0  0.93203337466E+02 -0.55245596515E+02 -0.11007134983E+02  0.10890406360E+03  0.00000000000E+00 0.  1.
         11    1    4    4    0    0 -0.20169552873E+02 -0.37693010932E+02 -0.87597220894E+01  0.43638362335E+02  0.00000000000E+00 0. -1.
          1    1    1    2  501    0 -0.79018963664E+02 -0.13414001020E+02 -0.18590529911E+02  0.82277213396E+02  0.00000000000E+00 0. -1.
<scales pt_clust_5="13000.00000" pt_clust_6="13000.00000" pt_clust_7="13000.00000" pt_clust_8="13000.00000" pt_clust_9="13000.00000"></scales>
<clustering>
<clus scale="   89.718">  5  6 -1 -1</clus>
<clus scale="   94.377">  7  8 -1 -1</clus>
<clus scale="   80.149">  7  9 -1 -1</clus>
<clus scale="  139.270">  2  5  1 -1</clus>
<clus scale="  231.666">  1  5  2 -1</clus>
</clustering>
</event>
<event>
 9    1  0.6399313E-006  0.2232998E+03  0.7546771E-02  0.1162138E+00
          1   -1    0    0  502    0 -0.00000000000E+00  0.00000000000E+00  0.51375161011E+03  0.51375161011E+03  0.00000000000E+00 0. -1.
         21   -1    0    0  501  502  0.00000000000E+00 -0.00000000000E+00 -0.61505092589E+02  0.61505092589E+02  0.00000000000E+00 0.  1.
         23    2    1    2    0    0  0.53289040121E+02 -0.15999893851E+02  0.57844815571E+02  0.12202881948E+03  0.91920028808E+02 0.  0.
         23    2    1    2    0    0  0.34587428211E+02 -0.37924772100E+02  0.27085908928E+03  0.29231511048E+03  0.97205447573E+02 0.  0.
        -13    1    4    4    0    0 -0.32488085075E+02 -0.55494812130E+01  0.11405021929E+03  0.11871699514E+03  0.00000000000E+00 0. -1.
         13    1    4    4    0    0  0.67075513286E+02 -0.32375290887E+02  0.15680886999E+03  0.17359811534E+03  0.00000000000E+00 0.  1.
        -13    1    3    3    0    0  0.41700052679E+02 -0.50991154004E+02  0.53602988738E+02  0.84925099833E+02  0.00000000000E+00 0.  1.
         13    1    3    3    0    0  0.11588987442E+02  0.34991260153E+02  0.42418268330E+01  0.37103719651E+02  0.00000000000E+00 0. -1.
          1    1    1    2  501    0 -0.87876468332E+02  0.53924665950E+02  0.12354261266E+03  0.16091277273E+03  0.00000000000E+00 0. -1.
<scales pt_clust_5="13000.00000" pt_clust_6="13000.00000" pt_clust_7="13000.00000" pt_clust_8="13000.00000" pt_clust_9="13000.00000"></scales>
<clustering>
<clus scale="   91.920">  7  8 -1 -1</clus>
<clus scale="   97.205">  5  6 -1 -1</clus>
<clus scale="  103.103">  5  9 -1 -1</clus>
<clus scale="  107.448">  1  7  2 -1</clus>
<clus scale="  223.300">  2  5  1 -1</clus>
</clustering>
</event>
<event>
 9    1  0.6399313E-006  0.3977461E+03  0.7546771E-02  0.1089541E+00
         21   -1    0    0  501  502  0.00000000000E+00  0.00000000000E+00  0.30640641570E+03  0.30640641570E+03  0.00000000000E+00 0.  1.
         -1   -1    0    0    0  501 -0.00000000000E+00 -0.00000000000E+00 -0.30098678470E+03  0.30098678470E+03  0.00000000000E+00 0.  1.
         23    2    1    2    0    0  0.34189654862E+02  0.59467991667E+02 -0.14252168189E+03  0.18302473924E+03  0.92088277395E+02 0.  0.
         23    2    1    2    0    0 -0.10044970205E+03  0.10736829649E+03 -0.29241040342E+02  0.17214172348E+03  0.84614660601E+02 0.  0.
        -11    1    3    3    0    0  0.62588693475E+02  0.23067931716E+02 -0.67238726601E+02  0.94712831123E+02  0.00000000000E+00 0.  1.
         11    1    3    3    0    0 -0.28399038613E+02  0.36400059951E+02 -0.75282955290E+02  0.88311908120E+02  0.00000000000E+00 0. -1.
        -11    1    4    4    0    0 -0.75725183726E+02  0.11852640119E+03 -0.14845084421E+02  0.14143262623E+03  0.00000000000E+00 0.  1.
         11    1    4    4    0    0 -0.24724518326E+02 -0.11158104705E+02 -0.14395955921E+02  0.30709097251E+02  0.00000000000E+00 0. -1.
         -1    1    1    2    0  502  0.66260047191E+02 -0.16683628816E+03  0.17718235324E+03  0.25222673767E+03  0.00000000000E+00 0.  1.
<scales pt_clust_5="13000.00000" pt_clust_6="13000.00000" pt_clust_7="13000.00000" pt_clust_8="13000.00000" pt_clust_9="13000.00000"></scales>
<clustering>
<clus scale="   84.615">  7  8 -1 -1</clus>
<clus scale="   92.088">  5  6 -1 -1</clus>
<clus scale="  114.829">  2  5  1 -1</clus>
<clus scale="  168.566">  7  9 -1 -1</clus>
<clus scale="  397.746">  1  5  2 -1</clus>
</clustering>
</event>
<event>
 9    1  0.6399313E-006  0.3666553E+03  0.7546771E-02  0.1066277E+00
         21   -1    0    0  501  502  0.00000000000E+00  0.00000000000E+00  0.25430533465E+03  0.25430533465E+03  0.00000000000E+00 0. -1.
          1   -1    0    0  502    0 -0.00000000000E+00 -0.00000000000E+00 -0.42653683739E+03  0.42653683739E+03  0.00000000000E+00 0. -1.
         23    2    1    2    0    0 -0.19934545553E+03 -0.16405433475E+03  0.16920131931E+01  0.27502753923E+03  0.94788443580E+02 0.  0.
         23    2    1    2    0    0  0.60752375943E+02  0.32749471220E+02 -0.18639320572E+03  0.21449160216E+03  0.80627794294E+02 0.  0.
        -11    1    3    3    0    0 -0.15441300892E+03 -0.72675032836E+02  0.19083575903E+02  0.17172425743E+03  0.00000000000E+00 0.  1.
         11    1    3    3    0    0 -0.44932446606E+02 -0.91379301915E+02 -0.17391562710E+02  0.10330328180E+03  0.00000000000E+00 0. -1.
        -13    1    4    4    0    0 -0.16577834902E+02  0.20248191483E+02 -0.64398617953E+02  0.69512559028E+02  0.00000000000E+00 0. -1.
         13    1    4    4    0    0  0.77330210845E+02  0.12501279738E+02 -0.12199458776E+03  0.14497904313E+03  0.00000000000E+00 0.  1.
          1    1    1    2  501    0  0.13859307958E+03  0.13130486353E+03  0.12469689782E+02  0.19132303065E+03  0.00000000000E+00 0. -1.
<scales pt_clust_5="13000.00000" pt_clust_6="13000.00000" pt_clust_7="13000.00000" pt_clust_8="13000.00000" pt_clust_9="13000.00000"></scales>
<clustering>
<clus scale="   80.628">  7  8 -1 -1</clus>
<clus scale="   94.788">  5  6 -1 -1</clus>
<clus scale="  190.916">  7  9 -1 -1</clus>
<clus scale="  275.022">  2  5  1 -1</clus>
<clus scale="  366.655">  1  5  2 -1</clus>
</clustering>
</event>
<event>
 9    1  0.6399313E-006  0.1674669E+03  0.7546771E-02  0.1193798E+00
          1   -1    0    0  502    0 -0.00000000000E+00  0.00000000000E+00  0.45940252994E+03  0.45940252994E+03  0.00000000000E+00 0. -1.
         21   -1    0    0  501  502  0.00000000000E+00 -0.00000000000E+00 -0.52552417437E+02  0.52552417437E+02  0.00000000000E+00 0.  1.
         23    2    1    2    0    0 -0.81323497059E+02  0.15085866705E+02  0.90710629229E+02  0.15419895991E+03  0.93315628027E+02 0.  0.
         23    2    1    2    0    0  0.77588719167E+02 -0.41997092700E+02  0.29446765495E+03  0.32300212735E+03  0.99173632181E+02 0.  0.
        -11    1    4    4    0    0  0.94878206553E+02 -0.55738996641E+02  0.25594762871E+03  0.27859988957E+03  0.00000000000E+00 0. -1.
         11    1    4    4    0    0 -0.17289487386E+02  0.13741903941E+02  0.38520026244E+02  0.44402237779E+02  0.00000000000E+00 0.  1.
        -13    1    3    3    0    0 -0.45643856834E+02 -0.38906960560E+02  0.43142172584E+02  0.73880716713E+02  0.00000000000E+00 0. -1.
         13    1    3    3    0    0 -0.35679640225E+02  0.53992827265E+02  0.47568456645E+02  0.80318243197E+02  0.00000000000E+00 0.  1.
          1    1    1    2  501    0  0.37347778922E+01  0.26911225995E+02  0.21671828321E+02  0.34753860120E+02  0.00000000000E+00 0. -1.
<scales pt_clust_5="13000.00000" pt_clust_6="13000.00000" pt_clust_7="13000.00000" pt_clust_8="13000.00000" pt_clust_9="13000.00000"></scales>
<clustering>
<clus scale="   93.316">  7  8 -1 -1</clus>
<clus scale="   99.174">  5  6 -1 -1</clus>
<clus scale="   27.169">  5  9 -1 -1</clus>
<clus scale="  124.695">  1  7  2 -1</clus>
<clus scale="  167.467">  2  5  1 -1</clus>
</clustering>
</event>
<event>
 9    1  0.6399313E-006  0.3302705E+03  0.7546771E-02  0.1096280E+00
         21   -1    0    0  501  502  0.00000000000E+00  0.00000000000E+00  0.18642804048E+03  0.18642804048E+03  0.00000000000E+00 0. -1.
          1   -1    0    0  502    0 -0.00000000000E+00 -0.00000000000E+00 -0.33305502957E+03  0.33305502957E+03  0.00000000000E+00 0. -1.
         23    2    1    2    0    0 -0.21525584182E+02  0.13953373544E+03 -0.44795287524E+02  0.17387014990E+03  0.91056011024E+02 0.  0.
         23    2    1    2    0    0  0.39743465870E+02 -0.65876769727E+02 -0.19090199409E+03  0.22860541260E+03  0.99486539040E+02 0.  0.
        -11    1    4    4    0    0  0.87084811592E+00 -0.82041752558E+02 -0.10804383246E+03  0.13566531344E+03  0.00000000000E+00 0. -1.
         11    1    4    4    0    0  0.38872617754E+02  0.16164982831E+02 -0.82858161639E+02  0.92940099156E+02  0.00000000000E+00 0.  1.
        -11    1    3    3    0    0 -0.51319333831E+02  0.10969898966E+03 -0.14550463047E+02  0.12198056538E+03  0.00000000000E+00 0. -1.
         11    1    3    3    0    0  0.29793749649E+02  0.29834745781E+02 -0.30244824477E+02  0.51889584520E+02  0.00000000000E+00 0.  1.
          1    1    1    2  501    0 -0.18217881688E+02 -0.73656965710E+02  0.89070292530E+02  0.11700750755E+03  0.00000000000E+00 0. -1.
<scales pt_clust_5="13000.00000" pt_clust_6="13000.00000" pt_clust_7="13000.00000" pt_clust_8="13000.00000" pt_clust_9="13000.00000"></scales>
<clustering>
<clus scale="   91.056">  7  8 -1 -1</clus>
<clus scale="   99.487">  5  6 -1 -1</clus>
<clus scale="   75.877">  5  9 -1 -1</clus>
<clus scale="  168.001">  2  7  1 -1</clus>
<clus scale="  330.270">  1  5  2 -1</clus>
</clustering>
</event>
<event>
 9    1  0.6399313E-006  0.3810695E+03  0.7546771E-02  0.1071117E+00
         21   -1    0    0  501  502  0.00000000000E+00  0.00000000000E+00  0.16071419616E+04  0.16071419616E+04  0.00000000000E+00 0.  1.
          2   -1    0    0  502    0 -0.00000000000E+00 -0.00000000000E+00 -0.66070295850E+02  0.66070295850E+02  0.00000000000E+00 0. -1.
         23    2    1    2    0    0  0.70398761087E+02  0.18021941814E+03  0.26188501333E+03  0.33847167112E+03  0.92435316338E+02 0.  0.
         23    2    1    2    0    0 -0.10397999388E+03 -0.25963857066E+03  0.96975852240E+03  0.10135227963E+04  0.92589634167E+02 0.  0.
        -11    1    4    4    0    0 -0.33820751343E+02 -0.11371812234E+03  0.57007651859E+03  0.58229107122E+03  0.00000000000E+00 0.  1.
         11    1    4    4    0    0 -0.70159242541E+02 -0.14592044832E+03  0.39968200381E+03  0.43123172509E+03  0.00000000000E+00 0. -1.
        -13    1    3    3    0    0  0.70240998992E+01  0.26234563767E+02  0.10928101831E+03  0.11260520093E+03  0.00000000000E+00 0.  1.
         13    1    3    3    0    0  0.63374661188E+02  0.15398485437E+03  0.15260399503E+03  0.22586647019E+03  0.00000000000E+00 0. -1.
          2    1    1    2  501    0  0.33581232797E+02  0.79419152519E+02  0.30942813003E+03  0.32121779004E+03  0.00000000000E+00 0. -1.
<scales pt_clust_5="13000.00000" pt_clust_6="13000.00000" pt_clust_7="13000.00000" pt_clust_8="13000.00000" pt_clust_9="13000.00000"></scales>
<clustering>
<clus scale="   92.435">  7  8 -1 -1</clus>
<clus scale="   92.590">  5  6 -1 -1</clus>
<clus scale="   86.227">  5  9 -1 -1</clus>
<clus scale="  214.428">  2  7  1 -1</clus>
<clus scale="  381.069">  1  5  2 -1</clus>
</clustering>
</event>
<event>
 9    1  0.6399313E-006  0.2262763E+03  0.7546771E-02  0.1151359E+00
         21   -1    0    0  501  502  0.00000000000E+00  0.00000000000E+00  0.75737611459E+02  0.75737611459E+02  0.00000000000E+00 0.  1.
          3   -1    0    0  502    0 -0.00000000000E+00 -0.00000000000E+00 -0.45844219725E+03  0.45844219725E+03  0.00000000000E+00 0. -1.
         23    2    1    2    0    0 -0.97006742872E+02 -0.14194438596E+00 -0.21408550177E+03  0.25198600760E+03  0.90851624352E+02 0.  0.
         23    2    1    2    0    0  0.12497902588E+03 -0.21014938261E+02 -0.60443650548E+02  0.16847490775E+03  0.93107331121E+02 0.  0.
        -11    1    4    4    0    0  0.60831980637E+02 -0.47470139751E+02 -0.10977505911E+01  0.77169612494E+02  0.00000000000E+00 0.  1.
         11    1    4    4    0    0  0.64147045246E+02  0.26455201490E+02 -0.59345899957E+02  0.91305295254E+02  0.00000000000E+00 0. -1.
        -11    1    3    3    0    0 -0.73782536142E+02 -0.39289935458E+02 -0.16547905098E+03  0.18539384559E+03  0.00000000000E+00 0.  1.
         11    1    3    3    0    0 -0.23224206730E+02  0.39147991072E+02 -0.48606450782E+02  0.66592162008E+02  0.00000000000E+00 0. -1.
          3    1    1    2  501    0 -0.27972283011E+02  0.21156882647E+02 -0.10817543347E+03  0.11371889336E+03  0.00000000000E+00 0. -1.
<scales pt_clust_5="13000.00000" pt_clust_6="13000.00000" pt_clust_7="13000.00000" pt_clust_8="13000.00000" pt_clust_9="13000.00000"></scales>
<clustering>
<clus scale="   90.852">  7  8 -1 -1</clus>
<clus scale="   93.107">  5  6 -1 -1</clus>
<clus scale="   35.072">  5  9 -1 -1</clus>
<clus scale="  132.907">  2  7  1 -1</clus>
<clus scale="  226.276">  1  5  2 -1</clus>
</clustering>
</event>
<event>
 9    1  0.6399313E-006  0.2064532E+03  0.7546771E-02  0.1175123E+00
         21   -1    0    0  501  502  0.00000000000E+00  0.00000000000E+00  0.37768678803E+03  0.37768678803E+03  0.00000000000E+00 0.  1.
          3   -1    0    0  502    0 -0.00000000000E+00 -0.00000000000E+00 -0.78008875351E+02  0.78008875351E+02  0.00000000000E+00 0. -1.
         23    2    1    2    0    0 -0.43705857600E+02 -0.24499686330E+01  0.20512816109E+03  0.22862172972E+03  0.90962236650E+02 0.  0.
         23    2    1    2    0    0  0.21118581599E+02 -0.39401033547E+02 -0.19842082444E+02  0.10319018527E+03  0.90862919647E+02 0.  0.
        -11    1    4    4    0    0  0.53828573263E+02 -0.22172905468E+02 -0.29092379445E+02  0.65080869526E+02  0.00000000000E+00 0.  1.
         11    1    4    4    0    0 -0.32709991664E+02 -0.17228128080E+02  0.92502970017E+01  0.38109315743E+02  0.00000000000E+00 0. -1.
        -13    1    3    3    0    0  0.27203935303E+02 -0.10353258660E+02  0.49628811900E+02  0.57534885343E+02  0.00000000000E+00 0. -1.
         13    1    3    3    0    0 -0.70909792903E+02  0.79032900268E+01  0.15549934919E+03  0.17108684438E+03  0.00000000000E+00 0.  1.
          3    1    1    2  501    0  0.22587276001E+02  0.41851002180E+02  0.11439183404E+03  0.12388374839E+03  0.00000000000E+00 0. -1.
<scales pt_clust_5="13000.00000" pt_clust_6="13000.00000" pt_clust_7="13000.00000" pt_clust_8="13000.00000" pt_clust_9="13000.00000"></scales>
<clustering>
<clus scale="   90.863">  5  6 -1 -1</clus>
<clus scale="   47.557">  5  9 -1 -1</clus>
<clus scale="   90.962">  7  8 -1 -1</clus>
<clus scale="  100.947">  2  7  1 -1</clus>
<clus scale="  206.453">  1  5  2 -1</clus>
</clustering>
</event>
<event>
 9    1  0.6399313E-006  0.2286593E+03  0.7546771E-02  0.1164002E+00
         21   -1    0    0  501  502  0.00000000000E+00  0.00000000000E+00  0.50753848749E+03  0.50753848749E+03  0.00000000000E+00 0. -1.
         -2   -1    0    0    0  501 -0.00000000000E+00 -0.00000000000E+00 -0.52031908162E+02  0.52031908162E+02  0.00000000000E+00 0.  1.
         23    2    1    2    0    0  0.18819428302E+02 -0.23340215240E+02  0.14914438047E+03  0.17728403330E+03  0.91031015087E+02 0.  0.
         23    2    1    2    0    0 -0.95149976551E+02  0.11716855167E+02  0.11672969801E+03  0.17753788135E+03  0.93290268432E+02 0.  0.
        -11    1    3    3    0    0  0.10187221154E+02  0.34880382407E+02  0.67161515904E+02  0.76361572601E+02  0.00000000000E+00 0.  1.
         11    1    3    3    0    0  0.86322071474E+01 -0.58220597647E+02  0.81982864566E+02  0.10092246070E+03  0.00000000000E+00 0. -1.
        -11    1    4    4    0    0 -0.24054845530E+01 -0.24876041194E+02  0.13217819228E+01  0.25027003194E+02  0.00000000000E+00 0.  1.
         11    1    4    4    0    0 -0.92744491998E+02  0.36592896361E+02  0.11540791609E+03  0.15251087816E+03  0.00000000000E+00 0. -1.
         -2    1    1    2    0  502  0.76330548249E+02  0.11623360074E+02  0.18963250084E+03  0.20474848100E+03  0.00000000000E+00 0.  1.
<scales pt_clust_5="13000.00000" pt_clust_6="13000.00000" pt_clust_7="13000.00000" pt_clust_8="13000.00000" pt_clust_9="13000.00000"></scales>
<clustering>
<clus scale="   91.031">  5  6 -1 -1</clus>
<clus scale="   93.290">  7  8 -1 -1</clus>
<clus scale="   77.210">  7  9 -1 -1</clus>
<clus scale="   95.841">  2  5  1 -1</clus>
<clus scale="  228.659">  1  5  2 -1</clus>
</clustering>
</event>
<event>
 9    1  0.6399313E-006  0.2255660E+03  0.7546771E-02  0.1163907E+00
          2   -1    0    0  502    0 -0.00000000000E+00  0.00000000000E+00  0.10234953487E+03  0.10234953487E+03  0.00000000000E+00 0. -1.
         21   -1    0    0  501  502  0.00000000000E+00 -0.00000000000E+00 -0.35538295244E+03  0.35538295244E+03  0.00000000000E+00 0. -1.
         23    2    1    2    0    0  0.13088613604E+02 -0.42111607689E+02  0.21577305429E+02  0.10235791755E+03  0.89815721716E+02 0.  0.
         23    2    1    2    0    0 -0.37294903177E+00  0.11664572768E+03 -0.20055109374E+03  0.24953576849E+03  0.91874880538E+02 0.  0.
        -11    1    4    4    0    0  0.32379028469E+01  0.36094462151E+02 -0.32386390549E+01  0.36383828767E+02  0.00000000000E+00 0.  1.
         11    1    4    4    0    0 -0.36108518787E+01  0.80551265532E+02 -0.19731245469E+03  0.21315193972E+03  0.00000000000E+00 0. -1.
        -13    1    3    3    0    0 -0.25278410602E+02  0.15853237712E+02  0.96456649240E+00  0.29853870386E+02  0.00000000000E+00 0.  1.
         13    1    3    3    0    0  0.38367024205E+02 -0.57964845401E+02  0.20612738937E+02  0.72504047165E+02  0.00000000000E+00 0. -1.
          2    1    1    2  501    0 -0.12715664572E+02 -0.74534119993E+02 -0.74059629263E+02  0.10583880127E+03  0.00000000000E+00 0. -1.
<scales pt_clust_5="13000.00000" pt_clust_6="13000.00000" pt_clust_7="13000.00000" pt_clust_8="13000.00000" pt_clust_9="13000.00000"></scales>
<clustering>
<clus scale="   89.816">  7  8 -1 -1</clus>
<clus scale="   91.875">  5  6 -1 -1</clus>
<clus scale="   75.611">  5  9 -1 -1</clus>
<clus scale="  100.058">  1  7  2 -1</clus>
<clus scale="  225.566">  2  5  1 -1</clus>
</clustering>
</event>
<event>
 9    1  0.6399313E-006  0.3676064E+03  0.7546771E-02  0.1095840E+00
         21   -1    0    0  501  502  0.00000000000E+00  0.00000000000E+00  0.81583919854E+02  0.81583919854E+02  0.00000000000E+00 0.  1.
         -2   -1    0    0    0  501 -0.00000000000E+00 -0.00000000000E+00 -0.94316833841E+03  0.94316833841E+03  0.00000000000E+00 0.  1.
         23    2    1    2    0    0 -0.10682173065E+02  0.77145946187E+02 -0.47729819846E+03  0.49295308053E+03  0.95517346681E+02 0.  0.
         23    2    1    2    0    0  0.17246494266E+03 -0.38270650382E+02 -0.18099354811E+03  0.26909618262E+03  0.91898269364E+02 0.  0.
        -13    1    3    3    0    0 -0.32921705095E+02  0.74254782393E+02 -0.45159372889E+03  0.45884039420E+03  0.00000000000E+00 0.  1.
         13    1    3    3    0    0  0.22239532031E+02  0.28911637942E+01 -0.25704469574E+02  0.34112686336E+02  0.00000000000E+00 0. -1.
        -13    1    4    4    0    0  0.20703752122E+02  0.24603084749E+02 -0.47820576268E+02  0.57626076092E+02  0.00000000000E+00 0. -1.
         13    1    4    4    0    0  0.15176119054E+03 -0.62873735132E+02 -0.13317297184E+03  0.21147010652E+03  0.00000000000E+00 0.  1.
         -2    1    1    2    0  502 -0.16178276960E+03 -0.38875295805E+02 -0.20329267198E+03  0.26270299512E+03  0.00000000000E+00 0.  1.
<scales pt_clust_5="13000.00000" pt_clust_6="13000.00000" pt_clust_7="13000.00000" pt_clust_8="13000.00000" pt_clust_9="13000.00000"></scales>
<clustering>
<clus scale="   91.898">  7  8 -1 -1</clus>
<clus scale="   95.517">  5  6 -1 -1</clus>
<clus scale="  123.244">  2  5  1 -1</clus>
<clus scale="  167.217">  7  9 -1 -1</clus>
<clus scale="  367.606">  1  5  2 -1</clus>
</clustering>
</event>
<event>
 9    1  0.6399313E-006  0.2932107E+03  0.7546771E-02  0.1121640E+00
         21   -1    0    0  501  502  0.00000000000E+00  0.00000000000E+00  0.58494715683E+02  0.58494715683E+02  0.00000000000E+00 0.  1.
          2   -1    0    0  502    0 -0.00000000000E+00 -0.00000000000E+00 -0.75653061394E+03  0.75653061394E+03  0.00000000000E+00 0. -1.
         23    2    1    2    0    0 -0.81992084174E+02 -0.26154015012E+02 -0.24554250362E+03  0.27583816354E+03  0.91590594579E+02 0.  0.
         23    2    1    2    0    0  0.16290639169E+03 -0.21787683562E+02 -0.34746628423E+03  0.39820409779E+03  0.10402158051E+03 0.  0.
        -11    1    3    3    0    0 -0.23203517825E+02 -0.18642781734E+02 -0.77307500401E+01  0.30752577883E+02  0.00000000000E+00 0.  1.
         11    1    3    3    0    0 -0.58788566348E+02 -0.75112332781E+01 -0.23781175358E+03  0.24508558566E+03  0.00000000000E+00 0. -1.
        -13    1    4    4    0    0  0.27638002063E+02  0.36273458220E+02 -0.61360620517E+02  0.76450956040E+02  0.00000000000E+00 0.  1.
         13    1    4    4    0    0  0.13526838963E+03 -0.58061141782E+02 -0.28610566371E+03  0.32175314175E+03  0.00000000000E+00 0. -1.
          2    1    1    2  501    0 -0.80914307516E+02  0.47941698574E+02 -0.10502711040E+03  0.14098306828E+03  0.00000000000E+00 0. -1.
<scales pt_clust_5="13000.00000" pt_clust_6="13000.00000" pt_clust_7="13000.00000" pt_clust_8="13000.00000" pt_clust_9="13000.00000"></scales>
<clustering>
<clus scale="   91.591">  5  6 -1 -1</clus>
<clus scale="  104.022">  7  8 -1 -1</clus>
<clus scale="   94.051">  7  9 -1 -1</clus>
<clus scale="  125.680">  2  5  1 -1</clus>
<clus scale="  293.211">  1  5  2 -1</clus>
</clustering>
</event>
<event>
 9    1  0.6399313E-006  0.1405246E+03  0.7546771E-02  0.1223133E+00
         21   -1    0    0  501  502  0.00000000000E+00  0.00000000000E+00  0.68168348095E+02  0.68168348095E+02  0.00000000000E+00 0.  1.
          2   -1    0    0  502    0 -0.00000000000E+00 -0.00000000000E+00 -0.34250748930E+03  0.34250748930E+03  0.00000000000E+00 0. -1.
         23    2    1    2    0    0 -0.66892272840E+02  0.11919687690E+02 -0.24135221603E+03  0.26633147204E+03  0.89804820001E+02 0.  0.
         23    2    1    2    0    0  0.52547268431E+02  0.32440949903E+01 -0.51373325142E+02  0.11652747911E+03  0.90375302374E+02 0.  0.
        -11    1    4    4    0    0  0.76189119799E+02 -0.87834799420E+01 -0.46100928514E+02  0.89483110728E+02  0.00000000000E+00 0.  1.
         11    1    4    4    0    0 -0.23641851368E+02  0.12027574932E+02 -0.52723966281E+01  0.27044368380E+02  0.00000000000E+00 0. -1.
        -11    1    3    3    0    0 -0.57150722765E+02  0.29394105444E+02 -0.23739148561E+03  0.24593685365E+03  0.00000000000E+00 0. -1.
         11    1    3    3    0    0 -0.97415500746E+01 -0.17474417754E+02 -0.39607304294E+01  0.20394618389E+02  0.00000000000E+00 0.  1.
          2    1    1    2  501    0  0.14345004409E+02 -0.15163782681E+02  0.18386399969E+02  0.27816886247E+02  0.00000000000E+00 0. -1.
<scales pt_clust_5="13000.00000" pt_clust_6="13000.00000" pt_clust_7="13000.00000" pt_clust_8="13000.00000" pt_clust_9="13000.00000"></scales>
<clustering>
<clus scale="   89.805">  7  8 -1 -1</clus>
<clus scale="   90.375">  5  6 -1 -1</clus>
<clus scale="   20.874">  5  9 -1 -1</clus>
<clus scale="  112.612">  2  7  1 -1</clus>
<clus scale="  140.525">  1  5  2 -1</clus>
</clustering>
</event>
<event>
 9    1  0.6399313E-006  0.1002967E+04  0.7546771E-02  0.9999401E-01
         21   -1    0    0  501  502  0.00000000000E+00  0.00000000000E+00  0.52277725996E+03  0.52277725996E+03  0.00000000000E+00 0. -1.
          4   -1    0    0  502    0 -0.00000000000E+00 -0.00000000000E+00 -0.61844674606E+03  0.61844674606E+03  0.00000000000E+00 0. -1.
         23    2    1    2    0    0  0.19294545121E+02 -0.19075995177E+02 -0.10020506738E+03  0.13824643503E+03  0.91295389840E+02 0.  0.
         23    2    1    2    0    0 -0.12723770531E+03 -0.22874893833E+03 -0.41820170432E+03  0.50120497694E+03  0.88307717489E+02 0.  0.
        -11    1    4    4    0    0 -0.36770376876E+02 -0.75532491137E+02 -0.21655966225E+03  0.23228281285E+03  0.00000000000E+00 0.  1.
         11    1    4    4    0    0 -0.90467328437E+02 -0.15321644719E+03 -0.20164204207E+03  0.26892216409E+03  0.00000000000E+00 0. -1.
        -13    1    3    3    0    0  0.39383306011E+02 -0.39723077551E+02 -0.93041335208E+02  0.10856176924E+03  0.00000000000E+00 0. -1.
         13    1    3    3    0    0 -0.20088760891E+02  0.20647082374E+02 -0.71637321760E+01  0.29684665795E+02  0.00000000000E+00 0.  1.
          4    1    1    2  501    0  0.10794316019E+03  0.24782493351E+03  0.42273728561E+03  0.50177259405E+03  0.00000000000E+00 0. -1.
<scales pt_clust_5="13000.00000" pt_clust_6="13000.00000" pt_clust_7="13000.00000" pt_clust_8="13000.00000" pt_clust_9="13000.00000"></scales>
<clustering>
<clus scale="   88.308">  5  6 -1 -1</clus>
<clus scale="   91.295">  7  8 -1 -1</clus>
<clus scale="   95.242">  2  7  1 -1</clus>
<clus scale="  269.546">  5  9 -1 -1</clus>
<clus scale=" 1002.967">  1  5  2 -1</clus>
</clustering>
</event>
<event>
 9    1  0.6399313E-006  0.2027331E+03  0.7546771E-02  0.1165861E+00
          3   -1    0    0  502    0 -0.00000000000E+00  0.00000000000E+00  0.61330657794E+02  0.61330657794E+02  0.00000000000E+00 0. -1.
         21   -1    0    0  501  502  0.00000000000E+00 -0.00000000000E+00 -0.46986050296E+03  0.46986050296E+03  0.00000000000E+00 0. -1.
         23    2    1    2    0    0 -0.10971387108E+02 -0.93505064507E+02 -0.11761401309E+03  0.17660305921E+03  0.92152135201E+02 0.  0.
         23    2    1    2    0    0  0.40070477904E+02  0.61111261123E+01 -0.96916263844E+02  0.13983175117E+03  0.92288500779E+02 0.  0.
        -11    1    3    3    0    0 -0.50825090397E+02 -0.63573325013E+02 -0.65330078941E+02  0.10436846593E+03  0.00000000000E+00 0. -1.
         11    1    3    3    0    0  0.39853703289E+02 -0.29931739494E+02 -0.52283934150E+02  0.72234593272E+02  0.00000000000E+00 0.  1.
        -13    1    4    4    0    0 -0.26894777688E+02  0.11588106959E+02 -0.49788304999E+02  0.57762345905E+02  0.00000000000E+00 0.  1.
         13    1    4    4    0    0  0.66965255592E+02 -0.54769808465E+01 -0.47127958846E+02  0.82069405266E+02  0.00000000000E+00 0. -1.
          3    1    1    2  501    0 -0.29099090796E+02  0.87393938395E+02 -0.19399956823E+03  0.21475635037E+03  0.00000000000E+00 0. -1.
<scales pt_clust_5="13000.00000" pt_clust_6="13000.00000" pt_clust_7="13000.00000" pt_clust_8="13000.00000" pt_clust_9="13000.00000"></scales>
<clustering>
<clus scale="   92.152">  5  6 -1 -1</clus>
<clus scale="   92.289">  7  8 -1 -1</clus>
<clus scale="   92.111">  7  9 -1 -1</clus>
<clus scale="  131.741">  1  5  2 -1</clus>
<clus scale="  202.733">  2  5  1 -1</clus>
</clustering>
</event>
<event>
 9    1  0.6399313E-006  0.4330400E+03  0.7546771E-02  0.1065322E+00
         -1   -1    0    0    0  501 -0.00000000000E+00  0.00000000000E+00  0.28196213060E+03  0.28196213060E+03  0.00000000000E+00 0.  1.
         21   -1    0    0  501  502  0.00000000000E+00 -0.00000000000E+00 -0.33586518199E+03  0.33586518199E+03  0.00000000000E+00 0.  1.
         23    2    1    2    0    0  0.93458600796E+01  0.14473511096E+03  0.36979709634E+02  0.17535321812E+03  0.91354555094E+02 0.  0.
         23    2    1    2    0    0  0.98994225295E+00  0.22777804655E+02  0.13132178555E+03  0.16400997428E+03  0.95572234109E+02 0.  0.
        -11    1    3    3    0    0 -0.13502111332E+02  0.37707394500E+02 -0.27264025290E+02  0.48450817180E+02  0.00000000000E+00 0. -1.
         11    1    3    3    0    0  0.22847971412E+02  0.10702771646E+03  0.64243734924E+02  0.12690240094E+03  0.00000000000E+00 0.  1.
        -13    1    4    4    0    0 -0.46000074742E+02  0.55916775259E+00  0.67770322716E+02  0.81909316844E+02  0.00000000000E+00 0.  1.
         13    1    4    4    0    0  0.46990016995E+02  0.22218636902E+02  0.63551462837E+02  0.82100657438E+02  0.00000000000E+00 0. -1.
         -1    1    1    2    0  502 -0.10335802333E+02 -0.16751291562E+03 -0.22220454658E+03  0.27846412018E+03  0.00000000000E+00 0.  1.
<scales pt_clust_5="13000.00000" pt_clust_6="13000.00000" pt_clust_7="13000.00000" pt_clust_8="13000.00000" pt_clust_9="13000.00000"></scales>
<clustering>
<clus scale="   91.355">  5  6 -1 -1</clus>
<clus scale="   95.572">  7  8 -1 -1</clus>
<clus scale="  167.832">  7  9 -1 -1</clus>
<clus scale="  171.410">  1  5  2 -1</clus>
<clus scale="  433.040">  2  5  1 -1</clus>
</clustering>
</event>
<event>
 9    1  0.6399313E-006  0.3033777E+03  0.7546771E-02  0.1126708E+00
          3   -1    0    0  502    0 -0.00000000000E+00  0.00000000000E+00  0.14383771934E+03  0.14383771934E+03  0.00000000000E+00 0. -1.
         21   -1    0    0  501  502  0.00000000000E+00 -0.00000000000E+00 -0.75481999680E+03  0.75481999680E+03  0.00000000000E+00 0. -1.
         23    2    1    2    0    0  0.11025324035E+02  0.35176698314E+02  0.90167857850E+02  0.13468810538E+03  0.93014435796E+02 0.  0.
         23    2    1    2    0    0  0.34412773447E+02  0.54686486471E+02 -0.78616211524E+02  0.13334412844E+03  0.86170163611E+02 0.  0.
        -13    1    3    3    0    0 -0.19015878940E+02 -0.10908729845E+02 -0.70128363879E+01  0.23017035276E+02  0.00000000000E+00 0.  1.
         13    1    3    3    0    0  0.30041202975E+02  0.46085428159E+02  0.97180694238E+02  0.11167107010E+03  0.00000000000E+00 0. -1.
        -13    1    4    4    0    0 -0.19423094921E+02  0.46950611844E+02 -0.23742821688E+02  0.56083314369E+02  0.00000000000E+00 0.  1.
         13    1    4    4    0    0  0.53835868368E+02  0.77358746269E+01 -0.54873389836E+02  0.77260814074E+02  0.00000000000E+00 0. -1.
          3    1    1    2  501    0 -0.45438097482E+02 -0.89863184785E+02 -0.62253392379E+03  0.63062548232E+03  0.00000000000E+00 0. -1.
<scales pt_clust_5="13000.00000" pt_clust_6="13000.00000" pt_clust_7="13000.00000" pt_clust_8="13000.00000" pt_clust_9="13000.00000"></scales>
<clustering>
<clus scale="   86.170">  7  8 -1 -1</clus>
<clus scale="   93.014">  5  6 -1 -1</clus>
<clus scale="  100.053">  1  5  2 -1</clus>
<clus scale="   96.017">  7  9 -1 -1</clus>
<clus scale="  303.378">  2  5  1 -1</clus>
</clustering>
</event>
<event>
 9    1  0.6399313E-006  0.2558890E+03  0.7546771E-02  0.1133964E+00
         21   -1    0    0  501  502  0.00000000000E+00  0.00000000000E+00  0.46895986482E+02  0.46895986482E+02  0.00000000000E+00 0. -1.
          1   -1    0    0  502    0 -0.00000000000E+00 -0.00000000000E+00 -0.83433733498E+03  0.83433733498E+03  0.00000000000E+00 0. -1.
         23    2    1    2    0    0  0.25588014008E+01 -0.10534936203E+03 -0.26495537685E+03  0.29945092409E+03  0.91457469190E+02 0.  0.
         23    2    1    2    0    0  0.92339693749E+02  0.68598658995E+02 -0.23099604618E+03  0.27303862787E+03  0.89210559367E+02 0.  0.
        -11    1    3    3    0    0 -0.41573143809E+02 -0.40161013455E+02 -0.82474220637E+02  0.10071360562E+03  0.00000000000E+00 0.  1.
         11    1    3    3    0    0  0.44131945209E+02 -0.65188348578E+02 -0.18248115621E+03  0.19873731847E+03  0.00000000000E+00 0. -1.
        -13    1    4    4    0    0  0.23220068960E+02  0.66701034683E+02 -0.78482695986E+02  0.10558282625E+03  0.00000000000E+00 0.  1.
         13    1    4    4    0    0  0.69119624789E+02  0.18976243121E+01 -0.15251335019E+03  0.16745580162E+03  0.00000000000E+00 0. -1.
          1    1    1    2  501    0 -0.94898495149E+02  0.36750703039E+02 -0.29148992547E+03  0.30874376951E+03  0.00000000000E+00 0. -1.
<scales pt_clust_5="13000.00000" pt_clust_6="13000.00000" pt_clust_7="13000.00000" pt_clust_8="13000.00000" pt_clust_9="13000.00000"></scales>
<clustering>
<clus scale="   89.211">  7  8 -1 -1</clus>
<clus scale="   91.457">  5  6 -1 -1</clus>
<clus scale="  101.766">  7  9 -1 -1</clus>
<clus scale="  139.533">  2  5  1 -1</clus>
<clus scale="  255.889">  1  5  2 -1</clus>
</clustering>
</event>
<event>
 9    1  0.6399313E-006  0.1913032E+03  0.7546771E-02  0.1188041E+00
         21   -1    0    0  501  502  0.00000000000E+00  0.00000000000E+00  0.33504750751E+03  0.33504750751E+03  0.00000000000E+00 0.  1.
          4   -1    0    0  502    0 -0.00000000000E+00 -0.00000000000E+00 -0.11079924436E+03  0.11079924436E+03  0.00000000000E+00 0. -1.
         23    2    1    2    0    0 -0.21533391192E+01  0.14061507944E+02 -0.53181800739E+02  0.10885365208E+03  0.93906606614E+02 0.  0.
         23    2    1    2    0    0  0.23784099492E+02 -0.23125150436E+02  0.28527734491E+03  0.31226216312E+03  0.12257258675E+03 0.  0.
        -11    1    4    4    0    0 -0.38840513637E+02 -0.26107498808E+02  0.20568780349E+03  0.21094468350E+03  0.00000000000E+00 0.  1.
         11    1    4    4    0    0  0.62624613129E+02  0.29823483711E+01  0.79589541425E+02  0.10131747962E+03  0.00000000000E+00 0. -1.
        -11    1    3    3    0    0 -0.28932454473E+02 -0.14452958076E+02  0.10597810070E+02  0.34033637732E+02  0.00000000000E+00 0.  1.
         11    1    3    3    0    0  0.26779115354E+02  0.28514466020E+02 -0.63779610809E+02  0.74820014345E+02  0.00000000000E+00 0. -1.
          4    1    1    2  501    0 -0.21630760373E+02  0.90636424926E+01 -0.78472810164E+01  0.24730936676E+02  0.00000000000E+00 0. -1.
<scales pt_clust_5="13000.00000" pt_clust_6="13000.00000" pt_clust_7="13000.00000" pt_clust_8="13000.00000" pt_clust_9="13000.00000"></scales>
<clustering>
<clus scale="   93.907">  7  8 -1 -1</clus>
<clus scale="   94.978">  2  7  1 -1</clus>
<clus scale="  122.573">  5  6 -1 -1</clus>
<clus scale="   28.301">  5  9 -1 -1</clus>
<clus scale="  191.303">  1  5  2 -1</clus>
</clustering>
</event>
<event>
 9    1  0.6399313E-006  0.2639482E+03  0.7546771E-02  0.1131140E+00
          1   -1    0    0  502    0 -0.00000000000E+00  0.00000000000E+00  0.13655005807E+03  0.13655005807E+03  0.00000000000E+00 0. -1.
         21   -1    0    0  501  502  0.00000000000E+00 -0.00000000000E+00 -0.29371935669E+03  0.29371935669E+03  0.00000000000E+00 0.  1.
         23    2    1    2    0    0 -0.58735286077E+02  0.82731791986E+02 -0.44879895927E+02  0.14342877101E+03  0.90902277521E+02 0.  0.
         23    2    1    2    0    0  0.11917148998E+02 -0.48013606378E+02  0.54065007292E+02  0.11057073682E+03  0.82798176243E+02 0.  0.
        -13    1    4    4    0    0 -0.16502497040E+02  0.14116366210E+02  0.32194648801E+02  0.38834258264E+02  0.00000000000E+00 0. -1.
         13    1    4    4    0    0  0.28419646038E+02 -0.62129972588E+02  0.21870358491E+02  0.71736478553E+02  0.00000000000E+00 0.  1.
        -13    1    3    3    0    0 -0.92870498852E+01  0.27353590192E+02 -0.60966526085E+02  0.67463957006E+02  0.00000000000E+00 0.  1.
         13    1    3    3    0    0 -0.49448236192E+02  0.55378201794E+02  0.16086630158E+02  0.75964814002E+02  0.00000000000E+00 0. -1.
          1    1    1    2  501    0  0.46818137079E+02 -0.34718185608E+02 -0.16635440998E+03  0.17626990693E+03  0.00000000000E+00 0. -1.
<scales pt_clust_5="13000.00000" pt_clust_6="13000.00000" pt_clust_7="13000.00000" pt_clust_8="13000.00000" pt_clust_9="13000.00000"></scales>
<clustering>
<clus scale="   82.798">  5  6 -1 -1</clus>
<clus scale="   58.286">  5  9 -1 -1</clus>
<clus scale="   90.902">  7  8 -1 -1</clus>
<clus scale="  136.226">  1  7  2 -1</clus>
<clus scale="  263.948">  2  5  1 -1</clus>
</clustering>
</event>
<event>
 9    1  0.6399313E-006  0.2618111E+03  0.7546771E-02  0.1148135E+00
         21   -1    0    0  501  502  0.00000000000E+00  0.00000000000E+00  0.34371799328E+03  0.34371799328E+03  0.00000000000E+00 0. -1.
          3   -1    0    0  502    0 -0.00000000000E+00 -0.00000000000E+00 -0.15138984685E+03  0.15138984685E+03  0.00000000000E+00 0. -1.
         23    2    1    2    0    0  0.94195696534E+00 -0.18344420981E+02 -0.76300812075E+02  0.11999910740E+03  0.90777567651E+02 0.  0.
         23    2    1    2    0    0 -0.41852807507E+02 -0.46983455501E+02  0.15813793425E+02  0.11080410389E+03  0.89824110285E+02 0.  0.
        -13    1    3    3    0    0 -0.21166494117E+01 -0.38868858982E+02 -0.87965983843E+02  0.96193984826E+02  0.00000000000E+00 0.  1.
         13    1    3    3    0    0  0.30586063770E+01  0.20524438001E+02  0.11665171768E+02  0.23805122570E+02  0.00000000000E+00 0. -1.
        -13    1    4    4    0    0  0.33771677130E+01 -0.22475065059E+02  0.45893064164E+02  0.51212373012E+02  0.00000000000E+00 0.  1.
         13    1    4    4    0    0 -0.45229975220E+02 -0.24508390441E+02 -0.30079270739E+02  0.59591730874E+02  0.00000000000E+00 0. -1.
          3    1    1    2  501    0  0.40910850541E+02  0.65327876482E+02  0.25281516507E+03  0.26430462884E+03  0.00000000000E+00 0. -1.
<scales pt_clust_5="13000.00000" pt_clust_6="13000.00000" pt_clust_7="13000.00000" pt_clust_8="13000.00000" pt_clust_9="13000.00000"></scales>
<clustering>
<clus scale="   89.824">  7  8 -1 -1</clus>
<clus scale="   77.081">  7  9 -1 -1</clus>
<clus scale="   90.778">  5  6 -1 -1</clus>
<clus scale="   92.617">  2  5  1 -1</clus>
<clus scale="  261.811">  1  5  2 -1</clus>
</clustering>
</event>
<event>
 9    1  0.6399313E-006  0.2594103E+03  0.7546771E-02  0.1136951E+00
         21   -1    0    0  501  502  0.00000000000E+00  0.00000000000E+00  0.54119153299E+02  0.54119153299E+02  0.00000000000E+00 0. -1.
          2   -1    0    0  502    0 -0.00000000000E+00 -0.00000000000E+00 -0.68223483428E+03  0.68223483428E+03  0.00000000000E+00 0. -1.
         23    2    1    2    0    0 -0.51344008799E+02 -0.18934143689E+02 -0.21861714752E+03  0.25160377466E+03  0.11187624053E+03 0.  0.
         23    2    1    2    0    0 -0.45418968582E+02  0.92975543567E+02 -0.23779985683E+03  0.27421366444E+03  0.89089996362E+02 0.  0.
        -11    1    3    3    0    0  0.28739742676E+02 -0.85507454328E+00 -0.15817069058E+02  0.32815905216E+02  0.00000000000E+00 0.  1.
         11    1    3    3    0    0 -0.80083751474E+02 -0.18079069146E+02 -0.20280007846E+03  0.21878786945E+03  0.00000000000E+00 0. -1.
        -13    1    4    4    0    0  0.24729370444E+02  0.20272836814E+02 -0.87091543681E+02  0.92776433731E+02  0.00000000000E+00 0.  1.
         13    1    4    4    0    0 -0.70148339026E+02  0.72702706752E+02 -0.15070831314E+03  0.18143723071E+03  0.00000000000E+00 0. -1.
          2    1    1    2  501    0  0.96762977380E+02 -0.74041399877E+02 -0.17169867664E+03  0.21053654848E+03  0.00000000000E+00 0. -1.
<scales pt_clust_5="13000.00000" pt_clust_6="13000.00000" pt_clust_7="13000.00000" pt_clust_8="13000.00000" pt_clust_9="13000.00000"></scales>
<clustering>
<clus scale="   89.090">  7  8 -1 -1</clus>
<clus scale="  111.876">  5  6 -1 -1</clus>
<clus scale="  121.841">  7  9 -1 -1</clus>
<clus scale="  124.543">  2  5  1 -1</clus>
<clus scale="  259.410">  1  5  2 -1</clus>
</clustering>
</event>
<event>
 9    1  0.6399313E-006  0.6454262E+03  0.7546771E-02  0.1012816E+00
         21   -1    0    0  501  502  0.00000000000E+00  0.00000000000E+00  0.10438370854E+04  0.10438370854E+04  0.00000000000E+00 0. -1.
          3   -1    0    0  502    0 -0.00000000000E+00 -0.00000000000E+00 -0.18751914031E+03  0.18751914031E+03  0.00000000000E+00 0. -1.
         23    2    1    2    0    0  0.14987997515E+03 -0.16182948979E+03  0.23245369461E+03  0.33370283487E+03  0.93113216809E+02 0.  0.
         23    2    1    2    0    0 -0.91899026285E+01  0.74061723399E+02 -0.10054122336E+03  0.15451129955E+03  0.90529613438E+02 0.  0.
        -11    1    4    4    0    0 -0.37684052712E+02 -0.92111349324E-01 -0.36635161367E+02  0.52556934477E+02  0.00000000000E+00 0. -1.
         11    1    4    4    0    0  0.28494150083E+02  0.74153834749E+02 -0.63906061994E+02  0.10195436507E+03  0.00000000000E+00 0.  1.
        -13    1    3    3    0    0  0.77264394419E+02 -0.13734541689E+03  0.12211394082E+03  0.19936239548E+03  0.00000000000E+00 0. -1.
         13    1    3    3    0    0  0.72615580734E+02 -0.24484072900E+02  0.11033975379E+03  0.13434043940E+03  0.00000000000E+00 0.  1.
          3    1    1    2  501    0 -0.14069007252E+03  0.87767766395E+02  0.72440547382E+03  0.74314209128E+03  0.00000000000E+00 0. -1.
<scales pt_clust_5="13000.00000" pt_clust_6="13000.00000" pt_clust_7="13000.00000" pt_clust_8="13000.00000" pt_clust_9="13000.00000"></scales>
<clustering>
<clus scale="   90.530">  5  6 -1 -1</clus>
<clus scale="   93.113">  7  8 -1 -1</clus>
<clus scale="  165.822">  5  9 -1 -1</clus>
<clus scale="  239.422">  2  7  1 -1</clus>
<clus scale="  645.426">  1  5  2 -1</clus>
</clustering>
</event>
<event>
 9    1  0.6399313E-006  0.2503342E+03  0.7546771E-02  0.1154957E+00
          2   -1    0    0  502    0 -0.00000000000E+00  0.00000000000E+00  0.65856341683E+03  0.65856341683E+03  0.00000000000E+00 0. -1.
         21   -1    0    0  501  502  0.00000000000E+00 -0.00000000000E+00 -0.46029408916E+02  0.46029408916E+02  0.00000000000E+00 0.  1.
         23    2    1    2    0    0  0.16201714834E+02  0.46942966137E+00  0.23395721288E+03  0.25073425063E+03  0.88707220969E+02 0.  0.
         23    2    1    2    0    0  0.79827351342E+02 -0.25384631567E+02  0.13872524393E+03  0.19429911102E+03  0.10719452270E+03 0.  0.
        -11    1    4    4    0    0  0.63227436526E+02  0.56974936244E+01  0.14520052105E+03  0.15847195802E+03  0.00000000000E+00 0.  1.
         11    1    4    4    0    0  0.16599914816E+02 -0.31082125191E+02 -0.64752771249E+01  0.35827153001E+02  0.00000000000E+00 0. -1.
        -13    1    3    3    0    0 -0.27454369121E+02 -0.14635411841E+02  0.36570534161E+02  0.48013973304E+02  0.00000000000E+00 0. -1.
         13    1    3    3    0    0  0.43656083955E+02  0.15104841502E+02  0.19738667872E+03  0.20272027732E+03  0.00000000000E+00 0.  1.
          2    1    1    2  501    0 -0.96029066176E+02  0.24915201905E+02  0.23985155110E+03  0.25955946410E+03  0.00000000000E+00 0. -1.
<scales pt_clust_5="13000.00000" pt_clust_6="13000.00000" pt_clust_7="13000.00000" pt_clust_8="13000.00000" pt_clust_9="13000.00000"></scales>
<clustering>
<clus scale="   88.707">  7  8 -1 -1</clus>
<clus scale="   90.176">  1  7  2 -1</clus>
<clus scale="  107.195">  5  6 -1 -1</clus>
<clus scale="   89.912">  5  9 -1 -1</clus>
<clus scale="  250.334">  2  5  1 -1</clus>
</clustering>
</event>
<event>
 9    1  0.6399313E-006  0.1385367E+03  0.7546771E-02  0.1232900E+00
         -2   -1    0    0    0  501 -0.00000000000E+00  0.00000000000E+00  0.13889001209E+03  0.13889001209E+03  0.00000000000E+00 0.  1.
         21   -1    0    0  501  502  0.00000000000E+00 -0.00000000000E+00 -0.27945282546E+03  0.27945282546E+03  0.00000000000E+00 0.  1.
         23    2    1    2    0    0  0.20972173314E+02 -0.23248790578E+02  0.10133174108E+03  0.13958594768E+03  0.90751180280E+02 0.  0.
         23    2    1    2    0    0 -0.44629370983E+02 -0.64393633342E+01 -0.16952320981E+03  0.19703381475E+03  0.89727138229E+02 0.  0.
        -13    1    4    4    0    0 -0.58808543933E+02 -0.33462582430E+02 -0.13464191115E+03  0.15068720417E+03  0.00000000000E+00 0.  1.
         13    1    4    4    0    0  0.14179172950E+02  0.27023219095E+02 -0.34881298664E+02  0.46346610581E+02  0.00000000000E+00 0. -1.
        -13    1    3    3    0    0 -0.17464118667E+02 -0.19401355866E+02 -0.48905434915E+01  0.26557964264E+02  0.00000000000E+00 0. -1.
         13    1    3    3    0    0  0.38436291981E+02 -0.38474347128E+01  0.10622228457E+03  0.11302798341E+03  0.00000000000E+00 0.  1.
         -2    1    1    2    0  502  0.23657197668E+02  0.29688153913E+02 -0.72371344632E+02  0.81723075126E+02  0.00000000000E+00 0.  1.
<scales pt_clust_5="13000.00000" pt_clust_6="13000.00000" pt_clust_7="13000.00000" pt_clust_8="13000.00000" pt_clust_9="13000.00000"></scales>
<clustering>
<clus scale="   89.727">  5  6 -1 -1</clus>
<clus scale="   37.961">  5  9 -1 -1</clus>
<clus scale="   90.751">  7  8 -1 -1</clus>
<clus scale="   96.001">  1  7  2 -1</clus>
<clus scale="  138.537">  2  5  1 -1</clus>
</clustering>
</event>
<event>
 9    1  0.6399313E-006  0.2185920E+03  0.7546771E-02  0.1166806E+00
         -1   -1    0    0    0  501 -0.00000000000E+00  0.00000000000E+00  0.81768457271E+02  0.81768457271E+02  0.00000000000E+00 0.  1.
         21   -1    0    0  501  502  0.00000000000E+00 -0.00000000000E+00 -0.31739792702E+03  0.31739792702E+03  0.00000000000E+00 0.  1.
         23    2    1    2    0    0  0.48650573661E+02 -0.14561247525E+01 -0.62691303556E+02  0.12043700611E+03  0.90586280872E+02 0.  0.
         23    2    1    2    0    0 -0.10289078006E+03 -0.16752655254E+02 -0.56823353164E+02  0.14928360009E+03  0.90496053575E+02 0.  0.
        -11    1    4    4    0    0 -0.52976261410E+01 -0.35286938559E+02 -0.29389682135E+02  0.46227549055E+02  0.00000000000E+00 0. -1.
         11    1    4    4    0    0 -0.97593153920E+02  0.18534283305E+02 -0.27433671029E+02  0.10305605104E+03  0.00000000000E+00 0.  1.
        -13    1    3    3    0    0 -0.25312339734E+02  0.71090562282E+01 -0.27621947830E+02  0.38134305096E+02  0.00000000000E+00 0.  1.
         13    1    3    3    0    0  0.73962913395E+02 -0.85651809807E+01 -0.35069355725E+02  0.82302701013E+02  0.00000000000E+00 0. -1.
         -1    1    1    2    0  502  0.54240206400E+02  0.18208780006E+02 -0.11611481303E+03  0.12944577809E+03  0.00000000000E+00 0.  1.
<scales pt_clust_5="13000.00000" pt_clust_6="13000.00000" pt_clust_7="13000.00000" pt_clust_8="13000.00000" pt_clust_9="13000.00000"></scales>
<clustering>
<clus scale="   90.496">  5  6 -1 -1</clus>
<clus scale="   57.215">  5  9 -1 -1</clus>
<clus scale="   90.586">  7  8 -1 -1</clus>
<clus scale="  102.834">  1  7  2 -1</clus>
<clus scale="  218.592">  2  5  1 -1</clus>
</clustering>
</event>
<event>
 9    1  0.6399313E-006  0.6327199E+03  0.7546771E-02  0.1027257E+00
          1   -1    0    0  502    0 -0.00000000000E+00  0.00000000000E+00  0.12008327726E+03  0.12008327726E+03  0.00000000000E+00 0. -1.
         21   -1    0    0  501  502  0.00000000000E+00 -0.00000000000E+00 -0.15276862491E+04  0.15276862491E+04  0.00000000000E+00 0. -1.
         23    2    1    2    0    0  0.12440263028E+03 -0.55839010650E+02 -0.92598497653E+02  0.18846446360E+03  0.91380319227E+02 0.  0.
         23    2    1    2    0    0  0.49640554236E+02  0.19212869643E+02  0.23676071443E+02  0.10886139214E+03  0.91961553674E+02 0.  0.
        -11    1    4    4    0    0  0.66645705242E+02 -0.13524327660E+02  0.23563662790E+02  0.71970852920E+02  0.00000000000E+00 0. -1.
         11    1    4    4    0    0 -0.17005151006E+02  0.32737197303E+02  0.11240865218E+00  0.36890539217E+02  0.00000000000E+00 0.  1.
        -13    1    3    3    0    0  0.10443085706E+03 -0.58208004881E+02 -0.30779016453E+02  0.12345575561E+03  0.00000000000E+00 0. -1.
         13    1    3    3    0    0  0.19971773217E+02  0.23689942313E+01 -0.61819481200E+02  0.65008707993E+02  0.00000000000E+00 0.  1.
          1    1    1    2  501    0 -0.17404318451E+03  0.36626141007E+02 -0.13386805457E+04  0.13504436707E+04  0.00000000000E+00 0. -1.
<scales pt_clust_5="13000.00000" pt_clust_6="13000.00000" pt_clust_7="13000.00000" pt_clust_8="13000.00000" pt_clust_9="13000.00000"></scales>
<clustering>
<clus scale="   91.380">  7  8 -1 -1</clus>
<clus scale="   91.962">  5  6 -1 -1</clus>
<clus scale="  164.147">  1  7  2 -1</clus>
<clus scale="  167.011">  5  9 -1 -1</clus>
<clus scale="  632.720">  2  5  1 -1</clus>
</clustering>
</event>
<event>
 9    1  0.6399313E-006  0.3576597E+03  0.7546771E-02  0.1092776E+00
         -3   -1    0    0    0  501 -0.00000000000E+00  0.00000000000E+00  0.42967782752E+03  0.42967782752E+03  0.00000000000E+00 0.  1.
         21   -1    0    0  501  502  0.00000000000E+00 -0.00000000000E+00 -0.14820321239E+03  0.14820321239E+03  0.00000000000E+00 0.  1.
         23    2    1    2    0    0  0.10466849678E+03 -0.41430313597E+02  0.10513302884E+03  0.17911195026E+03  0.91412099145E+02 0.  0.
         23    2    1    2    0    0 -0.94272314897E+01 -0.12136277675E+03  0.14093293719E+03  0.20686739264E+03  0.90079015749E+02 0.  0.
        -11    1    4    4    0    0  0.31341197530E+02 -0.80367329463E+02  0.11433690945E+03  0.14322746653E+03  0.00000000000E+00 0.  1.
         11    1    4    4    0    0 -0.40768429020E+02 -0.40995447289E+02  0.26596027744E+02  0.63639926107E+02  0.00000000000E+00 0. -1.
        -13    1    3    3    0    0  0.37854458040E+02 -0.63995585625E+02  0.50078331716E+02  0.89645046045E+02  0.00000000000E+00 0. -1.
         13    1    3    3    0    0  0.66814038744E+02  0.22565272028E+02  0.55054697126E+02  0.89466904219E+02  0.00000000000E+00 0.  1.
         -3    1    1    2    0  502 -0.95241265294E+02  0.16279309035E+03  0.35408649098E+02  0.19190169700E+03  0.00000000000E+00 0.  1.
<scales pt_clust_5="13000.00000" pt_clust_6="13000.00000" pt_clust_7="13000.00000" pt_clust_8="13000.00000" pt_clust_9="13000.00000"></scales>
<clustering>
<clus scale="   90.079">  5  6 -1 -1</clus>
<clus scale="   91.412">  7  8 -1 -1</clus>
<clus scale="  145.011">  1  7  2 -1</clus>
<clus scale="  156.014">  5  9 -1 -1</clus>
<clus scale="  357.660">  2  5  1 -1</clus>
</clustering>
</event>
<event>
 9    1  0.6399313E-006  0.1861472E+03  0.7546771E-02  0.1191352E+00
         21   -1    0    0  501  502  0.00000000000E+00  0.00000000000E+00  0.22195814138E+03  0.22195814138E+03  0.00000000000E+00 0. -1.
         -2   -1    0    0    0  501 -0.00000000000E+00 -0.00000000000E+00 -0.90040349902E+02  0.90040349902E+02  0.00000000000E+00 0.  1.
         23    2    1    2    0    0 -0.60833642272E+01 -0.14718889591E+02  0.55883387593E+02  0.11092138331E+03  0.94482523442E+02 0.  0.
         23    2    1    2    0    0 -0.39499753558E+02  0.18052980341E+02 -0.79317711118E+01  0.10547765540E+03  0.95793956831E+02 0.  0.
        -13    1    3    3    0    0 -0.38994161240E+02  0.46065321531E+01  0.60865898423E+02  0.72432191325E+02  0.00000000000E+00 0. -1.
         13    1    3    3    0    0  0.32910797013E+02 -0.19325421744E+02 -0.49825108304E+01  0.38489191987E+02  0.00000000000E+00 0.  1.
        -13    1    4    4    0    0 -0.67006533977E+02  0.22817882389E+02 -0.22122373519E+02  0.74161518070E+02  0.00000000000E+00 0.  1.
         13    1    4    4    0    0  0.27506780419E+02 -0.47649020482E+01  0.14190602408E+02  0.31316137330E+02  0.00000000000E+00 0. -1.
         -2    1    1    2    0  502  0.45583117785E+02 -0.33340907497E+01  0.83966174997E+02  0.95599452570E+02  0.00000000000E+00 0.  1.
<scales pt_clust_5="13000.00000" pt_clust_6="13000.00000" pt_clust_7="13000.00000" pt_clust_8="13000.00000" pt_clust_9="13000.00000"></scales>
<clustering>
<clus scale="   94.483">  5  6 -1 -1</clus>
<clus scale="   95.794">  7  8 -1 -1</clus>
<clus scale="   45.705">  7  9 -1 -1</clus>
<clus scale="   95.815">  2  5  1 -1</clus>
<clus scale="  186.147">  1  5  2 -1</clus>
</clustering>
</event>
<event>
 9    1  0.7130065E-006  0.5380805E+03  0.7546771E-02  0.1044184E+00
         -1   -1    0    0    0  501 -0.00000000000E+00  0.00000000000E+00  0.15815269848E+03  0.15815269848E+03  0.00000000000E+00 0.  1.
         21   -1    0    0  501  502  0.00000000000E+00 -0.00000000000E+00 -0.79296721701E+03  0.79296721701E+03  0.00000000000E+00 0.  1.
         23    2    1    2    0    0  0.28581516797E+01  0.13309143944E+03 -0.21044746550E+03  0.26583313824E+03  0.93046339873E+02 0.  0.
         23    2    1    2    0    0  0.12535831254E+02  0.17709628147E+02  0.10153585723E+03  0.13797351439E+03  0.90864637647E+02 0.  0.
        -13    1    4    4    0    0 -0.25631340018E+02 -0.20810964168E+01  0.89797016695E+02  0.93406641952E+02  0.00000000000E+00 0.  1.
         13    1    4    4    0    0  0.38167171271E+02  0.19790724564E+02  0.11738840535E+02  0.44566872436E+02  0.00000000000E+00 0. -1.
        -13    1    3    3    0    0 -0.42882489717E+02  0.48142448598E+02 -0.10213016683E+03  0.12077737478E+03  0.00000000000E+00 0. -1.
         13    1    3    3    0    0  0.45740641397E+02  0.84948990842E+02 -0.10831729868E+03  0.14505576346E+03  0.00000000000E+00 0.  1.
         -1    1    1    2    0  502 -0.15393982933E+02 -0.15080106759E+03 -0.52590291025E+03  0.54731326287E+03  0.00000000000E+00 0.  1.
<scales pt_clust_5="13000.00000" pt_clust_6="13000.00000" pt_clust_7="13000.00000" pt_clust_8="13000.00000" pt_clust_9="13000.00000"></scales>
<clustering>
<clus scale="   90.865">  5  6 -1 -1</clus>
<clus scale="   93.046">  7  8 -1 -1</clus>
<clus scale="  151.585">  5  9 -1 -1</clus>
<clus scale="  162.417">  1  7  2 -1</clus>
<clus scale="  538.080">  2  5  1 -1</clus>
</clustering>
</event>
<event>
 9    1  0.6399313E-006  0.4773340E+03  0.7546771E-02  0.1039413E+00
         21   -1    0    0  501  502  0.00000000000E+00  0.00000000000E+00  0.97960749386E+03  0.97960749386E+03  0.00000000000E+00 0. -1.
          1   -1    0    0  502    0 -0.00000000000E+00 -0.00000000000E+00 -0.20171969011E+03  0.20171969011E+03  0.00000000000E+00 0. -1.
         23    2    1    2    0    0 -0.22626693726E+03  0.10914999392E+03 -0.17484615868E+01  0.26717161312E+03  0.90923955422E+02 0.  0.
         23    2    1    2    0    0  0.10821127698E+02  0.89924184297E+02  0.69994799106E+02  0.14627639033E+03  0.91071701093E+02 0.  0.
        -11    1    3    3    0    0 -0.18678734876E+02  0.27597943425E+02  0.26205062601E+02  0.42393949141E+02  0.00000000000E+00 0.  1.
         11    1    3    3    0    0 -0.20758820239E+03  0.81552050493E+02 -0.27953524188E+02  0.22477766398E+03  0.00000000000E+00 0. -1.
        -13    1    4    4    0    0 -0.22105647679E+02  0.78422961783E+02  0.17637875228E+02  0.83366151624E+02  0.00000000000E+00 0. -1.
         13    1    4    4    0    0  0.32926775377E+02  0.11501222514E+02  0.52356923877E+02  0.62910238705E+02  0.00000000000E+00 0.  1.
          1    1    1    2  501    0  0.21544580956E+03 -0.19907417821E+03  0.70964146623E+03  0.76787918052E+03  0.00000000000E+00 0. -1.
<scales pt_clust_5="13000.00000" pt_clust_6="13000.00000" pt_clust_7="13000.00000" pt_clust_8="13000.00000" pt_clust_9="13000.00000"></scales>
<clustering>
<clus scale="   90.924">  5  6 -1 -1</clus>
<clus scale="   91.072">  7  8 -1 -1</clus>
<clus scale="  267.166">  2  5  1 -1</clus>
<clus scale="  191.970">  7  9 -1 -1</clus>
<clus scale="  477.334">  1  5  2 -1</clus>
</clustering>
</event>
<event>
 9    1  0.6399313E-006  0.3144073E+03  0.7546771E-02  0.1094893E+00
         21   -1    0    0  501  502  0.00000000000E+00  0.00000000000E+00  0.44611489389E+03  0.44611489389E+03  0.00000000000E+00 0. -1.
          1   -1    0    0  502    0 -0.00000000000E+00 -0.00000000000E+00 -0.15550929867E+03  0.15550929867E+03  0.00000000000E+00 0. -1.
         23    2    1    2    0    0 -0.41315815793E+02 -0.17490829290E+03  0.56669303956E+02  0.20973372233E+03  0.92070172748E+02 0.  0.
         23    2    1    2    0    0 -0.41658047792E+02  0.13404932346E+03  0.35055160805E+02  0.17255551753E+03  0.94031528030E+02 0.  0.
        -11    1    4    4    0    0 -0.25219767299E+02  0.14567643599E+03  0.36771926207E+02  0.15234774440E+03  0.00000000000E+00 0. -1.
         11    1    4    4    0    0 -0.16438280494E+02 -0.11627112531E+02 -0.17167654020E+01  0.20207773129E+02  0.00000000000E+00 0.  1.
        -13    1    3    3    0    0  0.16202709981E+02 -0.22232578669E+02 -0.15227523201E+02  0.31443486255E+02  0.00000000000E+00 0.  1.
         13    1    3    3    0    0 -0.57518525774E+02 -0.15267571423E+03  0.71896827156E+02  0.17829023607E+03  0.00000000000E+00 0. -1.
          1    1    1    2  501    0  0.82973863585E+02  0.40858969441E+02  0.19888113047E+03  0.21933495270E+03  0.00000000000E+00 0. -1.
<scales pt_clust_5="13000.00000" pt_clust_6="13000.00000" pt_clust_7="13000.00000" pt_clust_8="13000.00000" pt_clust_9="13000.00000"></scales>
<clustering>
<clus scale="   92.070">  7  8 -1 -1</clus>
<clus scale="   94.032">  5  6 -1 -1</clus>
<clus scale="   92.489">  5  9 -1 -1</clus>
<clus scale="  201.933">  2  7  1 -1</clus>
<clus scale="  314.407">  1  5  2 -1</clus>
</clustering>
</event>
<event>
 9    1  0.6399313E-006  0.4225161E+03  0.7546771E-02  0.1076736E+00
         -1   -1    0    0    0  501 -0.00000000000E+00  0.00000000000E+00  0.11000146166E+03  0.11000146166E+03  0.00000000000E+00 0.  1.
         21   -1    0    0  501  502  0.00000000000E+00 -0.00000000000E+00 -0.72552693058E+03  0.72552693058E+03  0.00000000000E+00 0.  1.
         23    2    1    2    0    0  0.44851341779E+02  0.89227871310E+02 -0.94762470170E+02  0.16492124481E+03  0.90806582142E+02 0.  0.
         23    2    1    2    0    0 -0.20640249167E+03  0.22901139824E+02 -0.27389796390E+03  0.35499023627E+03  0.88721600791E+02 0.  0.
        -11    1    3    3    0    0 -0.22254002633E+02  0.20630299161E+02 -0.41680628453E+00  0.30348370700E+02  0.00000000000E+00 0. -1.
         11    1    3    3    0    0  0.67105344412E+02  0.68597572149E+02 -0.94345663885E+02  0.13457287411E+03  0.00000000000E+00 0.  1.
        -13    1    4    4    0    0 -0.14755063490E+03  0.34695334073E+02 -0.13228454732E+03  0.20118190158E+03  0.00000000000E+00 0.  1.
         13    1    4    4    0    0 -0.58851856770E+02 -0.11794194250E+02 -0.14161341658E+03  0.15380833469E+03  0.00000000000E+00 0. -1.
         -1    1    1    2    0  502  0.16155114989E+03 -0.11212901113E+03 -0.24686503485E+03  0.31561691114E+03  0.00000000000E+00 0.  1.
<scales pt_clust_5="13000.00000" pt_clust_6="13000.00000" pt_clust_7="13000.00000" pt_clust_8="13000.00000" pt_clust_9="13000.00000"></scales>
<clustering>
<clus scale="   88.722">  7  8 -1 -1</clus>
<clus scale="   90.807">  5  6 -1 -1</clus>
<clus scale="  134.978">  1  5  2 -1</clus>
<clus scale="  195.549">  7  9 -1 -1</clus>
<clus scale="  422.516">  2  5  1 -1</clus>
</clustering>
</event>
<event>
 9    1  0.6399313E-006  0.1802567E+03  0.7546771E-02  0.1184177E+00
         -3   -1    0    0    0  501 -0.00000000000E+00  0.00000000000E+00  0.10680136842E+03  0.10680136842E+03  0.00000000000E+00 0.  1.
         21   -1    0    0  501  502  0.00000000000E+00 -0.00000000000E+00 -0.39925084551E+03  0.39925084551E+03  0.00000000000E+00 0. -1.
         23    2    1    2    0    0 -0.68705898224E+02  0.50386577650E+02  0.38179219409E+02  0.12947842148E+03  0.89708980467E+02 0.  0.
         23    2    1    2    0    0  0.84042122815E+02 -0.12909131279E+02 -0.29873659438E+03  0.32502900659E+03  0.95763136047E+02 0.  0.
        -11    1    4    4    0    0  0.67386947363E+02  0.55309641658E+01 -0.29136959577E+03  0.29911174096E+03  0.00000000000E+00 0. -1.
         11    1    4    4    0    0  0.16655175452E+02 -0.18440095444E+02 -0.73669986098E+01  0.25917265632E+02  0.00000000000E+00 0.  1.
        -13    1    3    3    0    0 -0.76477790084E+01 -0.24627083085E+02  0.84494380384E+00  0.25801078952E+02  0.00000000000E+00 0. -1.
         13    1    3    3    0    0 -0.61058119215E+02  0.75013660734E+02  0.37334275605E+02  0.10367734253E+03  0.00000000000E+00 0.  1.
         -3    1    1    2    0  502 -0.15336224591E+02 -0.37477446371E+02 -0.31892102120E+02  0.51544785855E+02  0.00000000000E+00 0.  1.
<scales pt_clust_5="13000.00000" pt_clust_6="13000.00000" pt_clust_7="13000.00000" pt_clust_8="13000.00000" pt_clust_9="13000.00000"></scales>
<clustering>
<clus scale="   89.709">  7  8 -1 -1</clus>
<clus scale="   95.763">  5  6 -1 -1</clus>
<clus scale="   40.494">  5  9 -1 -1</clus>
<clus scale="  123.721">  1  7  2 -1</clus>
<clus scale="  180.257">  2  5  1 -1</clus>
</clustering>
</event>
<event>
 9    1  0.6399313E-006  0.2137131E+03  0.7546771E-02  0.1148979E+00
          1   -1    0    0  502    0 -0.00000000000E+00  0.00000000000E+00  0.16807807899E+03  0.16807807899E+03  0.00000000000E+00 0. -1.
         21   -1    0    0  501  502  0.00000000000E+00 -0.00000000000E+00 -0.22401476922E+03  0.22401476922E+03  0.00000000000E+00 0.  1.
         23    2    1    2    0    0 -0.13319560882E+03  0.46516214560E+02  0.13335545514E+02  0.16743321088E+03  0.89169585090E+02 0.  0.
         23    2    1    2    0    0  0.76083595057E+02 -0.22715328945E+02  0.12282578678E+02  0.12229044261E+03  0.92192141792E+02 0.  0.
        -13    1    3    3    0    0 -0.12392756406E+03  0.16104117892E+02 -0.13675075246E+02  0.12571551786E+03  0.00000000000E+00 0.  1.
         13    1    3    3    0    0 -0.92680447628E+01  0.30412096668E+02  0.27010620760E+02  0.41717693025E+02  0.00000000000E+00 0. -1.
        -13    1    4    4    0    0  0.96685137557E+02 -0.10086131319E+02  0.63998389442E+01  0.97420243316E+02  0.00000000000E+00 0. -1.
         13    1    4    4    0    0 -0.20601542499E+02 -0.12629197626E+02  0.58827397334E+01  0.24870199291E+02  0.00000000000E+00 0.  1.
          1    1    1    2  501    0  0.57112013764E+02 -0.23800885615E+02 -0.81554814422E+02  0.10236919472E+03  0.00000000000E+00 0. -1.
<scales pt_clust_5="13000.00000" pt_clust_6="13000.00000" pt_clust_7="13000.00000" pt_clust_8="13000.00000" pt_clust_9="13000.00000"></scales>
<clustering>
<clus scale="   89.170">  5  6 -1 -1</clus>
<clus scale="   92.192">  7  8 -1 -1</clus>
<clus scale="   61.873">  7  9 -1 -1</clus>
<clus scale="  166.901">  1  5  2 -1</clus>
<clus scale="  213.713">  2  5  1 -1</clus>
</clustering>
</event>
<event>
 9    1  0.6399313E-006  0.2431009E+03  0.7546771E-02  0.1160263E+00
          2   -1    0    0  502    0 -0.00000000000E+00  0.00000000000E+00  0.87843020050E+02  0.87843020050E+02  0.00000000000E+00 0. -1.
         21   -1    0    0  501  502  0.00000000000E+00 -0.00000000000E+00 -0.46654501156E+03  0.46654501156E+03  0.00000000000E+00 0.  1.
         23    2    1    2    0    0  0.73851749030E+01 -0.12690532190E+01  0.18284053155E+02  0.88881916382E+02  0.86657585678E+02 0.  0.
         23    2    1    2    0    0  0.23290522867E+02  0.94470290515E+02 -0.27593107058E+03  0.30968000761E+03  0.10147249456E+03 0.  0.
        -13    1    3    3    0    0 -0.37924838195E+01  0.23227017238E+02 -0.27235409002E+02  0.35995065867E+02  0.00000000000E+00 0. -1.
         13    1    3    3    0    0  0.11177658722E+02 -0.24496070457E+02  0.45519462156E+02  0.52886850515E+02  0.00000000000E+00 0.  1.
        -13    1    4    4    0    0 -0.33004329790E+02  0.20913741574E+02 -0.13881762941E+03  0.14421166598E+03  0.00000000000E+00 0.  1.
         13    1    4    4    0    0  0.56294852657E+02  0.73556548940E+02 -0.13711344118E+03  0.16546834162E+03  0.00000000000E+00 0. -1.
          2    1    1    2  501    0 -0.30675697770E+02 -0.93201237296E+02 -0.12105497408E+03  0.15582610762E+03  0.00000000000E+00 0. -1.
<scales pt_clust_5="13000.00000" pt_clust_6="13000.00000" pt_clust_7="13000.00000" pt_clust_8="13000.00000" pt_clust_9="13000.00000"></scales>
<clustering>
<clus scale="   86.658">  5  6 -1 -1</clus>
<clus scale="   86.981">  1  5  2 -1</clus>
<clus scale="  101.472">  7  8 -1 -1</clus>
<clus scale="   97.632">  7  9 -1 -1</clus>
<clus scale="  243.101">  2  5  1 -1</clus>
</clustering>
</event>
<event>
 9    1  0.6399313E-006  0.2368495E+03  0.7546771E-02  0.1160956E+00
          1   -1    0    0  502    0 -0.00000000000E+00  0.00000000000E+00  0.23535995289E+03  0.23535995289E+03  0.00000000000E+00 0. -1.
         21   -1    0    0  501  502  0.00000000000E+00 -0.00000000000E+00 -0.21434855064E+03  0.21434855064E+03  0.00000000000E+00 0. -1.
         23    2    1    2    0    0  0.13592571102E+02  0.17481910753E+02  0.15281528357E+03  0.17865509106E+03  0.89859643198E+02 0.  0.
         23    2    1    2    0    0  0.36003436739E+02 -0.23404518928E+02  0.30467132662E+02  0.10126906908E+03  0.86505255430E+02 0.  0.
        -11    1    4    4    0    0 -0.13565125919E+02 -0.33254638221E+02  0.35478119595E+02  0.50483468328E+02  0.00000000000E+00 0.  1.
         11    1    4    4    0    0  0.49568562658E+02  0.98501192927E+01 -0.50109869328E+01  0.50785600756E+02  0.00000000000E+00 0. -1.
        -11    1    3    3    0    0  0.97725624158E+01 -0.30502341450E+02  0.20934682224E+02  0.38264300985E+02  0.00000000000E+00 0.  1.
         11    1    3    3    0    0  0.38200086862E+01  0.47984252203E+02  0.13188060135E+03  0.14039079007E+03  0.00000000000E+00 0. -1.
          1    1    1    2  501    0 -0.49596007841E+02  0.59226081755E+01 -0.16227101398E+03  0.16978434339E+03  0.00000000000E+00 0. -1.
<scales pt_clust_5="13000.00000" pt_clust_6="13000.00000" pt_clust_7="13000.00000" pt_clust_8="13000.00000" pt_clust_9="13000.00000"></scales>
<clustering>
<clus scale="   86.505">  5  6 -1 -1</clus>
<clus scale="   49.948">  5  9 -1 -1</clus>
<clus scale="   89.860">  7  8 -1 -1</clus>
<clus scale="   92.548">  1  7  2 -1</clus>
<clus scale="  236.850">  2  5  1 -1</clus>
</clustering>
</event>
<event>
 9    1  0.6399313E-006  0.1718807E+03  0.7546771E-02  0.1191700E+00
         21   -1    0    0  501  502  0.00000000000E+00  0.00000000000E+00  0.22481549792E+03  0.22481549792E+03  0.00000000000E+00 0.  1.
          1   -1    0    0  502    0 -0.00000000000E+00 -0.00000000000E+00 -0.95896968423E+02  0.95896968423E+02  0.00000000000E+00 0. -1.
         23    2    1    2    0    0  0.76529127616E+02 -0.24787056718E+02  0.66300811516E+02  0.13778092716E+03  0.90092623048E+02 0.  0.
         23    2    1    2    0    0 -0.91751131846E+02 -0.86648888042E+00  0.78783429470E+02  0.14900302547E+03  0.87040518393E+02 0.  0.
        -13    1    3    3    0    0  0.27919403687E+02  0.18281541455E+01 -0.20577815855E+02  0.34731567128E+02  0.00000000000E+00 0. -1.
         13    1    3    3    0    0  0.48609723929E+02 -0.26615210863E+02  0.86878627371E+02  0.10304936003E+03  0.00000000000E+00 0.  1.
        -13    1    4    4    0    0 -0.70991638699E+02 -0.40272683145E+02  0.45908431007E+02  0.93644464921E+02  0.00000000000E+00 0.  1.
         13    1    4    4    0    0 -0.20759493147E+02  0.39406194264E+02  0.32874998463E+02  0.55358560549E+02  0.00000000000E+00 0. -1.
          1    1    1    2  501    0  0.15222004230E+02  0.25653545598E+02 -0.16165711491E+02  0.33928513709E+02  0.00000000000E+00 0. -1.
<scales pt_clust_5="13000.00000" pt_clust_6="13000.00000" pt_clust_7="13000.00000" pt_clust_8="13000.00000" pt_clust_9="13000.00000"></scales>
<clustering>
<clus scale="   87.041">  7  8 -1 -1</clus>
<clus scale="   29.830">  7  9 -1 -1</clus>
<clus scale="   90.093">  5  6 -1 -1</clus>
<clus scale="  120.780">  2  5  1 -1</clus>
<clus scale="  171.881">  1  5  2 -1</clus>
</clustering>
</event>
<event>
 9    1  0.6399313E-006  0.4046198E+03  0.7546771E-02  0.1055363E+00
         21   -1    0    0  501  502  0.00000000000E+00  0.00000000000E+00  0.83542702739E+03  0.83542702739E+03  0.00000000000E+00 0. -1.
          3   -1    0    0  502    0 -0.00000000000E+00 -0.00000000000E+00 -0.16834071704E+03  0.16834071704E+03  0.00000000000E+00 0. -1.
         23    2    1    2    0    0 -0.24565756125E+03  0.90083299002E+02  0.76661919386E+02  0.28800371499E+03  0.92770964213E+02 0.  0.
         23    2    1    2    0    0  0.53060417416E+02 -0.92080372003E+02  0.60106974611E+02  0.15155288972E+03  0.89784337054E+02 0.  0.
        -11    1    3    3    0    0 -0.88659455463E+02  0.81333303952E+02  0.30345314074E+02  0.12408240593E+03  0.00000000000E+00 0.  1.
         11    1    3    3    0    0 -0.15699810579E+03  0.87499950509E+01  0.46316605312E+02  0.16392130906E+03  0.00000000000E+00 0. -1.
        -13    1    4    4    0    0  0.14945643151E+02  0.17153429584E+02  0.45055607473E+01  0.23192940161E+02  0.00000000000E+00 0.  1.
         13    1    4    4    0    0  0.38114774265E+02 -0.10923380159E+03  0.55601413863E+02  0.12835994956E+03  0.00000000000E+00 0. -1.
          3    1    1    2  501    0  0.19259714384E+03  0.19970730007E+01  0.53031741635E+03  0.56421113973E+03  0.00000000000E+00 0. -1.
<scales pt_clust_5="13000.00000" pt_clust_6="13000.00000" pt_clust_7="13000.00000" pt_clust_8="13000.00000" pt_clust_9="13000.00000"></scales>
<clustering>
<clus scale="   89.784">  7  8 -1 -1</clus>
<clus scale="   92.771">  5  6 -1 -1</clus>
<clus scale="  192.608">  7  9 -1 -1</clus>
<clus scale="  277.613">  2  5  1 -1</clus>
<clus scale="  404.620">  1  5  2 -1</clus>
</clustering>
</event>
<event>
 9    1  0.6399313E-006  0.3116657E+03  0.7546771E-02  0.1110373E+00
          1   -1    0    0  502    0 -0.00000000000E+00  0.00000000000E+00  0.67441832617E+03  0.67441832617E+03  0.00000000000E+00 0. -1.
         21   -1    0    0  501  502  0.00000000000E+00 -0.00000000000E+00 -0.75806707691E+02  0.75806707691E+02  0.00000000000E+00 0. -1.
         23    2    1    2    0    0  0.10422215219E+03 -0.18769861464E+02  0.21411350975E+03  0.25527624445E+03  0.90037776599E+02 0.  0.
         23    2    1    2    0    0 -0.23089116895E+01 -0.75794457775E+02  0.31983552802E+03  0.34161918233E+03  0.93052511270E+02 0.  0.
        -11    1    3    3    0    0  0.36277102153E+02 -0.23248992629E+01  0.74469023803E+01  0.37106463753E+02  0.00000000000E+00 0.  1.
         11    1    3    3    0    0  0.67945050039E+02 -0.16444962201E+02  0.20666660737E+03  0.21816978069E+03  0.00000000000E+00 0. -1.
        -13    1    4    4    0    0 -0.33276653284E+02 -0.81387802191E+02  0.25028287534E+03  0.26527877353E+03  0.00000000000E+00 0. -1.
         13    1    4    4    0    0  0.30967741595E+02  0.55933444167E+01  0.69552652678E+02  0.76340408800E+02  0.00000000000E+00 0.  1.
          1    1    1    2  501    0 -0.10191324050E+03  0.94564319239E+02  0.64662580712E+02  0.15332960708E+03  0.00000000000E+00 0. -1.
<scales pt_clust_5="13000.00000" pt_clust_6="13000.00000" pt_clust_7="13000.00000" pt_clust_8="13000.00000" pt_clust_9="13000.00000"></scales>
<clustering>
<clus scale="   90.038">  5  6 -1 -1</clus>
<clus scale="   93.053">  7  8 -1 -1</clus>
<clus scale="  139.001">  1  5  2 -1</clus>
<clus scale="  117.780">  7  9 -1 -1</clus>
<clus scale="  311.666">  2  5  1 -1</clus>
</clustering>
</event>
<event>
 9    1  0.6399313E-006  0.3993050E+03  0.7546771E-02  0.1096859E+00
         -3   -1    0    0    0  501 -0.00000000000E+00  0.00000000000E+00  0.39446338656E+03  0.39446338656E+03  0.00000000000E+00 0.  1.
         21   -1    0    0  501  502  0.00000000000E+00 -0.00000000000E+00 -0.17272674765E+03  0.17272674765E+03  0.00000000000E+00 0.  1.
         23    2    1    2    0    0  0.13272936293E+02  0.10352060327E+02  0.12527094766E+03  0.15639808818E+03  0.92109802226E+02 0.  0.
         23    2    1    2    0    0 -0.89990419769E+02  0.11827145549E+02  0.22505008753E+03  0.25942680428E+03  0.91741854454E+02 0.  0.
        -11    1    4    4    0    0 -0.11195819150E+02 -0.35441021991E+02  0.64416234588E+02  0.74369776688E+02  0.00000000000E+00 0. -1.
         11    1    4    4    0    0 -0.78794600619E+02  0.47268167540E+02  0.16063385294E+03  0.18505702759E+03  0.00000000000E+00 0.  1.
        -13    1    3    3    0    0 -0.39708535572E+02  0.30625415622E+00  0.53192701559E+02  0.66380155830E+02  0.00000000000E+00 0.  1.
         13    1    3    3    0    0  0.52981471865E+02  0.10045806171E+02  0.72078246102E+02  0.90017932345E+02  0.00000000000E+00 0. -1.
         -3    1    1    2    0  502  0.76717483476E+02 -0.22179205876E+02 -0.12858439628E+03  0.15136524175E+03  0.00000000000E+00 0.  1.
<scales pt_clust_5="13000.00000" pt_clust_6="13000.00000" pt_clust_7="13000.00000" pt_clust_8="13000.00000" pt_clust_9="13000.00000"></scales>
<clustering>
<clus scale="   91.742">  5  6 -1 -1</clus>
<clus scale="   79.859">  5  9 -1 -1</clus>
<clus scale="   92.110">  7  8 -1 -1</clus>
<clus scale="   93.635">  1  7  2 -1</clus>
<clus scale="  399.305">  2  5  1 -1</clus>
</clustering>
</event>
<event>
 9    1  0.6399313E-006  0.2856363E+03  0.7546771E-02  0.1137064E+00
         21   -1    0    0  501  502  0.00000000000E+00  0.00000000000E+00  0.32999379374E+02  0.32999379374E+02  0.00000000000E+00 0.  1.
          2   -1    0    0  502    0 -0.00000000000E+00 -0.00000000000E+00 -0.11191546693E+04  0.11191546693E+04  0.00000000000E+00 0. -1.
         23    2    1    2    0    0  0.14474090440E+02  0.63338643197E+01 -0.36032681518E+03  0.37214437879E+03  0.91686464661E+02 0.  0.
         23    2    1    2    0    0 -0.10874879818E+03  0.56539132055E+02 -0.27645890370E+03  0.31657278574E+03  0.93626004281E+02 0.  0.
        -13    1    3    3    0    0  0.43946297989E+02  0.29107063590E+02 -0.25594665956E+03  0.26131817923E+03  0.00000000000E+00 0. -1.
         13    1    3    3    0    0 -0.29472207549E+02 -0.22773199270E+02 -0.10438015562E+03  0.11082619956E+03  0.00000000000E+00 0.  1.
        -13    1    4    4    0    0 -0.89349614495E+02  0.31547948240E+02 -0.10181308330E+03  0.13908461662E+03  0.00000000000E+00 0.  1.
         13    1    4    4    0    0 -0.19399183687E+02  0.24991183814E+02 -0.17464582040E+03  0.17748816912E+03  0.00000000000E+00 0. -1.
          2    1    1    2  501    0  0.94274707742E+02 -0.62872996375E+02 -0.44936957101E+03  0.46343688410E+03  0.00000000000E+00 0. -1.
<scales pt_clust_5="13000.00000" pt_clust_6="13000.00000" pt_clust_7="13000.00000" pt_clust_8="13000.00000" pt_clust_9="13000.00000"></scales>
<clustering>
<clus scale="   91.686">  5  6 -1 -1</clus>
<clus scale="   93.038">  2  5  1 -1</clus>
<clus scale="   93.626">  7  8 -1 -1</clus>
<clus scale="  118.760">  7  9 -1 -1</clus>
<clus scale="  285.636">  1  5  2 -1</clus>
</clustering>
</event>
<event>
 9    1  0.6399313E-006  0.2617654E+03  0.7546771E-02  0.1113140E+00
         21   -1    0    0  501  502  0.00000000000E+00  0.00000000000E+00  0.14683691244E+03  0.14683691244E+03  0.00000000000E+00 0. -1.
         -2   -1    0    0    0  501 -0.00000000000E+00 -0.00000000000E+00 -0.42393463009E+03  0.42393463009E+03  0.00000000000E+00 0.  1.
         23    2    1    2    0    0 -0.11369483000E+03  0.16226956838E+03 -0.50259025394E+02  0.22439467986E+03  0.92569301197E+02 0.  0.
         23    2    1    2    0    0  0.92592785648E+02 -0.51915108014E+02 -0.71728713448E+02  0.15485007937E+03  0.86976642576E+02 0.  0.
        -11    1    3    3    0    0 -0.86417213079E+02  0.44554395422E+02 -0.30904229059E+02  0.10202009724E+03  0.00000000000E+00 0.  1.
         11    1    3    3    0    0 -0.27277616924E+02  0.11771517295E+03 -0.19354796335E+02  0.12237458261E+03  0.00000000000E+00 0. -1.
        -11    1    4    4    0    0 -0.74647759435E+01 -0.31050065604E+02 -0.31946987527E+02  0.45171223871E+02  0.00000000000E+00 0.  1.
         11    1    4    4    0    0  0.10005756159E+03 -0.20865042410E+02 -0.39781725921E+02  0.10967885550E+03  0.00000000000E+00 0. -1.
         -2    1    1    2    0  502  0.21102044355E+02 -0.11035446036E+03 -0.15510997880E+03  0.19152678330E+03  0.00000000000E+00 0.  1.
<scales pt_clust_5="13000.00000" pt_clust_6="13000.00000" pt_clust_7="13000.00000" pt_clust_8="13000.00000" pt_clust_9="13000.00000"></scales>
<clustering>
<clus scale="   86.977">  7  8 -1 -1</clus>
<clus scale="   92.569">  5  6 -1 -1</clus>
<clus scale="  112.354">  7  9 -1 -1</clus>
<clus scale="  218.694">  2  5  1 -1</clus>
<clus scale="  261.765">  1  5  2 -1</clus>
</clustering>
</event>
<event>
 9    1  0.6399313E-006  0.1422679E+03  0.7546771E-02  0.1216781E+00
         21   -1    0    0  501  502  0.00000000000E+00  0.00000000000E+00  0.48542872899E+03  0.48542872899E+03  0.00000000000E+00 0.  1.
         -1   -1    0    0    0  501 -0.00000000000E+00 -0.00000000000E+00 -0.16658893688E+03  0.16658893688E+03  0.00000000000E+00 0.  1.
         23    2    1    2    0    0 -0.78644383599E+02 -0.32624762549E+02 -0.13089979105E+03  0.18031239789E+03  0.90158146237E+02 0.  0.
         23    2    1    2    0    0  0.50710384073E+02  0.42845426226E+02  0.36560926930E+03  0.38247141788E+03  0.90592351207E+02 0.  0.
        -13    1    4    4    0    0 -0.26143132186E+02  0.49527919241E+01  0.83772210603E+02  0.87896397979E+02  0.00000000000E+00 0.  1.
         13    1    4    4    0    0  0.76853516260E+02  0.37892634302E+02  0.28183705869E+03  0.29457501990E+03  0.00000000000E+00 0. -1.
        -13    1    3    3    0    0 -0.52243717200E+02 -0.39827820334E+02 -0.13730118264E+03  0.15220800247E+03  0.00000000000E+00 0.  1.
         13    1    3    3    0    0 -0.26400666399E+02  0.72030577846E+01  0.64013915952E+01  0.28104395423E+02  0.00000000000E+00 0. -1.
         -1    1    1    2    0  502  0.27933999526E+02 -0.10220663677E+02  0.84130313854E+02  0.89233850106E+02  0.00000000000E+00 0.  1.
<scales pt_clust_5="13000.00000" pt_clust_6="13000.00000" pt_clust_7="13000.00000" pt_clust_8="13000.00000" pt_clust_9="13000.00000"></scales>
<clustering>
<clus scale="   90.158">  7  8 -1 -1</clus>
<clus scale="   90.592">  5  6 -1 -1</clus>
<clus scale="   29.745">  5  9 -1 -1</clus>
<clus scale="  124.007">  2  7  1 -1</clus>
<clus scale="  142.268">  1  5  2 -1</clus>
</clustering>
</event>
<event>
 9    1  0.1164977E-005  0.5012115E+03  0.7546771E-02  0.1020103E+00
          2   -1    0    0  502    0 -0.00000000000E+00  0.00000000000E+00  0.46502246504E+03  0.46502246504E+03  0.00000000000E+00 0. -1.
         21   -1    0    0  501  502  0.00000000000E+00 -0.00000000000E+00 -0.52049990506E+03  0.52049990506E+03  0.00000000000E+00 0. -1.
         23    2    1    2    0    0 -0.37224971119E+02  0.40053974032E+03 -0.21118552201E+03  0.46068145901E+03  0.76225323339E+02 0.  0.
         23    2    1    2    0    0  0.39391001884E+02 -0.16182253503E+02  0.88306656547E+02  0.13461236073E+03  0.92243729940E+02 0.  0.
        -11    1    3    3    0    0 -0.56036095907E+02  0.35469802415E+03 -0.19455151471E+03  0.40841281108E+03  0.00000000000E+00 0. -1.
         11    1    3    3    0    0  0.18811124788E+02  0.45841716177E+02 -0.16634007295E+02  0.52268647931E+02  0.00000000000E+00 0.  1.
        -11    1    4    4    0    0 -0.30234438765E+02 -0.30445767553E+01  0.31806524768E+02  0.43989154946E+02  0.00000000000E+00 0.  1.
         11    1    4    4    0    0  0.69625440648E+02 -0.13137676748E+02  0.56500131779E+02  0.90623205785E+02  0.00000000000E+00 0. -1.
          2    1    1    2  501    0 -0.21660307640E+01 -0.38435748682E+03  0.67401425443E+02  0.39022855036E+03  0.00000000000E+00 0. -1.
<scales pt_clust_5="13000.00000" pt_clust_6="13000.00000" pt_clust_7="13000.00000" pt_clust_8="13000.00000" pt_clust_9="13000.00000"></scales>
<clustering>
<clus scale="   76.225">  5  6 -1 -1</clus>
<clus scale="   92.244">  7  8 -1 -1</clus>
<clus scale="  384.364">  7  9 -1 -1</clus>
<clus scale="  409.424">  1  5  2 -1</clus>
<clus scale="  501.212">  2  5  1 -1</clus>
</clustering>
</event>
<event>
 9    1  0.6399313E-006  0.2694950E+03  0.7546771E-02  0.1133375E+00
         -1   -1    0    0    0  501 -0.00000000000E+00  0.00000000000E+00  0.94586589577E+02  0.94586589577E+02  0.00000000000E+00 0.  1.
         21   -1    0    0  501  502  0.00000000000E+00 -0.00000000000E+00 -0.80190208842E+03  0.80190208842E+03  0.00000000000E+00 0.  1.
         23    2    1    2    0    0  0.22067279970E+02 -0.74124045643E+02  0.18200795320E+02  0.12253683570E+03  0.93288092309E+02 0.  0.
         23    2    1    2    0    0  0.73097143159E+02  0.29449596284E+02 -0.16229836970E+03  0.20100637866E+03  0.88613387234E+02 0.  0.
        -11    1    4    4    0    0  0.38620492801E+02  0.57459405579E+02 -0.12547450039E+03  0.14330727826E+03  0.00000000000E+00 0. -1.
         11    1    4    4    0    0  0.34476650358E+02 -0.28009809295E+02 -0.36823869309E+02  0.57699100405E+02  0.00000000000E+00 0.  1.
        -11    1    3    3    0    0 -0.11265164571E+02 -0.17528756698E+02 -0.33156610319E+02  0.39160210061E+02  0.00000000000E+00 0. -1.
         11    1    3    3    0    0  0.33332444541E+02 -0.56595288945E+02  0.51357405639E+02  0.83376625644E+02  0.00000000000E+00 0.  1.
         -1    1    1    2    0  502 -0.95164423129E+02  0.44674449359E+02 -0.56321792447E+03  0.57294546363E+03  0.00000000000E+00 0.  1.
<scales pt_clust_5="13000.00000" pt_clust_6="13000.00000" pt_clust_7="13000.00000" pt_clust_8="13000.00000" pt_clust_9="13000.00000"></scales>
<clustering>
<clus scale="   88.613">  5  6 -1 -1</clus>
<clus scale="   93.288">  7  8 -1 -1</clus>
<clus scale="  105.129">  5  9 -1 -1</clus>
<clus scale="  121.178">  1  7  2 -1</clus>
<clus scale="  269.495">  2  5  1 -1</clus>
</clustering>
</event>
<event>
 9    1  0.6399313E-006  0.2301248E+03  0.7546771E-02  0.1139724E+00
         21   -1    0    0  501  502  0.00000000000E+00  0.00000000000E+00  0.39639351613E+02  0.39639351613E+02  0.00000000000E+00 0. -1.
          2   -1    0    0  502    0 -0.00000000000E+00 -0.00000000000E+00 -0.12681891909E+04  0.12681891909E+04  0.00000000000E+00 0. -1.
         23    2    1    2    0    0  0.13775252934E+03 -0.11473946818E+02 -0.83865237766E+03  0.85508420925E+03  0.93401196795E+02 0.  0.
         23    2    1    2    0    0 -0.68416805478E+02 -0.11849291979E+02 -0.35269809014E+03  0.37067601229E+03  0.90462690115E+02 0.  0.
        -13    1    3    3    0    0  0.95003952622E+02  0.36416587657E+02 -0.47028586216E+03  0.48116599113E+03  0.00000000000E+00 0. -1.
         13    1    3    3    0    0  0.42748576714E+02 -0.47890534475E+02 -0.36836651550E+03  0.37391821813E+03  0.00000000000E+00 0.  1.
        -13    1    4    4    0    0 -0.30998662379E+02  0.37134214506E+02 -0.10807478905E+03  0.11840619487E+03  0.00000000000E+00 0. -1.
         13    1    4    4    0    0 -0.37418143099E+02 -0.48983506485E+02 -0.24462330109E+03  0.25226981741E+03  0.00000000000E+00 0.  1.
          2    1    1    2  501    0 -0.69335723858E+02  0.23323238797E+02 -0.37199371508E+02  0.82068320998E+02  0.00000000000E+00 0. -1.
<scales pt_clust_5="13000.00000" pt_clust_6="13000.00000" pt_clust_7="13000.00000" pt_clust_8="13000.00000" pt_clust_9="13000.00000"></scales>
<clustering>
<clus scale="   90.463">  7  8 -1 -1</clus>
<clus scale="   73.153">  7  9 -1 -1</clus>
<clus scale="   93.401">  5  6 -1 -1</clus>
<clus scale="  166.827">  2  5  1 -1</clus>
<clus scale="  230.125">  1  5  2 -1</clus>
</clustering>
</event>
<event>
 9    1  0.6399313E-006  0.3163087E+03  0.7546771E-02  0.1112130E+00
          2   -1    0    0  502    0 -0.00000000000E+00  0.00000000000E+00  0.41714681492E+03  0.41714681492E+03  0.00000000000E+00 0. -1.
         21   -1    0    0  501  502  0.00000000000E+00 -0.00000000000E+00 -0.38418892817E+03  0.38418892817E+03  0.00000000000E+00 0.  1.
         23    2    1    2    0    0 -0.86423744888E+02 -0.14441099347E+02  0.33847406209E+03  0.36157290362E+03  0.92155655765E+02 0.  0.
         23    2    1    2    0    0  0.16803481684E+03  0.75394093227E+02 -0.25195585362E+03  0.32467877198E+03  0.89524208103E+02 0.  0.
        -11    1    3    3    0    0 -0.85975145071E+02 -0.37460886579E+02  0.31511463572E+03  0.32877389988E+03  0.00000000000E+00 0. -1.
         11    1    3    3    0    0 -0.44859981727E+00  0.23019787232E+02  0.23359426367E+02  0.32799003738E+02  0.00000000000E+00 0.  1.
        -13    1    4    4    0    0  0.15262383578E+03  0.40258787394E+02 -0.15866438684E+03  0.22380615019E+03  0.00000000000E+00 0. -1.
         13    1    4    4    0    0  0.15410981061E+02  0.35135305833E+02 -0.93291466779E+02  0.10087262179E+03  0.00000000000E+00 0.  1.
          2    1    1    2  501    0 -0.81611071951E+02 -0.60952993880E+02 -0.53560321723E+02  0.11508406749E+03  0.00000000000E+00 0. -1.
<scales pt_clust_5="13000.00000" pt_clust_6="13000.00000" pt_clust_7="13000.00000" pt_clust_8="13000.00000" pt_clust_9="13000.00000"></scales>
<clustering>
<clus scale="   89.524">  7  8 -1 -1</clus>
<clus scale="   92.156">  5  6 -1 -1</clus>
<clus scale="  101.861">  7  9 -1 -1</clus>
<clus scale="  127.162">  1  5  2 -1</clus>
<clus scale="  316.309">  2  5  1 -1</clus>
</clustering>
</event>
<event>
 9    1  0.6399313E-006  0.1413197E+03  0.7546771E-02  0.1230425E+00
          1   -1    0    0  502    0 -0.00000000000E+00  0.00000000000E+00  0.27419141895E+03  0.27419141895E+03  0.00000000000E+00 0. -1.
         21   -1    0    0  501  502  0.00000000000E+00 -0.00000000000E+00 -0.93708434898E+02  0.93708434898E+02  0.00000000000E+00 0. -1.
         23    2    1    2    0    0  0.37345905832E+01  0.17348154643E+02  0.20356026033E+03  0.22470834427E+03  0.93499490718E+02 0.  0.
         23    2    1    2    0    0  0.32376874254E+02 -0.31044782789E+02 -0.24717738015E+02  0.10453498839E+03  0.91129340501E+02 0.  0.
        -11    1    3    3    0    0  0.18358264058E+02  0.43399284068E+02  0.18164338708E+03  0.18765618505E+03  0.00000000000E+00 0. -1.
         11    1    3    3    0    0 -0.14623673475E+02 -0.26051129425E+02  0.21916873248E+02  0.37052159225E+02  0.00000000000E+00 0.  1.
        -11    1    4    4    0    0 -0.31378886131E+02 -0.14240359689E+02 -0.10255196963E+01  0.34474251689E+02  0.00000000000E+00 0.  1.
         11    1    4    4    0    0  0.63755760385E+02 -0.16804423100E+02 -0.23692218319E+02  0.70060736700E+02  0.00000000000E+00 0. -1.
          1    1    1    2  501    0 -0.36111464837E+02  0.13696628146E+02  0.16404617366E+01  0.38656521183E+02  0.00000000000E+00 0. -1.
<scales pt_clust_5="13000.00000" pt_clust_6="13000.00000" pt_clust_7="13000.00000" pt_clust_8="13000.00000" pt_clust_9="13000.00000"></scales>
<clustering>
<clus scale="   91.129">  7  8 -1 -1</clus>
<clus scale="   38.622">  7  9 -1 -1</clus>
<clus scale="   93.499">  5  6 -1 -1</clus>
<clus scale="   95.169">  1  5  2 -1</clus>
<clus scale="  141.320">  2  5  1 -1</clus>
</clustering>
</event>
<event>
 9    1  0.6399313E-006  0.2596333E+03  0.7546771E-02  0.1128214E+00
         -1   -1    0    0    0  501 -0.00000000000E+00  0.00000000000E+00  0.18027786362E+03  0.18027786362E+03  0.00000000000E+00 0.  1.
         21   -1    0    0  501  502  0.00000000000E+00 -0.00000000000E+00 -0.31251087793E+03  0.31251087793E+03  0.00000000000E+00 0.  1.
         23    2    1    2    0    0 -0.44188549864E+02  0.11618397250E+03  0.64760366748E+02  0.16688106013E+03  0.90576154278E+02 0.  0.
         23    2    1    2    0    0  0.61742256575E+02 -0.77323705474E+02 -0.23420702093E+03  0.26931167480E+03  0.88796327933E+02 0.  0.
        -11    1    4    4    0    0  0.36971131670E+02 -0.38256900016E+02 -0.32445141078E+02  0.62314863037E+02  0.00000000000E+00 0. -1.
         11    1    4    4    0    0  0.24771124905E+02 -0.39066805458E+02 -0.20176187985E+03  0.20699681176E+03  0.00000000000E+00 0.  1.
        -13    1    3    3    0    0 -0.41831522879E+01  0.95740479683E+02  0.73922523537E+02  0.12103006940E+03  0.00000000000E+00 0.  1.
         13    1    3    3    0    0 -0.40005397576E+02  0.20443492815E+02 -0.91621567897E+01  0.45850990728E+02  0.00000000000E+00 0. -1.
         -1    1    1    2    0  502 -0.17553706710E+02 -0.38860267025E+02  0.37213639876E+02  0.56596006620E+02  0.00000000000E+00 0.  1.
<scales pt_clust_5="13000.00000" pt_clust_6="13000.00000" pt_clust_7="13000.00000" pt_clust_8="13000.00000" pt_clust_9="13000.00000"></scales>
<clustering>
<clus scale="   88.796">  5  6 -1 -1</clus>
<clus scale="   42.641">  5  9 -1 -1</clus>
<clus scale="   90.576">  7  8 -1 -1</clus>
<clus scale="  153.803">  1  7  2 -1</clus>
<clus scale="  259.633">  2  5  1 -1</clus>
</clustering>
</event>
<event>
 9    1  0.6399313E-006  0.1973757E+03  0.7546771E-02  0.1172180E+00
         21   -1    0    0  501  502  0.00000000000E+00  0.00000000000E+00  0.13411980067E+03  0.13411980067E+03  0.00000000000E+00 0.  1.
         -3   -1    0    0    0  501 -0.00000000000E+00 -0.00000000000E+00 -0.19221571048E+03  0.19221571048E+03  0.00000000000E+00 0.  1.
         23    2    1    2    0    0  0.18400088564E+02  0.81773322946E+02 -0.28376666572E+02  0.12673486017E+03  0.90725134175E+02 0.  0.
         23    2    1    2    0    0 -0.57391767157E+02 -0.29244836791E+02 -0.60558888462E+02  0.12727723448E+03  0.91558942919E+02 0.  0.
        -13    1    3    3    0    0 -0.28144549359E+02  0.10116915198E+02  0.12004925334E+02  0.32227098287E+02  0.00000000000E+00 0. -1.
         13    1    3    3    0    0  0.46544637922E+02  0.71656407748E+02 -0.40381591906E+02  0.94507761880E+02  0.00000000000E+00 0.  1.
        -13    1    4    4    0    0  0.20305869797E+02  0.30993756189E+01 -0.32716509291E+02  0.38630356685E+02  0.00000000000E+00 0. -1.
         13    1    4    4    0    0 -0.77697636953E+02 -0.32344212410E+02 -0.27842379171E+02  0.88646877793E+02  0.00000000000E+00 0.  1.
         -3    1    1    2    0  502  0.38991678593E+02 -0.52528486155E+02  0.30839645227E+02  0.72323416505E+02  0.00000000000E+00 0.  1.
<scales pt_clust_5="13000.00000" pt_clust_6="13000.00000" pt_clust_7="13000.00000" pt_clust_8="13000.00000" pt_clust_9="13000.00000"></scales>
<clustering>
<clus scale="   90.725">  5  6 -1 -1</clus>
<clus scale="   91.559">  7  8 -1 -1</clus>
<clus scale="   65.419">  7  9 -1 -1</clus>
<clus scale="  123.517">  2  5  1 -1</clus>
<clus scale="  197.376">  1  5  2 -1</clus>
</clustering>
</event>
<event>
 9    1  0.6399313E-006  0.1940788E+03  0.7546771E-02  0.1179181E+00
         21   -1    0    0  501  502  0.00000000000E+00  0.00000000000E+00  0.33590726270E+02  0.33590726270E+02  0.00000000000E+00 0.  1.
          3   -1    0    0  502    0 -0.00000000000E+00 -0.00000000000E+00 -0.70138210540E+03  0.70138210540E+03  0.00000000000E+00 0. -1.
         23    2    1    2    0    0 -0.45328863125E+02  0.52669459181E+02 -0.28466498463E+03  0.30549360815E+03  0.86391049226E+02 0.  0.
         23    2    1    2    0    0  0.36962651012E+02  0.27059721258E+01 -0.98307412221E+02  0.13920644738E+03  0.91326490351E+02 0.  0.
        -11    1    3    3    0    0  0.14485561391E+02  0.43549113796E+02 -0.16688921659E+03  0.17308485611E+03  0.00000000000E+00 0.  1.
         11    1    3    3    0    0 -0.59814424517E+02  0.91203453857E+01 -0.11777576804E+03  0.13240875204E+03  0.00000000000E+00 0. -1.
        -11    1    4    4    0    0 -0.72025808458E+01  0.23127049560E+02 -0.85537100341E+02  0.88900692500E+02  0.00000000000E+00 0.  1.
         11    1    4    4    0    0  0.44165231858E+02 -0.20421077434E+02 -0.12770311880E+02  0.50305754881E+02  0.00000000000E+00 0. -1.
          3    1    1    2  501    0  0.83662121128E+01 -0.55375431307E+02 -0.28481898229E+03  0.29027277614E+03  0.00000000000E+00 0. -1.
<scales pt_clust_5="13000.00000" pt_clust_6="13000.00000" pt_clust_7="13000.00000" pt_clust_8="13000.00000" pt_clust_9="13000.00000"></scales>
<clustering>
<clus scale="   86.391">  5  6 -1 -1</clus>
<clus scale="   91.326">  7  8 -1 -1</clus>
<clus scale="   56.004">  7  9 -1 -1</clus>
<clus scale="  110.870">  2  5  1 -1</clus>
<clus scale="  194.079">  1  5  2 -1</clus>
</clustering>
</event>
<event>
 9    1  0.6399313E-006  0.3039163E+03  0.7546771E-02  0.1102930E+00
         21   -1    0    0  501  502  0.00000000000E+00  0.00000000000E+00  0.40994471547E+03  0.40994471547E+03  0.00000000000E+00 0. -1.
          1   -1    0    0  502    0 -0.00000000000E+00 -0.00000000000E+00 -0.14932296666E+03  0.14932296666E+03  0.00000000000E+00 0. -1.
         23    2    1    2    0    0  0.78320403762E+02 -0.13668497669E+03  0.45837279633E+02  0.18711519621E+03  0.89967616119E+02 0.  0.
         23    2    1    2    0    0  0.73479177440E+02  0.43032350281E+02  0.85436017022E+02  0.15182330183E+03  0.92195603402E+02 0.  0.
        -11    1    4    4    0    0  0.91576969770E+01 -0.26816326367E+02  0.32471731220E+02  0.43097472109E+02  0.00000000000E+00 0.  1.
         11    1    4    4    0    0  0.64321480463E+02  0.69848676648E+02  0.52964285802E+02  0.10872582972E+03  0.00000000000E+00 0. -1.
        -13    1    3    3    0    0  0.28315625312E+02 -0.12744105915E+03  0.33998170611E+02  0.13490320159E+03  0.00000000000E+00 0.  1.
         13    1    3    3    0    0  0.50004778451E+02 -0.92439175331E+01  0.11839109021E+02  0.52211994615E+02  0.00000000000E+00 0. -1.
          1    1    1    2  501    0 -0.15179958120E+03  0.93652626404E+02  0.12934845216E+03  0.22032918409E+03  0.00000000000E+00 0. -1.
<scales pt_clust_5="13000.00000" pt_clust_6="13000.00000" pt_clust_7="13000.00000" pt_clust_8="13000.00000" pt_clust_9="13000.00000"></scales>
<clustering>
<clus scale="   89.968">  7  8 -1 -1</clus>
<clus scale="   92.196">  5  6 -1 -1</clus>
<clus scale="  178.365">  5  9 -1 -1</clus>
<clus scale="  181.414">  2  7  1 -1</clus>
<clus scale="  303.916">  1  5  2 -1</clus>
</clustering>
</event>
<event>
 9    1  0.6399313E-006  0.2758838E+03  0.7546771E-02  0.1138333E+00
          1   -1    0    0  502    0 -0.00000000000E+00  0.00000000000E+00  0.58542968772E+03  0.58542968772E+03  0.00000000000E+00 0. -1.
         21   -1    0    0  501  502  0.00000000000E+00 -0.00000000000E+00 -0.11366820230E+03  0.11366820230E+03  0.00000000000E+00 0. -1.
         23    2    1    2    0    0  0.26422405671E+02  0.20415451807E+01  0.40234153063E+03  0.41461415438E+03  0.96560231557E+02 0.  0.
         23    2    1    2    0    0 -0.12616137238E+03  0.49607649591E+02  0.32194302484E+02  0.16615685792E+03  0.90520812757E+02 0.  0.
        -11    1    4    4    0    0 -0.31385093448E+02 -0.26523530947E+02  0.34381019495E+01  0.41235207404E+02  0.00000000000E+00 0.  1.
         11    1    4    4    0    0 -0.94776278934E+02  0.76131180538E+02  0.28756200535E+02  0.12492165052E+03  0.00000000000E+00 0. -1.
        -11    1    3    3    0    0 -0.31202268748E+02  0.22347874304E+02  0.13280218173E+03  0.13823685664E+03  0.00000000000E+00 0.  1.
         11    1    3    3    0    0  0.57624674419E+02 -0.20306329123E+02  0.26953934890E+03  0.27637729775E+03  0.00000000000E+00 0. -1.
          1    1    1    2  501    0  0.99738966710E+02 -0.51649194772E+02  0.37225652307E+02  0.11832687772E+03  0.00000000000E+00 0. -1.
<scales pt_clust_5="13000.00000" pt_clust_6="13000.00000" pt_clust_7="13000.00000" pt_clust_8="13000.00000" pt_clust_9="13000.00000"></scales>
<clustering>
<clus scale="   90.521">  5  6 -1 -1</clus>
<clus scale="   96.560">  7  8 -1 -1</clus>
<clus scale="  100.131">  1  7  2 -1</clus>
<clus scale="  122.373">  5  9 -1 -1</clus>
<clus scale="  275.884">  2  5  1 -1</clus>
</clustering>
</event>
<event>
 9    1  0.6399313E-006  0.5431915E+03  0.7546771E-02  0.1033937E+00
          1   -1    0    0  502    0 -0.00000000000E+00  0.00000000000E+00  0.34302912255E+03  0.34302912255E+03  0.00000000000E+00 0. -1.
         21   -1    0    0  501  502  0.00000000000E+00 -0.00000000000E+00 -0.42497482755E+03  0.42497482755E+03  0.00000000000E+00 0. -1.
         23    2    1    2    0    0  0.18972544953E+03 -0.24508988415E+02  0.25297762925E+02  0.21432699683E+03  0.93271903840E+02 0.  0.
         23    2    1    2    0    0 -0.15227390048E+02 -0.16273200743E+02  0.18710668205E+03  0.20906881276E+03  0.90576859796E+02 0.  0.
        -11    1    3    3    0    0  0.42465299437E+02  0.11958496859E+02  0.42979419086E+02  0.61591702106E+02  0.00000000000E+00 0.  1.
         11    1    3    3    0    0  0.14726015010E+03 -0.36467485274E+02 -0.17681656161E+02  0.15273529472E+03  0.00000000000E+00 0. -1.
        -13    1    4    4    0    0  0.17991361506E+02 -0.45155527719E+02  0.11044320514E+03  0.12066653361E+03  0.00000000000E+00 0. -1.
         13    1    4    4    0    0 -0.33218751555E+02  0.28882326976E+02  0.76663476913E+02  0.88402279150E+02  0.00000000000E+00 0.  1.
          1    1    1    2  501    0 -0.17449805949E+03  0.40782189158E+02 -0.29435014997E+03  0.34460814051E+03  0.00000000000E+00 0. -1.
<scales pt_clust_5="13000.00000" pt_clust_6="13000.00000" pt_clust_7="13000.00000" pt_clust_8="13000.00000" pt_clust_9="13000.00000"></scales>
<clustering>
<clus scale="   90.577">  7  8 -1 -1</clus>
<clus scale="   93.272">  5  6 -1 -1</clus>
<clus scale="  179.200">  7  9 -1 -1</clus>
<clus scale="  212.829">  1  5  2 -1</clus>
<clus scale="  543.192">  2  5  1 -1</clus>
</clustering>
</event>
<event>
 9    1  0.6399313E-006  0.2200526E+03  0.7546771E-02  0.1166800E+00
         21   -1    0    0  501  502  0.00000000000E+00  0.00000000000E+00  0.56948653200E+02  0.56948653200E+02  0.00000000000E+00 0. -1.
          1   -1    0    0  502    0 -0.00000000000E+00 -0.00000000000E+00 -0.47494212610E+03  0.47494212610E+03  0.00000000000E+00 0. -1.
         23    2    1    2    0    0 -0.21547248582E+02  0.43954642182E+02 -0.80574035000E+02  0.12905702759E+03  0.88131984911E+02 0.  0.
         23    2    1    2    0    0  0.23837526830E+02  0.10037979559E+02 -0.33568050186E+03  0.34876460639E+03  0.91029460193E+02 0.  0.
        -13    1    3    3    0    0  0.33586666058E+02  0.97670262248E+01 -0.19956397232E+02  0.40270544181E+02  0.00000000000E+00 0.  1.
         13    1    3    3    0    0 -0.55133914639E+02  0.34187615957E+02 -0.60617637768E+02  0.88786483413E+02  0.00000000000E+00 0. -1.
        -13    1    4    4    0    0  0.39571743771E+02  0.42346302765E+02 -0.18544400278E+03  0.19429001629E+03  0.00000000000E+00 0. -1.
         13    1    4    4    0    0 -0.15734216940E+02 -0.32308323205E+02 -0.15023649908E+03  0.15447459010E+03  0.00000000000E+00 0.  1.
          1    1    1    2  501    0 -0.22902782487E+01 -0.53992621742E+02 -0.17389360445E+01  0.54069145319E+02  0.00000000000E+00 0. -1.
<scales pt_clust_5="13000.00000" pt_clust_6="13000.00000" pt_clust_7="13000.00000" pt_clust_8="13000.00000" pt_clust_9="13000.00000"></scales>
<clustering>
<clus scale="   88.132">  5  6 -1 -1</clus>
<clus scale="   91.029">  7  8 -1 -1</clus>
<clus scale="   54.041">  7  9 -1 -1</clus>
<clus scale="  100.814">  2  5  1 -1</clus>
<clus scale="  220.053">  1  5  2 -1</clus>
</clustering>
</event>
<event>
 9    1  0.6399313E-006  0.1933291E+03  0.7546771E-02  0.1186979E+00
          1   -1    0    0  502    0 -0.00000000000E+00  0.00000000000E+00  0.73760257836E+03  0.73760257836E+03  0.00000000000E+00 0. -1.
         21   -1    0    0  501  502  0.00000000000E+00 -0.00000000000E+00 -0.29351436504E+02  0.29351436504E+02  0.00000000000E+00 0. -1.
         23    2    1    2    0    0  0.60047012067E+01 -0.22964654394E+02  0.31435902785E+03  0.32817487102E+03  0.91179579902E+02 0.  0.
         23    2    1    2    0    0  0.16415556308E+02  0.84572868214E+02  0.22320663794E+03  0.25593557218E+03  0.90883295286E+02 0.  0.
        -11    1    3    3    0    0  0.40151680354E+01  0.35225275994E+02  0.13645417930E+03  0.14098469666E+03  0.00000000000E+00 0. -1.
         11    1    3    3    0    0  0.19895331713E+01 -0.58189930388E+02  0.17790484854E+03  0.18719017436E+03  0.00000000000E+00 0.  1.
        -13    1    4    4    0    0  0.54371305293E+02  0.51264110339E+02  0.13281162525E+03  0.15239152092E+03  0.00000000000E+00 0. -1.
         13    1    4    4    0    0 -0.37955748984E+02  0.33308757875E+02  0.90395012690E+02  0.10354405126E+03  0.00000000000E+00 0.  1.
          1    1    1    2  501    0 -0.22420257515E+02 -0.61608213819E+02  0.17068547607E+03  0.18284357166E+03  0.00000000000E+00 0. -1.
<scales pt_clust_5="13000.00000" pt_clust_6="13000.00000" pt_clust_7="13000.00000" pt_clust_8="13000.00000" pt_clust_9="13000.00000"></scales>
<clustering>
<clus scale="   90.883">  7  8 -1 -1</clus>
<clus scale="   65.561">  7  9 -1 -1</clus>
<clus scale="   91.180">  5  6 -1 -1</clus>
<clus scale="   94.219">  1  5  2 -1</clus>
<clus scale="  193.329">  2  5  1 -1</clus>
</clustering>
</event>
<event>
 9    1  0.6399313E-006  0.2850424E+03  0.7546771E-02  0.1116700E+00
          1   -1    0    0  502    0 -0.00000000000E+00  0.00000000000E+00  0.52614942541E+03  0.52614942541E+03  0.00000000000E+00 0. -1.
         21   -1    0    0  501  502  0.00000000000E+00 -0.00000000000E+00 -0.10330818755E+03  0.10330818755E+03  0.00000000000E+00 0. -1.
         23    2    1    2    0    0  0.10414324832E+03  0.69398386579E+02  0.25601196703E+03  0.29918326088E+03  0.91140244113E+02 0.  0.
         23    2    1    2    0    0 -0.67869392037E+02 -0.15195718851E+03  0.78469474695E+02  0.20402379961E+03  0.88153337048E+02 0.  0.
        -11    1    3    3    0    0  0.72350765401E+02 -0.61241704844E+01  0.12906210153E+03  0.14808499171E+03  0.00000000000E+00 0.  1.
         11    1    3    3    0    0  0.31792482920E+02  0.75522557063E+02  0.12694986550E+03  0.15109826917E+03  0.00000000000E+00 0. -1.
        -13    1    4    4    0    0 -0.71591193185E+02 -0.83946698203E+02  0.15775468426E+02  0.11145049343E+03  0.00000000000E+00 0. -1.
         13    1    4    4    0    0  0.37218011486E+01 -0.68010490308E+02  0.62694006268E+02  0.92573306183E+02  0.00000000000E+00 0.  1.
          1    1    1    2  501    0 -0.36273856284E+02  0.82558801932E+02  0.88359796138E+02  0.12625055247E+03  0.00000000000E+00 0. -1.
<scales pt_clust_5="13000.00000" pt_clust_6="13000.00000" pt_clust_7="13000.00000" pt_clust_8="13000.00000" pt_clust_9="13000.00000"></scales>
<clustering>
<clus scale="   88.153">  7  8 -1 -1</clus>
<clus scale="   90.176">  7  9 -1 -1</clus>
<clus scale="   91.140">  5  6 -1 -1</clus>
<clus scale="  154.818">  1  5  2 -1</clus>
<clus scale="  285.042">  2  5  1 -1</clus>
</clustering>
</event>
<event>
 9    1  0.6399313E-006  0.2835641E+03  0.7546771E-02  0.1134506E+00
          1   -1    0    0  502    0 -0.00000000000E+00  0.00000000000E+00  0.62768832349E+03  0.62768832349E+03  0.00000000000E+00 0. -1.
         21   -1    0    0  501  502  0.00000000000E+00 -0.00000000000E+00 -0.60380843946E+02  0.60380843946E+02  0.00000000000E+00 0. -1.
         23    2    1    2    0    0 -0.39593526149E+01  0.40079558192E+02  0.19897118695E+03  0.22322489356E+03  0.92831957920E+02 0.  0.
         23    2    1    2    0    0 -0.84401751039E+02 -0.72586255325E+02  0.33409773167E+03  0.36466119620E+03  0.94678792069E+02 0.  0.
        -11    1    4    4    0    0 -0.73376125887E+02 -0.44158872225E+01  0.21206998230E+03  0.22444873201E+03  0.00000000000E+00 0. -1.
         11    1    4    4    0    0 -0.11025625152E+02 -0.68170368103E+02  0.12202774937E+03  0.14021246419E+03  0.00000000000E+00 0.  1.
        -11    1    3    3    0    0 -0.53970953371E+01  0.68325907406E+02  0.16712210593E+03  0.18063044193E+03  0.00000000000E+00 0.  1.
         11    1    3    3    0    0  0.14377427223E+01 -0.28246349214E+02  0.31849081019E+02  0.42594451632E+02  0.00000000000E+00 0. -1.
          1    1    1    2  501    0  0.88361103654E+02  0.32506697133E+02  0.34238560921E+02  0.10018307767E+03  0.00000000000E+00 0. -1.
<scales pt_clust_5="13000.00000" pt_clust_6="13000.00000" pt_clust_7="13000.00000" pt_clust_8="13000.00000" pt_clust_9="13000.00000"></scales>
<clustering>
<clus scale="   92.832">  7  8 -1 -1</clus>
<clus scale="   94.679">  5  6 -1 -1</clus>
<clus scale="   94.151">  5  9 -1 -1</clus>
<clus scale="  101.192">  1  7  2 -1</clus>
<clus scale="  283.564">  2  5  1 -1</clus>
</clustering>
</event>
<event>
 9    1  0.6399313E-006  0.2458548E+03  0.7546771E-02  0.1133076E+00
         21   -1    0    0  501  502  0.00000000000E+00  0.00000000000E+00  0.14993243164E+03  0.14993243164E+03  0.00000000000E+00 0.  1.
         -2   -1    0    0    0  501 -0.00000000000E+00 -0.00000000000E+00 -0.31553480649E+03  0.31553480649E+03  0.00000000000E+00 0.  1.
         23    2    1    2    0    0  0.10275256224E+03  0.84838020086E+02 -0.14875910577E+03  0.21903612749E+03  0.89955405030E+02 0.  0.
         23    2    1    2    0    0 -0.12823206403E+03 -0.11404037294E+02  0.19222446673E+02  0.16074277601E+03  0.94314491311E+02 0.  0.
        -11    1    3    3    0    0  0.14493998059E+02  0.18026151991E+02  0.10242553282E+02  0.25296798870E+02  0.00000000000E+00 0. -1.
         11    1    3    3    0    0  0.88258564185E+02  0.66811868096E+02 -0.15900165906E+03  0.19373932862E+03  0.00000000000E+00 0.  1.
        -13    1    4    4    0    0 -0.76134565469E+02 -0.49066290539E+02  0.30301173493E+02  0.95509863582E+02  0.00000000000E+00 0. -1.
         13    1    4    4    0    0 -0.52097498559E+02  0.37662253246E+02 -0.11078726820E+02  0.65232912426E+02  0.00000000000E+00 0.  1.
         -2    1    1    2    0  502  0.25479501785E+02 -0.73433982792E+02 -0.36065715744E+02  0.85688334632E+02  0.00000000000E+00 0.  1.
<scales pt_clust_5="13000.00000" pt_clust_6="13000.00000" pt_clust_7="13000.00000" pt_clust_8="13000.00000" pt_clust_9="13000.00000"></scales>
<clustering>
<clus scale="   89.955">  5  6 -1 -1</clus>
<clus scale="   94.314">  7  8 -1 -1</clus>
<clus scale="   77.729">  7  9 -1 -1</clus>
<clus scale="  160.772">  2  5  1 -1</clus>
<clus scale="  245.855">  1  5  2 -1</clus>
</clustering>
</event>
<event>
 9    1  0.6399313E-006  0.1361420E+03  0.7546771E-02  0.1232767E+00
          3   -1    0    0  502    0 -0.00000000000E+00  0.00000000000E+00  0.35508812740E+03  0.35508812740E+03  0.00000000000E+00 0. -1.
         21   -1    0    0  501  502  0.00000000000E+00 -0.00000000000E+00 -0.44619226110E+02  0.44619226110E+02  0.00000000000E+00 0.  1.
         23    2    1    2    0    0  0.31559196258E+02  0.27666030099E+02  0.69565343864E+02  0.12299602897E+03  0.92343348359E+02 0.  0.
         23    2    1    2    0    0 -0.45312207670E+02 -0.59813901072E+01  0.22253368497E+03  0.24513885000E+03  0.92102343299E+02 0.  0.
        -11    1    4    4    0    0 -0.47413949839E+02  0.22869661387E+02  0.59016233330E+02  0.79082361167E+02  0.00000000000E+00 0.  1.
         11    1    4    4    0    0  0.21017421691E+01 -0.28851051495E+02  0.16351745164E+03  0.16605648883E+03  0.00000000000E+00 0. -1.
        -11    1    3    3    0    0  0.25052840005E+01  0.58408539383E+02  0.47263351761E+02  0.75177512199E+02  0.00000000000E+00 0.  1.
         11    1    3    3    0    0  0.29053912258E+02 -0.30742509284E+02  0.22301992103E+02  0.47818516773E+02  0.00000000000E+00 0. -1.
          3    1    1    2  501    0  0.13753011412E+02 -0.21684639992E+02  0.18369872459E+02  0.31572474541E+02  0.00000000000E+00 0. -1.
<scales pt_clust_5="13000.00000" pt_clust_6="13000.00000" pt_clust_7="13000.00000" pt_clust_8="13000.00000" pt_clust_9="13000.00000"></scales>
<clustering>
<clus scale="   92.102">  5  6 -1 -1</clus>
<clus scale="   25.678">  5  9 -1 -1</clus>
<clus scale="   92.343">  7  8 -1 -1</clus>
<clus scale="  101.433">  1  7  2 -1</clus>
<clus scale="  136.142">  2  5  1 -1</clus>
</clustering>
</event>
<event>
 9    1  0.6399313E-006  0.7069170E+03  0.7546771E-02  0.1033189E+00
          2   -1    0    0  502    0 -0.00000000000E+00  0.00000000000E+00  0.10112374486E+04  0.10112374486E+04  0.00000000000E+00 0. -1.
         21   -1    0    0  501  502  0.00000000000E+00 -0.00000000000E+00 -0.16448041067E+03  0.16448041067E+03  0.00000000000E+00 0. -1.
         23    2    1    2    0    0  0.32547835834E+02 -0.26804884945E+02  0.17285304271E+03  0.19905097625E+03  0.89248267776E+02 0.  0.
         23    2    1    2    0    0 -0.21645453155E+03 -0.87098304912E+02  0.71407372838E+03  0.75664593665E+03  0.90405226266E+02 0.  0.
        -11    1    3    3    0    0 -0.31321400744E+01  0.30778294340E+02  0.56436733395E+02  0.64360069766E+02  0.00000000000E+00 0. -1.
         11    1    3    3    0    0  0.35679975909E+02 -0.57583179285E+02  0.11641630931E+03  0.13469090649E+03  0.00000000000E+00 0.  1.
        -13    1    4    4    0    0 -0.11722253395E+03 -0.23306180478E+02  0.23996442627E+03  0.26808063412E+03  0.00000000000E+00 0.  1.
         13    1    4    4    0    0 -0.99231997599E+02 -0.63792124434E+02  0.47410930212E+03  0.48856530254E+03  0.00000000000E+00 0. -1.
          2    1    1    2  501    0  0.18390669572E+03  0.11390318986E+03 -0.40169733129E+02  0.22002094639E+03  0.00000000000E+00 0. -1.
<scales pt_clust_5="13000.00000" pt_clust_6="13000.00000" pt_clust_7="13000.00000" pt_clust_8="13000.00000" pt_clust_9="13000.00000"></scales>
<clustering>
<clus scale="   89.248">  5  6 -1 -1</clus>
<clus scale="   90.405">  7  8 -1 -1</clus>
<clus scale="   98.707">  1  5  2 -1</clus>
<clus scale="  217.844">  7  9 -1 -1</clus>
<clus scale="  706.917">  2  5  1 -1</clus>
</clustering>
</event>
<event>
 9    1  0.6399313E-006  0.1927692E+03  0.7546771E-02  0.1175579E+00
         21   -1    0    0  501  502  0.00000000000E+00  0.00000000000E+00  0.13268956547E+03  0.13268956547E+03  0.00000000000E+00 0. -1.
          2   -1    0    0  502    0 -0.00000000000E+00 -0.00000000000E+00 -0.19458542882E+03  0.19458542882E+03  0.00000000000E+00 0.  1.
         23    2    1    2    0    0  0.66663494180E+02  0.47194111720E+02 -0.54705659784E+02  0.13437178980E+03  0.91606566602E+02 0.  0.
         23    2    1    2    0    0 -0.69656492372E+01  0.73323898060E+01  0.33713007378E+02  0.10229390736E+03  0.96047865187E+02 0.  0.
        -11    1    3    3    0    0  0.88181850120E+02  0.49421796001E+02 -0.45759041792E+02  0.11096144608E+03  0.00000000000E+00 0. -1.
         11    1    3    3    0    0 -0.21518355940E+02 -0.22276842812E+01 -0.89466179913E+01  0.23410343720E+02  0.00000000000E+00 0.  1.
        -11    1    4    4    0    0 -0.32452428986E+02  0.24062153604E+02  0.52680487972E+02  0.66388110352E+02  0.00000000000E+00 0. -1.
         11    1    4    4    0    0  0.25486779749E+02 -0.16729763798E+02 -0.18967480594E+02  0.35905797008E+02  0.00000000000E+00 0.  1.
          2    1    1    2  501    0 -0.59697844943E+02 -0.54526501526E+02 -0.40903210948E+02  0.90609297124E+02  0.00000000000E+00 0.  1.
<scales pt_clust_5="13000.00000" pt_clust_6="13000.00000" pt_clust_7="13000.00000" pt_clust_8="13000.00000" pt_clust_9="13000.00000"></scales>
<clustering>
<clus scale="   91.607">  5  6 -1 -1</clus>
<clus scale="   96.048">  7  8 -1 -1</clus>
<clus scale="   80.852">  7  9 -1 -1</clus>
<clus scale="  122.732">  2  5  1 -1</clus>
<clus scale="  192.769">  1  5  2 -1</clus>
</clustering>
</event>
<event>
 9    1  0.6399313E-006  0.2058630E+03  0.7546771E-02  0.1176264E+00
         -3   -1    0    0    0  501 -0.00000000000E+00  0.00000000000E+00  0.45058089234E+03  0.45058089234E+03  0.00000000000E+00 0.  1.
         21   -1    0    0  501  502  0.00000000000E+00 -0.00000000000E+00 -0.52077874423E+02  0.52077874423E+02  0.00000000000E+00 0.  1.
         23    2    1    2    0    0  0.14455439635E+02 -0.19324548946E+01  0.10863729040E+03  0.14712855817E+03  0.98143046848E+02 0.  0.
         23    2    1    2    0    0  0.12072671578E+02  0.35620427560E+02  0.29622534708E+03  0.31218202584E+03  0.91069186599E+02 0.  0.
        -11    1    4    4    0    0  0.26192200379E+02 -0.24686863948E+02  0.12592984050E+03  0.13097250605E+03  0.00000000000E+00 0. -1.
         11    1    4    4    0    0 -0.14119528801E+02  0.60307291508E+02  0.17029550658E+03  0.18120951979E+03  0.00000000000E+00 0.  1.
        -13    1    3    3    0    0  0.42958119490E+02 -0.31920403499E+02  0.39347574458E+02  0.66426981004E+02  0.00000000000E+00 0.  1.
         13    1    3    3    0    0 -0.28502679854E+02  0.29987948605E+02  0.69289715947E+02  0.80701577162E+02  0.00000000000E+00 0. -1.
         -3    1    1    2    0  502 -0.26528111214E+02 -0.33687972665E+02 -0.63596195696E+01  0.43348182752E+02  0.00000000000E+00 0.  1.
<scales pt_clust_5="13000.00000" pt_clust_6="13000.00000" pt_clust_7="13000.00000" pt_clust_8="13000.00000" pt_clust_9="13000.00000"></scales>
<clustering>
<clus scale="   91.069">  5  6 -1 -1</clus>
<clus scale="   42.879">  5  9 -1 -1</clus>
<clus scale="   98.143">  7  8 -1 -1</clus>
<clus scale="   99.221">  1  7  2 -1</clus>
<clus scale="  205.863">  2  5  1 -1</clus>
</clustering>
</event>
<event>
 9    1  0.6399313E-006  0.2634883E+03  0.7546771E-02  0.1125709E+00
         21   -1    0    0  501  502  0.00000000000E+00  0.00000000000E+00  0.35819304763E+02  0.35819304763E+02  0.00000000000E+00 0. -1.
          4   -1    0    0  502    0 -0.00000000000E+00 -0.00000000000E+00 -0.12785614328E+04  0.12785614328E+04  0.00000000000E+00 0. -1.
         23    2    1    2    0    0  0.12947077205E+03 -0.32594155932E+01 -0.59128407820E+03  0.61165483600E+03  0.87928793151E+02 0.  0.
         23    2    1    2    0    0  0.23098177720E+02 -0.40389666541E+02 -0.31228976592E+03  0.32826942662E+03  0.89839120551E+02 0.  0.
        -13    1    3    3    0    0  0.30246587165E+02  0.24519303738E+02 -0.68318421842E+02  0.78634973478E+02  0.00000000000E+00 0.  1.
         13    1    3    3    0    0  0.99224184885E+02 -0.27778719331E+02 -0.52296565635E+03  0.53301986252E+03  0.00000000000E+00 0. -1.
        -13    1    4    4    0    0 -0.28124121320E+02  0.90369761141E+01 -0.10628185336E+03  0.11031076779E+03  0.00000000000E+00 0.  1.
         13    1    4    4    0    0  0.51222299040E+02 -0.49426642655E+02 -0.20600791256E+03  0.21795865883E+03  0.00000000000E+00 0. -1.
          4    1    1    2  501    0 -0.15256894977E+03  0.43649082134E+02 -0.33916828390E+03  0.37445647491E+03  0.00000000000E+00 0. -1.
<scales pt_clust_5="13000.00000" pt_clust_6="13000.00000" pt_clust_7="13000.00000" pt_clust_8="13000.00000" pt_clust_9="13000.00000"></scales>
<clustering>
<clus scale="   87.929">  5  6 -1 -1</clus>
<clus scale="   89.839">  7  8 -1 -1</clus>
<clus scale="  156.540">  2  5  1 -1</clus>
<clus scale="   94.189">  7  9 -1 -1</clus>
<clus scale="  263.488">  1  5  2 -1</clus>
</clustering>
</event>
<event>
 9    1  0.6399313E-006  0.1958838E+03  0.7546771E-02  0.1179628E+00
          4   -1    0    0  502    0 -0.00000000000E+00  0.00000000000E+00  0.76540293072E+03  0.76540293072E+03  0.00000000000E+00 0. -1.
         21   -1    0    0  501  502  0.00000000000E+00 -0.00000000000E+00 -0.41908303743E+02  0.41908303743E+02  0.00000000000E+00 0.  1.
         23    2    1    2    0    0 -0.54034623634E+02  0.12255400678E+02  0.49483983245E+03  0.50622409208E+03  0.91249308064E+02 0.  0.
         23    2    1    2    0    0  0.10000398815E+03  0.23610892914E+02  0.17395020787E+03  0.22113612431E+03  0.89912394836E+02 0.  0.
        -11    1    3    3    0    0  0.37046234432E+01 -0.31801964021E+02  0.10886206898E+03  0.11347263641E+03  0.00000000000E+00 0.  1.
         11    1    3    3    0    0 -0.57739247078E+02  0.44057364699E+02  0.38597776347E+03  0.39275145567E+03  0.00000000000E+00 0. -1.
        -13    1    4    4    0    0  0.53706763822E+02 -0.17089358935E+02  0.28486974951E+02  0.63150379341E+02  0.00000000000E+00 0.  1.
         13    1    4    4    0    0  0.46297224333E+02  0.40700251849E+02  0.14546323292E+03  0.15798574497E+03  0.00000000000E+00 0. -1.
          4    1    1    2  501    0 -0.45969364521E+02 -0.35866293592E+02  0.54704586657E+02  0.79951018078E+02  0.00000000000E+00 0. -1.
<scales pt_clust_5="13000.00000" pt_clust_6="13000.00000" pt_clust_7="13000.00000" pt_clust_8="13000.00000" pt_clust_9="13000.00000"></scales>
<clustering>
<clus scale="   89.912">  7  8 -1 -1</clus>
<clus scale="   58.306">  7  9 -1 -1</clus>
<clus scale="   91.249">  5  6 -1 -1</clus>
<clus scale="  106.754">  1  5  2 -1</clus>
<clus scale="  195.884">  2  5  1 -1</clus>
</clustering>
</event>
<event>
 9    1  0.6399313E-006  0.1901394E+03  0.7546771E-02  0.1184511E+00
         21   -1    0    0  501  502  0.00000000000E+00  0.00000000000E+00  0.22735735020E+03  0.22735735020E+03  0.00000000000E+00 0.  1.
          3   -1    0    0  502    0 -0.00000000000E+00 -0.00000000000E+00 -0.95651258116E+02  0.95651258116E+02  0.00000000000E+00 0. -1.
         23    2    1    2    0    0  0.36561950076E+02  0.33590950642E+02  0.41580436431E+02  0.11259086763E+03  0.92101262865E+02 0.  0.
         23    2    1    2    0    0 -0.60421707539E+02 -0.79781944709E+02  0.46974685516E+02  0.14285368084E+03  0.90468843297E+02 0.  0.
        -11    1    4    4    0    0 -0.57665342433E+02 -0.22465445091E+02 -0.91821891501E+01  0.62564371160E+02  0.00000000000E+00 0.  1.
         11    1    4    4    0    0 -0.27563651058E+01 -0.57316499618E+02  0.56156874666E+02  0.80289309683E+02  0.00000000000E+00 0. -1.
        -13    1    3    3    0    0  0.58149206720E+02  0.42559550345E+02  0.91864627362E+01  0.72643214861E+02  0.00000000000E+00 0. -1.
         13    1    3    3    0    0 -0.21587256644E+02 -0.89685997024E+01  0.32393973694E+02  0.39947652769E+02  0.00000000000E+00 0.  1.
          3    1    1    2  501    0  0.23859757463E+02  0.46190994067E+02  0.43150970142E+02  0.67564059849E+02  0.00000000000E+00 0. -1.
<scales pt_clust_5="13000.00000" pt_clust_6="13000.00000" pt_clust_7="13000.00000" pt_clust_8="13000.00000" pt_clust_9="13000.00000"></scales>
<clustering>
<clus scale="   90.469">  5  6 -1 -1</clus>
<clus scale="   51.989">  5  9 -1 -1</clus>
<clus scale="   92.101">  7  8 -1 -1</clus>
<clus scale="  104.632">  2  7  1 -1</clus>
<clus scale="  190.139">  1  5  2 -1</clus>
</clustering>
</event>
<event>
 9    1  0.6399313E-006  0.2470106E+03  0.7546771E-02  0.1157922E+00
         21   -1    0    0  501  502  0.00000000000E+00  0.00000000000E+00  0.15309890909E+03  0.15309890909E+03  0.00000000000E+00 0.  1.
         -1   -1    0    0    0  501 -0.00000000000E+00 -0.00000000000E+00 -0.26833384659E+03  0.26833384659E+03  0.00000000000E+00 0.  1.
         23    2    1    2    0    0 -0.74562294634E-01 -0.52515150087E+01 -0.14829583555E+03  0.17221943211E+03  0.87408775213E+02 0.  0.
         23    2    1    2    0    0 -0.13947348419E+02  0.77953829106E+02 -0.51637245127E+02  0.13671436396E+03  0.98757704655E+02 0.  0.
        -13    1    4    4    0    0 -0.14056633909E+02 -0.15693236877E+02 -0.36084319139E+02  0.41784503446E+02  0.00000000000E+00 0. -1.
         13    1    4    4    0    0  0.10928548965E+00  0.93647065983E+02 -0.15552925989E+02  0.94929860515E+02  0.00000000000E+00 0.  1.
        -13    1    3    3    0    0 -0.15517508624E+02  0.34257510622E+02 -0.10532441316E+03  0.11183739140E+03  0.00000000000E+00 0.  1.
         13    1    3    3    0    0  0.15442946329E+02 -0.39509025631E+02 -0.42971422393E+02  0.60382040708E+02  0.00000000000E+00 0. -1.
         -1    1    1    2    0  502  0.14021910714E+02 -0.72702314097E+02  0.84698143180E+02  0.11249895961E+03  0.00000000000E+00 0.  1.
<scales pt_clust_5="13000.00000" pt_clust_6="13000.00000" pt_clust_7="13000.00000" pt_clust_8="13000.00000" pt_clust_9="13000.00000"></scales>
<clustering>
<clus scale="   87.409">  7  8 -1 -1</clus>
<clus scale="   87.566">  2  7  1 -1</clus>
<clus scale="   98.758">  5  6 -1 -1</clus>
<clus scale="   74.704">  5  9 -1 -1</clus>
<clus scale="  247.011">  1  5  2 -1</clus>
</clustering>
</event>
<event>
 9    1  0.6399313E-006  0.2357435E+03  0.7546771E-02  0.1138098E+00
         21   -1    0    0  501  502  0.00000000000E+00  0.00000000000E+00  0.40660085228E+02  0.40660085228E+02  0.00000000000E+00 0.  1.
          2   -1    0    0  502    0 -0.00000000000E+00 -0.00000000000E+00 -0.10331978344E+04  0.10331978344E+04  0.00000000000E+00 0. -1.
         23    2    1    2    0    0 -0.87271000869E+02 -0.10281741676E+03 -0.53992144808E+03  0.56352809010E+03  0.88662785095E+02 0.  0.
         23    2    1    2    0    0 -0.20227839789E+02  0.31563763956E+02 -0.14175939205E+03  0.17378101927E+03  0.93266718222E+02 0.  0.
        -11    1    4    4    0    0  0.27387959073E+02 -0.95397958572E+01 -0.82155625040E+02  0.87124363601E+02  0.00000000000E+00 0.  1.
         11    1    4    4    0    0 -0.47615798862E+02  0.41103559813E+02 -0.59603767007E+02  0.86656655671E+02  0.00000000000E+00 0. -1.
        -11    1    3    3    0    0 -0.14429293923E+02 -0.85217089272E+02 -0.28392009042E+03  0.29678405377E+03  0.00000000000E+00 0.  1.
         11    1    3    3    0    0 -0.72841706946E+02 -0.17600327491E+02 -0.25600135766E+03  0.26674403634E+03  0.00000000000E+00 0. -1.
          2    1    1    2  501    0  0.10749884066E+03  0.71253652808E+02 -0.31085690909E+03  0.33654881029E+03  0.00000000000E+00 0. -1.
<scales pt_clust_5="13000.00000" pt_clust_6="13000.00000" pt_clust_7="13000.00000" pt_clust_8="13000.00000" pt_clust_9="13000.00000"></scales>
<clustering>
<clus scale="   88.663">  7  8 -1 -1</clus>
<clus scale="   93.267">  5  6 -1 -1</clus>
<clus scale="  128.969">  5  9 -1 -1</clus>
<clus scale="  161.396">  2  7  1 -1</clus>
<clus scale="  235.744">  1  5  2 -1</clus>
</clustering>
</event>
<event>
 9    1  0.6399313E-006  0.1624340E+03  0.7546771E-02  0.1196581E+00
         21   -1    0    0  501  502  0.00000000000E+00  0.00000000000E+00  0.19045942712E+03  0.19045942712E+03  0.00000000000E+00 0. -1.
          1   -1    0    0  502    0 -0.00000000000E+00 -0.00000000000E+00 -0.17705117664E+03  0.17705117664E+03  0.00000000000E+00 0. -1.
         23    2    1    2    0    0  0.83354245456E+02 -0.36546079007E+02 -0.10541077339E+03  0.16625765675E+03  0.90810963844E+02 0.  0.
         23    2    1    2    0    0 -0.67560188543E+02  0.11471852344E+01  0.11514147070E+03  0.16231635355E+03  0.92321965125E+02 0.  0.
        -11    1    4    4    0    0 -0.17016888936E+02  0.22424553256E+02 -0.64945535526E+01  0.28889692342E+02  0.00000000000E+00 0.  1.
         11    1    4    4    0    0 -0.50543299607E+02 -0.21277368021E+02  0.12163602425E+03  0.13342666120E+03  0.00000000000E+00 0. -1.
        -11    1    3    3    0    0 -0.35447148916E+00 -0.33097066187E+02 -0.19877876392E+01  0.33158599788E+02  0.00000000000E+00 0.  1.
         11    1    3    3    0    0  0.83708716945E+02 -0.34490128203E+01 -0.10342298575E+03  0.13309905696E+03  0.00000000000E+00 0. -1.
          1    1    1    2  501    0 -0.15794056912E+02  0.35398893773E+02  0.36775531693E+01  0.38936593474E+02  0.00000000000E+00 0. -1.
<scales pt_clust_5="13000.00000" pt_clust_6="13000.00000" pt_clust_7="13000.00000" pt_clust_8="13000.00000" pt_clust_9="13000.00000"></scales>
<clustering>
<clus scale="   90.811">  7  8 -1 -1</clus>
<clus scale="   92.322">  5  6 -1 -1</clus>
<clus scale="   38.763">  5  9 -1 -1</clus>
<clus scale="  128.570">  2  7  1 -1</clus>
<clus scale="  162.434">  1  5  2 -1</clus>
</clustering>
</event>
<event>
 9    1  0.6399313E-006  0.2329539E+03  0.7546771E-02  0.1161666E+00
          3   -1    0    0  502    0 -0.00000000000E+00  0.00000000000E+00  0.59081063673E+03  0.59081063673E+03  0.00000000000E+00 0. -1.
         21   -1    0    0  501  502  0.00000000000E+00 -0.00000000000E+00 -0.45702689663E+02  0.45702689663E+02  0.00000000000E+00 0. -1.
         23    2    1    2    0    0  0.33984699798E+02 -0.32674239450E+02  0.15620375002E+03  0.18317679069E+03  0.83255987083E+02 0.  0.
         23    2    1    2    0    0  0.73330566191E+02 -0.46356792042E+01  0.22965050932E+03  0.25770848709E+03  0.90969480771E+02 0.  0.
        -13    1    3    3    0    0  0.72316939822E+00 -0.34651406203E+02  0.14434655615E+02  0.37544669509E+02  0.00000000000E+00 0.  1.
         13    1    3    3    0    0  0.33261530400E+02  0.19771667525E+01  0.14176909440E+03  0.14563212118E+03  0.00000000000E+00 0. -1.
        -13    1    4    4    0    0  0.46252794357E+02 -0.39017260925E+02  0.18720510325E+03  0.19674200954E+03  0.00000000000E+00 0. -1.
         13    1    4    4    0    0  0.27077771834E+02  0.34381581721E+02  0.42445406070E+02  0.60966477556E+02  0.00000000000E+00 0.  1.
          3    1    1    2  501    0 -0.10731526599E+03  0.37309918655E+02  0.15925368773E+03  0.19562804860E+03  0.00000000000E+00 0. -1.
<scales pt_clust_5="13000.00000" pt_clust_6="13000.00000" pt_clust_7="13000.00000" pt_clust_8="13000.00000" pt_clust_9="13000.00000"></scales>
<clustering>
<clus scale="   83.256">  5  6 -1 -1</clus>
<clus scale="   90.969">  7  8 -1 -1</clus>
<clus scale="   95.677">  1  5  2 -1</clus>
<clus scale="   95.929">  7  9 -1 -1</clus>
<clus scale="  232.954">  2  5  1 -1</clus>
</clustering>
</event>
<event>
 9    1  0.6399313E-006  0.2804423E+03  0.7546771E-02  0.1113696E+00
         21   -1    0    0  501  502  0.00000000000E+00  0.00000000000E+00  0.94661849050E+02  0.94661849050E+02  0.00000000000E+00 0. -1.
          2   -1    0    0  502    0 -0.00000000000E+00 -0.00000000000E+00 -0.73624232120E+03  0.73624232120E+03  0.00000000000E+00 0. -1.
         23    2    1    2    0    0  0.99520436814E+02 -0.11121703079E+03 -0.47117507685E+03  0.50274887541E+03  0.92070263408E+02 0.  0.
         23    2    1    2    0    0  0.67497322565E+01 -0.12359315156E+02 -0.13571326380E+03  0.16151794579E+03  0.86438679325E+02 0.  0.
        -11    1    3    3    0    0  0.74434050542E+01 -0.35185746920E+02 -0.33758917427E+02  0.49326519956E+02  0.00000000000E+00 0.  1.
         11    1    3    3    0    0  0.92077031760E+02 -0.76031283867E+02 -0.43741615942E+03  0.45342235546E+03  0.00000000000E+00 0. -1.
        -13    1    4    4    0    0 -0.38772787325E+02 -0.27523148480E+01 -0.79922642382E+02  0.88873691491E+02  0.00000000000E+00 0.  1.
         13    1    4    4    0    0  0.45522519582E+02 -0.96070003084E+01 -0.55790621421E+02  0.72644254298E+02  0.00000000000E+00 0. -1.
          2    1    1    2  501    0 -0.10627016907E+03  0.12357634594E+03 -0.34692131502E+02  0.16663734905E+03  0.00000000000E+00 0. -1.
<scales pt_clust_5="13000.00000" pt_clust_6="13000.00000" pt_clust_7="13000.00000" pt_clust_8="13000.00000" pt_clust_9="13000.00000"></scales>
<clustering>
<clus scale="   86.439">  7  8 -1 -1</clus>
<clus scale="   92.070">  5  6 -1 -1</clus>
<clus scale="  162.986">  7  9 -1 -1</clus>
<clus scale="  175.358">  2  5  1 -1</clus>
<clus scale="  280.442">  1  5  2 -1</clus>
</clustering>
</event>
<event>
 9    1  0.6399313E-006  0.1530638E+03  0.7546771E-02  0.1207536E+00
         21   -1    0    0  501  502  0.00000000000E+00  0.00000000000E+00  0.34635535661E+02  0.34635535661E+02  0.00000000000E+00 0.  1.
          2   -1    0    0  502    0 -0.00000000000E+00 -0.00000000000E+00 -0.61728637235E+03  0.61728637235E+03  0.00000000000E+00 0. -1.
         23    2    1    2    0    0 -0.29826040074E+02 -0.49250319522E+02 -0.37395694020E+03  0.39311371033E+03  0.10667431504E+03 0.  0.
         23    2    1    2    0    0 -0.11196510210E+02  0.10011454554E+02 -0.10446035860E+03  0.14011881915E+03  0.92172262079E+02 0.  0.
        -11    1    3    3    0    0 -0.28889058407E+02  0.25972905494E+02 -0.70753613683E+02  0.80717057458E+02  0.00000000000E+00 0.  1.
         11    1    3    3    0    0 -0.93698166668E+00 -0.75223225016E+02 -0.30320332652E+03  0.31239665288E+03  0.00000000000E+00 0. -1.
        -13    1    4    4    0    0 -0.35532388095E+02 -0.36826893643E+01 -0.10629224091E+03  0.11213453207E+03  0.00000000000E+00 0.  1.
         13    1    4    4    0    0  0.24335877885E+02  0.13694143918E+02  0.18318823149E+01  0.27984287072E+02  0.00000000000E+00 0. -1.
          2    1    1    2  501    0  0.41022550284E+02  0.39238864968E+02 -0.10423353789E+03  0.11868937853E+03  0.00000000000E+00 0. -1.
<scales pt_clust_5="13000.00000" pt_clust_6="13000.00000" pt_clust_7="13000.00000" pt_clust_8="13000.00000" pt_clust_9="13000.00000"></scales>
<clustering>
<clus scale="   92.172">  7  8 -1 -1</clus>
<clus scale="   56.767">  7  9 -1 -1</clus>
<clus scale="  106.674">  5  6 -1 -1</clus>
<clus scale="  121.221">  2  5  1 -1</clus>
<clus scale="  153.064">  1  5  2 -1</clus>
</clustering>
</event>
<event>
 9    1  0.6399313E-006  0.2084518E+03  0.7546771E-02  0.1164691E+00
          1   -1    0    0  502    0 -0.00000000000E+00  0.00000000000E+00  0.52969586790E+03  0.52969586790E+03  0.00000000000E+00 0. -1.
         21   -1    0    0  501  502  0.00000000000E+00 -0.00000000000E+00 -0.52610979287E+02  0.52610979287E+02  0.00000000000E+00 0. -1.
         23    2    1    2    0    0 -0.57840880627E+01 -0.85367949456E+02  0.15789568345E+03  0.20107998267E+03  0.90448715346E+02 0.  0.
         23    2    1    2    0    0 -0.18588754881E+01 -0.83526984411E+01  0.23354827461E+03  0.25404060851E+03  0.99592224626E+02 0.  0.
        -11    1    3    3    0    0  0.34402982643E+02 -0.46185868708E+02  0.12073224998E+03  0.13376462862E+03  0.00000000000E+00 0.  1.
         11    1    3    3    0    0 -0.40187070706E+02 -0.39182080748E+02  0.37163433465E+02  0.67315354048E+02  0.00000000000E+00 0. -1.
        -13    1    4    4    0    0 -0.41384483226E+02  0.20032821469E+02  0.72938480419E+02  0.86220712788E+02  0.00000000000E+00 0.  1.
         13    1    4    4    0    0  0.39525607738E+02 -0.28385519910E+02  0.16060979420E+03  0.16781989572E+03  0.00000000000E+00 0. -1.
          1    1    1    2  501    0  0.76429635509E+01  0.93720647897E+02  0.85640930553E+02  0.12718625602E+03  0.00000000000E+00 0. -1.
<scales pt_clust_5="13000.00000" pt_clust_6="13000.00000" pt_clust_7="13000.00000" pt_clust_8="13000.00000" pt_clust_9="13000.00000"></scales>
<clustering>
<clus scale="   90.449">  5  6 -1 -1</clus>
<clus scale="   99.592">  7  8 -1 -1</clus>
<clus scale="   94.032">  7  9 -1 -1</clus>
<clus scale="  124.508">  1  5  2 -1</clus>
<clus scale="  208.452">  2  5  1 -1</clus>
</clustering>
</event>
<event>
 9    1  0.6399313E-006  0.4046541E+03  0.7546771E-02  0.1090869E+00
          1   -1    0    0  502    0 -0.00000000000E+00  0.00000000000E+00  0.50137224692E+03  0.50137224692E+03  0.00000000000E+00 0. -1.
         21   -1    0    0  501  502  0.00000000000E+00 -0.00000000000E+00 -0.24204742617E+03  0.24204742617E+03  0.00000000000E+00 0. -1.
         23    2    1    2    0    0 -0.21779636996E+02 -0.47537965048E+02  0.31759439454E+03  0.33459174875E+03  0.91385054463E+02 0.  0.
         23    2    1    2    0    0  0.13470454193E+03  0.34708687117E+02  0.11476511038E+03  0.20180708855E+03  0.90581807500E+02 0.  0.
        -11    1    4    4    0    0  0.98152637467E+02  0.30417305376E+02  0.26415602087E+02  0.10609871225E+03  0.00000000000E+00 0.  1.
         11    1    4    4    0    0  0.36551904459E+02  0.42913817414E+01  0.88349508296E+02  0.95708376294E+02  0.00000000000E+00 0. -1.
        -13    1    3    3    0    0 -0.55816865959E+02 -0.17715889943E+02  0.20624870897E+03  0.21440127153E+03  0.00000000000E+00 0. -1.
         13    1    3    3    0    0  0.34037228963E+02 -0.29822075105E+02  0.11134568556E+03  0.12019047721E+03  0.00000000000E+00 0.  1.
          1    1    1    2  501    0 -0.11292490493E+03  0.12829277931E+02 -0.17303468418E+03  0.20702083580E+03  0.00000000000E+00 0. -1.
<scales pt_clust_5="13000.00000" pt_clust_6="13000.00000" pt_clust_7="13000.00000" pt_clust_8="13000.00000" pt_clust_9="13000.00000"></scales>
<clustering>
<clus scale="   90.582">  5  6 -1 -1</clus>
<clus scale="   91.385">  7  8 -1 -1</clus>
<clus scale="  105.287">  1  7  2 -1</clus>
<clus scale="  115.330">  5  9 -1 -1</clus>
<clus scale="  404.654">  2  5  1 -1</clus>
</clustering>
</event>
<event>
 9    1  0.6399313E-006  0.3386072E+03  0.7546771E-02  0.1104723E+00
         21   -1    0    0  501  502  0.00000000000E+00  0.00000000000E+00  0.25471265266E+03  0.25471265266E+03  0.00000000000E+00 0.  1.
         -2   -1    0    0    0  501 -0.00000000000E+00 -0.00000000000E+00 -0.21122943323E+03  0.21122943323E+03  0.00000000000E+00 0.  1.
         23    2    1    2    0    0 -0.72303379193E+02 -0.46754248860E+02  0.86865073482E+01  0.12555169669E+03  0.90961721086E+02 0.  0.
         23    2    1    2    0    0 -0.10924642906E+03 -0.23939862561E+02  0.22801096822E+01  0.14286742927E+03  0.88870716017E+02 0.  0.
        -11    1    4    4    0    0 -0.70558750167E+02 -0.27794763707E+02  0.42495786985E+02  0.86930880740E+02  0.00000000000E+00 0. -1.
         11    1    4    4    0    0 -0.38687678893E+02  0.38549011464E+01 -0.40215677303E+02  0.55936548534E+02  0.00000000000E+00 0.  1.
        -11    1    3    3    0    0 -0.47668058243E+02 -0.69385118605E+02 -0.13715012775E+02  0.85291500373E+02  0.00000000000E+00 0. -1.
         11    1    3    3    0    0 -0.24635320950E+02  0.22630869745E+02  0.22401520123E+02  0.40260196318E+02  0.00000000000E+00 0.  1.
         -2    1    1    2    0  502  0.18154980825E+03  0.70694111421E+02  0.32516602393E+02  0.19752295992E+03  0.00000000000E+00 0.  1.
<scales pt_clust_5="13000.00000" pt_clust_6="13000.00000" pt_clust_7="13000.00000" pt_clust_8="13000.00000" pt_clust_9="13000.00000"></scales>
<clustering>
<clus scale="   88.871">  5  6 -1 -1</clus>
<clus scale="   90.962">  7  8 -1 -1</clus>
<clus scale="  125.251">  2  7  1 -1</clus>
<clus scale="  149.581">  5  9 -1 -1</clus>
<clus scale="  338.607">  1  5  2 -1</clus>
</clustering>
</event>
<event>
 9    1  0.6399313E-006  0.6627803E+03  0.7546771E-02  0.1030884E+00
          2   -1    0    0  502    0 -0.00000000000E+00  0.00000000000E+00  0.70902624154E+03  0.70902624154E+03  0.00000000000E+00 0. -1.
         21   -1    0    0  501  502  0.00000000000E+00 -0.00000000000E+00 -0.25382803788E+03  0.25382803788E+03  0.00000000000E+00 0. -1.
         23    2    1    2    0    0  0.81160430932E+02  0.26679406920E+02  0.22916058077E+03  0.26258954906E+03  0.95602788620E+02 0.  0.
         23    2    1    2    0    0  0.21353374854E+03 -0.28094433241E+02  0.31509252434E+03  0.39240528649E+03  0.91173740866E+02 0.  0.
        -11    1    4    4    0    0  0.38253307321E+02 -0.31119474065E+02  0.12208089994E+03  0.13166428262E+03  0.00000000000E+00 0.  1.
         11    1    4    4    0    0  0.17528044121E+03  0.30250408235E+01  0.19301162440E+03  0.26074100387E+03  0.00000000000E+00 0. -1.
        -13    1    3    3    0    0  0.10261527213E+03  0.14794906631E+02  0.18663652040E+03  0.21349935382E+03  0.00000000000E+00 0. -1.
         13    1    3    3    0    0 -0.21454841193E+02  0.11884500290E+02  0.42524060370E+02  0.49090195234E+02  0.00000000000E+00 0.  1.
          2    1    1    2  501    0 -0.29469417947E+03  0.14150263209E+01 -0.89054901460E+02  0.30785944388E+03  0.00000000000E+00 0. -1.
<scales pt_clust_5="13000.00000" pt_clust_6="13000.00000" pt_clust_7="13000.00000" pt_clust_8="13000.00000" pt_clust_9="13000.00000"></scales>
<clustering>
<clus scale="   91.174">  5  6 -1 -1</clus>
<clus scale="   95.603">  7  8 -1 -1</clus>
<clus scale="  128.213">  1  7  2 -1</clus>
<clus scale="  275.631">  5  9 -1 -1</clus>
<clus scale="  662.780">  2  5  1 -1</clus>
</clustering>
</event>
<event>
 9    1  0.6399313E-006  0.1378133E+03  0.7546771E-02  0.1234362E+00
          3   -1    0    0  502    0 -0.00000000000E+00  0.00000000000E+00  0.28561567460E+03  0.28561567460E+03  0.00000000000E+00 0. -1.
         21   -1    0    0  501  502  0.00000000000E+00 -0.00000000000E+00 -0.48002471246E+02  0.48002471246E+02  0.00000000000E+00 0. -1.
         23    2    1    2    0    0 -0.20226506969E+02 -0.88941674509E+01  0.77168478964E+02  0.12211163142E+03  0.92022054880E+02 0.  0.
         23    2    1    2    0    0  0.33774224691E+02 -0.22379767293E+02  0.90510772301E+02  0.13370961664E+03  0.89691189322E+02 0.  0.
        -11    1    4    4    0    0  0.40046036001E+01 -0.45010044368E+02  0.84515506592E+02  0.95837423789E+02  0.00000000000E+00 0.  1.
         11    1    4    4    0    0  0.29769621091E+02  0.22630277075E+02  0.59952657089E+01  0.37872192851E+02  0.00000000000E+00 0. -1.
        -13    1    3    3    0    0  0.35977346134E+02  0.52780294006E+01  0.34629785734E+02  0.50214032792E+02  0.00000000000E+00 0. -1.
         13    1    3    3    0    0 -0.56203853103E+02 -0.14172196852E+02  0.42538693230E+02  0.71897598631E+02  0.00000000000E+00 0.  1.
          3    1    1    2  501    0 -0.13547717722E+02  0.31273934744E+02  0.69933952089E+02  0.77796897783E+02  0.00000000000E+00 0. -1.
<scales pt_clust_5="13000.00000" pt_clust_6="13000.00000" pt_clust_7="13000.00000" pt_clust_8="13000.00000" pt_clust_9="13000.00000"></scales>
<clustering>
<clus scale="   89.691">  5  6 -1 -1</clus>
<clus scale="   34.082">  5  9 -1 -1</clus>
<clus scale="   92.022">  7  8 -1 -1</clus>
<clus scale="   94.638">  1  7  2 -1</clus>
<clus scale="  137.813">  2  5  1 -1</clus>
</clustering>
</event>
<event>
 9    1  0.6399313E-006  0.3272106E+03  0.7546771E-02  0.1101790E+00
         21   -1    0    0  501  502  0.00000000000E+00  0.00000000000E+00  0.26662269427E+03  0.26662269427E+03  0.00000000000E+00 0. -1.
          2   -1    0    0  502    0 -0.00000000000E+00 -0.00000000000E+00 -0.27549883799E+03  0.27549883799E+03  0.00000000000E+00 0. -1.
         23    2    1    2    0    0  0.11980275947E+03 -0.13569577480E+02 -0.12488179269E+03  0.19495569443E+03  0.88743597151E+02 0.  0.
         23    2    1    2    0    0  0.51452976317E+02  0.46853642397E+01 -0.42347001544E+02  0.11374986107E+03  0.92067371765E+02 0.  0.
        -11    1    4    4    0    0 -0.13726729515E+01 -0.21050498998E+02 -0.50213219249E+02  0.54464439100E+02  0.00000000000E+00 0.  1.
         11    1    4    4    0    0  0.52825649268E+02  0.25735863238E+02  0.78662177048E+01  0.59285421970E+02  0.00000000000E+00 0. -1.
        -13    1    3    3    0    0  0.12971282111E+02  0.19348444158E+02  0.47572738797E+01  0.23774947018E+02  0.00000000000E+00 0.  1.
         13    1    3    3    0    0  0.10683147735E+03 -0.32918021637E+02 -0.12963906657E+03  0.17118074741E+03  0.00000000000E+00 0. -1.
          2    1    1    2  501    0 -0.17125573578E+03  0.88842132401E+01  0.15835265052E+03  0.23341597677E+03  0.00000000000E+00 0. -1.
<scales pt_clust_5="13000.00000" pt_clust_6="13000.00000" pt_clust_7="13000.00000" pt_clust_8="13000.00000" pt_clust_9="13000.00000"></scales>
<clustering>
<clus scale="   88.744">  7  8 -1 -1</clus>
<clus scale="   92.067">  5  6 -1 -1</clus>
<clus scale="  149.707">  2  7  1 -1</clus>
<clus scale="  132.429">  5  9 -1 -1</clus>
<clus scale="  327.211">  1  5  2 -1</clus>
</clustering>
</event>
<event>
 9    1  0.6399313E-006  0.2471548E+03  0.7546771E-02  0.1128321E+00
         -2   -1    0    0    0  501 -0.00000000000E+00  0.00000000000E+00  0.35747813737E+03  0.35747813737E+03  0.00000000000E+00 0.  1.
         21   -1    0    0  501  502  0.00000000000E+00 -0.00000000000E+00 -0.14789226835E+03  0.14789226835E+03  0.00000000000E+00 0.  1.
         23    2    1    2    0    0 -0.14644690932E+03 -0.32961662899E+02  0.18562412706E+03  0.25705679554E+03  0.95334731951E+02 0.  0.
         23    2    1    2    0    0  0.53638383014E+02  0.31588540138E+02  0.83022010139E+02  0.13829805085E+03  0.91426389516E+02 0.  0.
        -11    1    3    3    0    0 -0.10007198627E+03  0.19055709767E+02  0.14227963364E+03  0.17498861866E+03  0.00000000000E+00 0.  1.
         11    1    3    3    0    0 -0.46374923052E+02 -0.52017372666E+02  0.43344493416E+02  0.82068176881E+02  0.00000000000E+00 0. -1.
        -13    1    4    4    0    0  0.69536068250E+02  0.44664759505E+02  0.42696515145E+02  0.93022566804E+02  0.00000000000E+00 0.  1.
         13    1    4    4    0    0 -0.15897685235E+02 -0.13076219367E+02  0.40325494994E+02  0.45275484043E+02  0.00000000000E+00 0. -1.
         -2    1    1    2    0  502  0.92808526304E+02  0.13731227615E+01 -0.59060268170E+02  0.11001555934E+03  0.00000000000E+00 0.  1.
<scales pt_clust_5="13000.00000" pt_clust_6="13000.00000" pt_clust_7="13000.00000" pt_clust_8="13000.00000" pt_clust_9="13000.00000"></scales>
<clustering>
<clus scale="   91.426">  7  8 -1 -1</clus>
<clus scale="   92.819">  7  9 -1 -1</clus>
<clus scale="   95.335">  5  6 -1 -1</clus>
<clus scale="  177.825">  1  5  2 -1</clus>
<clus scale="  247.155">  2  5  1 -1</clus>
</clustering>
</event>
<event>
 9    1  0.6399313E-006  0.3553487E+03  0.7546771E-02  0.1099051E+00
          2   -1    0    0  502    0 -0.00000000000E+00  0.00000000000E+00  0.37353022357E+03  0.37353022357E+03  0.00000000000E+00 0. -1.
         21   -1    0    0  501  502  0.00000000000E+00 -0.00000000000E+00 -0.15765879223E+03  0.15765879223E+03  0.00000000000E+00 0. -1.
         23    2    1    2    0    0  0.21248600722E+00 -0.93315891681E+02  0.89112284183E+02  0.15390855183E+03  0.83898404890E+02 0.  0.
         23    2    1    2    0    0  0.26297659837E+02  0.46381365633E+02  0.23396031985E+03  0.25728992687E+03  0.92832522372E+02 0.  0.
        -11    1    4    4    0    0  0.26021943835E+02 -0.14960667046E+02  0.23642984423E+02  0.38209342206E+02  0.00000000000E+00 0.  1.
         11    1    4    4    0    0  0.27571600222E+00  0.61342032678E+02  0.21031733543E+03  0.21908058466E+03  0.00000000000E+00 0. -1.
        -11    1    3    3    0    0 -0.28093194556E+02 -0.62919042005E+02  0.17452840125E+02  0.71081889786E+02  0.00000000000E+00 0.  1.
         11    1    3    3    0    0  0.28305680563E+02 -0.30396849676E+02  0.71659444057E+02  0.82826662042E+02  0.00000000000E+00 0. -1.
          2    1    1    2  501    0 -0.26510145844E+02  0.46934526048E+02 -0.10720117269E+03  0.11999053711E+03  0.00000000000E+00 0. -1.
<scales pt_clust_5="13000.00000" pt_clust_6="13000.00000" pt_clust_7="13000.00000" pt_clust_8="13000.00000" pt_clust_9="13000.00000"></scales>
<clustering>
<clus scale="   83.898">  7  8 -1 -1</clus>
<clus scale="   92.833">  5  6 -1 -1</clus>
<clus scale="   53.904">  5  9 -1 -1</clus>
<clus scale="  125.486">  1  7  2 -1</clus>
<clus scale="  355.349">  2  5  1 -1</clus>
</clustering>
</event>
<event>
 9    1  0.6399313E-006  0.2270465E+03  0.7546771E-02  0.1170476E+00
          4   -1    0    0  502    0 -0.00000000000E+00  0.00000000000E+00  0.18733960179E+03  0.18733960179E+03  0.00000000000E+00 0. -1.
         21   -1    0    0  501  502  0.00000000000E+00 -0.00000000000E+00 -0.18143836920E+03  0.18143836920E+03  0.00000000000E+00 0. -1.
         23    2    1    2    0    0  0.20849961541E+02 -0.13353079097E+02  0.93031685841E+02  0.12558707148E+03  0.80648573047E+02 0.  0.
         23    2    1    2    0    0  0.65603340183E+02 -0.35266834823E+02 -0.11160821665E+02  0.11825309766E+03  0.91168433600E+02 0.  0.
        -11    1    3    3    0    0  0.46301489440E+02  0.10340467478E+02  0.67244644236E+02  0.82295779785E+02  0.00000000000E+00 0. -1.
         11    1    3    3    0    0 -0.25451527899E+02 -0.23693546576E+02  0.25787041606E+02  0.43291291694E+02  0.00000000000E+00 0.  1.
        -13    1    4    4    0    0  0.88557621025E+02 -0.25292462198E+02 -0.38484735983E+01  0.92179019493E+02  0.00000000000E+00 0. -1.
         13    1    4    4    0    0 -0.22954280841E+02 -0.99743726252E+01 -0.73123480669E+01  0.26074078171E+02  0.00000000000E+00 0.  1.
          4    1    1    2  501    0 -0.86453301724E+02  0.48619913920E+02 -0.75969631584E+02  0.12493780185E+03  0.00000000000E+00 0. -1.
<scales pt_clust_5="13000.00000" pt_clust_6="13000.00000" pt_clust_7="13000.00000" pt_clust_8="13000.00000" pt_clust_9="13000.00000"></scales>
<clustering>
<clus scale="   80.649">  5  6 -1 -1</clus>
<clus scale="   84.364">  1  5  2 -1</clus>
<clus scale="   91.168">  7  8 -1 -1</clus>
<clus scale="   91.432">  7  9 -1 -1</clus>
<clus scale="  227.046">  2  5  1 -1</clus>
</clustering>
</event>
<event>
 9    1  0.6399313E-006  0.2418204E+03  0.7546771E-02  0.1149040E+00
         21   -1    0    0  501  502  0.00000000000E+00  0.00000000000E+00  0.19609382643E+03  0.19609382643E+03  0.00000000000E+00 0. -1.
          2   -1    0    0  502    0 -0.00000000000E+00 -0.00000000000E+00 -0.28202941250E+03  0.28202941250E+03  0.00000000000E+00 0. -1.
         23    2    1    2    0    0 -0.95103476139E+01  0.67977953382E+02 -0.18414192227E+03  0.21712212093E+03  0.92316407002E+02 0.  0.
         23    2    1    2    0    0 -0.36147211415E+02 -0.12953124098E+03  0.82157129383E+02  0.18270043504E+03  0.92437501989E+02 0.  0.
        -11    1    3    3    0    0  0.41572733783E+02  0.32420881147E+02 -0.88447922381E+02  0.10296815382E+03  0.00000000000E+00 0.  1.
         11    1    3    3    0    0 -0.51083081397E+02  0.35557072234E+02 -0.95693999893E+02  0.11415396711E+03  0.00000000000E+00 0. -1.
        -11    1    4    4    0    0 -0.24040940793E+02 -0.37619944069E+02 -0.16243044036E+02  0.47508562444E+02  0.00000000000E+00 0.  1.
         11    1    4    4    0    0 -0.12106270622E+02 -0.91911296910E+02  0.98400173419E+02  0.13519187260E+03  0.00000000000E+00 0. -1.
          2    1    1    2  501    0  0.45657559029E+02  0.61553287597E+02  0.16049206819E+02  0.78300682947E+02  0.00000000000E+00 0. -1.
<scales pt_clust_5="13000.00000" pt_clust_6="13000.00000" pt_clust_7="13000.00000" pt_clust_8="13000.00000" pt_clust_9="13000.00000"></scales>
<clustering>
<clus scale="   92.316">  5  6 -1 -1</clus>
<clus scale="   92.438">  7  8 -1 -1</clus>
<clus scale="   76.638">  7  9 -1 -1</clus>
<clus scale="  115.038">  2  5  1 -1</clus>
<clus scale="  241.820">  1  5  2 -1</clus>
</clustering>
</event>
<event>
 9    1  0.6399313E-006  0.1720753E+03  0.7546771E-02  0.1202743E+00
         21   -1    0    0  501  502  0.00000000000E+00  0.00000000000E+00  0.16278126135E+03  0.16278126135E+03  0.00000000000E+00 0.  1.
         -1   -1    0    0    0  501 -0.00000000000E+00 -0.00000000000E+00 -0.16246460232E+03  0.16246460232E+03  0.00000000000E+00 0.  1.
         23    2    1    2    0    0  0.14171038540E+02 -0.32275580004E+02  0.90549914710E+02  0.13094723273E+03  0.87780176047E+02 0.  0.
         23    2    1    2    0    0 -0.63237712443E+02  0.17688081499E+01 -0.82850541428E+02  0.13605169036E+03  0.87428332244E+02 0.  0.
        -11    1    4    4    0    0 -0.71486364988E+02  0.20759340324E+02 -0.87450067069E+02  0.11484234768E+03  0.00000000000E+00 0.  1.
         11    1    4    4    0    0  0.82486525452E+01 -0.18990532174E+02  0.45995256414E+01  0.21209342687E+02  0.00000000000E+00 0. -1.
        -13    1    3    3    0    0 -0.48254943223E+01 -0.52858957435E+02  0.88069424529E+02  0.10282790630E+03  0.00000000000E+00 0.  1.
         13    1    3    3    0    0  0.18996532862E+02  0.20583377432E+02  0.24804901812E+01  0.28119326429E+02  0.00000000000E+00 0. -1.
         -1    1    1    2    0  502  0.49066673903E+02  0.30506771854E+02 -0.73827142507E+01  0.58246940576E+02  0.00000000000E+00 0.  1.
<scales pt_clust_5="13000.00000" pt_clust_6="13000.00000" pt_clust_7="13000.00000" pt_clust_8="13000.00000" pt_clust_9="13000.00000"></scales>
<clustering>
<clus scale="   87.428">  5  6 -1 -1</clus>
<clus scale="   57.777">  5  9 -1 -1</clus>
<clus scale="   87.780">  7  8 -1 -1</clus>
<clus scale="   94.593">  2  7  1 -1</clus>
<clus scale="  172.075">  1  5  2 -1</clus>
</clustering>
</event>
<event>
 9    1  0.6399313E-006  0.2773496E+03  0.7546771E-02  0.1118964E+00
          2   -1    0    0  502    0 -0.00000000000E+00  0.00000000000E+00  0.11175653214E+04  0.11175653214E+04  0.00000000000E+00 0. -1.
         21   -1    0    0  501  502  0.00000000000E+00 -0.00000000000E+00 -0.43194968641E+02  0.43194968641E+02  0.00000000000E+00 0. -1.
         23    2    1    2    0    0 -0.45630411471E+02 -0.11904439646E+03  0.46170504207E+03  0.48824146487E+03  0.94628110879E+02 0.  0.
         23    2    1    2    0    0  0.26237976616E+02 -0.63017264519E+01  0.47664990413E+03  0.48654057945E+03  0.93800112864E+02 0.  0.
        -13    1    4    4    0    0 -0.26902682152E+02 -0.29090553685E+02  0.18028533485E+03  0.18458823522E+03  0.00000000000E+00 0.  1.
         13    1    4    4    0    0  0.53140658768E+02  0.22788827234E+02  0.29636456929E+03  0.30195234423E+03  0.00000000000E+00 0. -1.
        -13    1    3    3    0    0 -0.42338305226E+02 -0.10269212167E+02  0.77326160442E+02  0.88754289455E+02  0.00000000000E+00 0.  1.
         13    1    3    3    0    0 -0.32921062444E+01 -0.10877518429E+03  0.38437888163E+03  0.39948717542E+03  0.00000000000E+00 0. -1.
          2    1    1    2  501    0  0.19392434855E+02  0.12534612291E+03  0.13601540657E+03  0.18597824572E+03  0.00000000000E+00 0. -1.
<scales pt_clust_5="13000.00000" pt_clust_6="13000.00000" pt_clust_7="13000.00000" pt_clust_8="13000.00000" pt_clust_9="13000.00000"></scales>
<clustering>
<clus scale="   93.800">  5  6 -1 -1</clus>
<clus scale="   94.628">  7  8 -1 -1</clus>
<clus scale="  126.837">  5  9 -1 -1</clus>
<clus scale="  158.771">  1  7  2 -1</clus>
<clus scale="  277.350">  2  5  1 -1</clus>
</clustering>
</event>
<event>
 9    1  0.6399313E-006  0.3714141E+03  0.7546771E-02  0.1076129E+00
         21   -1    0    0  501  502  0.00000000000E+00  0.00000000000E+00  0.10756376332E+03  0.10756376332E+03  0.00000000000E+00 0. -1.
          2   -1    0    0  502    0 -0.00000000000E+00 -0.00000000000E+00 -0.89751131730E+03  0.89751131730E+03  0.00000000000E+00 0. -1.
         23    2    1    2    0    0  0.17029437118E+03  0.56248826888E+02 -0.10928868764E+03  0.22967524195E+03  0.92965564260E+02 0.  0.
         23    2    1    2    0    0 -0.10658303253E+03 -0.30728766580E+02 -0.69112983350E+03  0.70597326375E+03  0.91834647366E+02 0.  0.
        -11    1    4    4    0    0 -0.68189980526E+02  0.26787969206E+02 -0.30303303740E+03  0.31176351694E+03  0.00000000000E+00 0.  1.
         11    1    4    4    0    0 -0.38393052005E+02 -0.57516735785E+02 -0.38809679609E+03  0.39420974681E+03  0.00000000000E+00 0. -1.
        -11    1    3    3    0    0  0.92723506646E+02  0.48921684144E+02 -0.10972453186E+03  0.15175787543E+03  0.00000000000E+00 0. -1.
         11    1    3    3    0    0  0.77570864535E+02  0.73271427446E+01  0.43584421820E+00  0.77917366522E+02  0.00000000000E+00 0.  1.
          2    1    1    2  501    0 -0.63711338650E+02 -0.25520060309E+02  0.10470967159E+02  0.69426574912E+02  0.00000000000E+00 0. -1.
<scales pt_clust_5="13000.00000" pt_clust_6="13000.00000" pt_clust_7="13000.00000" pt_clust_8="13000.00000" pt_clust_9="13000.00000"></scales>
<clustering>
<clus scale="   91.835">  5  6 -1 -1</clus>
<clus scale="   68.632">  5  9 -1 -1</clus>
<clus scale="   92.966">  7  8 -1 -1</clus>
<clus scale="  202.007">  2  7  1 -1</clus>
<clus scale="  371.414">  1  5  2 -1</clus>
</clustering>
</event>
<event>
 9    1  0.6399313E-006  0.1298685E+03  0.7546771E-02  0.1241787E+00
          2   -1    0    0  502    0 -0.00000000000E+00  0.00000000000E+00  0.40102198346E+03  0.40102198346E+03  0.00000000000E+00 0. -1.
         21   -1    0    0  501  502  0.00000000000E+00 -0.00000000000E+00 -0.39273495697E+02  0.39273495697E+02  0.00000000000E+00 0.  1.
         23    2    1    2    0    0  0.36083681409E+02  0.10606271135E+02  0.25256699958E+03  0.27062982417E+03  0.89643111290E+02 0.  0.
         23    2    1    2    0    0 -0.17586241499E+02  0.13374118093E+02  0.56548939178E+02  0.10894169295E+03  0.90456437117E+02 0.  0.
        -11    1    3    3    0    0 -0.25424792967E+02  0.23131421248E+02  0.84518725319E+02  0.91240877221E+02  0.00000000000E+00 0. -1.
         11    1    3    3    0    0  0.61508474376E+02 -0.12525150113E+02  0.16804827426E+03  0.17938894695E+03  0.00000000000E+00 0.  1.
        -11    1    4    4    0    0  0.19211562206E+01 -0.24845099473E+02 -0.12320251095E+02  0.27798532265E+02  0.00000000000E+00 0.  1.
         11    1    4    4    0    0 -0.19507397719E+02  0.38219217566E+02  0.68869190273E+02  0.81143160685E+02  0.00000000000E+00 0. -1.
          2    1    1    2  501    0 -0.18497439910E+02 -0.23980389228E+02  0.52632549001E+02  0.60723962034E+02  0.00000000000E+00 0. -1.
<scales pt_clust_5="13000.00000" pt_clust_6="13000.00000" pt_clust_7="13000.00000" pt_clust_8="13000.00000" pt_clust_9="13000.00000"></scales>
<clustering>
<clus scale="   89.643">  5  6 -1 -1</clus>
<clus scale="   90.456">  7  8 -1 -1</clus>
<clus scale="   30.286">  7  9 -1 -1</clus>
<clus scale="   97.213">  1  5  2 -1</clus>
<clus scale="  129.869">  2  5  1 -1</clus>
</clustering>
</event>
<event>
 9    1  0.6399313E-006  0.2030303E+03  0.7546771E-02  0.1171317E+00
          2   -1    0    0  502    0 -0.00000000000E+00  0.00000000000E+00  0.59651255529E+03  0.59651255529E+03  0.00000000000E+00 0. -1.
         21   -1    0    0  501  502  0.00000000000E+00 -0.00000000000E+00 -0.10207097583E+03  0.10207097583E+03  0.00000000000E+00 0. -1.
         23    2    1    2    0    0  0.41428292911E+02  0.56036714684E+02  0.48141938353E+03  0.49513599679E+03  0.92404629962E+02 0.  0.
         23    2    1    2    0    0  0.23684281613E+01 -0.43941196467E+02  0.74945996496E+02  0.12664251226E+03  0.92113980061E+02 0.  0.
        -13    1    3    3    0    0  0.20202587364E+02 -0.17317271843E+02  0.46598035682E+02  0.53660128305E+02  0.00000000000E+00 0.  1.
         13    1    3    3    0    0  0.21225705547E+02  0.73353986527E+02  0.43482134784E+03  0.44147586849E+03  0.00000000000E+00 0. -1.
        -13    1    4    4    0    0 -0.83752992055E+01  0.26867658321E+02  0.97238195664E+01  0.29775314732E+02  0.00000000000E+00 0. -1.
         13    1    4    4    0    0  0.10743727367E+02 -0.70808854788E+02  0.65222176929E+02  0.96867197531E+02  0.00000000000E+00 0.  1.
          2    1    1    2  501    0 -0.43796721072E+02 -0.12095518218E+02 -0.61923800561E+02  0.76805022060E+02  0.00000000000E+00 0. -1.
<scales pt_clust_5="13000.00000" pt_clust_6="13000.00000" pt_clust_7="13000.00000" pt_clust_8="13000.00000" pt_clust_9="13000.00000"></scales>
<clustering>
<clus scale="   92.114">  7  8 -1 -1</clus>
<clus scale="   45.436">  7  9 -1 -1</clus>
<clus scale="   92.405">  5  6 -1 -1</clus>
<clus scale="  115.737">  1  5  2 -1</clus>
<clus scale="  203.030">  2  5  1 -1</clus>
</clustering>
</event>
<event>
 9    1  0.6399313E-006  0.1579206E+03  0.7546771E-02  0.1215245E+00
         21   -1    0    0  501  502  0.00000000000E+00  0.00000000000E+00  0.41974168385E+03  0.41974168385E+03  0.00000000000E+00 0.  1.
         -1   -1    0    0    0  501 -0.00000000000E+00 -0.00000000000E+00 -0.50145819702E+02  0.50145819702E+02  0.00000000000E+00 0.  1.
         23    2    1    2    0    0 -0.19871606901E+02  0.86188722681E+01  0.35163061302E+02  0.10004398117E+03  0.91121850117E+02 0.  0.
         23    2    1    2    0    0 -0.19765841738E+02 -0.39938849734E+02  0.17618131580E+03  0.20372428365E+03  0.92075661795E+02 0.  0.
        -11    1    3    3    0    0  0.79851792658E+01 -0.38190988085E+02  0.11694262258E+02  0.40731688261E+02  0.00000000000E+00 0.  1.
         11    1    3    3    0    0 -0.27856786167E+02  0.46809860353E+02  0.23468799044E+02  0.59312292912E+02  0.00000000000E+00 0. -1.
        -11    1    4    4    0    0 -0.75318655066E+01  0.26992148585E+02  0.87941839730E+02  0.92298820460E+02  0.00000000000E+00 0. -1.
         11    1    4    4    0    0 -0.12233976231E+02 -0.66930998319E+02  0.88239476069E+02  0.11142546319E+03  0.00000000000E+00 0.  1.
         -1    1    1    2    0  502  0.39637448639E+02  0.31319977465E+02  0.15825148705E+03  0.16611923873E+03  0.00000000000E+00 0.  1.
<scales pt_clust_5="13000.00000" pt_clust_6="13000.00000" pt_clust_7="13000.00000" pt_clust_8="13000.00000" pt_clust_9="13000.00000"></scales>
<clustering>
<clus scale="   91.122">  5  6 -1 -1</clus>
<clus scale="   92.076">  7  8 -1 -1</clus>
<clus scale="   50.518">  7  9 -1 -1</clus>
<clus scale="   93.661">  2  5  1 -1</clus>
<clus scale="  157.921">  1  5  2 -1</clus>
</clustering>
</event>
<event>
 9    1  0.6399313E-006  0.2815257E+03  0.7546771E-02  0.1136053E+00
         -1   -1    0    0    0  501 -0.00000000000E+00  0.00000000000E+00  0.34700176677E+03  0.34700176677E+03  0.00000000000E+00 0.  1.
         21   -1    0    0  501  502  0.00000000000E+00 -0.00000000000E+00 -0.13734599092E+03  0.13734599092E+03  0.00000000000E+00 0.  1.
         23    2    1    2    0    0  0.30766173238E+02 -0.13816654548E+02  0.17412160645E+03  0.20058837576E+03  0.93701148869E+02 0.  0.
         23    2    1    2    0    0  0.25246629728E+01  0.23994154626E+02  0.14281308911E+03  0.17097362088E+03  0.90853218080E+02 0.  0.
        -11    1    3    3    0    0 -0.46515340469E+01 -0.48576960341E+02  0.10161801976E+03  0.11272790154E+03  0.00000000000E+00 0. -1.
         11    1    3    3    0    0  0.35417707284E+02  0.34760305793E+02  0.72503586687E+02  0.87860474222E+02  0.00000000000E+00 0.  1.
        -13    1    4    4    0    0  0.63497776098E+01 -0.28688251127E+02  0.95992331210E+02  0.10038856050E+03  0.00000000000E+00 0. -1.
         13    1    4    4    0    0 -0.38251146370E+01  0.52682405753E+02  0.46820757899E+02  0.70585060376E+02  0.00000000000E+00 0.  1.
         -1    1    1    2    0  502 -0.33290836210E+02 -0.10177500077E+02 -0.10727891970E+03  0.11278576105E+03  0.00000000000E+00 0.  1.
<scales pt_clust_5="13000.00000" pt_clust_6="13000.00000" pt_clust_7="13000.00000" pt_clust_8="13000.00000" pt_clust_9="13000.00000"></scales>
<clustering>
<clus scale="   90.853">  7  8 -1 -1</clus>
<clus scale="   34.812">  7  9 -1 -1</clus>
<clus scale="   93.701">  5  6 -1 -1</clus>
<clus scale="   99.586">  1  5  2 -1</clus>
<clus scale="  281.526">  2  5  1 -1</clus>
</clustering>
</event>
<event>
 9    1  0.6399313E-006  0.2164003E+03  0.7546771E-02  0.1158683E+00
         21   -1    0    0  501  502  0.00000000000E+00  0.00000000000E+00  0.71825324187E+02  0.71825324187E+02  0.00000000000E+00 0.  1.
          1   -1    0    0  502    0 -0.00000000000E+00 -0.00000000000E+00 -0.45693694201E+03  0.45693694201E+03  0.00000000000E+00 0. -1.
         23    2    1    2    0    0  0.58904733932E+02 -0.66408340890E+02 -0.68101960092E+02  0.14493392216E+03  0.92131044747E+02 0.  0.
         23    2    1    2    0    0 -0.55897865435E+02 -0.31679145850E+02 -0.20141755944E+03  0.23219810463E+03  0.96014514021E+02 0.  0.
        -11    1    4    4    0    0 -0.83836213347E+01  0.31737267454E+02 -0.87288903730E+02  0.93257128234E+02  0.00000000000E+00 0. -1.
         11    1    4    4    0    0 -0.47514244100E+02 -0.63416413303E+02 -0.11412865571E+03  0.13894097640E+03  0.00000000000E+00 0.  1.
        -13    1    3    3    0    0 -0.44800265947E+01 -0.43153650671E+02 -0.63965989531E+02  0.77291370936E+02  0.00000000000E+00 0.  1.
         13    1    3    3    0    0  0.63384760527E+02 -0.23254690219E+02 -0.41359705616E+01  0.67642551229E+02  0.00000000000E+00 0. -1.
          1    1    1    2  501    0 -0.30068684973E+01  0.98087486740E+02 -0.11559209829E+03  0.15163023940E+03  0.00000000000E+00 0. -1.
<scales pt_clust_5="13000.00000" pt_clust_6="13000.00000" pt_clust_7="13000.00000" pt_clust_8="13000.00000" pt_clust_9="13000.00000"></scales>
<clustering>
<clus scale="   92.131">  7  8 -1 -1</clus>
<clus scale="   96.015">  5  6 -1 -1</clus>
<clus scale="   98.134">  5  9 -1 -1</clus>
<clus scale="  127.937">  2  7  1 -1</clus>
<clus scale="  216.400">  1  5  2 -1</clus>
</clustering>
</event>
<event>
 9    1  0.6399313E-006  0.2589064E+03  0.7546771E-02  0.1122012E+00
         21   -1    0    0  501  502  0.00000000000E+00  0.00000000000E+00  0.65238739699E+02  0.65238739699E+02  0.00000000000E+00 0. -1.
          1   -1    0    0  502    0 -0.00000000000E+00 -0.00000000000E+00 -0.74687725097E+03  0.74687725097E+03  0.00000000000E+00 0. -1.
         23    2    1    2    0    0  0.45562866309E+02 -0.14924112426E+03 -0.24569379573E+03  0.30508511891E+03  0.91447255630E+02 0.  0.
         23    2    1    2    0    0 -0.61348596373E+02  0.14502340828E+02 -0.27112633992E+03  0.29356231207E+03  0.93248971601E+02 0.  0.
        -13    1    3    3    0    0  0.23325169925E+02 -0.15586948955E+03 -0.21659225080E+03  0.26786482492E+03  0.00000000000E+00 0. -1.
         13    1    3    3    0    0  0.22237696385E+02  0.66283652919E+01 -0.29101544933E+02  0.37220293987E+02  0.00000000000E+00 0.  1.
        -13    1    4    4    0    0 -0.81293806620E+02  0.57769738254E+01 -0.15207219547E+03  0.17253408086E+03  0.00000000000E+00 0.  1.
         13    1    4    4    0    0  0.19945210247E+02  0.87253670025E+01 -0.11905414445E+03  0.12102823122E+03  0.00000000000E+00 0. -1.
          1    1    1    2  501    0  0.15785730063E+02  0.13473878343E+03 -0.16481837562E+03  0.21346855969E+03  0.00000000000E+00 0. -1.
<scales pt_clust_5="13000.00000" pt_clust_6="13000.00000" pt_clust_7="13000.00000" pt_clust_8="13000.00000" pt_clust_9="13000.00000"></scales>
<clustering>
<clus scale="   91.447">  5  6 -1 -1</clus>
<clus scale="   93.249">  7  8 -1 -1</clus>
<clus scale="  135.660">  7  9 -1 -1</clus>
<clus scale="  180.863">  2  5  1 -1</clus>
<clus scale="  258.906">  1  5  2 -1</clus>
</clustering>
</event>
<event>
 9    1  0.6399313E-006  0.2968470E+03  0.7546771E-02  0.1116764E+00
         21   -1    0    0  501  502  0.00000000000E+00  0.00000000000E+00  0.68121065867E+03  0.68121065867E+03  0.00000000000E+00 0. -1.
         -3   -1    0    0    0  501 -0.00000000000E+00 -0.00000000000E+00 -0.74390753386E+02  0.74390753386E+02  0.00000000000E+00 0.  1.
         23    2    1    2    0    0 -0.10134560606E+03  0.13164141863E+02  0.10474299638E+03  0.17233529689E+03  0.91017211373E+02 0.  0.
         23    2    1    2    0    0  0.11605124659E+03  0.98343427493E+02  0.24026653477E+03  0.29831898692E+03  0.90149257690E+02 0.  0.
        -13    1    3    3    0    0  0.19747536358E+01  0.31788770017E+02  0.25498943949E+02  0.40799775656E+02  0.00000000000E+00 0. -1.
         13    1    3    3    0    0 -0.10332035970E+03 -0.18624628153E+02  0.79244052427E+02  0.13153552124E+03  0.00000000000E+00 0.  1.
        -13    1    4    4    0    0  0.62990704950E+02  0.41601647956E+02  0.19335378033E+03  0.20756736351E+03  0.00000000000E+00 0. -1.
         13    1    4    4    0    0  0.53060541639E+02  0.56741779537E+02  0.46912754434E+02  0.90751623416E+02  0.00000000000E+00 0.  1.
         -3    1    1    2    0  502 -0.14705640528E+02 -0.11150756936E+03  0.26181037414E+03  0.28494712824E+03  0.00000000000E+00 0.  1.
<scales pt_clust_5="13000.00000" pt_clust_6="13000.00000" pt_clust_7="13000.00000" pt_clust_8="13000.00000" pt_clust_9="13000.00000"></scales>
<clustering>
<clus scale="   90.149">  7  8 -1 -1</clus>
<clus scale="   91.017">  5  6 -1 -1</clus>
<clus scale="  112.473">  7  9 -1 -1</clus>
<clus scale="  136.852">  2  5  1 -1</clus>
<clus scale="  296.847">  1  5  2 -1</clus>
</clustering>
</event>
<event>
 9    1  0.6399313E-006  0.1331424E+03  0.7546771E-02  0.1235742E+00
         21   -1    0    0  501  502  0.00000000000E+00  0.00000000000E+00  0.28738705618E+03  0.28738705618E+03  0.00000000000E+00 0. -1.
          4   -1    0    0  502    0 -0.00000000000E+00 -0.00000000000E+00 -0.73282941116E+02  0.73282941116E+02  0.00000000000E+00 0. -1.
         23    2    1    2    0    0 -0.14700878472E+02 -0.44872137221E+02 -0.73306833195E+01  0.10228989933E+03  0.90442578804E+02 0.  0.
         23    2    1    2    0    0  0.16111200729E+02  0.37815862122E+01  0.14343267029E+03  0.17020553032E+03  0.90128355494E+02 0.  0.
        -13    1    4    4    0    0 -0.20863891035E+02  0.20585858127E+02  0.10382761399E+02  0.31094713992E+02  0.00000000000E+00 0.  1.
         13    1    4    4    0    0  0.36975091763E+02 -0.16804271915E+02  0.13304990889E+03  0.13911081633E+03  0.00000000000E+00 0. -1.
        -13    1    3    3    0    0 -0.19052534633E+01 -0.66409124016E+02 -0.25690925175E+02  0.71230789548E+02  0.00000000000E+00 0.  1.
         13    1    3    3    0    0 -0.12795625009E+02  0.21536986795E+02  0.18360241855E+02  0.31059109784E+02  0.00000000000E+00 0. -1.
          4    1    1    2  501    0 -0.14103222564E+01  0.41090551009E+02  0.78002128093E+02  0.88174567637E+02  0.00000000000E+00 0. -1.
<scales pt_clust_5="13000.00000" pt_clust_6="13000.00000" pt_clust_7="13000.00000" pt_clust_8="13000.00000" pt_clust_9="13000.00000"></scales>
<clustering>
<clus scale="   90.128">  5  6 -1 -1</clus>
<clus scale="   41.115">  5  9 -1 -1</clus>
<clus scale="   90.443">  7  8 -1 -1</clus>
<clus scale="  102.027">  2  7  1 -1</clus>
<clus scale="  133.142">  1  5  2 -1</clus>
</clustering>
</event>
<event>
 9    1  0.6399313E-006  0.2801236E+03  0.7546771E-02  0.1132906E+00
         21   -1    0    0  501  502  0.00000000000E+00  0.00000000000E+00  0.28074311974E+03  0.28074311974E+03  0.00000000000E+00 0. -1.
          1   -1    0    0  502    0 -0.00000000000E+00 -0.00000000000E+00 -0.13907302115E+03  0.13907302115E+03  0.00000000000E+00 0. -1.
         23    2    1    2    0    0 -0.59202998664E+02 -0.88324316978E+01  0.73289665503E+02  0.13146723766E+03  0.91264739131E+02 0.  0.
         23    2    1    2    0    0  0.10036419300E+03  0.97689000196E+02 -0.35831690614E+01  0.16682321163E+03  0.90559554115E+02 0.  0.
        -11    1    4    4    0    0  0.15266327667E+02  0.67121870894E+02 -0.26137767488E+02  0.73631441667E+02  0.00000000000E+00 0. -1.
         11    1    4    4    0    0  0.85097865336E+02  0.30567129302E+02  0.22554598427E+02  0.93191769963E+02  0.00000000000E+00 0.  1.
        -13    1    3    3    0    0  0.22870530686E+02 -0.12125606582E+02  0.25991693945E+02  0.36683234085E+02  0.00000000000E+00 0. -1.
         13    1    3    3    0    0 -0.82073529349E+02  0.32931748843E+01  0.47297971558E+02  0.94784003578E+02  0.00000000000E+00 0.  1.
          1    1    1    2  501    0 -0.41161194339E+02 -0.88856568498E+02  0.71963602150E+02  0.12152569160E+03  0.00000000000E+00 0. -1.
<scales pt_clust_5="13000.00000" pt_clust_6="13000.00000" pt_clust_7="13000.00000" pt_clust_8="13000.00000" pt_clust_9="13000.00000"></scales>
<clustering>
<clus scale="   90.560">  5  6 -1 -1</clus>
<clus scale="   91.265">  7  8 -1 -1</clus>
<clus scale="   97.927">  5  9 -1 -1</clus>
<clus scale="  109.143">  2  7  1 -1</clus>
<clus scale="  280.124">  1  5  2 -1</clus>
</clustering>
</event>
<event>
 9    1  0.6399313E-006  0.3352488E+03  0.7546771E-02  0.1105232E+00
         21   -1    0    0  501  502  0.00000000000E+00  0.00000000000E+00  0.37537822955E+03  0.37537822955E+03  0.00000000000E+00 0. -1.
          2   -1    0    0  502    0 -0.00000000000E+00 -0.00000000000E+00 -0.14279769881E+03  0.14279769881E+03  0.00000000000E+00 0. -1.
         23    2    1    2    0    0 -0.52716326954E+02 -0.69849228175E+02  0.74025809815E+02  0.14732372675E+03  0.92555573260E+02 0.  0.
         23    2    1    2    0    0 -0.18223373044E+02 -0.80724447114E+02 -0.21474037721E+02  0.12566813470E+03  0.92102215478E+02 0.  0.
        -13    1    3    3    0    0  0.12680976891E+02 -0.54373852491E+02  0.52807592338E+02  0.76850275329E+02  0.00000000000E+00 0.  1.
         13    1    3    3    0    0 -0.65397303845E+02 -0.15475375684E+02  0.21218217477E+02  0.70473451424E+02  0.00000000000E+00 0. -1.
        -13    1    4    4    0    0 -0.30930837949E+02  0.97103052019E+01 -0.36785667653E+01  0.32627267995E+02  0.00000000000E+00 0.  1.
         13    1    4    4    0    0  0.12707464905E+02 -0.90434752316E+02 -0.17795470956E+02  0.93040866706E+02  0.00000000000E+00 0. -1.
          2    1    1    2  501    0  0.70939699998E+02  0.15057367529E+03  0.18002875865E+03  0.24518406691E+03  0.00000000000E+00 0. -1.
<scales pt_clust_5="13000.00000" pt_clust_6="13000.00000" pt_clust_7="13000.00000" pt_clust_8="13000.00000" pt_clust_9="13000.00000"></scales>
<clustering>
<clus scale="   92.102">  7  8 -1 -1</clus>
<clus scale="   92.556">  5  6 -1 -1</clus>
<clus scale="  127.375">  2  5  1 -1</clus>
<clus scale="  140.268">  7  9 -1 -1</clus>
<clus scale="  335.249">  1  5  2 -1</clus>
</clustering>
</event>
<event>
 9    1  0.6399313E-006  0.2116279E+03  0.7546771E-02  0.1164601E+00
          1   -1    0    0  502    0 -0.00000000000E+00  0.00000000000E+00  0.29489179905E+03  0.29489179905E+03  0.00000000000E+00 0. -1.
         21   -1    0    0  501  502  0.00000000000E+00 -0.00000000000E+00 -0.26552791220E+03  0.26552791220E+03  0.00000000000E+00 0. -1.
         23    2    1    2    0    0 -0.39964433612E+02 -0.69730592239E+02  0.23614602627E+03  0.26453927708E+03  0.88071402543E+02 0.  0.
         23    2    1    2    0    0 -0.21769293174E+02  0.64490096100E+02 -0.49311990279E+02  0.12666056626E+03  0.94754166348E+02 0.  0.
        -13    1    4    4    0    0  0.35691813450E+01  0.84282365118E+02 -0.38610644014E+02  0.92774123313E+02  0.00000000000E+00 0.  1.
         13    1    4    4    0    0 -0.25338474519E+02 -0.19792269018E+02 -0.10701346265E+02  0.33886442949E+02  0.00000000000E+00 0. -1.
        -13    1    3    3    0    0 -0.35254311998E+01 -0.19708713496E+02 -0.40612551261E+00  0.20025658310E+02  0.00000000000E+00 0.  1.
         13    1    3    3    0    0 -0.36439002413E+02 -0.50021878743E+02  0.23655215179E+03  0.24451361877E+03  0.00000000000E+00 0. -1.
          1    1    1    2  501    0  0.61733726787E+02  0.52404961392E+01 -0.15747014915E+03  0.16921986791E+03  0.00000000000E+00 0. -1.
<scales pt_clust_5="13000.00000" pt_clust_6="13000.00000" pt_clust_7="13000.00000" pt_clust_8="13000.00000" pt_clust_9="13000.00000"></scales>
<clustering>
<clus scale="   88.071">  7  8 -1 -1</clus>
<clus scale="   94.754">  5  6 -1 -1</clus>
<clus scale="   61.956">  5  9 -1 -1</clus>
<clus scale="  119.231">  1  7  2 -1</clus>
<clus scale="  211.628">  2  5  1 -1</clus>
</clustering>
</event>
<event>
 9    1  0.6399313E-006  0.3090664E+03  0.7546771E-02  0.1105439E+00
         21   -1    0    0  501  502  0.00000000000E+00  0.00000000000E+00  0.80485577453E+03  0.80485577453E+03  0.00000000000E+00 0. -1.
          1   -1    0    0  502    0 -0.00000000000E+00 -0.00000000000E+00 -0.57228366798E+03  0.57228366798E+03  0.00000000000E+00 0. -1.
         23    2    1    2    0    0  0.49006243232E+02 -0.12640364352E+03 -0.53010462792E+03  0.55421913138E+03  0.88138731978E+02 0.  0.
         23    2    1    2    0    0  0.70978497173E+02  0.11861041103E+03  0.27165462852E+03  0.31739110234E+03  0.88512699549E+02 0.  0.
        -13    1    3    3    0    0 -0.21064820983E+02 -0.64695689214E+02 -0.24013955859E+03  0.24959220037E+03  0.00000000000E+00 0. -1.
         13    1    3    3    0    0  0.70071064215E+02 -0.61707954305E+02 -0.28996506933E+03  0.30462693101E+03  0.00000000000E+00 0.  1.
        -13    1    4    4    0    0  0.36997873145E+02  0.73159102388E+01  0.26723178758E+02  0.46222218065E+02  0.00000000000E+00 0.  1.
         13    1    4    4    0    0  0.33980624028E+02  0.11129450079E+03  0.24493144976E+03  0.27116888427E+03  0.00000000000E+00 0. -1.
          1    1    1    2  501    0 -0.11998474041E+03  0.77932324929E+01  0.49102210595E+03  0.50552920878E+03  0.00000000000E+00 0. -1.
<scales pt_clust_5="13000.00000" pt_clust_6="13000.00000" pt_clust_7="13000.00000" pt_clust_8="13000.00000" pt_clust_9="13000.00000"></scales>
<clustering>
<clus scale="   88.139">  5  6 -1 -1</clus>
<clus scale="   88.513">  7  8 -1 -1</clus>
<clus scale="  120.238">  7  9 -1 -1</clus>
<clus scale="  161.703">  2  5  1 -1</clus>
<clus scale="  309.066">  1  5  2 -1</clus>
</clustering>
</event>
<event>
 9    1  0.6399313E-006  0.4508844E+03  0.7546771E-02  0.1065204E+00
          2   -1    0    0  502    0 -0.00000000000E+00  0.00000000000E+00  0.47333810813E+03  0.47333810813E+03  0.00000000000E+00 0. -1.
         21   -1    0    0  501  502  0.00000000000E+00 -0.00000000000E+00 -0.19381883321E+03  0.19381883321E+03  0.00000000000E+00 0. -1.
         23    2    1    2    0    0 -0.72623345620E+02 -0.98249413243E+02  0.44610560951E+02  0.15874883042E+03  0.91016435211E+02 0.  0.
         23    2    1    2    0    0  0.15487630109E+03  0.15949526005E+03  0.29754555498E+03  0.38824165851E+03  0.11301690798E+03 0.  0.
        -11    1    4    4    0    0 -0.29582603956E+01  0.22758535048E+02 -0.20576373936E+01  0.23042050554E+02  0.00000000000E+00 0.  1.
         11    1    4    4    0    0  0.15783456149E+03  0.13673672500E+03  0.29960319238E+03  0.36519960795E+03  0.00000000000E+00 0. -1.
        -11    1    3    3    0    0 -0.91756442501E+02 -0.60245202431E+02  0.30586773570E+02  0.11394858434E+03  0.00000000000E+00 0.  1.
         11    1    3    3    0    0  0.19133096881E+02 -0.38004210811E+02  0.14023787381E+02  0.44800246073E+02  0.00000000000E+00 0. -1.
          2    1    1    2  501    0 -0.82252955475E+02 -0.61245846810E+02 -0.62636841014E+02  0.12016645242E+03  0.00000000000E+00 0. -1.
<scales pt_clust_5="13000.00000" pt_clust_6="13000.00000" pt_clust_7="13000.00000" pt_clust_8="13000.00000" pt_clust_9="13000.00000"></scales>
<clustering>
<clus scale="   91.016">  7  8 -1 -1</clus>
<clus scale="  113.017">  5  6 -1 -1</clus>
<clus scale="  102.551">  5  9 -1 -1</clus>
<clus scale="  152.352">  1  7  2 -1</clus>
<clus scale="  450.884">  2  5  1 -1</clus>
</clustering>
</event>
<event>
 9    1  0.6399313E-006  0.4315543E+03  0.7546771E-02  0.1067773E+00
         -4   -1    0    0    0  501 -0.00000000000E+00  0.00000000000E+00  0.25807733963E+04  0.25807733963E+04  0.00000000000E+00 0. -1.
         21   -1    0    0  501  502  0.00000000000E+00 -0.00000000000E+00 -0.34639222303E+02  0.34639222303E+02  0.00000000000E+00 0. -1.
         23    2    1    2    0    0 -0.12464153575E+03  0.48175331593E+02  0.84754315880E+03  0.86285717529E+03  0.91305661945E+02 0.  0.
         23    2    1    2    0    0  0.26486977414E+03  0.90376430691E+01  0.11072600292E+04  0.11421378663E+04  0.90644675306E+02 0.  0.
        -11    1    3    3    0    0 -0.54882023758E+01  0.41303457771E+02  0.18323070388E+03  0.18790845333E+03  0.00000000000E+00 0.  1.
         11    1    3    3    0    0 -0.11915333337E+03  0.68718738213E+01  0.66431245493E+03  0.67494872196E+03  0.00000000000E+00 0. -1.
        -13    1    4    4    0    0  0.75819954136E+02  0.39454714142E+02  0.42542550725E+03  0.43392649392E+03  0.00000000000E+00 0.  1.
         13    1    4    4    0    0  0.18904982001E+03 -0.30417071073E+02  0.68183452194E+03  0.70821137238E+03  0.00000000000E+00 0. -1.
         -4    1    1    2    0  502 -0.14022823840E+03 -0.57212974662E+02  0.59133098597E+03  0.61041757698E+03  0.00000000000E+00 0. -1.
<scales pt_clust_5="13000.00000" pt_clust_6="13000.00000" pt_clust_7="13000.00000" pt_clust_8="13000.00000" pt_clust_9="13000.00000"></scales>
<clustering>
<clus scale="   90.645">  7  8 -1 -1</clus>
<clus scale="   91.306">  5  6 -1 -1</clus>
<clus scale="  151.451">  7  9 -1 -1</clus>
<clus scale="  161.843">  1  5  2 -1</clus>
<clus scale="  431.554">  2  5  1 -1</clus>
</clustering>
</event>
<event>
 9    1  0.6399313E-006  0.1914596E+03  0.7546771E-02  0.1173891E+00
         -1   -1    0    0    0  501 -0.00000000000E+00  0.00000000000E+00  0.68747109212E+03  0.68747109212E+03  0.00000000000E+00 0.  1.
         21   -1    0    0  501  502  0.00000000000E+00 -0.00000000000E+00 -0.37631633811E+02  0.37631633811E+02  0.00000000000E+00 0.  1.
         23    2    1    2    0    0  0.66549716472E+02  0.50316841678E+02  0.25563356902E+03  0.28686184311E+03  0.99902683177E+02 0.  0.
         23    2    1    2    0    0  0.13435137950E+01 -0.78558664565E+02  0.25255276213E+03  0.27863919201E+03  0.87656333795E+02 0.  0.
        -11    1    3    3    0    0  0.51558403105E+02 -0.22146650321E+02  0.10645382060E+03  0.12033768725E+03  0.00000000000E+00 0. -1.
         11    1    3    3    0    0  0.14991313367E+02  0.72463492000E+02  0.14917974842E+03  0.16652415587E+03  0.00000000000E+00 0.  1.
        -13    1    4    4    0    0  0.26255781254E+02  0.58897064797E+01  0.36596962620E+02  0.45424578861E+02  0.00000000000E+00 0. -1.
         13    1    4    4    0    0 -0.24912267459E+02 -0.84448371044E+02  0.21595579951E+03  0.23321461315E+03  0.00000000000E+00 0.  1.
         -1    1    1    2    0  502 -0.67893230267E+02  0.28241822886E+02  0.14165312715E+03  0.15960169081E+03  0.00000000000E+00 0.  1.
<scales pt_clust_5="13000.00000" pt_clust_6="13000.00000" pt_clust_7="13000.00000" pt_clust_8="13000.00000" pt_clust_9="13000.00000"></scales>
<clustering>
<clus scale="   87.656">  7  8 -1 -1</clus>
<clus scale="   73.533">  7  9 -1 -1</clus>
<clus scale="   99.903">  5  6 -1 -1</clus>
<clus scale="  130.158">  1  5  2 -1</clus>
<clus scale="  191.460">  2  5  1 -1</clus>
</clustering>
</event>
<event>
 9    1  0.6399313E-006  0.1691665E+03  0.7546771E-02  0.1201522E+00
          2   -1    0    0  502    0 -0.00000000000E+00  0.00000000000E+00  0.47861745762E+03  0.47861745762E+03  0.00000000000E+00 0. -1.
         21   -1    0    0  501  502  0.00000000000E+00 -0.00000000000E+00 -0.40998867778E+02  0.40998867778E+02  0.00000000000E+00 0.  1.
         23    2    1    2    0    0 -0.48146519929E+02  0.12680529028E+02  0.10552172471E+03  0.14691586780E+03  0.89277962727E+02 0.  0.
         23    2    1    2    0    0  0.80061705193E+02 -0.36513990181E+02  0.22266693462E+03  0.25624650698E+03  0.91315718536E+02 0.  0.
        -13    1    4    4    0    0  0.36447097944E+01 -0.45813266476E+02  0.54454619429E+02  0.71256191814E+02  0.00000000000E+00 0.  1.
         13    1    4    4    0    0  0.76416995399E+02  0.92992762947E+01  0.16821231519E+03  0.18499031517E+03  0.00000000000E+00 0. -1.
        -13    1    3    3    0    0 -0.21052221125E+02  0.50155773374E+02  0.69742445809E+02  0.88446630034E+02  0.00000000000E+00 0. -1.
         13    1    3    3    0    0 -0.27094298805E+02 -0.37475244346E+02  0.35779278901E+02  0.58469237769E+02  0.00000000000E+00 0.  1.
          2    1    1    2  501    0 -0.31915185264E+02  0.23833461153E+02  0.10942993052E+03  0.11645395061E+03  0.00000000000E+00 0. -1.
<scales pt_clust_5="13000.00000" pt_clust_6="13000.00000" pt_clust_7="13000.00000" pt_clust_8="13000.00000" pt_clust_9="13000.00000"></scales>
<clustering>
<clus scale="   89.278">  7  8 -1 -1</clus>
<clus scale="   91.316">  5  6 -1 -1</clus>
<clus scale="   39.832">  5  9 -1 -1</clus>
<clus scale="  102.223">  1  7  2 -1</clus>
<clus scale="  169.166">  2  5  1 -1</clus>
</clustering>
</event>
<event>
 9    1  0.6399313E-006  0.1445002E+03  0.7546771E-02  0.1224402E+00
         21   -1    0    0  501  502  0.00000000000E+00  0.00000000000E+00  0.15759182230E+03  0.15759182230E+03  0.00000000000E+00 0. -1.
         -1   -1    0    0    0  501 -0.00000000000E+00 -0.00000000000E+00 -0.10607152929E+03  0.10607152929E+03  0.00000000000E+00 0.  1.
         23    2    1    2    0    0 -0.43113045623E+02  0.52737826446E+01  0.62645029090E+02  0.11873551039E+03  0.91033918247E+02 0.  0.
         23    2    1    2    0    0  0.48720197813E+02 -0.31660238347E+02 -0.29709810061E+02  0.11216978608E+03  0.91232448878E+02 0.  0.
        -11    1    4    4    0    0  0.73800570465E+02 -0.29253219618E+02 -0.96644690830E+01  0.79972976821E+02  0.00000000000E+00 0.  1.
         11    1    4    4    0    0 -0.25080372652E+02 -0.24070187291E+01 -0.20045340978E+02  0.32196809259E+02  0.00000000000E+00 0. -1.
        -13    1    3    3    0    0  0.24855988547E+02  0.16078759154E+02  0.31393841590E+02  0.43149970479E+02  0.00000000000E+00 0.  1.
         13    1    3    3    0    0 -0.67969034170E+02 -0.10804976510E+02  0.31251187500E+02  0.75585539910E+02  0.00000000000E+00 0. -1.
         -1    1    1    2    0  502 -0.56071521894E+01  0.26386455703E+02  0.18585073985E+02  0.32758055120E+02  0.00000000000E+00 0.  1.
<scales pt_clust_5="13000.00000" pt_clust_6="13000.00000" pt_clust_7="13000.00000" pt_clust_8="13000.00000" pt_clust_9="13000.00000"></scales>
<clustering>
<clus scale="   91.034">  7  8 -1 -1</clus>
<clus scale="   91.232">  5  6 -1 -1</clus>
<clus scale="   26.976">  5  9 -1 -1</clus>
<clus scale="  100.865">  2  7  1 -1</clus>
<clus scale="  144.500">  1  5  2 -1</clus>
</clustering>
</event>
<event>
 9    1  0.6399313E-006  0.1799994E+03  0.7546771E-02  0.1178729E+00
         21   -1    0    0  501  502  0.00000000000E+00  0.00000000000E+00  0.63727545041E+02  0.63727545041E+02  0.00000000000E+00 0. -1.
         -3   -1    0    0    0  501 -0.00000000000E+00 -0.00000000000E+00 -0.40405822071E+03  0.40405822071E+03  0.00000000000E+00 0.  1.
         23    2    1    2    0    0 -0.84158735239E+02  0.65079126064E+02 -0.16265759953E+03  0.21486780120E+03  0.91611636498E+02 0.  0.
         23    2    1    2    0    0  0.26335386772E+01 -0.33756610116E+02 -0.10673243021E+03  0.14040115281E+03  0.84700813451E+02 0.  0.
        -13    1    3    3    0    0 -0.41994447887E+02  0.81259808348E+02 -0.13075840895E+03  0.15957584910E+03  0.00000000000E+00 0.  1.
         13    1    3    3    0    0 -0.42164287352E+02 -0.16180682284E+02 -0.31899190577E+02  0.55291952096E+02  0.00000000000E+00 0. -1.
        -13    1    4    4    0    0  0.26325913957E+02 -0.47104184683E+02 -0.36658587835E+02  0.65235803224E+02  0.00000000000E+00 0. -1.
         13    1    4    4    0    0 -0.23692375280E+02  0.13347574567E+02 -0.70073842370E+02  0.75165349582E+02  0.00000000000E+00 0.  1.
         -3    1    1    2    0  502  0.81525196562E+02 -0.31322515948E+02 -0.70940645941E+02  0.11251681175E+03  0.00000000000E+00 0.  1.
<scales pt_clust_5="13000.00000" pt_clust_6="13000.00000" pt_clust_7="13000.00000" pt_clust_8="13000.00000" pt_clust_9="13000.00000"></scales>
<clustering>
<clus scale="   84.701">  7  8 -1 -1</clus>
<clus scale="   87.335">  7  9 -1 -1</clus>
<clus scale="   91.612">  5  6 -1 -1</clus>
<clus scale="  140.395">  2  5  1 -1</clus>
<clus scale="  179.999">  1  5  2 -1</clus>
</clustering>
</event>
<event>
 9    1  0.6399313E-006  0.3965012E+03  0.7546771E-02  0.1072774E+00
         21   -1    0    0  501  502  0.00000000000E+00  0.00000000000E+00  0.21402196762E+03  0.21402196762E+03  0.00000000000E+00 0. -1.
          2   -1    0    0  502    0 -0.00000000000E+00 -0.00000000000E+00 -0.81422301449E+03  0.81422301449E+03  0.00000000000E+00 0. -1.
         23    2    1    2    0    0  0.11607651681E+03  0.10816516627E+03 -0.60495468951E+03  0.63171527780E+03  0.88997499328E+02 0.  0.
         23    2    1    2    0    0 -0.14342735507E+03 -0.18738562167E+02 -0.14222285497E+03  0.22232500655E+03  0.90986417472E+02 0.  0.
        -11    1    3    3    0    0  0.19031601166E+02  0.48004624770E+02 -0.85703865100E+02  0.10005897429E+03  0.00000000000E+00 0.  1.
         11    1    3    3    0    0  0.97044915648E+02  0.60160541496E+02 -0.51925082441E+03  0.53165630351E+03  0.00000000000E+00 0. -1.
        -11    1    4    4    0    0 -0.31659195531E+02  0.16424357324E+02 -0.84480312668E+02  0.91700531098E+02  0.00000000000E+00 0. -1.
         11    1    4    4    0    0 -0.11176815954E+03 -0.35162919490E+02 -0.57742542303E+02  0.13062447545E+03  0.00000000000E+00 0.  1.
          2    1    1    2  501    0  0.27350838260E+02 -0.89426604100E+02  0.14697649761E+03  0.17420469777E+03  0.00000000000E+00 0. -1.
<scales pt_clust_5="13000.00000" pt_clust_6="13000.00000" pt_clust_7="13000.00000" pt_clust_8="13000.00000" pt_clust_9="13000.00000"></scales>
<clustering>
<clus scale="   88.997">  5  6 -1 -1</clus>
<clus scale="   90.986">  7  8 -1 -1</clus>
<clus scale="   93.516">  7  9 -1 -1</clus>
<clus scale="  181.918">  2  5  1 -1</clus>
<clus scale="  396.501">  1  5  2 -1</clus>
</clustering>
</event>
<event>
 9    1  0.6399313E-006  0.4150810E+03  0.7546771E-02  0.1085755E+00
          1   -1    0    0  502    0 -0.00000000000E+00  0.00000000000E+00  0.66189358125E+02  0.66189358125E+02  0.00000000000E+00 0. -1.
         21   -1    0    0  501  502  0.00000000000E+00 -0.00000000000E+00 -0.12458265423E+04  0.12458265423E+04  0.00000000000E+00 0. -1.
         23    2    1    2    0    0 -0.29391447454E+02 -0.56050008295E+02 -0.82190899106E+02  0.13869556542E+03  0.92063322538E+02 0.  0.
         23    2    1    2    0    0 -0.20074204471E+02  0.18691389343E+03 -0.31131491901E+03  0.37483756635E+03  0.90809939448E+02 0.  0.
        -11    1    4    4    0    0  0.34556568689E+02  0.62890071795E+02 -0.87160968734E+02  0.11289974332E+03  0.00000000000E+00 0.  1.
         11    1    4    4    0    0 -0.54630773161E+02  0.12402382163E+03 -0.22415395028E+03  0.26193782303E+03  0.00000000000E+00 0. -1.
        -13    1    3    3    0    0 -0.41643963282E+01 -0.72886108788E+02 -0.79975237434E+02  0.10828557454E+03  0.00000000000E+00 0.  1.
         13    1    3    3    0    0 -0.25227051126E+02  0.16836100493E+02 -0.22156616712E+01  0.30409990874E+02  0.00000000000E+00 0. -1.
          1    1    1    2  501    0  0.49465651925E+02 -0.13086388514E+03 -0.78613136607E+03  0.79848276867E+03  0.00000000000E+00 0. -1.
<scales pt_clust_5="13000.00000" pt_clust_6="13000.00000" pt_clust_7="13000.00000" pt_clust_8="13000.00000" pt_clust_9="13000.00000"></scales>
<clustering>
<clus scale="   90.810">  5  6 -1 -1</clus>
<clus scale="   92.063">  7  8 -1 -1</clus>
<clus scale="  111.719">  1  7  2 -1</clus>
<clus scale="  146.946">  5  9 -1 -1</clus>
<clus scale="  415.081">  2  5  1 -1</clus>
</clustering>
</event>
<event>
 9    1  0.6399313E-006  0.2865763E+03  0.7546771E-02  0.1133623E+00
         -4   -1    0    0    0  501 -0.00000000000E+00  0.00000000000E+00  0.30711423891E+03  0.30711423891E+03  0.00000000000E+00 0.  1.
         21   -1    0    0  501  502  0.00000000000E+00 -0.00000000000E+00 -0.13194413605E+03  0.13194413605E+03  0.00000000000E+00 0. -1.
         23    2    1    2    0    0 -0.47372693400E+01  0.11624976051E+02  0.10270222392E+03  0.14346142891E+03  0.99377326378E+02 0.  0.
         23    2    1    2    0    0 -0.96975680055E+02 -0.73536139103E+02 -0.41474819133E+01  0.15400446848E+03  0.94277931822E+02 0.  0.
        -11    1    4    4    0    0 -0.44335737516E+02  0.11014718399E+02 -0.25247153470E+02  0.52195789110E+02  0.00000000000E+00 0.  1.
         11    1    4    4    0    0 -0.52639942540E+02 -0.84550857502E+02  0.21099671557E+02  0.10180867937E+03  0.00000000000E+00 0. -1.
        -13    1    3    3    0    0 -0.47797967190E+02  0.26343487998E+02  0.53079615059E+02  0.76131928664E+02  0.00000000000E+00 0. -1.
         13    1    3    3    0    0  0.43060697850E+02 -0.14718511947E+02  0.49622608859E+02  0.67329500245E+02  0.00000000000E+00 0.  1.
         -4    1    1    2    0  502  0.10171294940E+03  0.61911163053E+02  0.76615360852E+02  0.14159247757E+03  0.00000000000E+00 0.  1.
<scales pt_clust_5="13000.00000" pt_clust_6="13000.00000" pt_clust_7="13000.00000" pt_clust_8="13000.00000" pt_clust_9="13000.00000"></scales>
<clustering>
<clus scale="   94.278">  5  6 -1 -1</clus>
<clus scale="   99.377">  7  8 -1 -1</clus>
<clus scale="  100.167">  1  7  2 -1</clus>
<clus scale="  120.482">  5  9 -1 -1</clus>
<clus scale="  286.576">  2  5  1 -1</clus>
</clustering>
</event>
<event>
 9    1  0.6399313E-006  0.3845977E+03  0.7546771E-02  0.1098043E+00
         -1   -1    0    0    0  501 -0.00000000000E+00  0.00000000000E+00  0.95687040503E+02  0.95687040503E+02  0.00000000000E+00 0.  1.
         21   -1    0    0  501  502  0.00000000000E+00 -0.00000000000E+00 -0.15715102738E+04  0.15715102738E+04  0.00000000000E+00 0. -1.
         23    2    1    2    0    0 -0.17877183947E+02  0.40285345855E+02  0.35556786798E+02  0.10765092914E+03  0.91552906353E+02 0.  0.
         23    2    1    2    0    0  0.11039058206E+03 -0.16361738016E+03 -0.75084784362E+03  0.78354463840E+03  0.10589139909E+03 0.  0.
        -13    1    4    4    0    0  0.44428635021E+02 -0.11739693840E+03 -0.29436441347E+03  0.32000992589E+03  0.00000000000E+00 0.  1.
         13    1    4    4    0    0  0.65961947040E+02 -0.46220441760E+02 -0.45648343015E+03  0.46353471250E+03  0.00000000000E+00 0. -1.
        -13    1    3    3    0    0 -0.17835992602E+02  0.69736154117E+02  0.28094767428E+02  0.77269462144E+02  0.00000000000E+00 0. -1.
         13    1    3    3    0    0 -0.41191344572E-01 -0.29450808262E+02  0.74620193695E+01  0.30381467000E+02  0.00000000000E+00 0.  1.
         -1    1    1    2    0  502 -0.92513398114E+02  0.12333203431E+03 -0.76053217647E+03  0.77600174675E+03  0.00000000000E+00 0.  1.
<scales pt_clust_5="13000.00000" pt_clust_6="13000.00000" pt_clust_7="13000.00000" pt_clust_8="13000.00000" pt_clust_9="13000.00000"></scales>
<clustering>
<clus scale="   91.553">  7  8 -1 -1</clus>
<clus scale="  101.609">  1  7  2 -1</clus>
<clus scale="  105.891">  5  6 -1 -1</clus>
<clus scale="  167.999">  5  9 -1 -1</clus>
<clus scale="  384.598">  2  5  1 -1</clus>
</clustering>
</event>
<event>
 9    1  0.6399313E-006  0.2651220E+03  0.7546771E-02  0.1141725E+00
         -2   -1    0    0    0  501 -0.00000000000E+00  0.00000000000E+00  0.22888236827E+03  0.22888236827E+03  0.00000000000E+00 0.  1.
         21   -1    0    0  501  502  0.00000000000E+00 -0.00000000000E+00 -0.22045070373E+03  0.22045070373E+03  0.00000000000E+00 0.  1.
         23    2    1    2    0    0 -0.33000802674E+02 -0.41047946002E+02  0.12253850942E+03  0.16069824440E+03  0.89633992517E+02 0.  0.
         23    2    1    2    0    0 -0.16378984921E+01  0.69492016874E+02 -0.17825896986E+03  0.21037628222E+03  0.87464831007E+02 0.  0.
        -13    1    4    4    0    0  0.74728738897E+01  0.39445090465E+02 -0.17414185495E+03  0.17870966580E+03  0.00000000000E+00 0.  1.
         13    1    4    4    0    0 -0.91107723818E+01  0.30046926409E+02 -0.41171149121E+01  0.31666616415E+02  0.00000000000E+00 0. -1.
        -13    1    3    3    0    0  0.21162876684E+02 -0.24972023688E+02  0.89385486323E+02  0.95190516764E+02  0.00000000000E+00 0.  1.
         13    1    3    3    0    0 -0.54163679358E+02 -0.16075922314E+02  0.33153023102E+02  0.65507727640E+02  0.00000000000E+00 0. -1.
         -2    1    1    2    0  502  0.34638701166E+02 -0.28444070871E+02  0.64152124978E+02  0.78258545382E+02  0.00000000000E+00 0.  1.
<scales pt_clust_5="13000.00000" pt_clust_6="13000.00000" pt_clust_7="13000.00000" pt_clust_8="13000.00000" pt_clust_9="13000.00000"></scales>
<clustering>
<clus scale="   87.465">  5  6 -1 -1</clus>
<clus scale="   44.821">  5  9 -1 -1</clus>
<clus scale="   89.634">  7  8 -1 -1</clus>
<clus scale="  103.963">  1  7  2 -1</clus>
<clus scale="  265.122">  2  5  1 -1</clus>
</clustering>
</event>
<event>
 9    1  0.6399313E-006  0.1779550E+03  0.7546771E-02  0.1190027E+00
          2   -1    0    0  502    0 -0.00000000000E+00  0.00000000000E+00  0.71634342267E+03  0.71634342267E+03  0.00000000000E+00 0. -1.
         21   -1    0    0  501  502  0.00000000000E+00 -0.00000000000E+00 -0.31631731129E+02  0.31631731129E+02  0.00000000000E+00 0.  1.
         23    2    1    2    0    0  0.35371238797E+02 -0.56950195090E+02  0.36507787307E+03  0.38214217338E+03  0.90864393548E+02 0.  0.
         23    2    1    2    0    0  0.34591404594E+02  0.29974533247E+02  0.16974291431E+03  0.19823303725E+03  0.91589530958E+02 0.  0.
        -11    1    4    4    0    0  0.13867924042E+01 -0.23914509967E+02  0.10496598736E+03  0.10766469004E+03  0.00000000000E+00 0. -1.
         11    1    4    4    0    0  0.33204612190E+02  0.53889043214E+02  0.64776926956E+02  0.90568347204E+02  0.00000000000E+00 0.  1.
        -13    1    3    3    0    0  0.59072919571E+02 -0.63759707038E+02  0.25750427844E+03  0.27177815123E+03  0.00000000000E+00 0. -1.
         13    1    3    3    0    0 -0.23701680775E+02  0.68095119478E+01  0.10757359463E+03  0.11036402216E+03  0.00000000000E+00 0.  1.
          2    1    1    2  501    0 -0.69962643391E+02  0.26975661843E+02  0.14989090415E+03  0.16759994317E+03  0.00000000000E+00 0. -1.
<scales pt_clust_5="13000.00000" pt_clust_6="13000.00000" pt_clust_7="13000.00000" pt_clust_8="13000.00000" pt_clust_9="13000.00000"></scales>
<clustering>
<clus scale="   90.864">  7  8 -1 -1</clus>
<clus scale="   91.590">  5  6 -1 -1</clus>
<clus scale="   74.983">  5  9 -1 -1</clus>
<clus scale="  112.919">  1  7  2 -1</clus>
<clus scale="  177.955">  2  5  1 -1</clus>
</clustering>
</event>
<event>
 9    1  0.6399313E-006  0.8239304E+03  0.7546771E-02  0.9964794E-01
          2   -1    0    0  502    0 -0.00000000000E+00  0.00000000000E+00  0.18379933442E+04  0.18379933442E+04  0.00000000000E+00 0. -1.
         21   -1    0    0  501  502  0.00000000000E+00 -0.00000000000E+00 -0.16223570334E+03  0.16223570334E+03  0.00000000000E+00 0. -1.
         23    2    1    2    0    0 -0.11467742837E+03  0.11679717175E+03  0.68669195197E+03  0.71294030563E+03  0.99727381326E+02 0.  0.
         23    2    1    2    0    0 -0.15092896020E+02 -0.29121870497E+03  0.10222755872E+04  0.10673657879E+04  0.95844766368E+02 0.  0.
        -11    1    3    3    0    0 -0.65924688883E+02  0.12419951863E+03  0.54764385925E+03  0.56540727056E+03  0.00000000000E+00 0.  1.
         11    1    3    3    0    0 -0.48752739490E+02 -0.74023468795E+01  0.13904809272E+03  0.14753303507E+03  0.00000000000E+00 0. -1.
        -13    1    4    4    0    0  0.37956341035E+02 -0.78703314607E+02  0.32093013152E+03  0.33261245447E+03  0.00000000000E+00 0.  1.
         13    1    4    4    0    0 -0.53049237055E+02 -0.21251539037E+03  0.70134545572E+03  0.73475333341E+03  0.00000000000E+00 0. -1.
          2    1    1    2  501    0  0.12977032439E+03  0.17442153322E+03 -0.33209898386E+02  0.21992295400E+03  0.00000000000E+00 0. -1.
<scales pt_clust_5="13000.00000" pt_clust_6="13000.00000" pt_clust_7="13000.00000" pt_clust_8="13000.00000" pt_clust_9="13000.00000"></scales>
<clustering>
<clus scale="   95.845">  7  8 -1 -1</clus>
<clus scale="   99.727">  5  6 -1 -1</clus>
<clus scale="  191.672">  1  5  2 -1</clus>
<clus scale="  219.873">  7  9 -1 -1</clus>
<clus scale="  823.930">  2  5  1 -1</clus>
</clustering>
</event>
<event>
 9    1  0.6399313E-006  0.3763725E+03  0.7546771E-02  0.1094153E+00
         21   -1    0    0  501  502  0.00000000000E+00  0.00000000000E+00  0.16276195468E+03  0.16276195468E+03  0.00000000000E+00 0. -1.
          1   -1    0    0  502    0 -0.00000000000E+00 -0.00000000000E+00 -0.46929874210E+03  0.46929874210E+03  0.00000000000E+00 0. -1.
         23    2    1    2    0    0  0.70295909924E+02  0.28134750422E+02 -0.21260642853E+03  0.24414426562E+03  0.93122767603E+02 0.  0.
         23    2    1    2    0    0  0.30630683290E+02  0.16442872932E+02 -0.20597374008E+03  0.23066802579E+03  0.97846561987E+02 0.  0.
        -11    1    3    3    0    0  0.20804473723E+02  0.58186486762E+02 -0.11872463090E+03  0.13384330895E+03  0.00000000000E+00 0.  1.
         11    1    3    3    0    0  0.49491436201E+02 -0.30051736340E+02 -0.93881797634E+02  0.11030095667E+03  0.00000000000E+00 0. -1.
        -13    1    4    4    0    0 -0.21954838198E+02 -0.22225147171E+02 -0.11181952730E+03  0.11610158815E+03  0.00000000000E+00 0.  1.
         13    1    4    4    0    0  0.52585521488E+02  0.38668020103E+02 -0.94154212779E+02  0.11456643764E+03  0.00000000000E+00 0. -1.
          1    1    1    2  501    0 -0.10092659321E+03 -0.44577623355E+02  0.11204338120E+03  0.15724840537E+03  0.00000000000E+00 0. -1.
<scales pt_clust_5="13000.00000" pt_clust_6="13000.00000" pt_clust_7="13000.00000" pt_clust_8="13000.00000" pt_clust_9="13000.00000"></scales>
<clustering>
<clus scale="   93.123">  5  6 -1 -1</clus>
<clus scale="   97.847">  7  8 -1 -1</clus>
<clus scale="  110.333">  7  9 -1 -1</clus>
<clus scale="  120.021">  2  5  1 -1</clus>
<clus scale="  376.372">  1  5  2 -1</clus>
</clustering>
</event>
<event>
 9    1  0.6399313E-006  0.2934368E+03  0.7546771E-02  0.1118371E+00
          3   -1    0    0  502    0 -0.00000000000E+00  0.00000000000E+00  0.83168496190E+03  0.83168496190E+03  0.00000000000E+00 0. -1.
         21   -1    0    0  501  502  0.00000000000E+00 -0.00000000000E+00 -0.62510404801E+02  0.62510404801E+02  0.00000000000E+00 0. -1.
         23    2    1    2    0    0 -0.10350522636E+03 -0.10528972598E+02  0.40058513776E+03  0.42306552891E+03  0.87702896250E+02 0.  0.
         23    2    1    2    0    0  0.13482305162E+03  0.46936462359E+01  0.39721168877E+03  0.42830354307E+03  0.86414777366E+02 0.  0.
        -11    1    4    4    0    0  0.12744564981E+02  0.30748464017E+02  0.58273725355E+02  0.67109753708E+02  0.00000000000E+00 0.  1.
         11    1    4    4    0    0  0.12207848664E+03 -0.26054817781E+02  0.33893796342E+03  0.36119378936E+03  0.00000000000E+00 0. -1.
        -13    1    3    3    0    0 -0.36702445044E+02 -0.34350564080E+02  0.26828738258E+03  0.27295631588E+03  0.00000000000E+00 0. -1.
         13    1    3    3    0    0 -0.66802781315E+02  0.23821591482E+02  0.13229775517E+03  0.15010921303E+03  0.00000000000E+00 0.  1.
          3    1    1    2  501    0 -0.31317825261E+02  0.58353263617E+01 -0.28622269426E+02  0.42826294726E+02  0.00000000000E+00 0. -1.
<scales pt_clust_5="13000.00000" pt_clust_6="13000.00000" pt_clust_7="13000.00000" pt_clust_8="13000.00000" pt_clust_9="13000.00000"></scales>
<clustering>
<clus scale="   86.415">  5  6 -1 -1</clus>
<clus scale="   31.857">  5  9 -1 -1</clus>
<clus scale="   87.703">  7  8 -1 -1</clus>
<clus scale="  136.073">  1  7  2 -1</clus>
<clus scale="  293.437">  2  5  1 -1</clus>
</clustering>
</event>
<event>
 9    1  0.6399313E-006  0.1773369E+03  0.7546771E-02  0.1180932E+00
          2   -1    0    0  502    0 -0.00000000000E+00  0.00000000000E+00  0.88205619772E+03  0.88205619772E+03  0.00000000000E+00 0. -1.
         21   -1    0    0  501  502  0.00000000000E+00 -0.00000000000E+00 -0.35466142013E+02  0.35466142013E+02  0.00000000000E+00 0. -1.
         23    2    1    2    0    0  0.29077519282E+02  0.98294351520E+02  0.58523532706E+03  0.60168272127E+03  0.94944338263E+02 0.  0.
         23    2    1    2    0    0 -0.24538081087E+02 -0.32374513903E+02  0.20990349212E+03  0.23209440230E+03  0.90322250857E+02 0.  0.
        -11    1    3    3    0    0  0.28004796360E+02 -0.67270038058E+01  0.67265357348E+02  0.73172054082E+02  0.00000000000E+00 0.  1.
         11    1    3    3    0    0  0.10727229218E+01  0.10502135533E+03  0.51796996971E+03  0.52851066718E+03  0.00000000000E+00 0. -1.
        -13    1    4    4    0    0 -0.49182944417E+02 -0.45121551815E+02  0.11243681035E+03  0.13075531646E+03  0.00000000000E+00 0.  1.
         13    1    4    4    0    0  0.24644863330E+02  0.12747037911E+02  0.97466681771E+02  0.10133908584E+03  0.00000000000E+00 0. -1.
          2    1    1    2  501    0 -0.45394381953E+01 -0.65919837616E+02  0.51451236527E+02  0.83745216166E+02  0.00000000000E+00 0. -1.
<scales pt_clust_5="13000.00000" pt_clust_6="13000.00000" pt_clust_7="13000.00000" pt_clust_8="13000.00000" pt_clust_9="13000.00000"></scales>
<clustering>
<clus scale="   90.322">  7  8 -1 -1</clus>
<clus scale="   66.076">  7  9 -1 -1</clus>
<clus scale="   94.944">  5  6 -1 -1</clus>
<clus scale="  139.720">  1  5  2 -1</clus>
<clus scale="  177.337">  2  5  1 -1</clus>
</clustering>
</event>
<event>
 9    1  0.6399313E-006  0.3119331E+03  0.7546771E-02  0.1115586E+00
         21   -1    0    0  501  502  0.00000000000E+00  0.00000000000E+00  0.42570083415E+03  0.42570083415E+03  0.00000000000E+00 0. -1.
          2   -1    0    0  502    0 -0.00000000000E+00 -0.00000000000E+00 -0.14020376839E+03  0.14020376839E+03  0.00000000000E+00 0. -1.
         23    2    1    2    0    0  0.80383026223E+02  0.13585317525E+01 -0.26903139264E+02  0.12443416096E+03  0.91086799252E+02 0.  0.
         23    2    1    2    0    0 -0.15561818956E+02 -0.13211118870E+03  0.12693384720E+03  0.20547083121E+03  0.91708911930E+02 0.  0.
        -11    1    3    3    0    0  0.51503402709E+02  0.45468729508E+02 -0.13194567419E+02  0.69957862054E+02  0.00000000000E+00 0. -1.
         11    1    3    3    0    0  0.28879623513E+02 -0.44110197756E+02 -0.13708571845E+02  0.54476298905E+02  0.00000000000E+00 0.  1.
        -13    1    4    4    0    0 -0.26529786814E+02 -0.28508464679E+01  0.44350174588E+01  0.27048591346E+02  0.00000000000E+00 0.  1.
         13    1    4    4    0    0  0.10967967858E+02 -0.12926034223E+03  0.12249882974E+03  0.17842223987E+03  0.00000000000E+00 0. -1.
          2    1    1    2  501    0 -0.64821207267E+02  0.13075265694E+03  0.18546635782E+03  0.23599961037E+03  0.00000000000E+00 0. -1.
<scales pt_clust_5="13000.00000" pt_clust_6="13000.00000" pt_clust_7="13000.00000" pt_clust_8="13000.00000" pt_clust_9="13000.00000"></scales>
<clustering>
<clus scale="   91.087">  5  6 -1 -1</clus>
<clus scale="   91.709">  7  8 -1 -1</clus>
<clus scale="  121.491">  2  5  1 -1</clus>
<clus scale="  135.454">  7  9 -1 -1</clus>
<clus scale="  311.933">  1  5  2 -1</clus>
</clustering>
</event>
<event>
 9    1  0.6399313E-006  0.1599228E+03  0.7546771E-02  0.1213066E+00
         -3   -1    0    0    0  501 -0.00000000000E+00  0.00000000000E+00  0.32482180582E+03  0.32482180582E+03  0.00000000000E+00 0.  1.
         21   -1    0    0  501  502  0.00000000000E+00 -0.00000000000E+00 -0.54066427170E+02  0.54066427170E+02  0.00000000000E+00 0.  1.
         23    2    1    2    0    0  0.17666512612E+02 -0.21381334192E+02  0.15484176018E+03  0.18137548733E+03  0.90287483014E+02 0.  0.
         23    2    1    2    0    0 -0.25485835030E+02 -0.36605465948E+02  0.80144219959E+02  0.12893388110E+03  0.90616564595E+02 0.  0.
        -11    1    4    4    0    0 -0.41764025102E+02 -0.85979804535E+01  0.16169927726E+00  0.42640183012E+02  0.00000000000E+00 0.  1.
         11    1    4    4    0    0  0.16278190072E+02 -0.28007485495E+02  0.79982520682E+02  0.86293698092E+02  0.00000000000E+00 0. -1.
        -13    1    3    3    0    0  0.50834989502E+02 -0.17290195583E+02  0.58522439412E+02  0.79423062997E+02  0.00000000000E+00 0.  1.
         13    1    3    3    0    0 -0.33168476890E+02 -0.40911386092E+01  0.96319320772E+02  0.10195242434E+03  0.00000000000E+00 0. -1.
         -3    1    1    2    0  502  0.78193224181E+01  0.57986800141E+02  0.35769398507E+02  0.68578864551E+02  0.00000000000E+00 0.  1.
<scales pt_clust_5="13000.00000" pt_clust_6="13000.00000" pt_clust_7="13000.00000" pt_clust_8="13000.00000" pt_clust_9="13000.00000"></scales>
<clustering>
<clus scale="   90.287">  7  8 -1 -1</clus>
<clus scale="   90.617">  5  6 -1 -1</clus>
<clus scale="   58.512">  5  9 -1 -1</clus>
<clus scale="   94.452">  1  7  2 -1</clus>
<clus scale="  159.923">  2  5  1 -1</clus>
</clustering>
</event>
<event>
 9    1  0.6399313E-006  0.4988449E+03  0.7546771E-02  0.1065686E+00
         21   -1    0    0  501  502  0.00000000000E+00  0.00000000000E+00  0.33131296252E+03  0.33131296252E+03  0.00000000000E+00 0.  1.
         -3   -1    0    0    0  501 -0.00000000000E+00 -0.00000000000E+00 -0.31108538710E+03  0.31108538710E+03  0.00000000000E+00 0.  1.
         23    2    1    2    0    0  0.12500265057E+02  0.60703677776E+02  0.84392656415E+02  0.13944364335E+03  0.92093518181E+02 0.  0.
         23    2    1    2    0    0  0.11377779620E+03 -0.34478328303E+02 -0.24115267277E+03  0.28396035623E+03  0.91349495312E+02 0.  0.
        -11    1    3    3    0    0  0.29394415118E+02  0.78825103548E+02  0.75746910199E+02  0.11320345840E+03  0.00000000000E+00 0.  1.
         11    1    3    3    0    0 -0.16894150062E+02 -0.18121425772E+02  0.86457462161E+01  0.26240184945E+02  0.00000000000E+00 0. -1.
        -13    1    4    4    0    0  0.30971548603E+02  0.19973123256E+02 -0.20731436160E+02  0.42284215976E+02  0.00000000000E+00 0. -1.
         13    1    4    4    0    0  0.82806247597E+02 -0.54451451559E+02 -0.22042123661E+03  0.24167614025E+03  0.00000000000E+00 0.  1.
         -3    1    1    2    0  502 -0.12627806126E+03 -0.26225349473E+02  0.17698759177E+03  0.21899435004E+03  0.00000000000E+00 0.  1.
<scales pt_clust_5="13000.00000" pt_clust_6="13000.00000" pt_clust_7="13000.00000" pt_clust_8="13000.00000" pt_clust_9="13000.00000"></scales>
<clustering>
<clus scale="   91.349">  7  8 -1 -1</clus>
<clus scale="   92.094">  5  6 -1 -1</clus>
<clus scale="  111.006">  2  5  1 -1</clus>
<clus scale="  127.222">  7  9 -1 -1</clus>
<clus scale="  498.845">  1  5  2 -1</clus>
</clustering>
</event>
<event>
 9    1  0.6399313E-006  0.2720051E+03  0.7546771E-02  0.1134443E+00
         21   -1    0    0  501  502  0.00000000000E+00  0.00000000000E+00  0.12237620007E+03  0.12237620007E+03  0.00000000000E+00 0. -1.
          1   -1    0    0  502    0 -0.00000000000E+00 -0.00000000000E+00 -0.30639223128E+03  0.30639223128E+03  0.00000000000E+00 0. -1.
         23    2    1    2    0    0  0.69567348896E+02 -0.76804394652E+00 -0.45333143216E+02  0.12344939058E+03  0.91347973364E+02 0.  0.
         23    2    1    2    0    0 -0.18720893545E+02  0.11405357108E+03 -0.93844548058E+02  0.17329840068E+03  0.88695250987E+02 0.  0.
        -11    1    3    3    0    0  0.88486517319E+02 -0.13247198019E+02 -0.46344027845E+02  0.10076269607E+03  0.00000000000E+00 0. -1.
         11    1    3    3    0    0 -0.18919168423E+02  0.12479154072E+02  0.10108846287E+01  0.22686694513E+02  0.00000000000E+00 0.  1.
        -11    1    4    4    0    0  0.18331862569E+02  0.21983567101E+02  0.93612482813E+01  0.30115899076E+02  0.00000000000E+00 0.  1.
         11    1    4    4    0    0 -0.37052756114E+02  0.92070003976E+02 -0.10320579634E+03  0.14318250161E+03  0.00000000000E+00 0. -1.
          1    1    1    2  501    0 -0.50846455351E+02 -0.11328552713E+03 -0.44838339936E+02  0.13202064008E+03  0.00000000000E+00 0. -1.
<scales pt_clust_5="13000.00000" pt_clust_6="13000.00000" pt_clust_7="13000.00000" pt_clust_8="13000.00000" pt_clust_9="13000.00000"></scales>
<clustering>
<clus scale="   88.695">  7  8 -1 -1</clus>
<clus scale="   91.348">  5  6 -1 -1</clus>
<clus scale="  114.825">  2  5  1 -1</clus>
<clus scale="  115.924">  7  9 -1 -1</clus>
<clus scale="  272.005">  1  5  2 -1</clus>
</clustering>
</event>
<event>
 9    1  0.6399313E-006  0.2832991E+03  0.7546771E-02  0.1123284E+00
         -3   -1    0    0    0  501 -0.00000000000E+00  0.00000000000E+00  0.44426864622E+03  0.44426864622E+03  0.00000000000E+00 0.  1.
         21   -1    0    0  501  502  0.00000000000E+00 -0.00000000000E+00 -0.98478621714E+02  0.98478621714E+02  0.00000000000E+00 0.  1.
         23    2    1    2    0    0 -0.71367022915E+02  0.61266006019E+02  0.91437046887E+02  0.16201923928E+03  0.95093243184E+02 0.  0.
         23    2    1    2    0    0  0.97218811159E+01 -0.35292824529E+02  0.28892203456E+03  0.30543029056E+03  0.92041414043E+02 0.  0.
        -13    1    4    4    0    0 -0.27022984326E+02 -0.32903011666E+02  0.24234058332E+03  0.24605245007E+03  0.00000000000E+00 0.  1.
         13    1    4    4    0    0  0.36744865441E+02 -0.23898128627E+01  0.46581451240E+02  0.59377840492E+02  0.00000000000E+00 0. -1.
        -13    1    3    3    0    0 -0.12700400548E+02  0.71215020835E+02  0.36468784513E+02  0.81011428887E+02  0.00000000000E+00 0. -1.
         13    1    3    3    0    0 -0.58666622366E+02 -0.99490148156E+01  0.54968262374E+02  0.81007810390E+02  0.00000000000E+00 0.  1.
         -3    1    1    2    0  502  0.61645141799E+02 -0.25973181490E+02 -0.34569056947E+02  0.75297738095E+02  0.00000000000E+00 0.  1.
<scales pt_clust_5="13000.00000" pt_clust_6="13000.00000" pt_clust_7="13000.00000" pt_clust_8="13000.00000" pt_clust_9="13000.00000"></scales>
<clustering>
<clus scale="   92.041">  5  6 -1 -1</clus>
<clus scale="   66.893">  5  9 -1 -1</clus>
<clus scale="   95.093">  7  8 -1 -1</clus>
<clus scale="  133.752">  1  7  2 -1</clus>
<clus scale="  283.299">  2  5  1 -1</clus>
</clustering>
</event>
<event>
 9    1  0.6399313E-006  0.2798388E+03  0.7546771E-02  0.1107291E+00
         21   -1    0    0  501  502  0.00000000000E+00  0.00000000000E+00  0.22520388024E+03  0.22520388024E+03  0.00000000000E+00 0. -1.
          1   -1    0    0  502    0 -0.00000000000E+00 -0.00000000000E+00 -0.32317498191E+03  0.32317498191E+03  0.00000000000E+00 0. -1.
         23    2    1    2    0    0  0.69840081454E+01 -0.18874577359E+03 -0.15943178630E+03  0.26187026707E+03  0.86508952571E+02 0.  0.
         23    2    1    2    0    0  0.68288987915E+02  0.71544253445E+02 -0.30017488123E+00  0.13413857170E+03  0.90615121476E+02 0.  0.
        -11    1    4    4    0    0  0.46481624155E+02  0.39303543977E+01  0.31515906260E+02  0.56296015997E+02  0.00000000000E+00 0. -1.
         11    1    4    4    0    0  0.21807363761E+02  0.67613899048E+02 -0.31816081141E+02  0.77842555699E+02  0.00000000000E+00 0.  1.
        -13    1    3    3    0    0  0.31650290254E+02 -0.63570629263E+02 -0.21990692444E+02  0.74340812023E+02  0.00000000000E+00 0.  1.
         13    1    3    3    0    0 -0.24666282109E+02 -0.12517514433E+03 -0.13744109385E+03  0.18752945504E+03  0.00000000000E+00 0. -1.
          1    1    1    2  501    0 -0.75272996061E+02  0.11720152014E+03  0.61760859499E+02  0.15237002338E+03  0.00000000000E+00 0. -1.
<scales pt_clust_5="13000.00000" pt_clust_6="13000.00000" pt_clust_7="13000.00000" pt_clust_8="13000.00000" pt_clust_9="13000.00000"></scales>
<clustering>
<clus scale="   86.509">  7  8 -1 -1</clus>
<clus scale="   90.615">  5  6 -1 -1</clus>
<clus scale="  139.292">  5  9 -1 -1</clus>
<clus scale="  207.744">  2  7  1 -1</clus>
<clus scale="  279.839">  1  5  2 -1</clus>
</clustering>
</event>
<event>
 9    1  0.6399313E-006  0.2295159E+03  0.7546771E-02  0.1156329E+00
          2   -1    0    0  502    0 -0.00000000000E+00  0.00000000000E+00  0.21765435312E+03  0.21765435312E+03  0.00000000000E+00 0. -1.
         21   -1    0    0  501  502  0.00000000000E+00 -0.00000000000E+00 -0.18907100321E+03  0.18907100321E+03  0.00000000000E+00 0.  1.
         23    2    1    2    0    0 -0.67279082812E+02  0.22203685350E+00  0.11503973490E+03  0.16146582816E+03  0.91162211318E+02 0.  0.
         23    2    1    2    0    0  0.71077542228E+02 -0.60904333214E+02 -0.11774980914E+03  0.17687789481E+03  0.93055990161E+02 0.  0.
        -11    1    3    3    0    0 -0.71991353458E+01 -0.29911641857E+02  0.31321010050E+01  0.30924810832E+02  0.00000000000E+00 0.  1.
         11    1    3    3    0    0 -0.60079947466E+02  0.30133678711E+02  0.11190763390E+03  0.13054101733E+03  0.00000000000E+00 0. -1.
        -13    1    4    4    0    0 -0.21182125352E+02 -0.21348755215E+02 -0.16506707070E+02  0.34306313733E+02  0.00000000000E+00 0. -1.
         13    1    4    4    0    0  0.92259667580E+02 -0.39555577999E+02 -0.10124310207E+03  0.14257158107E+03  0.00000000000E+00 0.  1.
          2    1    1    2  501    0 -0.37984594167E+01  0.60682296360E+02  0.31293424148E+02  0.68381633356E+02  0.00000000000E+00 0. -1.
<scales pt_clust_5="13000.00000" pt_clust_6="13000.00000" pt_clust_7="13000.00000" pt_clust_8="13000.00000" pt_clust_9="13000.00000"></scales>
<clustering>
<clus scale="   91.162">  5  6 -1 -1</clus>
<clus scale="   93.056">  7  8 -1 -1</clus>
<clus scale="   60.801">  7  9 -1 -1</clus>
<clus scale="  113.301">  1  5  2 -1</clus>
<clus scale="  229.516">  2  5  1 -1</clus>
</clustering>
</event>
<event>
 9    1  0.6399313E-006  0.2230915E+03  0.7546771E-02  0.1166268E+00
         21   -1    0    0  501  502  0.00000000000E+00  0.00000000000E+00  0.81311405955E+03  0.81311405955E+03  0.00000000000E+00 0. -1.
          2   -1    0    0  502    0 -0.00000000000E+00 -0.00000000000E+00 -0.62876296650E+02  0.62876296650E+02  0.00000000000E+00 0. -1.
         23    2    1    2    0    0 -0.15612923497E+02  0.31870998990E+02  0.49923915175E+01  0.98069741584E+02  0.91286506585E+02 0.  0.
         23    2    1    2    0    0 -0.62676367487E+02 -0.28434494161E+02  0.23088457476E+03  0.25762449533E+03  0.91246075143E+02 0.  0.
        -13    1    3    3    0    0 -0.44897678804E+02  0.46951616852E+02  0.19974446869E+01  0.64994197220E+02  0.00000000000E+00 0. -1.
         13    1    3    3    0    0  0.29284755306E+02 -0.15080617862E+02  0.29949468306E+01  0.33075544364E+02  0.00000000000E+00 0.  1.
        -13    1    4    4    0    0 -0.32994746882E+02  0.18643703837E+02  0.17386143190E+03  0.17794391959E+03  0.00000000000E+00 0.  1.
         13    1    4    4    0    0 -0.29681620605E+02 -0.47078197998E+02  0.57023142860E+02  0.79680575739E+02  0.00000000000E+00 0. -1.
          2    1    1    2  501    0  0.78289290985E+02 -0.34365048292E+01  0.51436079662E+03  0.52029611929E+03  0.00000000000E+00 0. -1.
<scales pt_clust_5="13000.00000" pt_clust_6="13000.00000" pt_clust_7="13000.00000" pt_clust_8="13000.00000" pt_clust_9="13000.00000"></scales>
<clustering>
<clus scale="   91.246">  7  8 -1 -1</clus>
<clus scale="   78.365">  7  9 -1 -1</clus>
<clus scale="   91.287">  5  6 -1 -1</clus>
<clus scale="   97.943">  2  5  1 -1</clus>
<clus scale="  223.092">  1  5  2 -1</clus>
</clustering>
</event>
<event>
 9    1  0.6399313E-006  0.2793731E+03  0.7546771E-02  0.1137091E+00
          1   -1    0    0  502    0 -0.00000000000E+00  0.00000000000E+00  0.32484648611E+03  0.32484648611E+03  0.00000000000E+00 0. -1.
         21   -1    0    0  501  502  0.00000000000E+00 -0.00000000000E+00 -0.11125773697E+03  0.11125773697E+03  0.00000000000E+00 0.  1.
         23    2    1    2    0    0 -0.26778778374E+02  0.25619476530E+02  0.39522106477E+02  0.10694087924E+03  0.92200293946E+02 0.  0.
         23    2    1    2    0    0  0.84516387190E+02 -0.29976838991E+02  0.22065948283E+03  0.25484301799E+03  0.90624091038E+02 0.  0.
        -13    1    3    3    0    0 -0.30532012956E+02  0.54077597750E+02  0.46282449930E+02  0.77450988147E+02  0.00000000000E+00 0.  1.
         13    1    3    3    0    0  0.37532345819E+01 -0.28458121220E+02 -0.67603434521E+01  0.29489891095E+02  0.00000000000E+00 0. -1.
        -13    1    4    4    0    0  0.33410370761E+02 -0.54287596723E+02  0.15818856500E+03  0.17054916631E+03  0.00000000000E+00 0. -1.
         13    1    4    4    0    0  0.51106016428E+02  0.24310757732E+02  0.62470917833E+02  0.84293851683E+02  0.00000000000E+00 0.  1.
          1    1    1    2  501    0 -0.57737608816E+02  0.43573624613E+01 -0.46592840169E+02  0.74320325849E+02  0.00000000000E+00 0. -1.
<scales pt_clust_5="13000.00000" pt_clust_6="13000.00000" pt_clust_7="13000.00000" pt_clust_8="13000.00000" pt_clust_9="13000.00000"></scales>
<clustering>
<clus scale="   90.624">  7  8 -1 -1</clus>
<clus scale="   57.902">  7  9 -1 -1</clus>
<clus scale="   92.200">  5  6 -1 -1</clus>
<clus scale="   99.370">  1  5  2 -1</clus>
<clus scale="  279.373">  2  5  1 -1</clus>
</clustering>
</event>
<event>
 9    1  0.6399313E-006  0.6022520E+03  0.7546771E-02  0.1012024E+00
          1   -1    0    0  502    0 -0.00000000000E+00  0.00000000000E+00  0.54763070632E+03  0.54763070632E+03  0.00000000000E+00 0. -1.
         21   -1    0    0  501  502  0.00000000000E+00 -0.00000000000E+00 -0.46525964029E+03  0.46525964029E+03  0.00000000000E+00 0. -1.
         23    2    1    2    0    0  0.13662540564E+03  0.24910767950E+03  0.24524085084E+03  0.38900409355E+03  0.10227400659E+03 0.  0.
         23    2    1    2    0    0  0.15483030313E+03  0.28509882118E+02 -0.12256560658E+03  0.21935891470E+03  0.91163421378E+02 0.  0.
        -11    1    4    4    0    0  0.14322978307E+03  0.77867769006E+01 -0.65775790444E+02  0.15780322957E+03  0.00000000000E+00 0. -1.
         11    1    4    4    0    0  0.11600520054E+02  0.20723105217E+02 -0.56789816134E+02  0.61555685130E+02  0.00000000000E+00 0.  1.
        -13    1    3    3    0    0  0.64633040005E+02  0.58537943941E+02  0.12512655211E+03  0.15251483463E+03  0.00000000000E+00 0.  1.
         13    1    3    3    0    0  0.71992365636E+02  0.19056973556E+03  0.12011429873E+03  0.23648925891E+03  0.00000000000E+00 0. -1.
          1    1    1    2  501    0 -0.29145570877E+03 -0.27761756162E+03 -0.40304178226E+02  0.40452733836E+03  0.00000000000E+00 0. -1.
<scales pt_clust_5="13000.00000" pt_clust_6="13000.00000" pt_clust_7="13000.00000" pt_clust_8="13000.00000" pt_clust_9="13000.00000"></scales>
<clustering>
<clus scale="   91.163">  5  6 -1 -1</clus>
<clus scale="  102.274">  7  8 -1 -1</clus>
<clus scale="  301.962">  1  7  2 -1</clus>
<clus scale="  200.521">  5  9 -1 -1</clus>
<clus scale="  602.252">  2  5  1 -1</clus>
</clustering>
</event>
<event>
 9    1  0.6399313E-006  0.1995344E+03  0.7546771E-02  0.1170987E+00
         21   -1    0    0  501  502  0.00000000000E+00  0.00000000000E+00  0.15114786013E+03  0.15114786013E+03  0.00000000000E+00 0.  1.
          2   -1    0    0  502    0 -0.00000000000E+00 -0.00000000000E+00 -0.34312620615E+03  0.34312620615E+03  0.00000000000E+00 0. -1.
         23    2    1    2    0    0 -0.48567226228E+02  0.66838901854E+02 -0.25663696234E+03  0.28452493297E+03  0.90915855480E+02 0.  0.
         23    2    1    2    0    0  0.45210582396E+02  0.68034927269E+01 -0.99095258301E+01  0.10489267352E+03  0.93882852436E+02 0.  0.
        -11    1    3    3    0    0 -0.32457445748E+02  0.80226826923E+02 -0.24650663403E+03  0.26125724902E+03  0.00000000000E+00 0. -1.
         11    1    3    3    0    0 -0.16109780480E+02 -0.13387925069E+02 -0.10130328305E+02  0.23267683949E+02  0.00000000000E+00 0.  1.
        -11    1    4    4    0    0 -0.16645134746E+02  0.31613061427E+02  0.63620159657E+01  0.36289411825E+02  0.00000000000E+00 0. -1.
         11    1    4    4    0    0  0.61855717143E+02 -0.24809568700E+02 -0.16271541796E+02  0.68603261691E+02  0.00000000000E+00 0.  1.
          2    1    1    2  501    0  0.33566438318E+01 -0.73642394581E+02  0.74568142146E+02  0.10485645979E+03  0.00000000000E+00 0. -1.
<scales pt_clust_5="13000.00000" pt_clust_6="13000.00000" pt_clust_7="13000.00000" pt_clust_8="13000.00000" pt_clust_9="13000.00000"></scales>
<clustering>
<clus scale="   90.916">  5  6 -1 -1</clus>
<clus scale="   93.883">  7  8 -1 -1</clus>
<clus scale="   73.719">  7  9 -1 -1</clus>
<clus scale="  122.849">  2  5  1 -1</clus>
<clus scale="  199.534">  1  5  2 -1</clus>
</clustering>
</event>
<event>
 9    1  0.6399313E-006  0.2049633E+03  0.7546771E-02  0.1162222E+00
          1   -1    0    0  502    0 -0.00000000000E+00  0.00000000000E+00  0.57817399667E+02  0.57817399667E+02  0.00000000000E+00 0. -1.
         21   -1    0    0  501  502  0.00000000000E+00 -0.00000000000E+00 -0.51079282619E+03  0.51079282619E+03  0.00000000000E+00 0. -1.
         23    2    1    2    0    0  0.87929351577E+02  0.56427579111E+02 -0.17728998370E+03  0.22508086819E+03  0.91181228055E+02 0.  0.
         23    2    1    2    0    0  0.14256975440E+02 -0.17410102616E+02 -0.11228867000E+03  0.14690048322E+03  0.92003443070E+02 0.  0.
        -13    1    3    3    0    0  0.28475079030E+02  0.86733532772E+01  0.24156797762E+01  0.29864572517E+02  0.00000000000E+00 0.  1.
         13    1    3    3    0    0  0.59454272548E+02  0.47754225834E+02 -0.17970566348E+03  0.19521629567E+03  0.00000000000E+00 0. -1.
        -13    1    4    4    0    0  0.25523117813E+02 -0.51747878732E+02 -0.78516058006E+02  0.97437384309E+02  0.00000000000E+00 0. -1.
         13    1    4    4    0    0 -0.11266142372E+02  0.34337776116E+02 -0.33772611999E+02  0.49463098910E+02  0.00000000000E+00 0.  1.
          1    1    1    2  501    0 -0.10218632702E+03 -0.39017476496E+02 -0.16339677282E+03  0.19662887445E+03  0.00000000000E+00 0. -1.
<scales pt_clust_5="13000.00000" pt_clust_6="13000.00000" pt_clust_7="13000.00000" pt_clust_8="13000.00000" pt_clust_9="13000.00000"></scales>
<clustering>
<clus scale="   91.181">  5  6 -1 -1</clus>
<clus scale="   92.003">  7  8 -1 -1</clus>
<clus scale="  109.382">  7  9 -1 -1</clus>
<clus scale="  138.671">  1  5  2 -1</clus>
<clus scale="  204.963">  2  5  1 -1</clus>
</clustering>
</event>
<event>
 9    1  0.6399313E-006  0.2773246E+03  0.7546771E-02  0.1128181E+00
         21   -1    0    0  501  502  0.00000000000E+00  0.00000000000E+00  0.24799802259E+03  0.24799802259E+03  0.00000000000E+00 0.  1.
         -1   -1    0    0    0  501 -0.00000000000E+00 -0.00000000000E+00 -0.17338741605E+03  0.17338741605E+03  0.00000000000E+00 0.  1.
         23    2    1    2    0    0 -0.78040767214E+02 -0.51601953881E+02 -0.21002510389E+02  0.12804127819E+03  0.84854820057E+02 0.  0.
         23    2    1    2    0    0  0.32045238270E+02 -0.87368953419E+02  0.19590301717E+02  0.12839577400E+03  0.86263917969E+02 0.  0.
        -11    1    4    4    0    0  0.58810108278E+02 -0.72076441051E+02  0.23027161828E+01  0.93053450726E+02  0.00000000000E+00 0.  1.
         11    1    4    4    0    0 -0.26764870008E+02 -0.15292512368E+02  0.17287585534E+02  0.35342323277E+02  0.00000000000E+00 0. -1.
        -13    1    3    3    0    0 -0.84111946540E+02 -0.22366600320E+02 -0.36525122624E+02  0.94388394113E+02  0.00000000000E+00 0.  1.
         13    1    3    3    0    0  0.60711793254E+01 -0.29235353561E+02  0.15522612235E+02  0.33652884079E+02  0.00000000000E+00 0. -1.
         -1    1    1    2    0  502  0.45995528944E+02  0.13897090730E+03  0.76022815210E+02  0.16494838645E+03  0.00000000000E+00 0.  1.
<scales pt_clust_5="13000.00000" pt_clust_6="13000.00000" pt_clust_7="13000.00000" pt_clust_8="13000.00000" pt_clust_9="13000.00000"></scales>
<clustering>
<clus scale="   84.855">  7  8 -1 -1</clus>
<clus scale="   86.264">  5  6 -1 -1</clus>
<clus scale="  126.307">  2  7  1 -1</clus>
<clus scale="  116.276">  5  9 -1 -1</clus>
<clus scale="  277.325">  1  5  2 -1</clus>
</clustering>
</event>
<event>
 9    1  0.6399313E-006  0.2876491E+03  0.7546771E-02  0.1134877E+00
         -3   -1    0    0    0  501 -0.00000000000E+00  0.00000000000E+00  0.94779438447E+02  0.94779438447E+02  0.00000000000E+00 0.  1.
         21   -1    0    0  501  502  0.00000000000E+00 -0.00000000000E+00 -0.39901557512E+03  0.39901557512E+03  0.00000000000E+00 0.  1.
         23    2    1    2    0    0 -0.20386820592E+02 -0.17108221336E+02 -0.43103271516E+02  0.10529486637E+03  0.92308196695E+02 0.  0.
         23    2    1    2    0    0 -0.41399108125E+02 -0.75409440659E+02 -0.26643344331E+02  0.12895756082E+03  0.92302301167E+02 0.  0.
        -11    1    4    4    0    0 -0.53157571699E+02 -0.17626497303E+02 -0.39592091317E+02  0.68585381321E+02  0.00000000000E+00 0.  1.
         11    1    4    4    0    0  0.11758463574E+02 -0.57782943356E+02  0.12948746986E+02  0.60372179496E+02  0.00000000000E+00 0. -1.
        -13    1    3    3    0    0 -0.36835017325E+02 -0.47593239703E+02 -0.35356754809E+02  0.69799964738E+02  0.00000000000E+00 0.  1.
         13    1    3    3    0    0  0.16448196734E+02  0.30485018367E+02 -0.77465167075E+01  0.35494901630E+02  0.00000000000E+00 0. -1.
         -3    1    1    2    0  502  0.61785928716E+02  0.92517661995E+02 -0.23448952083E+03  0.25954258638E+03  0.00000000000E+00 0.  1.
<scales pt_clust_5="13000.00000" pt_clust_6="13000.00000" pt_clust_7="13000.00000" pt_clust_8="13000.00000" pt_clust_9="13000.00000"></scales>
<clustering>
<clus scale="   92.302">  5  6 -1 -1</clus>
<clus scale="   92.308">  7  8 -1 -1</clus>
<clus scale="   96.068">  1  7  2 -1</clus>
<clus scale="  106.237">  5  9 -1 -1</clus>
<clus scale="  287.649">  2  5  1 -1</clus>
</clustering>
</event>
<event>
 9    1  0.6399313E-006  0.8428028E+03  0.7546771E-02  0.1005960E+00
          1   -1    0    0  502    0 -0.00000000000E+00  0.00000000000E+00  0.57046714158E+03  0.57046714158E+03  0.00000000000E+00 0. -1.
         21   -1    0    0  501  502  0.00000000000E+00 -0.00000000000E+00 -0.43479923769E+03  0.43479923769E+03  0.00000000000E+00 0. -1.
         23    2    1    2    0    0 -0.25176212726E+02 -0.93357162973E+02  0.91372852627E+02  0.16130034881E+03  0.91210760131E+02 0.  0.
         23    2    1    2    0    0 -0.17776012803E+03 -0.69879783075E+02  0.36998049330E+03  0.42695228235E+03  0.94450192065E+02 0.  0.
        -11    1    4    4    0    0 -0.24693382122E+02 -0.52268661704E+02  0.12201738921E+03  0.13501858904E+03  0.00000000000E+00 0.  1.
         11    1    4    4    0    0 -0.15306674591E+03 -0.17611121371E+02  0.24796310409E+03  0.29193369331E+03  0.00000000000E+00 0. -1.
        -11    1    3    3    0    0 -0.37229391871E+02 -0.32549678869E+02 -0.16902690132E+01  0.49480968290E+02  0.00000000000E+00 0.  1.
         11    1    3    3    0    0  0.12053179145E+02 -0.60807484104E+02  0.93063121640E+02  0.11181938052E+03  0.00000000000E+00 0. -1.
          1    1    1    2  501    0  0.20293634076E+03  0.16323694605E+03 -0.32568544204E+03  0.41701374811E+03  0.00000000000E+00 0. -1.
<scales pt_clust_5="13000.00000" pt_clust_6="13000.00000" pt_clust_7="13000.00000" pt_clust_8="13000.00000" pt_clust_9="13000.00000"></scales>
<clustering>
<clus scale="   91.211">  7  8 -1 -1</clus>
<clus scale="   94.450">  5  6 -1 -1</clus>
<clus scale="  132.924">  1  7  2 -1</clus>
<clus scale="  252.476">  5  9 -1 -1</clus>
<clus scale="  842.803">  2  5  1 -1</clus>
</clustering>
</event>
<event>
 9    1  0.6399313E-006  0.3323618E+03  0.7546771E-02  0.1116015E+00
         21   -1    0    0  501  502  0.00000000000E+00  0.00000000000E+00  0.54664757872E+03  0.54664757872E+03  0.00000000000E+00 0.  1.
         -4   -1    0    0    0  501 -0.00000000000E+00 -0.00000000000E+00 -0.86989038442E+02  0.86989038442E+02  0.00000000000E+00 0.  1.
         23    2    1    2    0    0 -0.38718336627E+02  0.80556276049E+01  0.14627140875E+03  0.17682609228E+03  0.91148994325E+02 0.  0.
         23    2    1    2    0    0  0.52469377517E+02  0.14471719130E+03  0.17716374575E+03  0.25166317258E+03  0.90836438664E+02 0.  0.
        -11    1    4    4    0    0  0.51420601439E+02  0.33054655915E+02  0.33504558730E+02  0.69708277741E+02  0.00000000000E+00 0.  1.
         11    1    4    4    0    0  0.10487760786E+01  0.11166253539E+03  0.14365918701E+03  0.18195489484E+03  0.00000000000E+00 0. -1.
        -13    1    3    3    0    0  0.13818673600E+02 -0.20924943285E+02  0.93880280374E+02  0.97171580386E+02  0.00000000000E+00 0.  1.
         13    1    3    3    0    0 -0.52537010227E+02  0.28980570890E+02  0.52391128374E+02  0.79654511894E+02  0.00000000000E+00 0. -1.
         -4    1    1    2    0  502 -0.13751040891E+02 -0.15277281891E+03  0.13622338578E+03  0.20514735230E+03  0.00000000000E+00 0.  1.
<scales pt_clust_5="13000.00000" pt_clust_6="13000.00000" pt_clust_7="13000.00000" pt_clust_8="13000.00000" pt_clust_9="13000.00000"></scales>
<clustering>
<clus scale="   90.836">  5  6 -1 -1</clus>
<clus scale="   91.149">  7  8 -1 -1</clus>
<clus scale="   99.359">  2  7  1 -1</clus>
<clus scale="  152.377">  5  9 -1 -1</clus>
<clus scale="  332.362">  1  5  2 -1</clus>
</clustering>
</event>
<event>
 9    1  0.6399313E-006  0.2975375E+03  0.7546771E-02  0.1115483E+00
          1   -1    0    0  502    0 -0.00000000000E+00  0.00000000000E+00  0.45363466696E+03  0.45363466696E+03  0.00000000000E+00 0. -1.
         21   -1    0    0  501  502  0.00000000000E+00 -0.00000000000E+00 -0.16922721837E+03  0.16922721837E+03  0.00000000000E+00 0. -1.
         23    2    1    2    0    0  0.46469873723E+02 -0.99265759538E+02 -0.72682146787E+02  0.15805917532E+03  0.87674786911E+02 0.  0.
         23    2    1    2    0    0  0.28840331334E+02  0.21283540016E+02  0.34204082004E+03  0.35535263379E+03  0.89436111185E+02 0.  0.
        -13    1    4    4    0    0 -0.31834610022E+02  0.14263415825E+02  0.10938809017E+03  0.11481568576E+03  0.00000000000E+00 0. -1.
         13    1    4    4    0    0  0.60674941356E+02  0.70201241910E+01  0.23265272987E+03  0.24053694803E+03  0.00000000000E+00 0.  1.
        -13    1    3    3    0    0  0.68353622120E+02 -0.89026003712E+02 -0.73008894395E+02  0.13389602554E+03  0.00000000000E+00 0. -1.
         13    1    3    3    0    0 -0.21883748397E+02 -0.10239755827E+02  0.32674760793E+00  0.24163149780E+02  0.00000000000E+00 0.  1.
          1    1    1    2  501    0 -0.75310205056E+02  0.77982219522E+02  0.15048775342E+02  0.10945007623E+03  0.00000000000E+00 0. -1.
<scales pt_clust_5="13000.00000" pt_clust_6="13000.00000" pt_clust_7="13000.00000" pt_clust_8="13000.00000" pt_clust_9="13000.00000"></scales>
<clustering>
<clus scale="   87.675">  7  8 -1 -1</clus>
<clus scale="   89.436">  5  6 -1 -1</clus>
<clus scale="  108.411">  5  9 -1 -1</clus>
<clus scale="  140.357">  1  7  2 -1</clus>
<clus scale="  297.538">  2  5  1 -1</clus>
</clustering>
</event>
<event>
 9    1  0.6399313E-006  0.2277375E+03  0.7546771E-02  0.1163323E+00
         21   -1    0    0  501  502  0.00000000000E+00  0.00000000000E+00  0.10373082787E+03  0.10373082787E+03  0.00000000000E+00 0.  1.
         -1   -1    0    0    0  501 -0.00000000000E+00 -0.00000000000E+00 -0.25706610140E+03  0.25706610140E+03  0.00000000000E+00 0.  1.
         23    2    1    2    0    0 -0.12964881879E+02 -0.15288508191E+02 -0.53585231246E+02  0.11217181782E+03  0.96484781495E+02 0.  0.
         23    2    1    2    0    0  0.51941222529E+02  0.23971039479E+02 -0.14921149076E+03  0.18505643704E+03  0.93323708583E+02 0.  0.
        -13    1    3    3    0    0  0.40054832195E+02 -0.20811025940E+02 -0.22056554021E+02  0.50239227284E+02  0.00000000000E+00 0.  1.
         13    1    3    3    0    0 -0.53019714074E+02  0.55225177483E+01 -0.31528677225E+02  0.61932590535E+02  0.00000000000E+00 0. -1.
        -13    1    4    4    0    0  0.43682295607E+01  0.53101510907E+02 -0.65031846524E+02  0.84071356314E+02  0.00000000000E+00 0. -1.
         13    1    4    4    0    0  0.47572992968E+02 -0.29130471428E+02 -0.84179644241E+02  0.10098508073E+03  0.00000000000E+00 0.  1.
         -1    1    1    2    0  502 -0.38976340650E+02 -0.86825312881E+01  0.49461448476E+02  0.63568674403E+02  0.00000000000E+00 0.  1.
<scales pt_clust_5="13000.00000" pt_clust_6="13000.00000" pt_clust_7="13000.00000" pt_clust_8="13000.00000" pt_clust_9="13000.00000"></scales>
<clustering>
<clus scale="   93.324">  7  8 -1 -1</clus>
<clus scale="   39.932">  7  9 -1 -1</clus>
<clus scale="   96.485">  5  6 -1 -1</clus>
<clus scale="   98.545">  2  5  1 -1</clus>
<clus scale="  227.738">  1  5  2 -1</clus>
</clustering>
</event>
<event>
 9    1  0.6399313E-006  0.2849902E+03  0.7546771E-02  0.1103116E+00
         21   -1    0    0  501  502  0.00000000000E+00  0.00000000000E+00  0.81742876192E+02  0.81742876192E+02  0.00000000000E+00 0.  1.
          1   -1    0    0  502    0 -0.00000000000E+00 -0.00000000000E+00 -0.78558297047E+03  0.78558297047E+03  0.00000000000E+00 0. -1.
         23    2    1    2    0    0  0.83721380444E+02 -0.17900624095E+03 -0.26062781975E+03  0.34039462091E+03  0.94282202302E+02 0.  0.
         23    2    1    2    0    0 -0.11975132419E+03  0.61153761064E+02 -0.24809667104E+03  0.29615544153E+03  0.89866151749E+02 0.  0.
        -11    1    4    4    0    0 -0.11420906474E+03  0.16531526868E+02 -0.16034117717E+03  0.19755074018E+03  0.00000000000E+00 0. -1.
         11    1    4    4    0    0 -0.55422594514E+01  0.44622234197E+02 -0.87755493869E+02  0.98604701352E+02  0.00000000000E+00 0.  1.
        -11    1    3    3    0    0  0.92187647701E+02 -0.96525046083E+02 -0.18533079200E+03  0.22839253353E+03  0.00000000000E+00 0.  1.
         11    1    3    3    0    0 -0.84662672566E+01 -0.82481194866E+02 -0.75297027751E+02  0.11200208737E+03  0.00000000000E+00 0. -1.
          1    1    1    2  501    0  0.36029943746E+02  0.11785247988E+03 -0.19511560349E+03  0.23077578423E+03  0.00000000000E+00 0. -1.
<scales pt_clust_5="13000.00000" pt_clust_6="13000.00000" pt_clust_7="13000.00000" pt_clust_8="13000.00000" pt_clust_9="13000.00000"></scales>
<clustering>
<clus scale="   89.866">  5  6 -1 -1</clus>
<clus scale="   94.282">  7  8 -1 -1</clus>
<clus scale="  123.237">  5  9 -1 -1</clus>
<clus scale="  218.956">  2  7  1 -1</clus>
<clus scale="  284.990">  1  5  2 -1</clus>
</clustering>
</event>
<event>
 9    1  0.6399313E-006  0.6044920E+03  0.7546771E-02  0.1050146E+00
         21   -1    0    0  501  502  0.00000000000E+00  0.00000000000E+00  0.10442885149E+04  0.10442885149E+04  0.00000000000E+00 0. -1.
          2   -1    0    0  502    0 -0.00000000000E+00 -0.00000000000E+00 -0.16675244448E+03  0.16675244448E+03  0.00000000000E+00 0. -1.
         23    2    1    2    0    0  0.30305879720E+02  0.47272826894E+01 -0.46253723323E+02  0.10704902947E+03  0.91538485035E+02 0.  0.
         23    2    1    2    0    0  0.23520789891E+03 -0.97177360679E+02  0.22686918388E+03  0.35249813752E+03  0.89549512689E+02 0.  0.
        -11    1    3    3    0    0 -0.20758886238E+02  0.31855902206E+02 -0.12146433169E+02  0.39915732511E+02  0.00000000000E+00 0. -1.
         11    1    3    3    0    0  0.51064765958E+02 -0.27128619516E+02 -0.34107290154E+02  0.67133296961E+02  0.00000000000E+00 0.  1.
        -13    1    4    4    0    0  0.80300963293E+02 -0.53760526451E+02  0.13870127245E+03  0.16904579820E+03  0.00000000000E+00 0.  1.
         13    1    4    4    0    0  0.15490693561E+03 -0.43416834228E+02  0.88167911436E+02  0.18345233932E+03  0.00000000000E+00 0. -1.
          2    1    1    2  501    0 -0.26551377863E+03  0.92450077989E+02  0.69692060988E+03  0.75149379241E+03  0.00000000000E+00 0. -1.
<scales pt_clust_5="13000.00000" pt_clust_6="13000.00000" pt_clust_7="13000.00000" pt_clust_8="13000.00000" pt_clust_9="13000.00000"></scales>
<clustering>
<clus scale="   89.550">  7  8 -1 -1</clus>
<clus scale="   91.538">  5  6 -1 -1</clus>
<clus scale="   96.541">  2  5  1 -1</clus>
<clus scale="  272.987">  7  9 -1 -1</clus>
<clus scale="  604.492">  1  5  2 -1</clus>
</clustering>
</event>
<event>
 9    1  0.6399313E-006  0.2548500E+03  0.7546771E-02  0.1142261E+00
         21   -1    0    0  501  502  0.00000000000E+00  0.00000000000E+00  0.10796054967E+03  0.10796054967E+03  0.00000000000E+00 0.  1.
          1   -1    0    0  502    0 -0.00000000000E+00 -0.00000000000E+00 -0.67550832903E+03  0.67550832903E+03  0.00000000000E+00 0. -1.
         23    2    1    2    0    0 -0.38350833203E+02 -0.59044909422E+02 -0.50903860603E+03  0.52198873394E+03  0.91623404191E+02 0.  0.
         23    2    1    2    0    0  0.85871401864E+02  0.11828298052E+03 -0.63061235274E+02  0.18540074688E+03  0.95036605637E+02 0.  0.
        -11    1    3    3    0    0 -0.27981259373E+02  0.14892810679E+02 -0.72716568602E+02  0.79324939554E+02  0.00000000000E+00 0.  1.
         11    1    3    3    0    0 -0.10369573830E+02 -0.73937720101E+02 -0.43632203742E+03  0.44266379438E+03  0.00000000000E+00 0. -1.
        -13    1    4    4    0    0  0.41188245873E+02  0.37362494808E+02 -0.73729360648E+02  0.92349587103E+02  0.00000000000E+00 0. -1.
         13    1    4    4    0    0  0.44683155991E+02  0.80920485713E+02  0.10668125374E+02  0.93051159779E+02  0.00000000000E+00 0.  1.
          1    1    1    2  501    0 -0.47520568661E+02 -0.59238071099E+02  0.45520619354E+01  0.76079397877E+02  0.00000000000E+00 0. -1.
<scales pt_clust_5="13000.00000" pt_clust_6="13000.00000" pt_clust_7="13000.00000" pt_clust_8="13000.00000" pt_clust_9="13000.00000"></scales>
<clustering>
<clus scale="   91.623">  5  6 -1 -1</clus>
<clus scale="   95.037">  7  8 -1 -1</clus>
<clus scale="   75.943">  7  9 -1 -1</clus>
<clus scale="  115.551">  2  5  1 -1</clus>
<clus scale="  254.850">  1  5  2 -1</clus>
</clustering>
</event>
<event>
 9    1  0.6399313E-006  0.1611495E+03  0.7546771E-02  0.1204353E+00
         -3   -1    0    0    0  501 -0.00000000000E+00  0.00000000000E+00  0.82349594120E+03  0.82349594120E+03  0.00000000000E+00 0.  1.
         21   -1    0    0  501  502  0.00000000000E+00 -0.00000000000E+00 -0.22721992191E+02  0.22721992191E+02  0.00000000000E+00 0.  1.
         23    2    1    2    0    0 -0.48125379930E+02  0.39305116109E+02  0.36654494574E+03  0.38305057787E+03  0.92258352555E+02 0.  0.
         23    2    1    2    0    0  0.72747910929E+02 -0.73368585124E+01  0.35997180403E+03  0.37865481109E+03  0.91943886303E+02 0.  0.
        -11    1    3    3    0    0 -0.67745262085E+01  0.62961934418E+02  0.22218348493E+03  0.23103160036E+03  0.00000000000E+00 0.  1.
         11    1    3    3    0    0 -0.41350853722E+02 -0.23656818309E+02  0.14436146081E+03  0.15201897751E+03  0.00000000000E+00 0. -1.
        -13    1    4    4    0    0  0.91849019281E+02 -0.19959081926E+02  0.27335395443E+03  0.28906226266E+03  0.00000000000E+00 0.  1.
         13    1    4    4    0    0 -0.19101108352E+02  0.12622223414E+02  0.86617849602E+02  0.89592548428E+02  0.00000000000E+00 0. -1.
         -3    1    1    2    0  502 -0.24622530999E+02 -0.31968257596E+02  0.74257199243E+02  0.84512544430E+02  0.00000000000E+00 0.  1.
<scales pt_clust_5="13000.00000" pt_clust_6="13000.00000" pt_clust_7="13000.00000" pt_clust_8="13000.00000" pt_clust_9="13000.00000"></scales>
<clustering>
<clus scale="   91.944">  7  8 -1 -1</clus>
<clus scale="   40.351">  7  9 -1 -1</clus>
<clus scale="   92.258">  5  6 -1 -1</clus>
<clus scale="  111.232">  1  5  2 -1</clus>
<clus scale="  161.150">  2  5  1 -1</clus>
</clustering>
</event>
<event>
 9    1  0.6399313E-006  0.2806152E+03  0.7546771E-02  0.1117961E+00
          1   -1    0    0  502    0 -0.00000000000E+00  0.00000000000E+00  0.13219131117E+04  0.13219131117E+04  0.00000000000E+00 0. -1.
         21   -1    0    0  501  502  0.00000000000E+00 -0.00000000000E+00 -0.47562210918E+02  0.47562210918E+02  0.00000000000E+00 0. -1.
         23    2    1    2    0    0  0.70687963191E+02 -0.11032785807E+03  0.82393732859E+03  0.83879905216E+03  0.86845288041E+02 0.  0.
         23    2    1    2    0    0  0.36405944950E+02 -0.36226980585E+01  0.29221874403E+03  0.30823653015E+03  0.90991468778E+02 0.  0.
        -13    1    3    3    0    0  0.19723696944E+02 -0.10328323595E+03  0.51778191911E+03  0.52835079900E+03  0.00000000000E+00 0. -1.
         13    1    3    3    0    0  0.50964266246E+02 -0.70446221187E+01  0.30615540948E+03  0.31044825316E+03  0.00000000000E+00 0.  1.
        -13    1    4    4    0    0  0.40252816579E+01 -0.45178907551E+02  0.13906687044E+03  0.14627689850E+03  0.00000000000E+00 0. -1.
         13    1    4    4    0    0  0.32380663292E+02  0.41556209492E+02  0.15315187359E+03  0.16195963165E+03  0.00000000000E+00 0.  1.
          1    1    1    2  501    0 -0.10709390814E+03  0.11395055613E+03  0.15819482811E+03  0.22243974026E+03  0.00000000000E+00 0. -1.
<scales pt_clust_5="13000.00000" pt_clust_6="13000.00000" pt_clust_7="13000.00000" pt_clust_8="13000.00000" pt_clust_9="13000.00000"></scales>
<clustering>
<clus scale="   86.845">  5  6 -1 -1</clus>
<clus scale="   90.991">  7  8 -1 -1</clus>
<clus scale="  156.377">  7  9 -1 -1</clus>
<clus scale="  157.198">  1  5  2 -1</clus>
<clus scale="  280.615">  2  5  1 -1</clus>
</clustering>
</event>
<event>
 9    1  0.6399313E-006  0.2081775E+03  0.7546771E-02  0.1151701E+00
         -3   -1    0    0    0  501 -0.00000000000E+00  0.00000000000E+00  0.65983767827E+03  0.65983767827E+03  0.00000000000E+00 0.  1.
         21   -1    0    0  501  502  0.00000000000E+00 -0.00000000000E+00 -0.54769369621E+02  0.54769369621E+02  0.00000000000E+00 0. -1.
         23    2    1    2    0    0  0.28859789462E+02  0.12311761058E+03  0.22933524092E+03  0.28505705133E+03  0.11257013949E+03 0.  0.
         23    2    1    2    0    0 -0.18391230568E+02 -0.49493770970E+02  0.32080915703E+03  0.33710165179E+03  0.89056935036E+02 0.  0.
        -11    1    3    3    0    0 -0.10293528035E+00  0.38204478556E+02  0.17724292703E+03  0.18131367284E+03  0.00000000000E+00 0.  1.
         11    1    3    3    0    0  0.28962724742E+02  0.84913132021E+02  0.52092313888E+02  0.10374337849E+03  0.00000000000E+00 0. -1.
        -11    1    4    4    0    0 -0.99696999918E+01 -0.72879693871E+02  0.27831663010E+03  0.28787322086E+03  0.00000000000E+00 0.  1.
         11    1    4    4    0    0 -0.84215305764E+01  0.23385922900E+02  0.42492526936E+02  0.49228430938E+02  0.00000000000E+00 0. -1.
         -3    1    1    2    0  502 -0.10468558894E+02 -0.73623839607E+02  0.54923910697E+02  0.92448344767E+02  0.00000000000E+00 0.  1.
<scales pt_clust_5="13000.00000" pt_clust_6="13000.00000" pt_clust_7="13000.00000" pt_clust_8="13000.00000" pt_clust_9="13000.00000"></scales>
<clustering>
<clus scale="   89.057">  7  8 -1 -1</clus>
<clus scale="   74.364">  7  9 -1 -1</clus>
<clus scale="  112.570">  5  6 -1 -1</clus>
<clus scale="  169.301">  1  5  2 -1</clus>
<clus scale="  208.177">  2  5  1 -1</clus>
</clustering>
</event>
<event>
 9    1  0.6399313E-006  0.1651778E+03  0.7546771E-02  0.1210386E+00
          1   -1    0    0  502    0 -0.00000000000E+00  0.00000000000E+00  0.17690163861E+03  0.17690163861E+03  0.00000000000E+00 0. -1.
         21   -1    0    0  501  502  0.00000000000E+00 -0.00000000000E+00 -0.24181893685E+03  0.24181893685E+03  0.00000000000E+00 0. -1.
         23    2    1    2    0    0 -0.21447705264E+02  0.77670124706E+01  0.13294892597E+03  0.16097120633E+03  0.87840661466E+02 0.  0.
         23    2    1    2    0    0  0.21577927093E+02  0.47674775316E+02 -0.12753386906E+03  0.16819240976E+03  0.96360302029E+02 0.  0.
        -11    1    3    3    0    0 -0.26029563025E+02  0.44679637939E+02  0.92845452419E+02  0.10627363846E+03  0.00000000000E+00 0. -1.
         11    1    3    3    0    0  0.45818577606E+01 -0.36912625468E+02  0.40103473549E+02  0.54697567864E+02  0.00000000000E+00 0.  1.
        -13    1    4    4    0    0  0.42989622550E+02 -0.20698221481E+01 -0.19306867885E+02  0.47171463389E+02  0.00000000000E+00 0.  1.
         13    1    4    4    0    0 -0.21411695457E+02  0.49744597464E+02 -0.10822700117E+03  0.12102094638E+03  0.00000000000E+00 0. -1.
          1    1    1    2  501    0 -0.13022182908E+00 -0.55441787787E+02 -0.70332355144E+02  0.89556959366E+02  0.00000000000E+00 0. -1.
<scales pt_clust_5="13000.00000" pt_clust_6="13000.00000" pt_clust_7="13000.00000" pt_clust_8="13000.00000" pt_clust_9="13000.00000"></scales>
<clustering>
<clus scale="   87.841">  5  6 -1 -1</clus>
<clus scale="   90.754">  1  5  2 -1</clus>
<clus scale="   96.360">  7  8 -1 -1</clus>
<clus scale="   53.411">  7  9 -1 -1</clus>
<clus scale="  165.178">  2  5  1 -1</clus>
</clustering>
</event>
<event>
 9    1  0.6399313E-006  0.2249505E+03  0.7546771E-02  0.1155096E+00
         21   -1    0    0  501  502  0.00000000000E+00  0.00000000000E+00  0.49914837635E+03  0.49914837635E+03  0.00000000000E+00 0. -1.
         -1   -1    0    0    0  501 -0.00000000000E+00 -0.00000000000E+00 -0.69852656145E+02  0.69852656145E+02  0.00000000000E+00 0.  1.
         23    2    1    2    0    0  0.23204514248E+02  0.82309376549E+02  0.25820040056E+03  0.28637704672E+03  0.89616310391E+02 0.  0.
         23    2    1    2    0    0 -0.86058906294E+02 -0.72684969113E+02  0.65339697511E+02  0.15922400429E+03  0.91617505882E+02 0.  0.
        -11    1    4    4    0    0  0.16508860866E+02 -0.28797236800E+02  0.20323542096E+02  0.38921327030E+02  0.00000000000E+00 0. -1.
         11    1    4    4    0    0 -0.10256776716E+03 -0.43887732313E+02  0.45016155415E+02  0.12030267726E+03  0.00000000000E+00 0.  1.
        -13    1    3    3    0    0  0.44846914035E+02  0.13970967460E+02  0.14471854940E+03  0.15215088620E+03  0.00000000000E+00 0. -1.
         13    1    3    3    0    0 -0.21642399786E+02  0.68338409089E+02  0.11348185116E+03  0.13422616052E+03  0.00000000000E+00 0.  1.
         -1    1    1    2    0  502  0.62854392046E+02 -0.96244074358E+01  0.10575562213E+03  0.12339998149E+03  0.00000000000E+00 0.  1.
<scales pt_clust_5="13000.00000" pt_clust_6="13000.00000" pt_clust_7="13000.00000" pt_clust_8="13000.00000" pt_clust_9="13000.00000"></scales>
<clustering>
<clus scale="   89.616">  7  8 -1 -1</clus>
<clus scale="   91.618">  5  6 -1 -1</clus>
<clus scale="   63.587">  5  9 -1 -1</clus>
<clus scale="  123.872">  2  7  1 -1</clus>
<clus scale="  224.950">  1  5  2 -1</clus>
</clustering>
</event>
<event>
 9    1  0.6399313E-006  0.1602810E+03  0.7546771E-02  0.1206378E+00
          2   -1    0    0  502    0 -0.00000000000E+00  0.00000000000E+00  0.33846824538E+03  0.33846824538E+03  0.00000000000E+00 0. -1.
         21   -1    0    0  501  502  0.00000000000E+00 -0.00000000000E+00 -0.54449684926E+02  0.54449684926E+02  0.00000000000E+00 0.  1.
         23    2    1    2    0    0 -0.49098535499E+02  0.31418045759E+02  0.14367579246E+03  0.17987781398E+03  0.91189554413E+02 0.  0.
         23    2    1    2    0    0  0.75743455535E+02 -0.43703842441E+02  0.10440308474E+03  0.16664449804E+03  0.96037949399E+02 0.  0.
        -11    1    3    3    0    0 -0.35390679470E+02  0.59204439072E+02  0.12741339602E+03  0.14488560759E+03  0.00000000000E+00 0. -1.
         11    1    3    3    0    0 -0.13707856028E+02 -0.27786393313E+02  0.16262396440E+02  0.34992206392E+02  0.00000000000E+00 0.  1.
        -13    1    4    4    0    0  0.13446455423E+02  0.21128245845E+02  0.62730424940E+02  0.67544919491E+02  0.00000000000E+00 0. -1.
         13    1    4    4    0    0  0.62297000111E+02 -0.64832088286E+02  0.41672659795E+02  0.99099578550E+02  0.00000000000E+00 0.  1.
          2    1    1    2  501    0 -0.26644920036E+02  0.12285796681E+02  0.35939683257E+02  0.46395618289E+02  0.00000000000E+00 0. -1.
<scales pt_clust_5="13000.00000" pt_clust_6="13000.00000" pt_clust_7="13000.00000" pt_clust_8="13000.00000" pt_clust_9="13000.00000"></scales>
<clustering>
<clus scale="   91.190">  5  6 -1 -1</clus>
<clus scale="   96.038">  7  8 -1 -1</clus>
<clus scale="   29.341">  7  9 -1 -1</clus>
<clus scale="  108.228">  1  5  2 -1</clus>
<clus scale="  160.281">  2  5  1 -1</clus>
</clustering>
</event>
<event>
 9    1  0.6399313E-006  0.4034899E+03  0.7546771E-02  0.1073654E+00
          1   -1    0    0  502    0 -0.00000000000E+00  0.00000000000E+00  0.52333763256E+03  0.52333763256E+03  0.00000000000E+00 0. -1.
         21   -1    0    0  501  502  0.00000000000E+00 -0.00000000000E+00 -0.20301453083E+03  0.20301453083E+03  0.00000000000E+00 0. -1.
         23    2    1    2    0    0 -0.10204310452E+02  0.14003940637E+03  0.27199857564E+03  0.31997875766E+03  0.93209532316E+02 0.  0.
         23    2    1    2    0    0 -0.97350326355E+01  0.35304002606E+02  0.16803887365E+03  0.19312609981E+03  0.87860593619E+02 0.  0.
        -11    1    3    3    0    0 -0.21647950650E+02  0.10371621321E+03  0.10676889389E+03  0.15041703145E+03  0.00000000000E+00 0. -1.
         11    1    3    3    0    0  0.11443640198E+02  0.36323193168E+02  0.16522968175E+03  0.16956172620E+03  0.00000000000E+00 0.  1.
        -13    1    4    4    0    0  0.20066499760E+02  0.11727312995E+02  0.26091065100E+01  0.23388067887E+02  0.00000000000E+00 0.  1.
         13    1    4    4    0    0 -0.29801532396E+02  0.23576689611E+02  0.16542976714E+03  0.16973803192E+03  0.00000000000E+00 0. -1.
          1    1    1    2  501    0  0.19939343088E+02 -0.17534340898E+03 -0.11971434755E+03  0.21324730593E+03  0.00000000000E+00 0. -1.
<scales pt_clust_5="13000.00000" pt_clust_6="13000.00000" pt_clust_7="13000.00000" pt_clust_8="13000.00000" pt_clust_9="13000.00000"></scales>
<clustering>
<clus scale="   87.861">  7  8 -1 -1</clus>
<clus scale="   93.210">  5  6 -1 -1</clus>
<clus scale="  168.532">  1  5  2 -1</clus>
<clus scale="  147.619">  7  9 -1 -1</clus>
<clus scale="  403.490">  2  5  1 -1</clus>
</clustering>
</event>
<event>
 9    1  0.6399313E-006  0.2205943E+03  0.7546771E-02  0.1167230E+00
         21   -1    0    0  501  502  0.00000000000E+00  0.00000000000E+00  0.98721362338E+02  0.98721362338E+02  0.00000000000E+00 0. -1.
         -3   -1    0    0    0  501 -0.00000000000E+00 -0.00000000000E+00 -0.25923966177E+03  0.25923966177E+03  0.00000000000E+00 0.  1.
         23    2    1    2    0    0  0.15479723476E+01  0.24487979783E+02 -0.43015947147E+02  0.10802376598E+03  0.96003671467E+02 0.  0.
         23    2    1    2    0    0  0.96779173778E+01 -0.11698422842E+00 -0.16895383104E+03  0.19190950020E+03  0.90499632449E+02 0.  0.
        -11    1    4    4    0    0 -0.26733124751E+02 -0.32520211464E+02 -0.84278143653E+02  0.94207375562E+02  0.00000000000E+00 0.  1.
         11    1    4    4    0    0  0.36411042129E+02  0.32403227235E+02 -0.84675687383E+02  0.97702124633E+02  0.00000000000E+00 0. -1.
        -13    1    3    3    0    0  0.85679296399E+01 -0.36158176315E+02 -0.94011030106E+01  0.38330195285E+02  0.00000000000E+00 0.  1.
         13    1    3    3    0    0 -0.70199572923E+01  0.60646156098E+02 -0.33614844137E+02  0.69693570694E+02  0.00000000000E+00 0. -1.
         -3    1    1    2    0  502 -0.11225889725E+02 -0.24370995554E+02  0.51451478754E+02  0.58027757931E+02  0.00000000000E+00 0.  1.
<scales pt_clust_5="13000.00000" pt_clust_6="13000.00000" pt_clust_7="13000.00000" pt_clust_8="13000.00000" pt_clust_9="13000.00000"></scales>
<clustering>
<clus scale="   90.500">  5  6 -1 -1</clus>
<clus scale="   26.832">  5  9 -1 -1</clus>
<clus scale="   96.004">  7  8 -1 -1</clus>
<clus scale="   99.090">  2  7  1 -1</clus>
<clus scale="  220.594">  1  5  2 -1</clus>
</clustering>
</event>
<event>
 9    1  0.6399313E-006  0.4730770E+03  0.7546771E-02  0.1051377E+00
         21   -1    0    0  501  502  0.00000000000E+00  0.00000000000E+00  0.14941993015E+03  0.14941993015E+03  0.00000000000E+00 0.  1.
         -3   -1    0    0    0  501 -0.00000000000E+00 -0.00000000000E+00 -0.83112142016E+03  0.83112142016E+03  0.00000000000E+00 0.  1.
         23    2    1    2    0    0 -0.83529641796E+02  0.15207814106E+03 -0.35770499632E+03  0.40715181436E+03  0.87833783367E+02 0.  0.
         23    2    1    2    0    0  0.74369060279E+02 -0.20036587552E+03 -0.41169521791E+03  0.47285751229E+03  0.91782532537E+02 0.  0.
        -11    1    3    3    0    0 -0.87866334513E+02  0.12840029446E+03 -0.23317860613E+03  0.28032015752E+03  0.00000000000E+00 0. -1.
         11    1    3    3    0    0  0.43366927164E+01  0.23677846609E+02 -0.12452639019E+03  0.12683165684E+03  0.00000000000E+00 0.  1.
        -13    1    4    4    0    0  0.42407047033E+02 -0.34273681197E+02 -0.16477354816E+03  0.17356083958E+03  0.00000000000E+00 0. -1.
         13    1    4    4    0    0  0.31962013246E+02 -0.16609219432E+03 -0.24692166975E+03  0.29929667271E+03  0.00000000000E+00 0.  1.
         -3    1    1    2    0  502  0.91605815173E+01  0.48287734451E+02  0.87698724217E+02  0.10053202366E+03  0.00000000000E+00 0.  1.
<scales pt_clust_5="13000.00000" pt_clust_6="13000.00000" pt_clust_7="13000.00000" pt_clust_8="13000.00000" pt_clust_9="13000.00000"></scales>
<clustering>
<clus scale="   87.834">  5  6 -1 -1</clus>
<clus scale="   91.783">  7  8 -1 -1</clus>
<clus scale="   49.149">  7  9 -1 -1</clus>
<clus scale="  194.473">  2  5  1 -1</clus>
<clus scale="  473.077">  1  5  2 -1</clus>
</clustering>
</event>
<event>
 9    1  0.6399313E-006  0.3478495E+03  0.7546771E-02  0.1073680E+00
         21   -1    0    0  501  502  0.00000000000E+00  0.00000000000E+00  0.86386759945E+02  0.86386759945E+02  0.00000000000E+00 0. -1.
          1   -1    0    0  502    0 -0.00000000000E+00 -0.00000000000E+00 -0.12505552822E+04  0.12505552822E+04  0.00000000000E+00 0. -1.
         23    2    1    2    0    0  0.11528520779E+03 -0.21736709836E+03 -0.75745824596E+03  0.80176683555E+03  0.92455014179E+02 0.  0.
         23    2    1    2    0    0 -0.55372588955E+02  0.18132065281E+02 -0.25524426089E+03  0.27783093500E+03  0.92981182663E+02 0.  0.
        -11    1    4    4    0    0 -0.84406696733E+01  0.51274140338E+02 -0.13167888561E+03  0.14156133401E+03  0.00000000000E+00 0.  1.
         11    1    4    4    0    0 -0.46931919282E+02 -0.33142075057E+02 -0.12356537528E+03  0.13626960099E+03  0.00000000000E+00 0. -1.
        -11    1    3    3    0    0  0.48324451122E+02 -0.12557515601E+03 -0.53884934207E+03  0.55539444166E+03  0.00000000000E+00 0. -1.
         11    1    3    3    0    0  0.66960756664E+02 -0.91791942348E+02 -0.21860890389E+03  0.24637239389E+03  0.00000000000E+00 0.  1.
          1    1    1    2  501    0 -0.59912618832E+02  0.19923503308E+03 -0.15146601544E+03  0.25734427161E+03  0.00000000000E+00 0. -1.
<scales pt_clust_5="13000.00000" pt_clust_6="13000.00000" pt_clust_7="13000.00000" pt_clust_8="13000.00000" pt_clust_9="13000.00000"></scales>
<clustering>
<clus scale="   92.455">  7  8 -1 -1</clus>
<clus scale="   92.981">  5  6 -1 -1</clus>
<clus scale="  208.048">  5  9 -1 -1</clus>
<clus scale="  262.844">  2  7  1 -1</clus>
<clus scale="  347.849">  1  5  2 -1</clus>
</clustering>
</event>
<event>
 9    1  0.6399313E-006  0.2173099E+03  0.7546771E-02  0.1169225E+00
          2   -1    0    0  502    0 -0.00000000000E+00  0.00000000000E+00  0.35183866284E+02  0.35183866284E+02  0.00000000000E+00 0. -1.
         21   -1    0    0  501  502  0.00000000000E+00 -0.00000000000E+00 -0.86455524154E+03  0.86455524154E+03  0.00000000000E+00 0. -1.
         23    2    1    2    0    0 -0.84507345297E+01 -0.36834956171E+02 -0.10877989818E+03  0.14709332904E+03  0.91515858135E+02 0.  0.
         23    2    1    2    0    0 -0.69704557564E+02  0.40979749682E+02 -0.56959000447E+03  0.58256675678E+03  0.91723430416E+02 0.  0.
        -11    1    4    4    0    0 -0.86154109365E+02  0.97955516658E+01 -0.38554752144E+03  0.39517764952E+03  0.00000000000E+00 0. -1.
         11    1    4    4    0    0  0.16449551801E+02  0.31184198016E+02 -0.18404248303E+03  0.18738910726E+03  0.00000000000E+00 0.  1.
        -13    1    3    3    0    0 -0.11472589211E+02  0.20059042254E+02 -0.79984711445E+02  0.83255867927E+02  0.00000000000E+00 0.  1.
         13    1    3    3    0    0  0.30218546808E+01 -0.56893998425E+02 -0.28795186737E+02  0.63837461116E+02  0.00000000000E+00 0. -1.
          2    1    1    2  501    0  0.78155292093E+02 -0.41447935103E+01 -0.15100147260E+03  0.17007902200E+03  0.00000000000E+00 0. -1.
<scales pt_clust_5="13000.00000" pt_clust_6="13000.00000" pt_clust_7="13000.00000" pt_clust_8="13000.00000" pt_clust_9="13000.00000"></scales>
<clustering>
<clus scale="   91.516">  7  8 -1 -1</clus>
<clus scale="   91.723">  5  6 -1 -1</clus>
<clus scale="   78.265">  5  9 -1 -1</clus>
<clus scale="   99.012">  1  7  2 -1</clus>
<clus scale="  217.310">  2  5  1 -1</clus>
</clustering>
</event>
<event>
 9    1  0.6399313E-006  0.2626427E+03  0.7546771E-02  0.1129505E+00
         21   -1    0    0  501  502  0.00000000000E+00  0.00000000000E+00  0.27200059204E+03  0.27200059204E+03  0.00000000000E+00 0. -1.
          1   -1    0    0  502    0 -0.00000000000E+00 -0.00000000000E+00 -0.41896226339E+03  0.41896226339E+03  0.00000000000E+00 0. -1.
         23    2    1    2    0    0  0.95416036750E+02  0.55982425373E+02 -0.33721873491E+03  0.36664980437E+03  0.92072535836E+02 0.  0.
         23    2    1    2    0    0  0.47300572952E+02  0.82231858973E+01  0.54315300002E+02  0.11701964962E+03  0.91861208325E+02 0.  0.
        -11    1    4    4    0    0 -0.22527276571E+02 -0.18212363847E+02  0.16161008664E+02  0.33171472497E+02  0.00000000000E+00 0.  1.
         11    1    4    4    0    0  0.69827849523E+02  0.26435549745E+02  0.38154291337E+02  0.83848177122E+02  0.00000000000E+00 0. -1.
        -11    1    3    3    0    0 -0.21556491629E+01  0.39117262730E+02 -0.14789084118E+03  0.15299185590E+03  0.00000000000E+00 0.  1.
         11    1    3    3    0    0  0.97571685913E+02  0.16865162644E+02 -0.18932789373E+03  0.21365794847E+03  0.00000000000E+00 0. -1.
          1    1    1    2  501    0 -0.14271660970E+03 -0.64205611271E+02  0.13594176355E+03  0.20729340144E+03  0.00000000000E+00 0. -1.
<scales pt_clust_5="13000.00000" pt_clust_6="13000.00000" pt_clust_7="13000.00000" pt_clust_8="13000.00000" pt_clust_9="13000.00000"></scales>
<clustering>
<clus scale="   91.861">  5  6 -1 -1</clus>
<clus scale="   92.073">  7  8 -1 -1</clus>
<clus scale="  143.929">  2  7  1 -1</clus>
<clus scale="   98.160">  5  9 -1 -1</clus>
<clus scale="  262.643">  1  5  2 -1</clus>
</clustering>
</event>
<event>
 9    1  0.6399313E-006  0.3987396E+03  0.7546771E-02  0.1074302E+00
         21   -1    0    0  501  502  0.00000000000E+00  0.00000000000E+00  0.21134479796E+03  0.21134479796E+03  0.00000000000E+00 0. -1.
          1   -1    0    0  502    0 -0.00000000000E+00 -0.00000000000E+00 -0.50991701324E+03  0.50991701324E+03  0.00000000000E+00 0. -1.
         23    2    1    2    0    0  0.14420391946E+03 -0.21971184162E+02  0.63221784330E+02  0.18284917799E+03  0.90328979602E+02 0.  0.
         23    2    1    2    0    0 -0.14928866657E+03 -0.10095785905E+03 -0.36270828941E+03  0.41537507698E+03  0.92193037122E+02 0.  0.
        -11    1    3    3    0    0  0.88385558175E+02 -0.28063663219E+02 -0.69309493197E+01  0.92992548871E+02  0.00000000000E+00 0. -1.
         11    1    3    3    0    0  0.55818361283E+02  0.60924790564E+01  0.70152733650E+02  0.89856629115E+02  0.00000000000E+00 0.  1.
        -13    1    4    4    0    0 -0.14097584469E+03 -0.48168905047E+02 -0.26921474276E+03  0.30768654491E+03  0.00000000000E+00 0. -1.
         13    1    4    4    0    0 -0.83128218785E+01 -0.52788954007E+02 -0.93493546654E+02  0.10768853207E+03  0.00000000000E+00 0.  1.
          1    1    1    2  501    0  0.50847471125E+01  0.12292904322E+03  0.91428980230E+00  0.12303755624E+03  0.00000000000E+00 0. -1.
<scales pt_clust_5="13000.00000" pt_clust_6="13000.00000" pt_clust_7="13000.00000" pt_clust_8="13000.00000" pt_clust_9="13000.00000"></scales>
<clustering>
<clus scale="   90.329">  5  6 -1 -1</clus>
<clus scale="   92.193">  7  8 -1 -1</clus>
<clus scale="  123.034">  7  9 -1 -1</clus>
<clus scale="  171.572">  2  5  1 -1</clus>
<clus scale="  398.740">  1  5  2 -1</clus>
</clustering>
</event>
<event>
 9    1  0.6399313E-006  0.3284985E+03  0.7546771E-02  0.1087549E+00
         21   -1    0    0  501  502  0.00000000000E+00  0.00000000000E+00  0.51911895404E+02  0.51911895404E+02  0.00000000000E+00 0. -1.
          2   -1    0    0  502    0 -0.00000000000E+00 -0.00000000000E+00 -0.14356893065E+04  0.14356893065E+04  0.00000000000E+00 0. -1.
         23    2    1    2    0    0 -0.14335581055E+03 -0.13048652898E+03 -0.61980964363E+03  0.65600153120E+03  0.92716729556E+02 0.  0.
         23    2    1    2    0    0 -0.98474155253E+01 -0.63891535915E+01 -0.43561399716E+03  0.44427244544E+03  0.86490799399E+02 0.  0.
        -11    1    3    3    0    0 -0.15494895328E+03 -0.10674877210E+03 -0.55431063618E+03  0.58537574246E+03  0.00000000000E+00 0. -1.
         11    1    3    3    0    0  0.11593142727E+02 -0.23737756878E+02 -0.65499007441E+02  0.70625788744E+02  0.00000000000E+00 0.  1.
        -13    1    4    4    0    0 -0.44438985127E+02 -0.21537135360E+02 -0.23438627710E+03  0.23953204064E+03  0.00000000000E+00 0.  1.
         13    1    4    4    0    0  0.34591569602E+02  0.15147981768E+02 -0.20122772006E+03  0.20474040480E+03  0.00000000000E+00 0. -1.
          2    1    1    2  501    0  0.15320322608E+03  0.13687568257E+03 -0.32835377036E+03  0.38732722531E+03  0.00000000000E+00 0. -1.
<scales pt_clust_5="13000.00000" pt_clust_6="13000.00000" pt_clust_7="13000.00000" pt_clust_8="13000.00000" pt_clust_9="13000.00000"></scales>
<clustering>
<clus scale="   86.491">  7  8 -1 -1</clus>
<clus scale="   92.717">  5  6 -1 -1</clus>
<clus scale="  205.442">  7  9 -1 -1</clus>
<clus scale="  214.881">  2  5  1 -1</clus>
<clus scale="  328.498">  1  5  2 -1</clus>
</clustering>
</event>
<event>
 9    1  0.6399313E-006  0.2045220E+03  0.7546771E-02  0.1166069E+00
         21   -1    0    0  501  502  0.00000000000E+00  0.00000000000E+00  0.43754420007E+03  0.43754420007E+03  0.00000000000E+00 0.  1.
         -2   -1    0    0    0  501 -0.00000000000E+00 -0.00000000000E+00 -0.64565721027E+02  0.64565721027E+02  0.00000000000E+00 0.  1.
         23    2    1    2    0    0  0.64225734227E+01  0.63692550043E+02  0.18165749552E+03  0.22205106565E+03  0.11049542840E+03 0.  0.
         23    2    1    2    0    0 -0.71636881272E+02 -0.57117379922E+02  0.10026153107E+03  0.16786276509E+03  0.98647328615E+02 0.  0.
        -11    1    4    4    0    0 -0.49269718991E+01 -0.64957973355E+02  0.33885817340E+02  0.73430660975E+02  0.00000000000E+00 0.  1.
         11    1    4    4    0    0 -0.66709909373E+02  0.78405934330E+01  0.66375713730E+02  0.94432104112E+02  0.00000000000E+00 0. -1.
        -13    1    3    3    0    0 -0.51933320517E+02  0.26656934639E+02  0.76883633501E+02  0.96533699010E+02  0.00000000000E+00 0.  1.
         13    1    3    3    0    0  0.58355893940E+02  0.37035615404E+02  0.10477386202E+03  0.12551736664E+03  0.00000000000E+00 0. -1.
         -2    1    1    2    0  502  0.65214307849E+02 -0.65751701209E+01  0.91059452449E+02  0.11219609035E+03  0.00000000000E+00 0.  1.
<scales pt_clust_5="13000.00000" pt_clust_6="13000.00000" pt_clust_7="13000.00000" pt_clust_8="13000.00000" pt_clust_9="13000.00000"></scales>
<clustering>
<clus scale="   98.647">  5  6 -1 -1</clus>
<clus scale="   65.545">  5  9 -1 -1</clus>
<clus scale="  110.495">  7  8 -1 -1</clus>
<clus scale="  127.700">  2  7  1 -1</clus>
<clus scale="  204.522">  1  5  2 -1</clus>
</clustering>
</event>
<event>
 9    1  0.6399313E-006  0.4929769E+03  0.7546771E-02  0.1067192E+00
         21   -1    0    0  501  502  0.00000000000E+00  0.00000000000E+00  0.21028047493E+03  0.21028047493E+03  0.00000000000E+00 0. -1.
          2   -1    0    0  502    0 -0.00000000000E+00 -0.00000000000E+00 -0.52910198521E+03  0.52910198521E+03  0.00000000000E+00 0. -1.
         23    2    1    2    0    0 -0.55841352498E+02  0.21529057582E+02 -0.20596308115E+03  0.23365200353E+03  0.92686088413E+02 0.  0.
         23    2    1    2    0    0  0.63903592858E+02 -0.76520434655E+02 -0.29008125039E+03  0.31999683110E+03  0.91169040717E+02 0.  0.
        -11    1    4    4    0    0  0.22023054193E+02  0.18347612082E+02 -0.92720809016E+02  0.97050493093E+02  0.00000000000E+00 0.  1.
         11    1    4    4    0    0  0.41880538665E+02 -0.94868046737E+02 -0.19736044138E+03  0.22294633801E+03  0.00000000000E+00 0. -1.
        -11    1    3    3    0    0  0.13498901374E+01  0.47434347084E+02 -0.93371417717E+02  0.10473805962E+03  0.00000000000E+00 0.  1.
         11    1    3    3    0    0 -0.57191242635E+02 -0.25905289502E+02 -0.11259166344E+03  0.12891394391E+03  0.00000000000E+00 0. -1.
          2    1    1    2  501    0 -0.80622403608E+01  0.54991377073E+02  0.17722282126E+03  0.18573362552E+03  0.00000000000E+00 0. -1.
<scales pt_clust_5="13000.00000" pt_clust_6="13000.00000" pt_clust_7="13000.00000" pt_clust_8="13000.00000" pt_clust_9="13000.00000"></scales>
<clustering>
<clus scale="   91.169">  5  6 -1 -1</clus>
<clus scale="   55.579">  5  9 -1 -1</clus>
<clus scale="   92.686">  7  8 -1 -1</clus>
<clus scale="  110.329">  2  7  1 -1</clus>
<clus scale="  492.977">  1  5  2 -1</clus>
</clustering>
</event>
<event>
 9    1  0.6399313E-006  0.1841979E+03  0.7546771E-02  0.1182979E+00
         -1   -1    0    0    0  501 -0.00000000000E+00  0.00000000000E+00  0.14300321281E+03  0.14300321281E+03  0.00000000000E+00 0.  1.
         21   -1    0    0  501  502  0.00000000000E+00 -0.00000000000E+00 -0.16494860661E+03  0.16494860661E+03  0.00000000000E+00 0.  1.
         23    2    1    2    0    0 -0.41854780205E+02  0.65592963547E+02  0.15159560398E+02  0.12005386617E+03  0.90160185326E+02 0.  0.
         23    2    1    2    0    0  0.70295234332E+02 -0.83409591396E+02 -0.49793627527E+02  0.15201907242E+03  0.93444171194E+02 0.  0.
        -11    1    4    4    0    0  0.57892024613E+02 -0.10355218686E+03 -0.33431925393E+02  0.12325678704E+03  0.00000000000E+00 0.  1.
         11    1    4    4    0    0  0.12403209719E+02  0.20142595462E+02 -0.16361702133E+02  0.28762285375E+02  0.00000000000E+00 0. -1.
        -11    1    3    3    0    0  0.69861616105E+01  0.58041145169E+02 -0.17251894200E+02  0.60952512992E+02  0.00000000000E+00 0.  1.
         11    1    3    3    0    0 -0.48840941816E+02  0.75518183777E+01  0.32411454598E+02  0.59101353178E+02  0.00000000000E+00 0. -1.
         -1    1    1    2    0  502 -0.28440454126E+02  0.17816627849E+02  0.12688673336E+02  0.35878880833E+02  0.00000000000E+00 0.  1.
<scales pt_clust_5="13000.00000" pt_clust_6="13000.00000" pt_clust_7="13000.00000" pt_clust_8="13000.00000" pt_clust_9="13000.00000"></scales>
<clustering>
<clus scale="   90.160">  7  8 -1 -1</clus>
<clus scale="   93.444">  5  6 -1 -1</clus>
<clus scale="   33.560">  5  9 -1 -1</clus>
<clus scale="  119.093">  1  7  2 -1</clus>
<clus scale="  184.198">  2  5  1 -1</clus>
</clustering>
</event>
<event>
 9    1  0.6399313E-006  0.3487121E+03  0.7546771E-02  0.1103546E+00
         21   -1    0    0  501  502  0.00000000000E+00  0.00000000000E+00  0.17349956814E+03  0.17349956814E+03  0.00000000000E+00 0. -1.
          1   -1    0    0  502    0 -0.00000000000E+00 -0.00000000000E+00 -0.32538787399E+03  0.32538787399E+03  0.00000000000E+00 0. -1.
         23    2    1    2    0    0 -0.30926683777E+02 -0.69675703261E+02  0.81463801515E+00  0.11820605198E+03  0.90337388132E+02 0.  0.
         23    2    1    2    0    0 -0.11198931995E+01  0.11413411110E+03 -0.24207890105E+03  0.27584058299E+03  0.66768131699E+02 0.  0.
        -13    1    4    4    0    0 -0.29345735840E+02  0.28007569741E+02 -0.59634073741E+02  0.72123636387E+02  0.00000000000E+00 0.  1.
         13    1    4    4    0    0  0.28225842641E+02  0.86126541358E+02 -0.18244482731E+03  0.20371694660E+03  0.00000000000E+00 0. -1.
        -13    1    3    3    0    0 -0.16784967170E+02 -0.89913647222E+02 -0.84031316322E+01  0.91852118653E+02  0.00000000000E+00 0.  1.
         13    1    3    3    0    0 -0.14141716607E+02  0.20237943962E+02  0.92177696474E+01  0.26353933324E+02  0.00000000000E+00 0. -1.
          1    1    1    2  501    0  0.32046576976E+02 -0.44458407839E+02  0.89375957185E+02  0.10484080716E+03  0.00000000000E+00 0. -1.
<scales pt_clust_5="13000.00000" pt_clust_6="13000.00000" pt_clust_7="13000.00000" pt_clust_8="13000.00000" pt_clust_9="13000.00000"></scales>
<clustering>
<clus scale="   66.768">  5  6 -1 -1</clus>
<clus scale="   54.805">  5  9 -1 -1</clus>
<clus scale="   90.337">  7  8 -1 -1</clus>
<clus scale="  118.203">  2  7  1 -1</clus>
<clus scale="  348.712">  1  5  2 -1</clus>
</clustering>
</event>
<event>
 9    1  0.6399313E-006  0.5684503E+03  0.7546771E-02  0.1007799E+00
         21   -1    0    0  501  502  0.00000000000E+00  0.00000000000E+00  0.14918208018E+04  0.14918208018E+04  0.00000000000E+00 0.  1.
         -3   -1    0    0    0  501 -0.00000000000E+00 -0.00000000000E+00 -0.16015622431E+03  0.16015622431E+03  0.00000000000E+00 0.  1.
         23    2    1    2    0    0  0.37697684102E+03  0.12987177302E+03  0.55893600005E+03  0.69268293663E+03  0.91771359678E+02 0.  0.
         23    2    1    2    0    0  0.80693583725E+01  0.51560592211E+02  0.32224480279E+03  0.33952485013E+03  0.93337032930E+02 0.  0.
        -11    1    3    3    0    0  0.25095854291E+03  0.43008117365E+02  0.37703666904E+03  0.45495773234E+03  0.00000000000E+00 0.  1.
         11    1    3    3    0    0  0.12601829810E+03  0.86863655652E+02  0.18189933101E+03  0.23772520428E+03  0.00000000000E+00 0. -1.
        -13    1    4    4    0    0  0.38341796718E+02  0.98715945072E+01  0.23412394954E+03  0.23744802695E+03  0.00000000000E+00 0.  1.
         13    1    4    4    0    0 -0.30272438346E+02  0.41688997704E+02  0.88120853247E+02  0.10207682318E+03  0.00000000000E+00 0. -1.
         -3    1    1    2    0  502 -0.38504619939E+03 -0.18143236523E+03  0.45048377465E+03  0.61976923934E+03  0.00000000000E+00 0.  1.
<scales pt_clust_5="13000.00000" pt_clust_6="13000.00000" pt_clust_7="13000.00000" pt_clust_8="13000.00000" pt_clust_9="13000.00000"></scales>
<clustering>
<clus scale="   91.771">  5  6 -1 -1</clus>
<clus scale="   93.337">  7  8 -1 -1</clus>
<clus scale="  409.146">  2  5  1 -1</clus>
<clus scale="   76.755">  7  9 -1 -1</clus>
<clus scale="  568.450">  1  5  2 -1</clus>
</clustering>
</event>
<event>
 9    1  0.6399313E-006  0.1586089E+03  0.7546771E-02  0.1214254E+00
          4   -1    0    0  502    0 -0.00000000000E+00  0.00000000000E+00  0.40366158997E+02  0.40366158997E+02  0.00000000000E+00 0. -1.
         21   -1    0    0  501  502  0.00000000000E+00 -0.00000000000E+00 -0.52255399743E+03  0.52255399743E+03  0.00000000000E+00 0.  1.
         23    2    1    2    0    0 -0.24805744259E+02 -0.63143447767E+01 -0.59847813753E+02  0.11177951555E+03  0.90871906481E+02 0.  0.
         23    2    1    2    0    0  0.23020164442E+02  0.54417103839E+02 -0.27342202185E+03  0.29463621509E+03  0.92518906432E+02 0.  0.
        -13    1    3    3    0    0 -0.70212087710E+00 -0.44569028658E+02 -0.46997338996E+02  0.64773769089E+02  0.00000000000E+00 0. -1.
         13    1    3    3    0    0 -0.24103623382E+02  0.38254683881E+02 -0.12850474756E+02  0.47005746462E+02  0.00000000000E+00 0.  1.
        -13    1    4    4    0    0 -0.49443524859E+01  0.55800519524E+02 -0.25509307371E+03  0.26117163104E+03  0.00000000000E+00 0.  1.
         13    1    4    4    0    0  0.27964516928E+02 -0.13834156854E+01 -0.18328948135E+02  0.33464584051E+02  0.00000000000E+00 0. -1.
          4    1    1    2  501    0  0.17855798165E+01 -0.48102759062E+02 -0.14891800283E+03  0.15650442579E+03  0.00000000000E+00 0. -1.
<scales pt_clust_5="13000.00000" pt_clust_6="13000.00000" pt_clust_7="13000.00000" pt_clust_8="13000.00000" pt_clust_9="13000.00000"></scales>
<clustering>
<clus scale="   90.872">  5  6 -1 -1</clus>
<clus scale="   92.519">  7  8 -1 -1</clus>
<clus scale="   48.136">  7  9 -1 -1</clus>
<clus scale="   94.408">  1  5  2 -1</clus>
<clus scale="  158.609">  2  5  1 -1</clus>
</clustering>
</event>
<event>
 9    1  0.6399313E-006  0.2201792E+03  0.7546771E-02  0.1168034E+00
         21   -1    0    0  501  502  0.00000000000E+00  0.00000000000E+00  0.47076484193E+03  0.47076484193E+03  0.00000000000E+00 0. -1.
          1   -1    0    0  502    0 -0.00000000000E+00 -0.00000000000E+00 -0.59111102512E+02  0.59111102512E+02  0.00000000000E+00 0. -1.
         23    2    1    2    0    0 -0.35400955768E+02  0.38468191784E+01  0.59331599322E+02  0.11441264855E+03  0.91115255493E+02 0.  0.
         23    2    1    2    0    0 -0.29631674226E+02  0.72019029079E+02  0.19860594292E+03  0.23212334070E+03  0.91499442985E+02 0.  0.
        -13    1    3    3    0    0 -0.25083864769E+02 -0.40305372021E+02  0.48349917813E+02  0.67760149336E+02  0.00000000000E+00 0. -1.
         13    1    3    3    0    0 -0.10317091000E+02  0.44152191199E+02  0.10981681509E+02  0.46652499217E+02  0.00000000000E+00 0.  1.
        -13    1    4    4    0    0  0.20952971511E+02  0.38501204792E+02  0.14388164516E+03  0.15041043049E+03  0.00000000000E+00 0.  1.
         13    1    4    4    0    0 -0.50584645738E+02  0.33517824287E+02  0.54724297753E+02  0.81712910203E+02  0.00000000000E+00 0. -1.
          1    1    1    2  501    0  0.65032629995E+02 -0.75865848258E+02  0.15371619718E+03  0.18333995520E+03  0.00000000000E+00 0. -1.
<scales pt_clust_5="13000.00000" pt_clust_6="13000.00000" pt_clust_7="13000.00000" pt_clust_8="13000.00000" pt_clust_9="13000.00000"></scales>
<clustering>
<clus scale="   91.115">  5  6 -1 -1</clus>
<clus scale="   91.499">  7  8 -1 -1</clus>
<clus scale="   97.826">  2  5  1 -1</clus>
<clus scale="   88.487">  7  9 -1 -1</clus>
<clus scale="  220.179">  1  5  2 -1</clus>
</clustering>
</event>
<event>
 9    1  0.6399313E-006  0.2304820E+03  0.7546771E-02  0.1148618E+00
         21   -1    0    0  501  502  0.00000000000E+00  0.00000000000E+00  0.13731384995E+03  0.13731384995E+03  0.00000000000E+00 0. -1.
          1   -1    0    0  502    0 -0.00000000000E+00 -0.00000000000E+00 -0.24474582270E+03  0.24474582270E+03  0.00000000000E+00 0. -1.
         23    2    1    2    0    0 -0.10374462557E+03 -0.83638274711E+01 -0.58716121716E+02  0.14648555525E+03  0.84720328153E+02 0.  0.
         23    2    1    2    0    0  0.14548678105E+03  0.25313014122E+02 -0.74878914466E+02  0.18347624450E+03  0.79053958300E+02 0.  0.
        -11    1    3    3    0    0 -0.10732394808E+03  0.16285957400E+02 -0.41539793036E+02  0.11622915575E+03  0.00000000000E+00 0.  1.
         11    1    3    3    0    0  0.35793225117E+01 -0.24649784871E+02 -0.17176328680E+02  0.30256399501E+02  0.00000000000E+00 0. -1.
        -11    1    4    4    0    0  0.28261503758E+02  0.34516054282E+02 -0.10275182816E+01  0.44622039304E+02  0.00000000000E+00 0.  1.
         11    1    4    4    0    0  0.11722527729E+03 -0.92030401598E+01 -0.73851396185E+02  0.13885420520E+03  0.00000000000E+00 0. -1.
          1    1    1    2  501    0 -0.41742155477E+02 -0.16949186651E+02  0.26163063438E+02  0.52097872898E+02  0.00000000000E+00 0. -1.
<scales pt_clust_5="13000.00000" pt_clust_6="13000.00000" pt_clust_7="13000.00000" pt_clust_8="13000.00000" pt_clust_9="13000.00000"></scales>
<clustering>
<clus scale="   79.054">  7  8 -1 -1</clus>
<clus scale="   45.052">  7  9 -1 -1</clus>
<clus scale="   84.720">  5  6 -1 -1</clus>
<clus scale="  134.203">  2  5  1 -1</clus>
<clus scale="  230.482">  1  5  2 -1</clus>
</clustering>
</event>
<event>
 9    1  0.9192631E-006  0.5218676E+03  0.7546771E-02  0.1063474E+00
         21   -1    0    0  501  502  0.00000000000E+00  0.00000000000E+00  0.31088811973E+03  0.31088811973E+03  0.00000000000E+00 0. -1.
          1   -1    0    0  502    0 -0.00000000000E+00 -0.00000000000E+00 -0.31520580352E+03  0.31520580352E+03  0.00000000000E+00 0. -1.
         23    2    1    2    0    0 -0.19143039528E+02 -0.47432174291E+02 -0.14651965872E+02  0.10412401488E+03  0.89503425912E+02 0.  0.
         23    2    1    2    0    0 -0.14067564355E+01 -0.74236274394E+01 -0.24417491021E+03  0.26080639243E+03  0.91331803620E+02 0.  0.
        -11    1    4    4    0    0  0.77585637429E+01  0.33244683823E+02 -0.40778390578E+02  0.53181589409E+02  0.00000000000E+00 0.  1.
         11    1    4    4    0    0 -0.91653201784E+01 -0.40668311263E+02 -0.20339651963E+03  0.20762480302E+03  0.00000000000E+00 0. -1.
        -13    1    3    3    0    0 -0.47535448066E+02 -0.55297313519E+02 -0.48786350872E+01  0.73083601345E+02  0.00000000000E+00 0. -1.
         13    1    3    3    0    0  0.28392408538E+02  0.78651392278E+01 -0.97733307846E+01  0.31040413533E+02  0.00000000000E+00 0.  1.
          1    1    1    2  501    0  0.20549795963E+02  0.54855801730E+02  0.25450919229E+03  0.26116351594E+03  0.00000000000E+00 0. -1.
<scales pt_clust_5="13000.00000" pt_clust_6="13000.00000" pt_clust_7="13000.00000" pt_clust_8="13000.00000" pt_clust_9="13000.00000"></scales>
<clustering>
<clus scale="   89.503">  7  8 -1 -1</clus>
<clus scale="   91.332">  5  6 -1 -1</clus>
<clus scale="   58.579">  5  9 -1 -1</clus>
<clus scale="  103.088">  2  7  1 -1</clus>
<clus scale="  521.868">  1  5  2 -1</clus>
</clustering>
</event>
<event>
 9    1  0.6399313E-006  0.1420461E+03  0.7546771E-02  0.1230444E+00
         21   -1    0    0  501  502  0.00000000000E+00  0.00000000000E+00  0.21024756849E+03  0.21024756849E+03  0.00000000000E+00 0. -1.
         -3   -1    0    0    0  501 -0.00000000000E+00 -0.00000000000E+00 -0.70858839185E+02  0.70858839185E+02  0.00000000000E+00 0.  1.
         23    2    1    2    0    0 -0.11091925594E+02  0.18485781855E+02  0.20553350005E+02  0.95906694459E+02  0.91164131660E+02 0.  0.
         23    2    1    2    0    0 -0.57662324314E+01 -0.60888612063E+01  0.13529897870E+03  0.15857395053E+03  0.82277338809E+02 0.  0.
        -13    1    3    3    0    0 -0.33393985199E+02 -0.20934515708E+02  0.30133423723E+02  0.49612855397E+02  0.00000000000E+00 0.  1.
         13    1    3    3    0    0  0.22302059605E+02  0.39420297563E+02 -0.95800737178E+01  0.46293839062E+02  0.00000000000E+00 0. -1.
        -13    1    4    4    0    0 -0.17310403828E+02 -0.37343685597E+02  0.39112470449E+02  0.56780157444E+02  0.00000000000E+00 0.  1.
         13    1    4    4    0    0  0.11544171396E+02  0.31254824391E+02  0.96186508254E+02  0.10179379309E+03  0.00000000000E+00 0. -1.
         -3    1    1    2    0  502  0.16858158026E+02 -0.12396920649E+02 -0.16463599399E+02  0.26625762689E+02  0.00000000000E+00 0.  1.
<scales pt_clust_5="13000.00000" pt_clust_6="13000.00000" pt_clust_7="13000.00000" pt_clust_8="13000.00000" pt_clust_9="13000.00000"></scales>
<clustering>
<clus scale="   82.277">  7  8 -1 -1</clus>
<clus scale="   20.926">  7  9 -1 -1</clus>
<clus scale="   91.164">  5  6 -1 -1</clus>
<clus scale="   93.678">  2  5  1 -1</clus>
<clus scale="  142.046">  1  5  2 -1</clus>
</clustering>
</event>
<event>
 9    1  0.6399313E-006  0.4492306E+03  0.7546771E-02  0.1067063E+00
          2   -1    0    0  502    0 -0.00000000000E+00  0.00000000000E+00  0.30361267215E+03  0.30361267215E+03  0.00000000000E+00 0. -1.
         21   -1    0    0  501  502  0.00000000000E+00 -0.00000000000E+00 -0.59106370389E+03  0.59106370389E+03  0.00000000000E+00 0. -1.
         23    2    1    2    0    0  0.10492099018E+03 -0.43627340969E+02  0.18953793343E+03  0.23944620336E+03  0.92185123714E+02 0.  0.
         23    2    1    2    0    0  0.15929507916E+02  0.15219647614E+03 -0.31189382000E+02  0.18075217703E+03  0.91000304290E+02 0.  0.
        -11    1    4    4    0    0 -0.32980887258E+02  0.24420448650E+02 -0.37326464581E+01  0.41207158191E+02  0.00000000000E+00 0. -1.
         11    1    4    4    0    0  0.48910395174E+02  0.12777602749E+03 -0.27456735542E+02  0.13954501884E+03  0.00000000000E+00 0.  1.
        -13    1    3    3    0    0  0.80315428274E+02 -0.20014033900E+01  0.57399883136E+02  0.98738646023E+02  0.00000000000E+00 0.  1.
         13    1    3    3    0    0  0.24605561902E+02 -0.41625937579E+02  0.13213805029E+03  0.14070755733E+03  0.00000000000E+00 0. -1.
          2    1    1    2  501    0 -0.12085049809E+03 -0.10856913517E+03 -0.44579958317E+03  0.47447799565E+03  0.00000000000E+00 0. -1.
<scales pt_clust_5="13000.00000" pt_clust_6="13000.00000" pt_clust_7="13000.00000" pt_clust_8="13000.00000" pt_clust_9="13000.00000"></scales>
<clustering>
<clus scale="   91.000">  5  6 -1 -1</clus>
<clus scale="   92.185">  7  8 -1 -1</clus>
<clus scale="  146.321">  1  7  2 -1</clus>
<clus scale="  155.468">  5  9 -1 -1</clus>
<clus scale="  449.231">  2  5  1 -1</clus>
</clustering>
</event>
<event>
 9    1  0.6399313E-006  0.1969191E+03  0.7546771E-02  0.1173776E+00
         21   -1    0    0  501  502  0.00000000000E+00  0.00000000000E+00  0.14374622124E+03  0.14374622124E+03  0.00000000000E+00 0.  1.
          2   -1    0    0  502    0 -0.00000000000E+00 -0.00000000000E+00 -0.18790464972E+03  0.18790464972E+03  0.00000000000E+00 0. -1.
         23    2    1    2    0    0  0.76568284546E+02  0.16374895053E+02  0.25776828638E+02  0.12268176375E+03  0.90859951985E+02 0.  0.
         23    2    1    2    0    0 -0.11409217957E+03  0.66698226194E+01 -0.27803250438E+02  0.14802480725E+03  0.89871079071E+02 0.  0.
        -11    1    3    3    0    0  0.52502908442E+02 -0.14399430183E+02  0.52275524774E+02  0.75476019204E+02  0.00000000000E+00 0.  1.
         11    1    3    3    0    0  0.24065376104E+02  0.30774325236E+02 -0.26498696136E+02  0.47205744541E+02  0.00000000000E+00 0. -1.
        -13    1    4    4    0    0 -0.52015871469E+02  0.38312089330E+02 -0.41814900875E+02  0.76954226711E+02  0.00000000000E+00 0.  1.
         13    1    4    4    0    0 -0.62076308103E+02 -0.31642266711E+02  0.14011650436E+02  0.71070580540E+02  0.00000000000E+00 0. -1.
          2    1    1    2  501    0  0.37523895026E+02 -0.23044717672E+02 -0.42132006680E+02  0.60944299958E+02  0.00000000000E+00 0. -1.
<scales pt_clust_5="13000.00000" pt_clust_6="13000.00000" pt_clust_7="13000.00000" pt_clust_8="13000.00000" pt_clust_9="13000.00000"></scales>
<clustering>
<clus scale="   89.871">  7  8 -1 -1</clus>
<clus scale="   44.035">  7  9 -1 -1</clus>
<clus scale="   90.860">  5  6 -1 -1</clus>
<clus scale="  119.943">  2  5  1 -1</clus>
<clus scale="  196.919">  1  5  2 -1</clus>
</clustering>
</event>
<event>
 9    1  0.6399313E-006  0.4786040E+03  0.7546771E-02  0.1040419E+00
          2   -1    0    0  502    0 -0.00000000000E+00  0.00000000000E+00  0.58680614381E+03  0.58680614381E+03  0.00000000000E+00 0. -1.
         21   -1    0    0  501  502  0.00000000000E+00 -0.00000000000E+00 -0.34938433002E+03  0.34938433002E+03  0.00000000000E+00 0. -1.
         23    2    1    2    0    0  0.13717093407E+03  0.19783324323E+03  0.35961099797E+03  0.44223506497E+03  0.91092950080E+02 0.  0.
         23    2    1    2    0    0  0.15986097680E+01 -0.23063954498E+02  0.12803538455E+03  0.15867399665E+03  0.90828827834E+02 0.  0.
        -11    1    3    3    0    0  0.10430415707E+03  0.15133956284E+03  0.33077628578E+03  0.37841243597E+03  0.00000000000E+00 0. -1.
         11    1    3    3    0    0  0.32866776998E+02  0.46493680384E+02  0.28834712189E+02  0.63822629003E+02  0.00000000000E+00 0.  1.
        -11    1    4    4    0    0  0.40020370304E+02 -0.32969812883E+02  0.89062217385E+02  0.10305686375E+03  0.00000000000E+00 0. -1.
         11    1    4    4    0    0 -0.38421760536E+02  0.99058583848E+01  0.38973167169E+02  0.55617132901E+02  0.00000000000E+00 0.  1.
          2    1    1    2  501    0 -0.13876954384E+03 -0.17476928873E+03 -0.25022456872E+03  0.33528141221E+03  0.00000000000E+00 0. -1.
<scales pt_clust_5="13000.00000" pt_clust_6="13000.00000" pt_clust_7="13000.00000" pt_clust_8="13000.00000" pt_clust_9="13000.00000"></scales>
<clustering>
<clus scale="   90.829">  7  8 -1 -1</clus>
<clus scale="   91.093">  5  6 -1 -1</clus>
<clus scale="  223.162">  7  9 -1 -1</clus>
<clus scale="  257.394">  1  5  2 -1</clus>
<clus scale="  478.604">  2  5  1 -1</clus>
</clustering>
</event>
<event>
 9    1  0.6399313E-006  0.2716542E+03  0.7546771E-02  0.1139849E+00
         21   -1    0    0  501  502  0.00000000000E+00  0.00000000000E+00  0.56814965584E+02  0.56814965584E+02  0.00000000000E+00 0. -1.
          1   -1    0    0  502    0 -0.00000000000E+00 -0.00000000000E+00 -0.62098262337E+03  0.62098262337E+03  0.00000000000E+00 0. -1.
         23    2    1    2    0    0  0.15526249029E+01 -0.39479035254E+02 -0.11755077445E+03  0.15505230358E+03  0.93070013440E+02 0.  0.
         23    2    1    2    0    0 -0.88618132888E+02 -0.12296020782E+02 -0.38192731012E+03  0.40255460358E+03  0.90428828611E+02 0.  0.
        -11    1    3    3    0    0  0.44821009476E+02 -0.34011575864E+02 -0.54070305186E+02  0.78034018775E+02  0.00000000000E+00 0.  1.
         11    1    3    3    0    0 -0.43268384573E+02 -0.54674593902E+01 -0.63480469267E+02  0.77018284803E+02  0.00000000000E+00 0. -1.
        -13    1    4    4    0    0 -0.42786565943E+02 -0.34131435675E+02 -0.83496138387E+02  0.99836116972E+02  0.00000000000E+00 0.  1.
         13    1    4    4    0    0 -0.45831566945E+02  0.21835414893E+02 -0.29843117173E+03  0.30271848661E+03  0.00000000000E+00 0. -1.
          1    1    1    2  501    0  0.87065507986E+02  0.51775056036E+02 -0.64689573216E+02  0.12019068180E+03  0.00000000000E+00 0. -1.
<scales pt_clust_5="13000.00000" pt_clust_6="13000.00000" pt_clust_7="13000.00000" pt_clust_8="13000.00000" pt_clust_9="13000.00000"></scales>
<clustering>
<clus scale="   90.429">  7  8 -1 -1</clus>
<clus scale="   93.070">  5  6 -1 -1</clus>
<clus scale="  101.109">  2  5  1 -1</clus>
<clus scale="   97.927">  7  9 -1 -1</clus>
<clus scale="  271.654">  1  5  2 -1</clus>
</clustering>
</event>
<event>
 9    1  0.6399313E-006  0.1541689E+03  0.7546771E-02  0.1219316E+00
          2   -1    0    0  502    0 -0.00000000000E+00  0.00000000000E+00  0.15107644675E+03  0.15107644675E+03  0.00000000000E+00 0.  1.
         21   -1    0    0  501  502  0.00000000000E+00 -0.00000000000E+00 -0.10145028182E+03  0.10145028182E+03  0.00000000000E+00 0. -1.
         23    2    1    2    0    0  0.15315922052E+02 -0.12696412585E+01  0.73912895314E+01  0.92677309266E+02  0.91094802457E+02 0.  0.
         23    2    1    2    0    0  0.35287560969E+02  0.53103611366E+01  0.15143179102E+02  0.10230813049E+03  0.94679595462E+02 0.  0.
        -11    1    4    4    0    0  0.10979056523E+02 -0.43145056896E+02 -0.42737727327E+01  0.44724721912E+02  0.00000000000E+00 0.  1.
         11    1    4    4    0    0  0.24308504446E+02  0.48455418033E+02  0.19416951835E+02  0.57583408580E+02  0.00000000000E+00 0. -1.
        -13    1    3    3    0    0 -0.29122967926E+01 -0.34129742983E+02  0.32712513469E+02  0.47364853702E+02  0.00000000000E+00 0.  1.
         13    1    3    3    0    0  0.18228218845E+02  0.32860101724E+02 -0.25321223938E+02  0.45312455565E+02  0.00000000000E+00 0. -1.
          2    1    1    2  501    0 -0.50603483021E+02 -0.40407198782E+01  0.27091696296E+02  0.57541288821E+02  0.00000000000E+00 0.  1.
<scales pt_clust_5="13000.00000" pt_clust_6="13000.00000" pt_clust_7="13000.00000" pt_clust_8="13000.00000" pt_clust_9="13000.00000"></scales>
<clustering>
<clus scale="   91.095">  7  8 -1 -1</clus>
<clus scale="   92.382">  1  7  2 -1</clus>
<clus scale="   94.680">  5  6 -1 -1</clus>
<clus scale="   44.425">  5  9 -1 -1</clus>
<clus scale="  154.169">  2  5  1 -1</clus>
</clustering>
</event>
<event>
 9    1  0.6399313E-006  0.1765531E+03  0.7546771E-02  0.1204093E+00
         21   -1    0    0  501  502  0.00000000000E+00  0.00000000000E+00  0.88227061881E+02  0.88227061881E+02  0.00000000000E+00 0. -1.
          2   -1    0    0  502    0 -0.00000000000E+00 -0.00000000000E+00 -0.19493760847E+03  0.19493760847E+03  0.00000000000E+00 0. -1.
         23    2    1    2    0    0  0.18782525424E+02  0.46782569196E+01 -0.25279931605E+02  0.88737422774E+02  0.82828653916E+02 0.  0.
         23    2    1    2    0    0 -0.53719785995E+02  0.16907798862E+02 -0.98386972849E+02  0.14999653689E+03  0.98220545623E+02 0.  0.
        -13    1    4    4    0    0  0.27794903995E+02  0.10084736958E+02 -0.14880574184E+02  0.33101209882E+02  0.00000000000E+00 0.  1.
         13    1    4    4    0    0 -0.81514689990E+02  0.68230619034E+01 -0.83506398665E+02  0.11689532701E+03  0.00000000000E+00 0. -1.
        -13    1    3    3    0    0  0.39713798639E+02  0.24236009599E+02  0.53116608602E+01  0.46827168446E+02  0.00000000000E+00 0.  1.
         13    1    3    3    0    0 -0.20931273215E+02 -0.19557752679E+02 -0.30591592465E+02  0.41910254328E+02  0.00000000000E+00 0. -1.
          2    1    1    2  501    0  0.34937260571E+02 -0.21586055781E+02  0.16956357864E+02  0.44430710690E+02  0.00000000000E+00 0. -1.
<scales pt_clust_5="13000.00000" pt_clust_6="13000.00000" pt_clust_7="13000.00000" pt_clust_8="13000.00000" pt_clust_9="13000.00000"></scales>
<clustering>
<clus scale="   82.829">  7  8 -1 -1</clus>
<clus scale="   85.060">  2  7  1 -1</clus>
<clus scale="   98.221">  5  6 -1 -1</clus>
<clus scale="   42.437">  5  9 -1 -1</clus>
<clus scale="  176.553">  1  5  2 -1</clus>
</clustering>
</event>
<event>
 9    1  0.6399313E-006  0.1962054E+03  0.7546771E-02  0.1182102E+00
          1   -1    0    0  502    0 -0.00000000000E+00  0.00000000000E+00  0.11156897027E+03  0.11156897027E+03  0.00000000000E+00 0. -1.
         21   -1    0    0  501  502  0.00000000000E+00 -0.00000000000E+00 -0.85720275055E+03  0.85720275055E+03  0.00000000000E+00 0.  1.
         23    2    1    2    0    0  0.41821833450E+02  0.33002571294E+02  0.74755026421E+02  0.12524676936E+03  0.85206829508E+02 0.  0.
         23    2    1    2    0    0 -0.82361883942E+02  0.25310633502E+02 -0.54386765395E+03  0.55802911355E+03  0.90445334108E+02 0.  0.
        -11    1    4    4    0    0 -0.88318178890E+02  0.60553432189E+01 -0.51654927257E+03  0.52408006916E+03  0.00000000000E+00 0.  1.
         11    1    4    4    0    0  0.59562949484E+01  0.19255290283E+02 -0.27318381378E+02  0.33949044383E+02  0.00000000000E+00 0. -1.
        -13    1    3    3    0    0  0.67094272515E+02  0.22442073020E+02  0.65280091349E+02  0.96264107393E+02  0.00000000000E+00 0. -1.
         13    1    3    3    0    0 -0.25272439065E+02  0.10560498273E+02  0.94749350720E+01  0.28982661967E+02  0.00000000000E+00 0.  1.
          1    1    1    2  501    0  0.40540050492E+02 -0.58313204795E+02 -0.27652115275E+03  0.28549583791E+03  0.00000000000E+00 0. -1.
<scales pt_clust_5="13000.00000" pt_clust_6="13000.00000" pt_clust_7="13000.00000" pt_clust_8="13000.00000" pt_clust_9="13000.00000"></scales>
<clustering>
<clus scale="   85.207">  7  8 -1 -1</clus>
<clus scale="   90.445">  5  6 -1 -1</clus>
<clus scale="   71.021">  5  9 -1 -1</clus>
<clus scale="  100.491">  1  7  2 -1</clus>
<clus scale="  196.205">  2  5  1 -1</clus>
</clustering>
</event>
<event>
 9    1  0.6399313E-006  0.2065869E+03  0.7546771E-02  0.1163535E+00
         21   -1    0    0  501  502  0.00000000000E+00  0.00000000000E+00  0.18786274188E+03  0.18786274188E+03  0.00000000000E+00 0. -1.
          2   -1    0    0  502    0 -0.00000000000E+00 -0.00000000000E+00 -0.15402255283E+03  0.15402255283E+03  0.00000000000E+00 0. -1.
         23    2    1    2    0    0  0.22458982589E+02 -0.91240367112E+02 -0.59229178076E+01  0.13150650199E+03  0.91813226829E+02 0.  0.
         23    2    1    2    0    0 -0.46832478909E+02  0.15326527516E+01 -0.17083334668E+02  0.10141522425E+03  0.88303891658E+02 0.  0.
        -13    1    4    4    0    0 -0.29351210152E+02 -0.41756557513E+02  0.17591332395E+01  0.51070521658E+02  0.00000000000E+00 0. -1.
         13    1    4    4    0    0 -0.17481268758E+02  0.43289210264E+02 -0.18842467907E+02  0.50344702597E+02  0.00000000000E+00 0.  1.
        -13    1    3    3    0    0 -0.14718558262E+02 -0.36884342982E+02  0.35867003956E+02  0.53511986389E+02  0.00000000000E+00 0.  1.
         13    1    3    3    0    0  0.37177540851E+02 -0.54356024130E+02 -0.41789921763E+02  0.77994515602E+02  0.00000000000E+00 0. -1.
          2    1    1    2  501    0  0.24373496320E+02  0.89707714360E+02  0.56846441528E+02  0.10896356847E+03  0.00000000000E+00 0. -1.
<scales pt_clust_5="13000.00000" pt_clust_6="13000.00000" pt_clust_7="13000.00000" pt_clust_8="13000.00000" pt_clust_9="13000.00000"></scales>
<clustering>
<clus scale="   88.304">  5  6 -1 -1</clus>
<clus scale="   91.813">  7  8 -1 -1</clus>
<clus scale="   92.960">  5  9 -1 -1</clus>
<clus scale="  131.373">  2  7  1 -1</clus>
<clus scale="  206.587">  1  5  2 -1</clus>
</clustering>
</event>
<event>
 9    1  0.6399313E-006  0.1447890E+03  0.7546771E-02  0.1224600E+00
          2   -1    0    0  502    0 -0.00000000000E+00  0.00000000000E+00  0.47561284511E+03  0.47561284511E+03  0.00000000000E+00 0. -1.
         21   -1    0    0  501  502  0.00000000000E+00 -0.00000000000E+00 -0.32930361369E+02  0.32930361369E+02  0.00000000000E+00 0.  1.
         23    2    1    2    0    0 -0.27393726249E+02  0.24192858474E+02  0.23538718314E+03  0.25568913090E+03  0.92919831222E+02 0.  0.
         23    2    1    2    0    0 -0.12200076465E+02 -0.16267146458E+02  0.88556308805E+02  0.12743703409E+03  0.89356118469E+02 0.  0.
        -11    1    4    4    0    0  0.27938694071E+01 -0.47862361411E+02  0.23088439308E+02  0.53213601417E+02  0.00000000000E+00 0.  1.
         11    1    4    4    0    0 -0.14993945872E+02  0.31595214953E+02  0.65467869498E+02  0.74223432670E+02  0.00000000000E+00 0. -1.
        -11    1    3    3    0    0  0.29386170177E+02 -0.12457588838E+02  0.85794477008E+02  0.91539230947E+02  0.00000000000E+00 0. -1.
         11    1    3    3    0    0 -0.56779896426E+02  0.36650447312E+02  0.14959270613E+03  0.16414989995E+03  0.00000000000E+00 0.  1.
          2    1    1    2  501    0  0.39593802714E+02 -0.79257120156E+01  0.11873899180E+03  0.12541704150E+03  0.00000000000E+00 0. -1.
<scales pt_clust_5="13000.00000" pt_clust_6="13000.00000" pt_clust_7="13000.00000" pt_clust_8="13000.00000" pt_clust_9="13000.00000"></scales>
<clustering>
<clus scale="   89.356">  5  6 -1 -1</clus>
<clus scale="   40.379">  5  9 -1 -1</clus>
<clus scale="   92.920">  7  8 -1 -1</clus>
<clus scale="   99.849">  1  7  2 -1</clus>
<clus scale="  144.789">  2  5  1 -1</clus>
</clustering>
</event>
<event>
 9    1  0.6399313E-006  0.2146288E+03  0.7546771E-02  0.1174463E+00
          1   -1    0    0  502    0 -0.00000000000E+00  0.00000000000E+00  0.25495844915E+03  0.25495844915E+03  0.00000000000E+00 0. -1.
         21   -1    0    0  501  502  0.00000000000E+00 -0.00000000000E+00 -0.13719331067E+03  0.13719331067E+03  0.00000000000E+00 0.  1.
         23    2    1    2    0    0  0.93118537398E+01  0.69571218334E+01  0.14956672944E+03  0.17517970817E+03  0.90457788150E+02 0.  0.
         23    2    1    2    0    0 -0.57738226524E+02 -0.68855038526E+02 -0.47634707578E+01  0.13386052647E+03  0.99102122890E+02 0.  0.
        -13    1    4    4    0    0  0.22937959720E+02 -0.29313682930E+02  0.17750507075E+02  0.41237392067E+02  0.00000000000E+00 0. -1.
         13    1    4    4    0    0 -0.80676186244E+02 -0.39541355596E+02 -0.22513977833E+02  0.92623134406E+02  0.00000000000E+00 0.  1.
        -13    1    3    3    0    0  0.24499675731E+02  0.44318842133E+02  0.89405114456E+02  0.10275051518E+03  0.00000000000E+00 0. -1.
         13    1    3    3    0    0 -0.15187821991E+02 -0.37361720299E+02  0.60161614981E+02  0.72429192994E+02  0.00000000000E+00 0.  1.
          1    1    1    2  501    0  0.48426372784E+02  0.61897916693E+02 -0.27038120197E+02  0.83111525168E+02  0.00000000000E+00 0. -1.
<scales pt_clust_5="13000.00000" pt_clust_6="13000.00000" pt_clust_7="13000.00000" pt_clust_8="13000.00000" pt_clust_9="13000.00000"></scales>
<clustering>
<clus scale="   90.458">  7  8 -1 -1</clus>
<clus scale="   91.202">  1  7  2 -1</clus>
<clus scale="   99.102">  5  6 -1 -1</clus>
<clus scale="   81.993">  5  9 -1 -1</clus>
<clus scale="  214.629">  2  5  1 -1</clus>
</clustering>
</event>
<event>
 9    1  0.6399313E-006  0.1513586E+03  0.7546771E-02  0.1219360E+00
         21   -1    0    0  501  502  0.00000000000E+00  0.00000000000E+00  0.46693491781E+02  0.46693491781E+02  0.00000000000E+00 0.  1.
         -3   -1    0    0    0  501 -0.00000000000E+00 -0.00000000000E+00 -0.36444032750E+03  0.36444032750E+03  0.00000000000E+00 0.  1.
         23    2    1    2    0    0  0.20477621940E+02 -0.24440176689E+02 -0.67287537935E+02  0.11849189102E+03  0.92174075742E+02 0.  0.
         23    2    1    2    0    0 -0.50631893266E+02  0.46279475598E+02 -0.18175275427E+03  0.21449575640E+03  0.90933972470E+02 0.  0.
        -13    1    4    4    0    0 -0.42966389436E+02 -0.19531491432E+02 -0.85139866771E+02  0.97346734370E+02  0.00000000000E+00 0. -1.
         13    1    4    4    0    0 -0.76655038307E+01  0.65810967030E+02 -0.96612887503E+02  0.11714902203E+03  0.00000000000E+00 0.  1.
        -13    1    3    3    0    0  0.16478305807E+02 -0.55573231419E+02 -0.64893301939E+02  0.87011833960E+02  0.00000000000E+00 0. -1.
         13    1    3    3    0    0  0.39993161324E+01  0.31133054730E+02 -0.23942359964E+01  0.31480057058E+02  0.00000000000E+00 0.  1.
         -3    1    1    2    0  502  0.30154271327E+02 -0.21839298908E+02 -0.68706543514E+02  0.78146171869E+02  0.00000000000E+00 0.  1.
<scales pt_clust_5="13000.00000" pt_clust_6="13000.00000" pt_clust_7="13000.00000" pt_clust_8="13000.00000" pt_clust_9="13000.00000"></scales>
<clustering>
<clus scale="   90.934">  5  6 -1 -1</clus>
<clus scale="   37.232">  5  9 -1 -1</clus>
<clus scale="   92.174">  7  8 -1 -1</clus>
<clus scale="   97.533">  2  7  1 -1</clus>
<clus scale="  151.359">  1  5  2 -1</clus>
</clustering>
</event>
<event>
 9    1  0.6399313E-006  0.3324830E+03  0.7546771E-02  0.1082403E+00
         21   -1    0    0  501  502  0.00000000000E+00  0.00000000000E+00  0.91643731580E+02  0.91643731580E+02  0.00000000000E+00 0. -1.
          2   -1    0    0  502    0 -0.00000000000E+00 -0.00000000000E+00 -0.99620406470E+03  0.99620406470E+03  0.00000000000E+00 0. -1.
         23    2    1    2    0    0  0.20533939734E+03  0.70797998110E+02 -0.56319350526E+03  0.61132257496E+03  0.96704403504E+02 0.  0.
         23    2    1    2    0    0 -0.30384296682E+02  0.57972899153E+02 -0.84348933690E+02  0.13999969605E+03  0.90559978795E+02 0.  0.
        -11    1    4    4    0    0  0.16030338620E+02  0.50152332366E+02 -0.12515764781E+02  0.54119059176E+02  0.00000000000E+00 0.  1.
         11    1    4    4    0    0 -0.46414635302E+02  0.78205667873E+01 -0.71833168908E+02  0.85880636877E+02  0.00000000000E+00 0. -1.
        -13    1    3    3    0    0  0.19689786639E+03  0.44954037918E+02 -0.53635364521E+03  0.57311854624E+03  0.00000000000E+00 0. -1.
         13    1    3    3    0    0  0.84415309497E+01  0.25843960192E+02 -0.26839860047E+02  0.38204028721E+02  0.00000000000E+00 0.  1.
          2    1    1    2  501    0 -0.17495510066E+03 -0.12877089726E+03 -0.25701789417E+03  0.33652552526E+03  0.00000000000E+00 0. -1.
<scales pt_clust_5="13000.00000" pt_clust_6="13000.00000" pt_clust_7="13000.00000" pt_clust_8="13000.00000" pt_clust_9="13000.00000"></scales>
<clustering>
<clus scale="   90.560">  5  6 -1 -1</clus>
<clus scale="   96.704">  7  8 -1 -1</clus>
<clus scale="  217.236">  5  9 -1 -1</clus>
<clus scale="  237.757">  2  7  1 -1</clus>
<clus scale="  332.483">  1  5  2 -1</clus>
</clustering>
</event>
<event>
 9    1  0.6399313E-006  0.4648879E+03  0.7546771E-02  0.1062656E+00
         21   -1    0    0  501  502  0.00000000000E+00  0.00000000000E+00  0.11859279559E+04  0.11859279559E+04  0.00000000000E+00 0.  1.
         -4   -1    0    0    0  501 -0.00000000000E+00 -0.00000000000E+00 -0.91394515435E+02  0.91394515435E+02  0.00000000000E+00 0.  1.
         23    2    1    2    0    0 -0.18427038728E+01 -0.12219111269E+03  0.10029240046E+03  0.17976334901E+03  0.85570044275E+02 0.  0.
         23    2    1    2    0    0  0.17213537922E+02 -0.95652694440E+01 -0.93026864990E+00  0.93586044829E+02  0.91485966791E+02 0.  0.
        -13    1    3    3    0    0 -0.38826080605E+02 -0.44935839256E+02  0.62282222065E+02  0.86056779920E+02  0.00000000000E+00 0.  1.
         13    1    3    3    0    0  0.36983376732E+02 -0.77255273438E+02  0.38010178395E+02  0.93706569087E+02  0.00000000000E+00 0. -1.
        -13    1    4    4    0    0  0.49478529103E+02 -0.17227135672E+02 -0.19109254515E+02  0.55767935714E+02  0.00000000000E+00 0.  1.
         13    1    4    4    0    0 -0.32264991181E+02  0.76618662278E+01  0.18178985865E+02  0.37818109116E+02  0.00000000000E+00 0. -1.
         -4    1    1    2    0  502 -0.15370834050E+02  0.13175638214E+03  0.99517130863E+03  0.10039730775E+04  0.00000000000E+00 0.  1.
<scales pt_clust_5="13000.00000" pt_clust_6="13000.00000" pt_clust_7="13000.00000" pt_clust_8="13000.00000" pt_clust_9="13000.00000"></scales>
<clustering>
<clus scale="   85.570">  5  6 -1 -1</clus>
<clus scale="   91.486">  7  8 -1 -1</clus>
<clus scale="  132.650">  7  9 -1 -1</clus>
<clus scale="  149.185">  2  5  1 -1</clus>
<clus scale="  464.888">  1  5  2 -1</clus>
</clustering>
</event>
<event>
 9    1  0.6399313E-006  0.2500304E+03  0.7546771E-02  0.1144486E+00
         21   -1    0    0  501  502  0.00000000000E+00  0.00000000000E+00  0.49246415737E+03  0.49246415737E+03  0.00000000000E+00 0. -1.
          1   -1    0    0  502    0 -0.00000000000E+00 -0.00000000000E+00 -0.16108232392E+03  0.16108232392E+03  0.00000000000E+00 0. -1.
         23    2    1    2    0    0  0.63978272873E+02 -0.68826266566E+01 -0.10117505925E+03  0.15392597360E+03  0.96520582171E+02 0.  0.
         23    2    1    2    0    0 -0.14623104579E+02  0.86775918571E+02  0.16870218955E+03  0.21955234615E+03  0.10953953035E+03 0.  0.
        -11    1    4    4    0    0 -0.41203044365E+02  0.10160171511E+03  0.12461832900E+03  0.16598291268E+03  0.00000000000E+00 0.  1.
         11    1    4    4    0    0  0.26579939786E+02 -0.14825796536E+02  0.44083860544E+02  0.53569433471E+02  0.00000000000E+00 0. -1.
        -13    1    3    3    0    0  0.39601843196E+02 -0.46432794885E+02 -0.85191383754E+02  0.10479447644E+03  0.00000000000E+00 0.  1.
         13    1    3    3    0    0  0.24376429676E+02  0.39550168229E+02 -0.15983675500E+02  0.49131497160E+02  0.00000000000E+00 0. -1.
          1    1    1    2  501    0 -0.49355168293E+02 -0.79893291914E+02  0.26385470316E+03  0.28006816154E+03  0.00000000000E+00 0. -1.
<scales pt_clust_5="13000.00000" pt_clust_6="13000.00000" pt_clust_7="13000.00000" pt_clust_8="13000.00000" pt_clust_9="13000.00000"></scales>
<clustering>
<clus scale="   96.521">  7  8 -1 -1</clus>
<clus scale="  109.540">  5  6 -1 -1</clus>
<clus scale="   93.909">  5  9 -1 -1</clus>
<clus scale="  116.004">  2  7  1 -1</clus>
<clus scale="  250.030">  1  5  2 -1</clus>
</clustering>
</event>
<event>
 9    1  0.6399313E-006  0.2770738E+03  0.7546771E-02  0.1141326E+00
          2   -1    0    0  502    0 -0.00000000000E+00  0.00000000000E+00  0.17020928683E+03  0.17020928683E+03  0.00000000000E+00 0. -1.
         21   -1    0    0  501  502  0.00000000000E+00 -0.00000000000E+00 -0.42455392814E+03  0.42455392814E+03  0.00000000000E+00 0. -1.
         23    2    1    2    0    0  0.11414086650E+01 -0.23227765233E+01  0.10592295388E+03  0.14027159015E+03  0.91922514863E+02 0.  0.
         23    2    1    2    0    0  0.83543106828E+02  0.91734598583E+02 -0.20553879961E+03  0.25673687452E+03  0.90955688754E+02 0.  0.
        -11    1    3    3    0    0 -0.41942252376E+02 -0.76544574304E+01  0.77282687397E+02  0.88262999180E+02  0.00000000000E+00 0. -1.
         11    1    3    3    0    0  0.43083661041E+02  0.53316809071E+01  0.28640266484E+02  0.52008590966E+02  0.00000000000E+00 0.  1.
        -13    1    4    4    0    0  0.48279988648E+02  0.28075028998E+02 -0.23318516647E+02  0.60522043717E+02  0.00000000000E+00 0.  1.
         13    1    4    4    0    0  0.35263118181E+02  0.63659569585E+02 -0.18222028296E+03  0.19621483080E+03  0.00000000000E+00 0. -1.
          2    1    1    2  501    0 -0.84684515493E+02 -0.89411822060E+02 -0.15472879559E+03  0.19775475031E+03  0.00000000000E+00 0. -1.
<scales pt_clust_5="13000.00000" pt_clust_6="13000.00000" pt_clust_7="13000.00000" pt_clust_8="13000.00000" pt_clust_9="13000.00000"></scales>
<clustering>
<clus scale="   90.956">  7  8 -1 -1</clus>
<clus scale="   91.923">  5  6 -1 -1</clus>
<clus scale="   91.959">  1  5  2 -1</clus>
<clus scale="  123.567">  7  9 -1 -1</clus>
<clus scale="  277.074">  2  5  1 -1</clus>
</clustering>
</event>
<event>
 9    1  0.6399313E-006  0.2842749E+03  0.7546771E-02  0.1113709E+00
          4   -1    0    0  502    0 -0.00000000000E+00  0.00000000000E+00  0.28056950929E+02  0.28056950929E+02  0.00000000000E+00 0. -1.
         21   -1    0    0  501  502  0.00000000000E+00 -0.00000000000E+00 -0.18513613423E+04  0.18513613423E+04  0.00000000000E+00 0. -1.
         23    2    1    2    0    0  0.12444229573E+03  0.66471058450E+02 -0.78956725629E+03  0.80730605143E+03  0.91773209024E+02 0.  0.
         23    2    1    2    0    0 -0.17852824340E+03 -0.94278711928E+02 -0.86135405886E+03  0.88931596094E+03  0.90505549294E+02 0.  0.
        -11    1    4    4    0    0 -0.87287374540E+02 -0.18902090710E+02 -0.52974290888E+03  0.53721869317E+03  0.00000000000E+00 0.  1.
         11    1    4    4    0    0 -0.91240868864E+02 -0.75376621218E+02 -0.33161114998E+03  0.35209726777E+03  0.00000000000E+00 0. -1.
        -13    1    3    3    0    0  0.16275844462E+02  0.57419314832E+02 -0.29206178802E+03  0.29809724730E+03  0.00000000000E+00 0. -1.
         13    1    3    3    0    0  0.10816645127E+03  0.90517436180E+01 -0.49750546827E+03  0.50920880413E+03  0.00000000000E+00 0.  1.
          4    1    1    2  501    0  0.54085947673E+02  0.27807653478E+02 -0.17238307621E+03  0.18279628084E+03  0.00000000000E+00 0. -1.
<scales pt_clust_5="13000.00000" pt_clust_6="13000.00000" pt_clust_7="13000.00000" pt_clust_8="13000.00000" pt_clust_9="13000.00000"></scales>
<clustering>
<clus scale="   90.506">  5  6 -1 -1</clus>
<clus scale="   60.816">  5  9 -1 -1</clus>
<clus scale="   91.773">  7  8 -1 -1</clus>
<clus scale="  168.305">  1  7  2 -1</clus>
<clus scale="  284.275">  2  5  1 -1</clus>
</clustering>
</event>
<event>
 9    1  0.6399313E-006  0.2961132E+03  0.7546771E-02  0.1091728E+00
         -1   -1    0    0    0  501 -0.00000000000E+00  0.00000000000E+00  0.99439596018E+02  0.99439596018E+02  0.00000000000E+00 0.  1.
         21   -1    0    0  501  502  0.00000000000E+00 -0.00000000000E+00 -0.78567977332E+03  0.78567977332E+03  0.00000000000E+00 0.  1.
         23    2    1    2    0    0  0.16716563458E+03 -0.18228535640E+03 -0.30967563317E+03  0.40607459171E+03  0.88460588443E+02 0.  0.
         23    2    1    2    0    0 -0.54684616544E+02  0.60125808809E+02 -0.21543512998E+03  0.24766279347E+03  0.91208792708E+02 0.  0.
        -13    1    4    4    0    0 -0.29051375589E+02 -0.20954552749E+02 -0.81343027158E+02  0.88880615275E+02  0.00000000000E+00 0. -1.
         13    1    4    4    0    0 -0.25633240955E+02  0.81080361559E+02 -0.13409210282E+03  0.15878217819E+03  0.00000000000E+00 0.  1.
        -13    1    3    3    0    0  0.64468407772E+02 -0.12029125268E+03 -0.12044590596E+03  0.18202576008E+03  0.00000000000E+00 0. -1.
         13    1    3    3    0    0  0.10269722681E+03 -0.61994103720E+02 -0.18922972721E+03  0.22404883162E+03  0.00000000000E+00 0.  1.
         -1    1    1    2    0  502 -0.11248101804E+03  0.12215954759E+03 -0.16112941415E+03  0.23138198416E+03  0.00000000000E+00 0.  1.
<scales pt_clust_5="13000.00000" pt_clust_6="13000.00000" pt_clust_7="13000.00000" pt_clust_8="13000.00000" pt_clust_9="13000.00000"></scales>
<clustering>
<clus scale="   88.461">  7  8 -1 -1</clus>
<clus scale="   91.209">  5  6 -1 -1</clus>
<clus scale="  166.057">  5  9 -1 -1</clus>
<clus scale="  262.674">  1  7  2 -1</clus>
<clus scale="  296.113">  2  5  1 -1</clus>
</clustering>
</event>
<event>
 9    1  0.6399313E-006  0.4699999E+03  0.7546771E-02  0.1082046E+00
         21   -1    0    0  501  502  0.00000000000E+00  0.00000000000E+00  0.11915032677E+04  0.11915032677E+04  0.00000000000E+00 0. -1.
          1   -1    0    0  502    0 -0.00000000000E+00 -0.00000000000E+00 -0.93663075505E+02  0.93663075505E+02  0.00000000000E+00 0. -1.
         23    2    1    2    0    0 -0.22665365693E+02  0.15067602107E+02 -0.62431168200E+01  0.85208054122E+02  0.80502698988E+02 0.  0.
         23    2    1    2    0    0  0.22499940212E+03  0.56688937875E+02  0.69237770560E+03  0.73564205287E+03  0.89128985748E+02 0.  0.
        -13    1    3    3    0    0  0.30235911001E+02  0.31742618145E+01 -0.59856321175E+01  0.30985707092E+02  0.00000000000E+00 0. -1.
         13    1    3    3    0    0 -0.52901276694E+02  0.11893340293E+02 -0.25748470258E+00  0.54222347031E+02  0.00000000000E+00 0.  1.
        -13    1    4    4    0    0  0.21202818681E+03  0.29536355003E+02  0.55161432723E+03  0.59169816146E+03  0.00000000000E+00 0. -1.
         13    1    4    4    0    0  0.12971215313E+02  0.27152582872E+02  0.14076337837E+03  0.14394389140E+03  0.00000000000E+00 0.  1.
          1    1    1    2  501    0 -0.20233403643E+03 -0.71756539982E+02  0.41170560339E+03  0.46431623620E+03  0.00000000000E+00 0. -1.
<scales pt_clust_5="13000.00000" pt_clust_6="13000.00000" pt_clust_7="13000.00000" pt_clust_8="13000.00000" pt_clust_9="13000.00000"></scales>
<clustering>
<clus scale="   80.503">  5  6 -1 -1</clus>
<clus scale="   84.979">  2  5  1 -1</clus>
<clus scale="   89.129">  7  8 -1 -1</clus>
<clus scale="  223.959">  7  9 -1 -1</clus>
<clus scale="  470.000">  1  5  2 -1</clus>
</clustering>
</event>
<event>
 9    1  0.6399313E-006  0.1180193E+03  0.7546771E-02  0.1254680E+00
          1   -1    0    0  502    0 -0.00000000000E+00  0.00000000000E+00  0.17999332076E+03  0.17999332076E+03  0.00000000000E+00 0. -1.
         21   -1    0    0  501  502  0.00000000000E+00 -0.00000000000E+00 -0.10307167848E+03  0.10307167848E+03  0.00000000000E+00 0.  1.
         23    2    1    2    0    0  0.20499050678E+02  0.36891653390E+02  0.12107335211E+03  0.15705734080E+03  0.90703067976E+02 0.  0.
         23    2    1    2    0    0 -0.13712366530E+02 -0.15887159896E+02 -0.46546749696E+02  0.10380441443E+03  0.90378790116E+02 0.  0.
        -11    1    3    3    0    0  0.36491266409E+02  0.59941455906E+02  0.72069773049E+02  0.10059146508E+03  0.00000000000E+00 0. -1.
         11    1    3    3    0    0 -0.15992215731E+02 -0.23049802516E+02  0.49003579056E+02  0.56465875715E+02  0.00000000000E+00 0.  1.
        -11    1    4    4    0    0  0.35170906005E+01  0.26714151797E+02 -0.50954423672E+02  0.57639995873E+02  0.00000000000E+00 0.  1.
         11    1    4    4    0    0 -0.17229457130E+02 -0.42601311693E+02  0.44076739756E+01  0.46164418558E+02  0.00000000000E+00 0. -1.
          1    1    1    2  501    0 -0.67866841480E+01 -0.21004493494E+02  0.23950398737E+01  0.22203244013E+02  0.00000000000E+00 0. -1.
<scales pt_clust_5="13000.00000" pt_clust_6="13000.00000" pt_clust_7="13000.00000" pt_clust_8="13000.00000" pt_clust_9="13000.00000"></scales>
<clustering>
<clus scale="   90.379">  7  8 -1 -1</clus>
<clus scale="   22.074">  7  9 -1 -1</clus>
<clus scale="   90.703">  5  6 -1 -1</clus>
<clus scale="  100.041">  1  5  2 -1</clus>
<clus scale="  118.019">  2  5  1 -1</clus>
</clustering>
</event>
<event>
 9    1  0.6399313E-006  0.2817084E+03  0.7546771E-02  0.1114091E+00
         21   -1    0    0  501  502  0.00000000000E+00  0.00000000000E+00  0.29647972375E+03  0.29647972375E+03  0.00000000000E+00 0.  1.
         -4   -1    0    0    0  501 -0.00000000000E+00 -0.00000000000E+00 -0.19831071493E+03  0.19831071493E+03  0.00000000000E+00 0.  1.
         23    2    1    2    0    0 -0.74792929601E+02  0.11903887970E+03  0.12465057087E+03  0.21184005314E+03  0.97847872203E+02 0.  0.
         23    2    1    2    0    0  0.10375721016E+03 -0.15077404636E+03 -0.75551071076E+02  0.21772870919E+03  0.90550840705E+02 0.  0.
        -11    1    3    3    0    0 -0.61624862669E+02  0.13560898292E+03  0.10029542975E+03  0.17957336433E+03  0.00000000000E+00 0.  1.
         11    1    3    3    0    0 -0.13168066933E+02 -0.16570103219E+02  0.24355141124E+02  0.32266688807E+02  0.00000000000E+00 0. -1.
        -13    1    4    4    0    0  0.11194333736E+03 -0.12941941791E+03 -0.40445786447E+02  0.17583105003E+03  0.00000000000E+00 0.  1.
         13    1    4    4    0    0 -0.81861272073E+01 -0.21354628443E+02 -0.35105284629E+02  0.41897659164E+02  0.00000000000E+00 0. -1.
         -4    1    1    2    0  502 -0.28964280555E+02  0.31735166655E+02  0.49069509023E+02  0.65221676354E+02  0.00000000000E+00 0.  1.
<scales pt_clust_5="13000.00000" pt_clust_6="13000.00000" pt_clust_7="13000.00000" pt_clust_8="13000.00000" pt_clust_9="13000.00000"></scales>
<clustering>
<clus scale="   90.551">  7  8 -1 -1</clus>
<clus scale="   42.966">  7  9 -1 -1</clus>
<clus scale="   97.848">  5  6 -1 -1</clus>
<clus scale="  171.285">  2  5  1 -1</clus>
<clus scale="  281.708">  1  5  2 -1</clus>
</clustering>
</event>
<event>
 9    1  0.6399313E-006  0.3396462E+03  0.7546771E-02  0.1112643E+00
          1   -1    0    0  502    0 -0.00000000000E+00  0.00000000000E+00  0.38045275105E+03  0.38045275105E+03  0.00000000000E+00 0. -1.
         21   -1    0    0  501  502  0.00000000000E+00 -0.00000000000E+00 -0.17606075346E+03  0.17606075346E+03  0.00000000000E+00 0.  1.
         23    2    1    2    0    0 -0.43485007182E+02  0.22487626155E+01  0.19143156495E+03  0.21662007702E+03  0.91554415110E+02 0.  0.
         23    2    1    2    0    0  0.96234481496E+02 -0.13872586898E+03  0.25602228666E+02  0.19303185114E+03  0.89999329378E+02 0.  0.
        -11    1    3    3    0    0 -0.36098372414E+02  0.43604533867E+02  0.84267776570E+02  0.10151603830E+03  0.00000000000E+00 0. -1.
         11    1    3    3    0    0 -0.73866347684E+01 -0.41355771252E+02  0.10716378838E+03  0.11510403872E+03  0.00000000000E+00 0.  1.
        -13    1    4    4    0    0  0.66202592949E+02 -0.12025590336E+03  0.54248033892E+02  0.14760458931E+03  0.00000000000E+00 0.  1.
         13    1    4    4    0    0  0.30031888548E+02 -0.18469965619E+02 -0.28645805225E+02  0.45427261823E+02  0.00000000000E+00 0. -1.
          1    1    1    2  501    0 -0.52749474314E+02  0.13647710636E+03 -0.12641796027E+02  0.14686157635E+03  0.00000000000E+00 0. -1.
<scales pt_clust_5="13000.00000" pt_clust_6="13000.00000" pt_clust_7="13000.00000" pt_clust_8="13000.00000" pt_clust_9="13000.00000"></scales>
<clustering>
<clus scale="   89.999">  7  8 -1 -1</clus>
<clus scale="   91.554">  5  6 -1 -1</clus>
<clus scale="  101.382">  1  5  2 -1</clus>
<clus scale="  153.823">  7  9 -1 -1</clus>
<clus scale="  339.646">  2  5  1 -1</clus>
</clustering>
</event>
<event>
 9    1  0.6399313E-006  0.3120817E+03  0.7546771E-02  0.1109918E+00
          1   -1    0    0  502    0 -0.00000000000E+00  0.00000000000E+00  0.62381728494E+03  0.62381728494E+03  0.00000000000E+00 0. -1.
         21   -1    0    0  501  502  0.00000000000E+00 -0.00000000000E+00 -0.82209922536E+02  0.82209922536E+02  0.00000000000E+00 0.  1.
         23    2    1    2    0    0 -0.75107538431E+02 -0.76663180982E+02  0.14896316224E+03  0.20446520353E+03  0.89986721823E+02 0.  0.
         23    2    1    2    0    0 -0.20770554239E+02 -0.77989807981E+02  0.21256970135E+03  0.24556008838E+03  0.92736470714E+02 0.  0.
        -11    1    4    4    0    0 -0.89085919495E+01 -0.98565254916E+02  0.16536649881E+03  0.19271884032E+03  0.00000000000E+00 0.  1.
         11    1    4    4    0    0 -0.11861962290E+02  0.20575446936E+02  0.47203202543E+02  0.52841248057E+02  0.00000000000E+00 0. -1.
        -13    1    3    3    0    0 -0.21379294150E+02  0.14509328009E+02  0.58789659411E+01  0.26498246322E+02  0.00000000000E+00 0. -1.
         13    1    3    3    0    0 -0.53728244281E+02 -0.91172508991E+02  0.14308419630E+03  0.17796695721E+03  0.00000000000E+00 0.  1.
          1    1    1    2  501    0  0.95878092670E+02  0.15465298896E+03  0.18007449882E+03  0.25600191557E+03  0.00000000000E+00 0. -1.
<scales pt_clust_5="13000.00000" pt_clust_6="13000.00000" pt_clust_7="13000.00000" pt_clust_8="13000.00000" pt_clust_9="13000.00000"></scales>
<clustering>
<clus scale="   89.987">  7  8 -1 -1</clus>
<clus scale="   92.736">  5  6 -1 -1</clus>
<clus scale="  140.057">  1  7  2 -1</clus>
<clus scale="  131.385">  5  9 -1 -1</clus>
<clus scale="  312.082">  2  5  1 -1</clus>
</clustering>
</event>
<event>
 9    1  0.6399313E-006  0.3727303E+03  0.7546771E-02  0.1057735E+00
         21   -1    0    0  501  502  0.00000000000E+00  0.00000000000E+00  0.32459620995E+03  0.32459620995E+03  0.00000000000E+00 0. -1.
          1   -1    0    0  502    0 -0.00000000000E+00 -0.00000000000E+00 -0.39238061612E+03  0.39238061612E+03  0.00000000000E+00 0. -1.
         23    2    1    2    0    0  0.31931422247E+03  0.13682472132E+02 -0.88181439707E+02  0.34368886975E+03  0.90538887578E+02 0.  0.
         23    2    1    2    0    0 -0.13320944276E+03  0.21796460991E+02  0.55967550319E+02  0.18052124397E+03  0.10599863906E+03 0.  0.
        -13    1    4    4    0    0  0.46598765333E+01 -0.23833396258E+02  0.18536861030E+02  0.30550948322E+02  0.00000000000E+00 0.  1.
         13    1    4    4    0    0 -0.13786931929E+03  0.45629857248E+02  0.37430689288E+02  0.14997029564E+03  0.00000000000E+00 0. -1.
        -13    1    3    3    0    0  0.97872930353E+02 -0.36673254755E+02 -0.18487626545E+02  0.10614061638E+03  0.00000000000E+00 0.  1.
         13    1    3    3    0    0  0.22144129212E+03  0.50355726887E+02 -0.69693813163E+02  0.23754825337E+03  0.00000000000E+00 0. -1.
          1    1    1    2  501    0 -0.18610477971E+03 -0.35478933123E+02 -0.35570516775E+02  0.19276671235E+03  0.00000000000E+00 0. -1.
<scales pt_clust_5="13000.00000" pt_clust_6="13000.00000" pt_clust_7="13000.00000" pt_clust_8="13000.00000" pt_clust_9="13000.00000"></scales>
<clustering>
<clus scale="   90.539">  7  8 -1 -1</clus>
<clus scale="  105.999">  5  6 -1 -1</clus>
<clus scale="  189.457">  5  9 -1 -1</clus>
<clus scale="  332.184">  2  7  1 -1</clus>
<clus scale="  372.730">  1  5  2 -1</clus>
</clustering>
</event>
<event>
 9    1  0.6399313E-006  0.3399261E+03  0.7546771E-02  0.1091618E+00
         21   -1    0    0  501  502  0.00000000000E+00  0.00000000000E+00  0.17006860961E+03  0.17006860961E+03  0.00000000000E+00 0. -1.
          1   -1    0    0  502    0 -0.00000000000E+00 -0.00000000000E+00 -0.39985737128E+03  0.39985737128E+03  0.00000000000E+00 0. -1.
         23    2    1    2    0    0 -0.12681631332E+03 -0.79624249179E+02 -0.33288114431E+02  0.17729097816E+03  0.88890910627E+02 0.  0.
         23    2    1    2    0    0  0.56100755312E+02  0.17499091362E+03 -0.17832123593E+03  0.27252679391E+03  0.93291348028E+02 0.  0.
        -11    1    4    4    0    0  0.69148311908E+02  0.13462375361E+03 -0.94068944747E+02  0.17819655003E+03  0.00000000000E+00 0. -1.
         11    1    4    4    0    0 -0.13047556596E+02  0.40367160011E+02 -0.84252291188E+02  0.94330243882E+02  0.00000000000E+00 0.  1.
        -11    1    3    3    0    0 -0.82601631286E+02 -0.71874786856E+02  0.15963924931E+02  0.11065198315E+03  0.00000000000E+00 0.  1.
         11    1    3    3    0    0 -0.44214682038E+02 -0.77494623223E+01 -0.49252039362E+02  0.66638995005E+02  0.00000000000E+00 0. -1.
          1    1    1    2  501    0  0.70715558011E+02 -0.95366664445E+02 -0.18179411304E+02  0.12010820883E+03  0.00000000000E+00 0. -1.
<scales pt_clust_5="13000.00000" pt_clust_6="13000.00000" pt_clust_7="13000.00000" pt_clust_8="13000.00000" pt_clust_9="13000.00000"></scales>
<clustering>
<clus scale="   88.891">  7  8 -1 -1</clus>
<clus scale="   93.291">  5  6 -1 -1</clus>
<clus scale="  118.724">  5  9 -1 -1</clus>
<clus scale="  174.138">  2  7  1 -1</clus>
<clus scale="  339.926">  1  5  2 -1</clus>
</clustering>
</event>
<event>
 9    1  0.6399313E-006  0.1831326E+03  0.7546771E-02  0.1182792E+00
         21   -1    0    0  501  502  0.00000000000E+00  0.00000000000E+00  0.88455836457E+02  0.88455836457E+02  0.00000000000E+00 0.  1.
         -1   -1    0    0    0  501 -0.00000000000E+00 -0.00000000000E+00 -0.32003858553E+03  0.32003858553E+03  0.00000000000E+00 0.  1.
         23    2    1    2    0    0 -0.33308332009E+02 -0.73768972048E+02 -0.18170538961E+03  0.21869110535E+03  0.90871583726E+02 0.  0.
         23    2    1    2    0    0 -0.24524208938E+02  0.61193573835E+02 -0.79951040949E+00  0.11291782581E+03  0.91671728821E+02 0.  0.
        -11    1    4    4    0    0 -0.55337110461E+02  0.36211541311E+02 -0.19662633648E+02  0.68993410412E+02  0.00000000000E+00 0.  1.
         11    1    4    4    0    0  0.30812901524E+02  0.24982032524E+02  0.18863123239E+02  0.43924415393E+02  0.00000000000E+00 0. -1.
        -13    1    3    3    0    0  0.28570718804E+02 -0.38742692922E+02 -0.95487223481E+02  0.10693498995E+03  0.00000000000E+00 0. -1.
         13    1    3    3    0    0 -0.61879050813E+02 -0.35026279126E+02 -0.86218166127E+02  0.11175611540E+03  0.00000000000E+00 0.  1.
         -1    1    1    2    0  502  0.57832540947E+02  0.12575398213E+02 -0.49077849061E+02  0.76885490836E+02  0.00000000000E+00 0.  1.
<scales pt_clust_5="13000.00000" pt_clust_6="13000.00000" pt_clust_7="13000.00000" pt_clust_8="13000.00000" pt_clust_9="13000.00000"></scales>
<clustering>
<clus scale="   90.872">  7  8 -1 -1</clus>
<clus scale="   91.672">  5  6 -1 -1</clus>
<clus scale="   59.184">  5  9 -1 -1</clus>
<clus scale="  121.692">  2  7  1 -1</clus>
<clus scale="  183.133">  1  5  2 -1</clus>
</clustering>
</event>
<event>
 9    1  0.6399313E-006  0.2750947E+03  0.7546771E-02  0.1124914E+00
          1   -1    0    0  502    0 -0.00000000000E+00  0.00000000000E+00  0.96823690820E+03  0.96823690820E+03  0.00000000000E+00 0. -1.
         21   -1    0    0  501  502  0.00000000000E+00 -0.00000000000E+00 -0.45703241773E+02  0.45703241773E+02  0.00000000000E+00 0. -1.
         23    2    1    2    0    0 -0.82214259630E+02  0.66767608342E+02  0.39161387096E+03  0.41598284818E+03  0.91995695750E+02 0.  0.
         23    2    1    2    0    0  0.92816151985E+02 -0.13267252931E+03  0.47733648439E+03  0.51235922965E+03  0.91896805014E+02 0.  0.
        -11    1    3    3    0    0 -0.46777475718E+02 -0.16622730141E+02  0.14314137533E+03  0.15150544783E+03  0.00000000000E+00 0.  1.
         11    1    3    3    0    0 -0.35436783912E+02  0.83390338483E+02  0.24847249563E+03  0.26447740034E+03  0.00000000000E+00 0. -1.
        -11    1    4    4    0    0  0.31319714386E+02 -0.57246138918E+02  0.32575392830E+03  0.33222532524E+03  0.00000000000E+00 0.  1.
         11    1    4    4    0    0  0.61496437599E+02 -0.75426390396E+02  0.15158255610E+03  0.18013390441E+03  0.00000000000E+00 0. -1.
          1    1    1    2  501    0 -0.10601892355E+02  0.65904920972E+02  0.53583311074E+02  0.85598072148E+02  0.00000000000E+00 0. -1.
<scales pt_clust_5="13000.00000" pt_clust_6="13000.00000" pt_clust_7="13000.00000" pt_clust_8="13000.00000" pt_clust_9="13000.00000"></scales>
<clustering>
<clus scale="   91.897">  7  8 -1 -1</clus>
<clus scale="   66.752">  7  9 -1 -1</clus>
<clus scale="   91.996">  5  6 -1 -1</clus>
<clus scale="  140.287">  1  5  2 -1</clus>
<clus scale="  275.095">  2  5  1 -1</clus>
</clustering>
</event>
<event>
 9    1  0.6399313E-006  0.3037959E+03  0.7546771E-02  0.1121180E+00
         -3   -1    0    0    0  501 -0.00000000000E+00  0.00000000000E+00  0.21709816931E+03  0.21709816931E+03  0.00000000000E+00 0.  1.
         21   -1    0    0  501  502  0.00000000000E+00 -0.00000000000E+00 -0.42808118615E+03  0.42808118615E+03  0.00000000000E+00 0.  1.
         23    2    1    2    0    0 -0.67110643735E+02  0.88456200143E+01  0.14016099174E+03  0.18085829237E+03  0.92100677622E+02 0.  0.
         23    2    1    2    0    0 -0.26847734320E+02 -0.43724762241E+02 -0.60278930748E+01  0.10494679503E+03  0.91350088241E+02 0.  0.
        -11    1    4    4    0    0 -0.57122496340E+02 -0.29607761250E+02 -0.21898127309E+02  0.67964160365E+02  0.00000000000E+00 0.  1.
         11    1    4    4    0    0  0.30274762021E+02 -0.14117000991E+02  0.15870234235E+02  0.36982634669E+02  0.00000000000E+00 0. -1.
        -11    1    3    3    0    0 -0.51795666435E+02  0.49014706593E+02  0.87296367269E+02  0.11272039861E+03  0.00000000000E+00 0.  1.
         11    1    3    3    0    0 -0.15314977300E+02 -0.40169086579E+02  0.52864624467E+02  0.68137893762E+02  0.00000000000E+00 0. -1.
         -3    1    1    2    0  502  0.93958378055E+02  0.34879142227E+02 -0.34511611550E+03  0.35937426806E+03  0.00000000000E+00 0.  1.
<scales pt_clust_5="13000.00000" pt_clust_6="13000.00000" pt_clust_7="13000.00000" pt_clust_8="13000.00000" pt_clust_9="13000.00000"></scales>
<clustering>
<clus scale="   91.350">  5  6 -1 -1</clus>
<clus scale="   92.101">  7  8 -1 -1</clus>
<clus scale="  100.223">  5  9 -1 -1</clus>
<clus scale="  114.301">  1  7  2 -1</clus>
<clus scale="  303.796">  2  5  1 -1</clus>
</clustering>
</event>
<event>
 9    1  0.6399313E-006  0.3056916E+03  0.7546771E-02  0.1090100E+00
          2   -1    0    0  502    0 -0.00000000000E+00  0.00000000000E+00  0.13181666890E+04  0.13181666890E+04  0.00000000000E+00 0. -1.
         21   -1    0    0  501  502  0.00000000000E+00 -0.00000000000E+00 -0.58763203905E+02  0.58763203905E+02  0.00000000000E+00 0.  1.
         23    2    1    2    0    0 -0.23060622271E+03 -0.21800449875E+02  0.51233809476E+03  0.56974090258E+03  0.91977623193E+02 0.  0.
         23    2    1    2    0    0  0.37746323607E+02 -0.20850088289E+02  0.34358944328E+03  0.35795981835E+03  0.90675326833E+02 0.  0.
        -11    1    3    3    0    0 -0.17122381310E+03 -0.43601784709E+02  0.29983808981E+03  0.34802527193E+03  0.00000000000E+00 0.  1.
         11    1    3    3    0    0 -0.59382409608E+02  0.21801334834E+02  0.21250000495E+03  0.22171563065E+03  0.00000000000E+00 0. -1.
        -13    1    4    4    0    0 -0.14940808852E+02 -0.41228310527E+02  0.14384506104E+03  0.15038085964E+03  0.00000000000E+00 0.  1.
         13    1    4    4    0    0  0.52687132459E+02  0.20378222238E+02  0.19974438223E+03  0.20757895872E+03  0.00000000000E+00 0. -1.
          2    1    1    2  501    0  0.19285989910E+03  0.42650538164E+02  0.40347594702E+03  0.44922917192E+03  0.00000000000E+00 0. -1.
<scales pt_clust_5="13000.00000" pt_clust_6="13000.00000" pt_clust_7="13000.00000" pt_clust_8="13000.00000" pt_clust_9="13000.00000"></scales>
<clustering>
<clus scale="   90.675">  7  8 -1 -1</clus>
<clus scale="   91.978">  5  6 -1 -1</clus>
<clus scale="  197.520">  7  9 -1 -1</clus>
<clus scale="  249.228">  1  5  2 -1</clus>
<clus scale="  305.692">  2  5  1 -1</clus>
</clustering>
</event>
<event>
 9    1  0.6399313E-006  0.2179286E+03  0.7546771E-02  0.1164487E+00
         21   -1    0    0  501  502  0.00000000000E+00  0.00000000000E+00  0.20296044055E+03  0.20296044055E+03  0.00000000000E+00 0.  1.
         -3   -1    0    0    0  501 -0.00000000000E+00 -0.00000000000E+00 -0.13731403233E+03  0.13731403233E+03  0.00000000000E+00 0.  1.
         23    2    1    2    0    0  0.58132867205E+01 -0.59900308561E+02 -0.91785243997E+01  0.10985825392E+03  0.91448069290E+02 0.  0.
         23    2    1    2    0    0 -0.55799697106E+02 -0.26371081689E+02  0.71814427936E+02  0.13066424084E+03  0.90037723356E+02 0.  0.
        -11    1    3    3    0    0  0.16267670437E+02 -0.77735012834E+02 -0.25614908068E+02  0.83447545423E+02  0.00000000000E+00 0.  1.
         11    1    3    3    0    0 -0.10454383716E+02  0.17834704273E+02  0.16436383669E+02  0.26410708501E+02  0.00000000000E+00 0. -1.
        -11    1    4    4    0    0 -0.40977869041E+02  0.15324808848E+02 -0.28812206700E+01  0.43844463162E+02  0.00000000000E+00 0.  1.
         11    1    4    4    0    0 -0.14821828065E+02 -0.41695890537E+02  0.74695648606E+02  0.86819777675E+02  0.00000000000E+00 0. -1.
         -3    1    1    2    0  502  0.49986410386E+02  0.86271390250E+02  0.30105046851E+01  0.99751978113E+02  0.00000000000E+00 0.  1.
<scales pt_clust_5="13000.00000" pt_clust_6="13000.00000" pt_clust_7="13000.00000" pt_clust_8="13000.00000" pt_clust_9="13000.00000"></scales>
<clustering>
<clus scale="   90.038">  7  8 -1 -1</clus>
<clus scale="   91.448">  5  6 -1 -1</clus>
<clus scale="   99.707">  7  9 -1 -1</clus>
<clus scale="  109.474">  2  5  1 -1</clus>
<clus scale="  217.929">  1  5  2 -1</clus>
</clustering>
</event>
<event>
 9    1  0.6399313E-006  0.5250482E+03  0.7546771E-02  0.1047641E+00
         21   -1    0    0  501  502  0.00000000000E+00  0.00000000000E+00  0.21754535739E+03  0.21754535739E+03  0.00000000000E+00 0. -1.
          1   -1    0    0  502    0 -0.00000000000E+00 -0.00000000000E+00 -0.56347280178E+03  0.56347280178E+03  0.00000000000E+00 0. -1.
         23    2    1    2    0    0  0.10537392864E+03  0.73733683573E+02 -0.11883327575E+02  0.15871515152E+03  0.92244050856E+02 0.  0.
         23    2    1    2    0    0 -0.19069421829E+03  0.42903030788E+02 -0.40687440547E+03  0.46047616837E+03  0.91030571068E+02 0.  0.
        -11    1    4    4    0    0 -0.89939624177E+02  0.66426932633E+02 -0.22428529658E+03  0.25061039012E+03  0.00000000000E+00 0.  1.
         11    1    4    4    0    0 -0.10075459412E+03 -0.23523901845E+02 -0.18258910890E+03  0.20986577825E+03  0.00000000000E+00 0. -1.
        -13    1    3    3    0    0  0.10200527470E+01  0.34415560951E+02  0.23540428951E+02  0.41708789701E+02  0.00000000000E+00 0.  1.
         13    1    3    3    0    0  0.10435387589E+03  0.39318122622E+02 -0.35423756525E+02  0.11700636182E+03  0.00000000000E+00 0. -1.
          1    1    1    2  501    0  0.85320289657E+02 -0.11663671436E+03  0.72830288658E+02  0.16182683928E+03  0.00000000000E+00 0. -1.
<scales pt_clust_5="13000.00000" pt_clust_6="13000.00000" pt_clust_7="13000.00000" pt_clust_8="13000.00000" pt_clust_9="13000.00000"></scales>
<clustering>
<clus scale="   91.031">  5  6 -1 -1</clus>
<clus scale="   92.244">  7  8 -1 -1</clus>
<clus scale="  144.512">  5  9 -1 -1</clus>
<clus scale="  158.270">  2  7  1 -1</clus>
<clus scale="  525.048">  1  5  2 -1</clus>
</clustering>
</event>
<event>
 9    1  0.6399313E-006  0.2118715E+03  0.7546771E-02  0.1158605E+00
         21   -1    0    0  501  502  0.00000000000E+00  0.00000000000E+00  0.43708136225E+03  0.43708136225E+03  0.00000000000E+00 0. -1.
          2   -1    0    0  502    0 -0.00000000000E+00 -0.00000000000E+00 -0.10921689415E+03  0.10921689415E+03  0.00000000000E+00 0. -1.
         23    2    1    2    0    0  0.76651633371E+02  0.64915373099E+02 -0.20964845821E+02  0.13816660809E+03  0.92525716789E+02 0.  0.
         23    2    1    2    0    0 -0.29219460776E+02  0.12088521562E+02  0.81020295471E+02  0.12546385539E+03  0.90426663595E+02 0.  0.
        -13    1    3    3    0    0 -0.19785749409E+02  0.47040596100E+01  0.62272648236E+01  0.21269294386E+02  0.00000000000E+00 0.  1.
         13    1    3    3    0    0  0.96437382781E+02  0.60211313489E+02 -0.27192110645E+02  0.11689731370E+03  0.00000000000E+00 0. -1.
        -13    1    4    4    0    0  0.24264166073E+02  0.21488414472E+02  0.58084541143E+02  0.66515529251E+02  0.00000000000E+00 0. -1.
         13    1    4    4    0    0 -0.53483626850E+02 -0.93998929100E+01  0.22935754328E+02  0.58948326136E+02  0.00000000000E+00 0.  1.
          2    1    1    2  501    0 -0.47432172595E+02 -0.77003894661E+02  0.26780901845E+03  0.28266779292E+03  0.00000000000E+00 0. -1.
<scales pt_clust_5="13000.00000" pt_clust_6="13000.00000" pt_clust_7="13000.00000" pt_clust_8="13000.00000" pt_clust_9="13000.00000"></scales>
<clustering>
<clus scale="   90.427">  7  8 -1 -1</clus>
<clus scale="   90.440">  7  9 -1 -1</clus>
<clus scale="   92.526">  5  6 -1 -1</clus>
<clus scale="  136.567">  2  5  1 -1</clus>
<clus scale="  211.872">  1  5  2 -1</clus>
</clustering>
</event>
<event>
 9    1  0.6399313E-006  0.7576639E+03  0.7546771E-02  0.9868378E-01
         21   -1    0    0  501  502  0.00000000000E+00  0.00000000000E+00  0.41612095557E+03  0.41612095557E+03  0.00000000000E+00 0. -1.
          1   -1    0    0  502    0 -0.00000000000E+00 -0.00000000000E+00 -0.11074751277E+04  0.11074751277E+04  0.00000000000E+00 0. -1.
         23    2    1    2    0    0  0.31080209367E+03  0.90352490630E+02 -0.68840361236E+03  0.76592641495E+03  0.89343302000E+02 0.  0.
         23    2    1    2    0    0 -0.50708836415E+02  0.48197300362E+01 -0.32000209976E+03  0.33668518747E+03  0.91438261802E+02 0.  0.
        -11    1    4    4    0    0  0.20019452975E+02  0.23261805575E+02 -0.75752505237E+02  0.81733298879E+02  0.00000000000E+00 0. -1.
         11    1    4    4    0    0 -0.70728289390E+02 -0.18442075539E+02 -0.24424959452E+03  0.25495188859E+03  0.00000000000E+00 0.  1.
        -13    1    3    3    0    0  0.25632043169E+03  0.10674453050E+03 -0.59426202767E+03  0.65592828574E+03  0.00000000000E+00 0. -1.
         13    1    3    3    0    0  0.54481661978E+02 -0.16392039868E+02 -0.94141584688E+02  0.10999812921E+03  0.00000000000E+00 0.  1.
          1    1    1    2  501    0 -0.26009325726E+03 -0.95172220666E+02  0.31705154002E+03  0.42098448082E+03  0.00000000000E+00 0. -1.
<scales pt_clust_5="13000.00000" pt_clust_6="13000.00000" pt_clust_7="13000.00000" pt_clust_8="13000.00000" pt_clust_9="13000.00000"></scales>
<clustering>
<clus scale="   89.343">  7  8 -1 -1</clus>
<clus scale="   91.438">  5  6 -1 -1</clus>
<clus scale="  276.959">  5  9 -1 -1</clus>
<clus scale="  335.773">  2  7  1 -1</clus>
<clus scale="  757.664">  1  5  2 -1</clus>
</clustering>
</event>
<event>
 9    1  0.6399313E-006  0.2456655E+03  0.7546771E-02  0.1153858E+00
         21   -1    0    0  501  502  0.00000000000E+00  0.00000000000E+00  0.67239318901E+02  0.67239318901E+02  0.00000000000E+00 0. -1.
         -1   -1    0    0    0  501 -0.00000000000E+00 -0.00000000000E+00 -0.44024961038E+03  0.44024961038E+03  0.00000000000E+00 0.  1.
         23    2    1    2    0    0 -0.27644999759E+02 -0.20097172511E+02 -0.93859021913E+02  0.13563281465E+03  0.91752940341E+02 0.  0.
         23    2    1    2    0    0 -0.58006642015E+02 -0.14019462000E+02 -0.25587293113E+03  0.27676652777E+03  0.86991023551E+02 0.  0.
        -11    1    4    4    0    0  0.22989665638E+02  0.79694928219E-01 -0.64776941909E+02  0.68735604169E+02  0.00000000000E+00 0.  1.
         11    1    4    4    0    0 -0.80996307653E+02 -0.14099156928E+02 -0.19109598922E+03  0.20803092360E+03  0.00000000000E+00 0. -1.
        -13    1    3    3    0    0  0.28872406984E+02 -0.20979894149E+02 -0.15250152053E+02  0.38811583080E+02  0.00000000000E+00 0.  1.
         13    1    3    3    0    0 -0.56517406742E+02  0.88272163777E+00 -0.78608869861E+02  0.96821231572E+02  0.00000000000E+00 0. -1.
         -1    1    1    2    0  502  0.85651641773E+02  0.34116634511E+02 -0.23278338443E+02  0.95089586861E+02  0.00000000000E+00 0.  1.
<scales pt_clust_5="13000.00000" pt_clust_6="13000.00000" pt_clust_7="13000.00000" pt_clust_8="13000.00000" pt_clust_9="13000.00000"></scales>
<clustering>
<clus scale="   86.991">  5  6 -1 -1</clus>
<clus scale="   91.753">  7  8 -1 -1</clus>
<clus scale="   92.196">  5  9 -1 -1</clus>
<clus scale="   97.912">  2  7  1 -1</clus>
<clus scale="  245.666">  1  5  2 -1</clus>
</clustering>
</event>
<event>
 9    1  0.6399313E-006  0.4093997E+03  0.7546771E-02  0.1090519E+00
         21   -1    0    0  501  502  0.00000000000E+00  0.00000000000E+00  0.48383642377E+03  0.48383642377E+03  0.00000000000E+00 0.  1.
          1   -1    0    0  502    0 -0.00000000000E+00 -0.00000000000E+00 -0.18081124778E+03  0.18081124778E+03  0.00000000000E+00 0. -1.
         23    2    1    2    0    0  0.62877034053E+02 -0.43447220230E+01 -0.58805341103E+02  0.11826919068E+03  0.80976140326E+02 0.  0.
         23    2    1    2    0    0 -0.51282468331E+02 -0.17845269893E+03  0.96126403456E+02  0.22365877731E+03  0.79421067196E+02 0.  0.
        -11    1    4    4    0    0 -0.11857997109E+02 -0.10137368608E+03  0.91310938238E+02  0.13694861725E+03  0.00000000000E+00 0.  1.
         11    1    4    4    0    0 -0.39424471222E+02 -0.77079012844E+02  0.48154652178E+01  0.86710160059E+02  0.00000000000E+00 0. -1.
        -13    1    3    3    0    0  0.66564958442E+02 -0.26621318199E+02 -0.21823469221E+02  0.74938989076E+02  0.00000000000E+00 0.  1.
         13    1    3    3    0    0 -0.36879243889E+01  0.22276596176E+02 -0.36981871882E+02  0.43330201608E+02  0.00000000000E+00 0. -1.
          1    1    1    2  501    0 -0.11594565722E+02  0.18279742095E+03  0.26570411363E+03  0.32271970355E+03  0.00000000000E+00 0. -1.
<scales pt_clust_5="13000.00000" pt_clust_6="13000.00000" pt_clust_7="13000.00000" pt_clust_8="13000.00000" pt_clust_9="13000.00000"></scales>
<clustering>
<clus scale="   79.421">  5  6 -1 -1</clus>
<clus scale="   80.976">  7  8 -1 -1</clus>
<clus scale="  102.614">  2  7  1 -1</clus>
<clus scale="  181.624">  5  9 -1 -1</clus>
<clus scale="  409.400">  1  5  2 -1</clus>
</clustering>
</event>
<event>
 9    1  0.6399313E-006  0.2758387E+03  0.7546771E-02  0.1111575E+00
          1   -1    0    0  502    0 -0.00000000000E+00  0.00000000000E+00  0.21740639931E+04  0.21740639931E+04  0.00000000000E+00 0. -1.
         21   -1    0    0  501  502  0.00000000000E+00 -0.00000000000E+00 -0.25453492781E+02  0.25453492781E+02  0.00000000000E+00 0. -1.
         23    2    1    2    0    0  0.14038149415E+03 -0.10002919260E+03  0.91817096332E+03  0.93853833493E+03  0.90019358920E+02 0.  0.
         23    2    1    2    0    0 -0.17671192572E+02 -0.28566658351E+02  0.37281518870E+03  0.38512857363E+03  0.90578851206E+02 0.  0.
        -11    1    4    4    0    0  0.14848870599E+02  0.22617849846E+02  0.51849101946E+02  0.58484061610E+02  0.00000000000E+00 0.  1.
         11    1    4    4    0    0 -0.32520063171E+02 -0.51184508197E+02  0.32096608676E+03  0.32664451202E+03  0.00000000000E+00 0. -1.
        -13    1    3    3    0    0  0.40575636037E+02  0.12479016627E+02  0.15615522131E+03  0.16182262276E+03  0.00000000000E+00 0.  1.
         13    1    3    3    0    0  0.99805858110E+02 -0.11250820923E+03  0.76201574201E+03  0.77671571217E+03  0.00000000000E+00 0. -1.
          1    1    1    2  501    0 -0.12271030158E+03  0.12859585095E+03  0.85762434832E+03  0.87585057734E+03  0.00000000000E+00 0. -1.
<scales pt_clust_5="13000.00000" pt_clust_6="13000.00000" pt_clust_7="13000.00000" pt_clust_8="13000.00000" pt_clust_9="13000.00000"></scales>
<clustering>
<clus scale="   90.019">  7  8 -1 -1</clus>
<clus scale="   90.579">  5  6 -1 -1</clus>
<clus scale="  177.749">  5  9 -1 -1</clus>
<clus scale="  194.464">  1  7  2 -1</clus>
<clus scale="  275.839">  2  5  1 -1</clus>
</clustering>
</event>
<event>
 9    1  0.6399313E-006  0.3963542E+03  0.7546771E-02  0.1053854E+00
         21   -1    0    0  501  502  0.00000000000E+00  0.00000000000E+00  0.16945704711E+03  0.16945704711E+03  0.00000000000E+00 0. -1.
          2   -1    0    0  502    0 -0.00000000000E+00 -0.00000000000E+00 -0.75571848572E+03  0.75571848572E+03  0.00000000000E+00 0. -1.
         23    2    1    2    0    0 -0.29421234635E+03  0.20782319513E+02 -0.33825292610E+03  0.45762357263E+03  0.89506886099E+02 0.  0.
         23    2    1    2    0    0  0.15577682251E+02 -0.66598189925E+02 -0.71018109796E+02  0.13429234268E+03  0.91174987240E+02 0.  0.
        -13    1    4    4    0    0 -0.19768412701E+01 -0.86883383798E+02 -0.57927729618E+02  0.10444257820E+03  0.00000000000E+00 0. -1.
         13    1    4    4    0    0  0.17554523521E+02  0.20285193874E+02 -0.13090380177E+02  0.29849764484E+02  0.00000000000E+00 0.  1.
        -13    1    3    3    0    0 -0.11560586548E+03 -0.17482410691E+02 -0.81485023678E+02  0.14251371829E+03  0.00000000000E+00 0.  1.
         13    1    3    3    0    0 -0.17860648088E+03  0.38264730205E+02 -0.25676790242E+03  0.31510985434E+03  0.00000000000E+00 0. -1.
          2    1    1    2  501    0  0.27863466410E+03  0.45815870411E+02 -0.17699040272E+03  0.33325961753E+03  0.00000000000E+00 0. -1.
<scales pt_clust_5="13000.00000" pt_clust_6="13000.00000" pt_clust_7="13000.00000" pt_clust_8="13000.00000" pt_clust_9="13000.00000"></scales>
<clustering>
<clus scale="   89.507">  7  8 -1 -1</clus>
<clus scale="   91.175">  5  6 -1 -1</clus>
<clus scale="  282.376">  5  9 -1 -1</clus>
<clus scale="  308.228">  2  7  1 -1</clus>
<clus scale="  396.354">  1  5  2 -1</clus>
</clustering>
</event>
<event>
 9    1  0.6399313E-006  0.1815697E+03  0.7546771E-02  0.1182064E+00
          4   -1    0    0  502    0 -0.00000000000E+00  0.00000000000E+00  0.68960842873E+02  0.68960842873E+02  0.00000000000E+00 0. -1.
         21   -1    0    0  501  502  0.00000000000E+00 -0.00000000000E+00 -0.45413944721E+03  0.45413944721E+03  0.00000000000E+00 0. -1.
         23    2    1    2    0    0  0.80640045882E+02 -0.36136099726E+02 -0.39977929786E+02  0.13306048272E+03  0.91094579904E+02 0.  0.
         23    2    1    2    0    0 -0.38339173563E+01  0.25052591144E+02 -0.12508408476E+03  0.15664456610E+03  0.90824889675E+02 0.  0.
        -13    1    4    4    0    0 -0.24812286334E+02  0.53355257498E+02 -0.72959935203E+02  0.93731452569E+02  0.00000000000E+00 0. -1.
         13    1    4    4    0    0  0.20978368978E+02 -0.28302666354E+02 -0.52124149553E+02  0.62913113532E+02  0.00000000000E+00 0.  1.
        -13    1    3    3    0    0  0.16309190452E+02  0.29941401709E+02 -0.16605762230E+02  0.37923984083E+02  0.00000000000E+00 0.  1.
         13    1    3    3    0    0  0.64330855431E+02 -0.66077501435E+02 -0.23372167555E+02  0.95136498635E+02  0.00000000000E+00 0. -1.
          4    1    1    2  501    0 -0.76806128526E+02  0.11083508582E+02 -0.22011658979E+03  0.23339524126E+03  0.00000000000E+00 0. -1.
<scales pt_clust_5="13000.00000" pt_clust_6="13000.00000" pt_clust_7="13000.00000" pt_clust_8="13000.00000" pt_clust_9="13000.00000"></scales>
<clustering>
<clus scale="   90.825">  5  6 -1 -1</clus>
<clus scale="   77.602">  5  9 -1 -1</clus>
<clus scale="   91.095">  7  8 -1 -1</clus>
<clus scale="  126.913">  1  7  2 -1</clus>
<clus scale="  181.570">  2  5  1 -1</clus>
</clustering>
</event>
<event>
 9    1  0.6399313E-006  0.4208449E+03  0.7546771E-02  0.1063548E+00
         21   -1    0    0  501  502  0.00000000000E+00  0.00000000000E+00  0.27321186151E+03  0.27321186151E+03  0.00000000000E+00 0.  1.
         -4   -1    0    0    0  501 -0.00000000000E+00 -0.00000000000E+00 -0.36877714169E+03  0.36877714169E+03  0.00000000000E+00 0.  1.
         23    2    1    2    0    0 -0.62990817729E+02 -0.16305999551E+03  0.39284202650E+02  0.20006730029E+03  0.89035222333E+02 0.  0.
         23    2    1    2    0    0 -0.42557772783E+02  0.92421332386E+02 -0.23898911398E+03  0.27767984325E+03  0.98170423462E+02 0.  0.
        -11    1    4    4    0    0  0.21822025859E+02  0.60212524364E+02 -0.75247512964E+02  0.98812636389E+02  0.00000000000E+00 0.  1.
         11    1    4    4    0    0 -0.64379798641E+02  0.32208808021E+02 -0.16374160101E+03  0.17886720686E+03  0.00000000000E+00 0. -1.
        -13    1    3    3    0    0 -0.18475814538E+02 -0.20696202941E+02  0.42637045308E+02  0.50868518473E+02  0.00000000000E+00 0. -1.
         13    1    3    3    0    0 -0.44515003191E+02 -0.14236379257E+03 -0.33528426581E+01  0.14919878182E+03  0.00000000000E+00 0.  1.
         -4    1    1    2    0  502  0.10554859051E+03  0.70638663122E+02  0.10413963115E+03  0.16424185965E+03  0.00000000000E+00 0.  1.
<scales pt_clust_5="13000.00000" pt_clust_6="13000.00000" pt_clust_7="13000.00000" pt_clust_8="13000.00000" pt_clust_9="13000.00000"></scales>
<clustering>
<clus scale="   89.035">  7  8 -1 -1</clus>
<clus scale="   98.170">  5  6 -1 -1</clus>
<clus scale="  127.005">  5  9 -1 -1</clus>
<clus scale="  196.173">  2  7  1 -1</clus>
<clus scale="  420.845">  1  5  2 -1</clus>
</clustering>
</event>
<event>
 9    1  0.6399313E-006  0.3537436E+03  0.7546771E-02  0.1075405E+00
         21   -1    0    0  501  502  0.00000000000E+00  0.00000000000E+00  0.10881683552E+03  0.10881683552E+03  0.00000000000E+00 0.  1.
          1   -1    0    0  502    0 -0.00000000000E+00 -0.00000000000E+00 -0.12163013672E+04  0.12163013672E+04  0.00000000000E+00 0. -1.
         23    2    1    2    0    0  0.17003737434E+03 -0.13804863270E+03 -0.10225081661E+03  0.25945907215E+03  0.94306134269E+02 0.  0.
         23    2    1    2    0    0 -0.18635019224E+03  0.34324212635E+02 -0.86526173982E+03  0.89068194006E+03  0.93444605158E+02 0.  0.
        -13    1    3    3    0    0  0.74105424699E+02 -0.55614570471E+01 -0.40387494823E+02  0.84579510003E+02  0.00000000000E+00 0. -1.
         13    1    3    3    0    0  0.95931949642E+02 -0.13248717565E+03 -0.61863321782E+02  0.17487956214E+03  0.00000000000E+00 0.  1.
        -13    1    4    4    0    0 -0.13037627791E+02 -0.16676713500E+02 -0.34284631151E+02  0.40293032211E+02  0.00000000000E+00 0.  1.
         13    1    4    4    0    0 -0.17331256445E+03  0.51000926135E+02 -0.83097710867E+03  0.85038890785E+03  0.00000000000E+00 0. -1.
          1    1    1    2  501    0  0.16312817896E+02  0.10372442006E+03 -0.13997197524E+03  0.17497719051E+03  0.00000000000E+00 0. -1.
<scales pt_clust_5="13000.00000" pt_clust_6="13000.00000" pt_clust_7="13000.00000" pt_clust_8="13000.00000" pt_clust_9="13000.00000"></scales>
<clustering>
<clus scale="   93.445">  7  8 -1 -1</clus>
<clus scale="   94.306">  5  6 -1 -1</clus>
<clus scale="  104.999">  7  9 -1 -1</clus>
<clus scale="  238.461">  2  5  1 -1</clus>
<clus scale="  353.744">  1  5  2 -1</clus>
</clustering>
</event>
<event>
 9    1  0.6399313E-006  0.1677668E+03  0.7546771E-02  0.1206473E+00
         21   -1    0    0  501  502  0.00000000000E+00  0.00000000000E+00  0.67937183025E+02  0.67937183025E+02  0.00000000000E+00 0.  1.
         -1   -1    0    0    0  501 -0.00000000000E+00 -0.00000000000E+00 -0.26286215943E+03  0.26286215943E+03  0.00000000000E+00 0.  1.
         23    2    1    2    0    0  0.24969882347E+02 -0.48091945832E+01 -0.10271946952E+03  0.13936384967E+03  0.90688311262E+02 0.  0.
         23    2    1    2    0    0  0.18630098715E+02  0.28128875804E+02 -0.10387695351E+03  0.14063206231E+03  0.88592557515E+02 0.  0.
        -11    1    3    3    0    0 -0.56849940564E+01  0.34249918543E+02 -0.74645531550E+02  0.82324549546E+02  0.00000000000E+00 0. -1.
         11    1    3    3    0    0  0.30654876404E+02 -0.39059113126E+02 -0.28073937970E+02  0.57039300124E+02  0.00000000000E+00 0.  1.
        -11    1    4    4    0    0 -0.52373233298E+01  0.55854976551E+02 -0.47936545214E+02  0.73791058592E+02  0.00000000000E+00 0.  1.
         11    1    4    4    0    0  0.23867422045E+02 -0.27726100747E+02 -0.55940408298E+02  0.66841003720E+02  0.00000000000E+00 0. -1.
         -1    1    1    2    0  502 -0.43599981063E+02 -0.23319681221E+02  0.11671446632E+02  0.50803430469E+02  0.00000000000E+00 0.  1.
<scales pt_clust_5="13000.00000" pt_clust_6="13000.00000" pt_clust_7="13000.00000" pt_clust_8="13000.00000" pt_clust_9="13000.00000"></scales>
<clustering>
<clus scale="   88.593">  7  8 -1 -1</clus>
<clus scale="   49.445">  7  9 -1 -1</clus>
<clus scale="   90.688">  5  6 -1 -1</clus>
<clus scale="   94.186">  2  5  1 -1</clus>
<clus scale="  167.767">  1  5  2 -1</clus>
</clustering>
</event>
<event>
 9    1  0.6399313E-006  0.1615238E+03  0.7546771E-02  0.1213577E+00
         21   -1    0    0  501  502  0.00000000000E+00  0.00000000000E+00  0.55484904045E+02  0.55484904045E+02  0.00000000000E+00 0. -1.
          3   -1    0    0  502    0 -0.00000000000E+00 -0.00000000000E+00 -0.46523560670E+03  0.46523560670E+03  0.00000000000E+00 0. -1.
         23    2    1    2    0    0  0.16349281206E+02  0.78176916378E+01 -0.32678834681E+03  0.33913667050E+03  0.88851799996E+02 0.  0.
         23    2    1    2    0    0  0.94070492753E+01  0.34881184853E+02 -0.88733510291E+02  0.13138534588E+03  0.89907083317E+02 0.  0.
        -11    1    3    3    0    0  0.48414517400E+02  0.15150422921E+02 -0.25733993559E+03  0.26229247656E+03  0.00000000000E+00 0. -1.
         11    1    3    3    0    0 -0.32065236194E+02 -0.73327312833E+01 -0.69448411224E+02  0.76844193937E+02  0.00000000000E+00 0.  1.
        -13    1    4    4    0    0  0.42507956568E+02  0.43591374593E+02 -0.44298312685E+02  0.75295915011E+02  0.00000000000E+00 0. -1.
         13    1    4    4    0    0 -0.33100907293E+02 -0.87101897402E+01 -0.44435197606E+02  0.56089430869E+02  0.00000000000E+00 0.  1.
          3    1    1    2  501    0 -0.25756330481E+02 -0.42698876491E+02  0.57711544494E+01  0.50198494371E+02  0.00000000000E+00 0. -1.
<scales pt_clust_5="13000.00000" pt_clust_6="13000.00000" pt_clust_7="13000.00000" pt_clust_8="13000.00000" pt_clust_9="13000.00000"></scales>
<clustering>
<clus scale="   88.852">  5  6 -1 -1</clus>
<clus scale="   89.907">  7  8 -1 -1</clus>
<clus scale="   49.866">  7  9 -1 -1</clus>
<clus scale="   90.681">  2  5  1 -1</clus>
<clus scale="  161.524">  1  5  2 -1</clus>
</clustering>
</event>
<event>
 9    1  0.6399313E-006  0.1956480E+03  0.7546771E-02  0.1168655E+00
         21   -1    0    0  501  502  0.00000000000E+00  0.00000000000E+00  0.47019861313E+03  0.47019861313E+03  0.00000000000E+00 0.  1.
          1   -1    0    0  502    0 -0.00000000000E+00 -0.00000000000E+00 -0.60020318531E+02  0.60020318531E+02  0.00000000000E+00 0. -1.
         23    2    1    2    0    0 -0.77177727062E+02 -0.69543595016E+02  0.13578468051E+03  0.19321745358E+03  0.90015508357E+02 0.  0.
         23    2    1    2    0    0  0.38883702426E+02  0.18394786658E+02  0.69950815872E+02  0.12280649527E+03  0.91312694345E+02 0.  0.
        -11    1    3    3    0    0 -0.75816732327E+02 -0.88828395008E+01  0.67844977864E+02  0.10212748288E+03  0.00000000000E+00 0. -1.
         11    1    3    3    0    0 -0.13609947350E+01 -0.60660755515E+02  0.67939702651E+02  0.91089970702E+02  0.00000000000E+00 0.  1.
        -13    1    4    4    0    0  0.24295806623E+02  0.54492587819E+02  0.29127853629E+02  0.66393977164E+02  0.00000000000E+00 0. -1.
         13    1    4    4    0    0  0.14587895803E+02 -0.36097801161E+02  0.40822962243E+02  0.56412518105E+02  0.00000000000E+00 0.  1.
          1    1    1    2  501    0  0.38294024636E+02  0.51148808358E+02  0.20444279821E+03  0.21419498280E+03  0.00000000000E+00 0. -1.
<scales pt_clust_5="13000.00000" pt_clust_6="13000.00000" pt_clust_7="13000.00000" pt_clust_8="13000.00000" pt_clust_9="13000.00000"></scales>
<clustering>
<clus scale="   90.016">  5  6 -1 -1</clus>
<clus scale="   91.313">  7  8 -1 -1</clus>
<clus scale="   63.896">  7  9 -1 -1</clus>
<clus scale="  137.461">  2  5  1 -1</clus>
<clus scale="  195.648">  1  5  2 -1</clus>
</clustering>
</event>
<event>
 9    1  0.6399313E-006  0.2478573E+03  0.7546771E-02  0.1152222E+00
         -2   -1    0    0    0  501 -0.00000000000E+00  0.00000000000E+00  0.48040660977E+03  0.48040660977E+03  0.00000000000E+00 0.  1.
         21   -1    0    0  501  502  0.00000000000E+00 -0.00000000000E+00 -0.28218223973E+03  0.28218223973E+03  0.00000000000E+00 0. -1.
         23    2    1    2    0    0  0.33267339610E+02  0.75741614489E+01  0.41906472943E+03  0.43061941271E+03  0.93025519850E+02 0.  0.
         23    2    1    2    0    0 -0.26036892492E+01 -0.29897978489E+02 -0.26008639693E+03  0.27739046902E+03  0.91650805328E+02 0.  0.
        -11    1    3    3    0    0  0.62747595527E+02  0.26075287518E+01  0.34637029058E+03  0.35201766738E+03  0.00000000000E+00 0.  1.
         11    1    3    3    0    0 -0.29480255916E+02  0.49666326972E+01  0.72694438849E+02  0.78601745330E+02  0.00000000000E+00 0. -1.
        -13    1    4    4    0    0  0.35362999278E+02  0.41951310451E+01 -0.51231400515E+02  0.62392285110E+02  0.00000000000E+00 0.  1.
         13    1    4    4    0    0 -0.37966688528E+02 -0.34093109534E+02 -0.20885499642E+03  0.21499818391E+03  0.00000000000E+00 0. -1.
         -2    1    1    2    0  502 -0.30663650361E+02  0.22323817040E+02  0.39246037544E+02  0.54578967777E+02  0.00000000000E+00 0.  1.
<scales pt_clust_5="13000.00000" pt_clust_6="13000.00000" pt_clust_7="13000.00000" pt_clust_8="13000.00000" pt_clust_9="13000.00000"></scales>
<clustering>
<clus scale="   91.651">  7  8 -1 -1</clus>
<clus scale="   37.929">  7  9 -1 -1</clus>
<clus scale="   93.026">  5  6 -1 -1</clus>
<clus scale="   99.085">  1  5  2 -1</clus>
<clus scale="  247.857">  2  5  1 -1</clus>
</clustering>
</event>
<event>
 9    1  0.6399313E-006  0.5497303E+03  0.7546771E-02  0.1051556E+00
          1   -1    0    0  502    0 -0.00000000000E+00  0.00000000000E+00  0.11013450101E+04  0.11013450101E+04  0.00000000000E+00 0. -1.
         21   -1    0    0  501  502  0.00000000000E+00 -0.00000000000E+00 -0.11739046978E+03  0.11739046978E+03  0.00000000000E+00 0. -1.
         23    2    1    2    0    0 -0.26091106264E+02  0.79673046587E+02  0.39179011657E+03  0.41073667520E+03  0.90424447639E+02 0.  0.
         23    2    1    2    0    0  0.10746383299E+03 -0.21263187642E+03  0.59896103065E+03  0.65196750987E+03  0.97706332580E+02 0.  0.
        -11    1    4    4    0    0  0.17633546270E+02 -0.72839008154E+02  0.93112588115E+02  0.11952580110E+03  0.00000000000E+00 0.  1.
         11    1    4    4    0    0  0.89830286716E+02 -0.13979286826E+03  0.50584844254E+03  0.53244170878E+03  0.00000000000E+00 0. -1.
        -13    1    3    3    0    0  0.30052806488E+01  0.91661054587E+02  0.29970734334E+03  0.31342506647E+03  0.00000000000E+00 0. -1.
         13    1    3    3    0    0 -0.29096386913E+02 -0.11988008000E+02  0.92082773238E+02  0.97311608734E+02  0.00000000000E+00 0.  1.
          1    1    1    2  501    0 -0.81372726721E+02  0.13295882983E+03 -0.67966069304E+01  0.15603129478E+03  0.00000000000E+00 0. -1.
<scales pt_clust_5="13000.00000" pt_clust_6="13000.00000" pt_clust_7="13000.00000" pt_clust_8="13000.00000" pt_clust_9="13000.00000"></scales>
<clustering>
<clus scale="   90.424">  7  8 -1 -1</clus>
<clus scale="   97.706">  5  6 -1 -1</clus>
<clus scale="  123.309">  1  7  2 -1</clus>
<clus scale="  164.591">  5  9 -1 -1</clus>
<clus scale="  549.730">  2  5  1 -1</clus>
</clustering>
</event>
<event>
 9    1  0.6399313E-006  0.2984208E+03  0.7546771E-02  0.1095082E+00
         21   -1    0    0  501  502  0.00000000000E+00  0.00000000000E+00  0.25119564647E+03  0.25119564647E+03  0.00000000000E+00 0.  1.
          2   -1    0    0  502    0 -0.00000000000E+00 -0.00000000000E+00 -0.51508441095E+03  0.51508441095E+03  0.00000000000E+00 0. -1.
         23    2    1    2    0    0  0.35242386385E+02  0.21341733677E+03 -0.37940443969E+03  0.44628187000E+03  0.91819350903E+02 0.  0.
         23    2    1    2    0    0  0.59201536311E+02 -0.14502945875E+03  0.57098168948E+02  0.18957901157E+03  0.90231008653E+02 0.  0.
        -13    1    4    4    0    0  0.48321224056E+02 -0.16404042612E+02  0.23575418499E+02  0.56212397794E+02  0.00000000000E+00 0. -1.
         13    1    4    4    0    0  0.10880312255E+02 -0.12862541614E+03  0.33522750448E+02  0.13336661378E+03  0.00000000000E+00 0.  1.
        -13    1    3    3    0    0  0.43691937821E+02  0.14310819201E+03 -0.17658130636E+03  0.23145171809E+03  0.00000000000E+00 0.  1.
         13    1    3    3    0    0 -0.84495514357E+01  0.70309144768E+02 -0.20282313332E+03  0.21483015191E+03  0.00000000000E+00 0. -1.
          2    1    1    2  501    0 -0.94443922696E+02 -0.68387878020E+02  0.58417506251E+02  0.13041917586E+03  0.00000000000E+00 0. -1.
<scales pt_clust_5="13000.00000" pt_clust_6="13000.00000" pt_clust_7="13000.00000" pt_clust_8="13000.00000" pt_clust_9="13000.00000"></scales>
<clustering>
<clus scale="   90.231">  5  6 -1 -1</clus>
<clus scale="   91.819">  7  8 -1 -1</clus>
<clus scale="  116.604">  5  9 -1 -1</clus>
<clus scale="  234.989">  2  7  1 -1</clus>
<clus scale="  298.421">  1  5  2 -1</clus>
</clustering>
</event>
<event>
 9    1  0.6399313E-006  0.2622693E+03  0.7546771E-02  0.1147267E+00
         21   -1    0    0  501  502  0.00000000000E+00  0.00000000000E+00  0.91757531750E+03  0.91757531750E+03  0.00000000000E+00 0. -1.
          1   -1    0    0  502    0 -0.00000000000E+00 -0.00000000000E+00 -0.54241573753E+02  0.54241573753E+02  0.00000000000E+00 0. -1.
         23    2    1    2    0    0 -0.17819815706E+02 -0.92331434966E+00  0.30832285814E+02  0.98980215799E+02  0.92347468455E+02 0.  0.
         23    2    1    2    0    0 -0.72963571370E+01 -0.10086343620E+03  0.28991843663E+03  0.32021772923E+03  0.90884677603E+02 0.  0.
        -11    1    4    4    0    0 -0.37373527076E+02 -0.71096069180E+02  0.11512761931E+03  0.14037734970E+03  0.00000000000E+00 0. -1.
         11    1    4    4    0    0  0.30077169939E+02 -0.29767367016E+02  0.17479081732E+03  0.17984037953E+03  0.00000000000E+00 0.  1.
        -13    1    3    3    0    0  0.13561130592E+02  0.19808775657E+02  0.50953384613E+02  0.56325298574E+02  0.00000000000E+00 0. -1.
         13    1    3    3    0    0 -0.31380946298E+02 -0.20732090007E+02 -0.20121098799E+02  0.42654917225E+02  0.00000000000E+00 0.  1.
          1    1    1    2  501    0  0.25116172843E+02  0.10178675055E+03  0.54258302129E+03  0.55261894622E+03  0.00000000000E+00 0. -1.
<scales pt_clust_5="13000.00000" pt_clust_6="13000.00000" pt_clust_7="13000.00000" pt_clust_8="13000.00000" pt_clust_9="13000.00000"></scales>
<clustering>
<clus scale="   90.885">  5  6 -1 -1</clus>
<clus scale="   92.347">  7  8 -1 -1</clus>
<clus scale="   94.056">  2  7  1 -1</clus>
<clus scale="  103.642">  5  9 -1 -1</clus>
<clus scale="  262.269">  1  5  2 -1</clus>
</clustering>
</event>
<event>
 9    1  0.6399313E-006  0.2789636E+03  0.7546771E-02  0.1121815E+00
          4   -1    0    0  502    0 -0.00000000000E+00  0.00000000000E+00  0.66939548361E+03  0.66939548361E+03  0.00000000000E+00 0. -1.
         21   -1    0    0  501  502  0.00000000000E+00 -0.00000000000E+00 -0.79765654219E+02  0.79765654219E+02  0.00000000000E+00 0. -1.
         23    2    1    2    0    0  0.11185089350E+03  0.60808739910E+01  0.35871288105E+03  0.38702397124E+03  0.92547414212E+02 0.  0.
         23    2    1    2    0    0 -0.26336015716E+01  0.45524069275E+02  0.21845410332E+03  0.24070072423E+03  0.90195713035E+02 0.  0.
        -11    1    3    3    0    0  0.33226728724E+02 -0.36873963593E+02  0.18532371058E+03  0.19185562904E+03  0.00000000000E+00 0.  1.
         11    1    3    3    0    0  0.78624164781E+02  0.42954837584E+02  0.17338917047E+03  0.19516834219E+03  0.00000000000E+00 0. -1.
        -11    1    4    4    0    0 -0.13407658229E+02 -0.19653081370E+02  0.11866317268E+03  0.12102461509E+03  0.00000000000E+00 0.  1.
         11    1    4    4    0    0  0.10774056657E+02  0.65177150645E+02  0.99790930637E+02  0.11967610915E+03  0.00000000000E+00 0. -1.
          4    1    1    2  501    0 -0.10921729193E+03 -0.51604943266E+02  0.12462845029E+02  0.12143644236E+03  0.00000000000E+00 0. -1.
<scales pt_clust_5="13000.00000" pt_clust_6="13000.00000" pt_clust_7="13000.00000" pt_clust_8="13000.00000" pt_clust_9="13000.00000"></scales>
<clustering>
<clus scale="   90.196">  7  8 -1 -1</clus>
<clus scale="   92.547">  5  6 -1 -1</clus>
<clus scale="  120.795">  7  9 -1 -1</clus>
<clus scale="  145.302">  1  5  2 -1</clus>
<clus scale="  278.964">  2  5  1 -1</clus>
</clustering>
</event>
<event>
 9    1  0.6399313E-006  0.2176287E+03  0.7546771E-02  0.1148953E+00
          2   -1    0    0  502    0 -0.00000000000E+00  0.00000000000E+00  0.11150146727E+03  0.11150146727E+03  0.00000000000E+00 0. -1.
         21   -1    0    0  501  502  0.00000000000E+00 -0.00000000000E+00 -0.39058000595E+03  0.39058000595E+03  0.00000000000E+00 0. -1.
         23    2    1    2    0    0 -0.11912632544E+03  0.47196160979E+02 -0.13502216299E+02  0.15872592540E+03  0.92698708317E+02 0.  0.
         23    2    1    2    0    0  0.11441986399E+03  0.24078400404E+01 -0.24300432444E+03  0.28865451686E+03  0.10570064068E+03 0.  0.
        -13    1    4    4    0    0  0.71846943509E+02  0.53264807380E+02 -0.13684558830E+03  0.16348039036E+03  0.00000000000E+00 0. -1.
         13    1    4    4    0    0  0.42572920477E+02 -0.50856967340E+02 -0.10615873614E+03  0.12517412650E+03  0.00000000000E+00 0.  1.
        -13    1    3    3    0    0 -0.49158784174E+01  0.23420323838E+02 -0.32675937181E+02  0.40501781442E+02  0.00000000000E+00 0.  1.
         13    1    3    3    0    0 -0.11421044703E+03  0.23775837141E+02  0.19173720882E+02  0.11822414396E+03  0.00000000000E+00 0. -1.
          2    1    1    2  501    0  0.47064614582E+01 -0.49604001019E+02 -0.22571997946E+02  0.54701030958E+02  0.00000000000E+00 0. -1.
<scales pt_clust_5="13000.00000" pt_clust_6="13000.00000" pt_clust_7="13000.00000" pt_clust_8="13000.00000" pt_clust_9="13000.00000"></scales>
<clustering>
<clus scale="   92.699">  7  8 -1 -1</clus>
<clus scale="  105.701">  5  6 -1 -1</clus>
<clus scale="   49.827">  5  9 -1 -1</clus>
<clus scale="  158.151">  1  7  2 -1</clus>
<clus scale="  217.629">  2  5  1 -1</clus>
</clustering>
</event>
<event>
 9    1  0.6399313E-006  0.7921459E+03  0.7546771E-02  0.9960861E-01
         21   -1    0    0  501  502  0.00000000000E+00  0.00000000000E+00  0.10285132733E+04  0.10285132733E+04  0.00000000000E+00 0. -1.
          1   -1    0    0  502    0 -0.00000000000E+00 -0.00000000000E+00 -0.34221812013E+03  0.34221812013E+03  0.00000000000E+00 0. -1.
         23    2    1    2    0    0  0.61477363044E+02 -0.18906327861E+03 -0.11257713573E+03  0.24570158711E+03  0.90395071415E+02 0.  0.
         23    2    1    2    0    0 -0.16585521906E+03  0.40672936290E+03  0.22379060381E+03  0.50133740971E+03  0.91215325897E+02 0.  0.
        -11    1    4    4    0    0 -0.56736568131E+02  0.25506282337E+03  0.11903081845E+03  0.28713135978E+03  0.00000000000E+00 0.  1.
         11    1    4    4    0    0 -0.10911865093E+03  0.15166653953E+03  0.10475978537E+03  0.21420604992E+03  0.00000000000E+00 0. -1.
        -11    1    3    3    0    0 -0.19783720363E+01 -0.84681505024E+02 -0.85955178878E+02  0.12067793512E+03  0.00000000000E+00 0. -1.
         11    1    3    3    0    0  0.63455735080E+02 -0.10438177358E+03 -0.26621956853E+02  0.12502365199E+03  0.00000000000E+00 0.  1.
          1    1    1    2  501    0  0.10437785602E+03 -0.21766608430E+03  0.57508168511E+03  0.62369239664E+03  0.00000000000E+00 0. -1.
<scales pt_clust_5="13000.00000" pt_clust_6="13000.00000" pt_clust_7="13000.00000" pt_clust_8="13000.00000" pt_clust_9="13000.00000"></scales>
<clustering>
<clus scale="   90.395">  7  8 -1 -1</clus>
<clus scale="   91.215">  5  6 -1 -1</clus>
<clus scale="  218.393">  2  7  1 -1</clus>
<clus scale="  270.797">  5  9 -1 -1</clus>
<clus scale="  792.146">  1  5  2 -1</clus>
</clustering>
</event>
<event>
 9    1  0.6399313E-006  0.2004407E+03  0.7546771E-02  0.1170491E+00
          1   -1    0    0  502    0 -0.00000000000E+00  0.00000000000E+00  0.94606718564E+02  0.94606718564E+02  0.00000000000E+00 0. -1.
         21   -1    0    0  501  502  0.00000000000E+00 -0.00000000000E+00 -0.44866231733E+03  0.44866231733E+03  0.00000000000E+00 0. -1.
         23    2    1    2    0    0  0.79994668539E+02 -0.20147660534E+02  0.14808138312E+02  0.12346319147E+03  0.90657616719E+02 0.  0.
         23    2    1    2    0    0  0.49816888108E+01  0.13103339141E+02 -0.97486919321E+02  0.13534849966E+03  0.92838581425E+02 0.  0.
        -13    1    4    4    0    0 -0.40358974969E+02 -0.54200074649E+01 -0.64564451905E+02  0.76333425124E+02  0.00000000000E+00 0.  1.
         13    1    4    4    0    0  0.45340663780E+02  0.18523346606E+02 -0.32922467416E+02  0.59015074534E+02  0.00000000000E+00 0. -1.
        -13    1    3    3    0    0 -0.70310823374E+01 -0.20612209916E+02 -0.20156858552E+02  0.29674875958E+02  0.00000000000E+00 0.  1.
         13    1    3    3    0    0  0.87025750877E+02  0.46454938177E+00  0.34964996864E+02  0.93788315517E+02  0.00000000000E+00 0. -1.
          1    1    1    2  501    0 -0.84976357350E+02  0.70443213929E+01 -0.27137681776E+03  0.28445734476E+03  0.00000000000E+00 0. -1.
<scales pt_clust_5="13000.00000" pt_clust_6="13000.00000" pt_clust_7="13000.00000" pt_clust_8="13000.00000" pt_clust_9="13000.00000"></scales>
<clustering>
<clus scale="   90.658">  7  8 -1 -1</clus>
<clus scale="   92.839">  5  6 -1 -1</clus>
<clus scale="   85.268">  5  9 -1 -1</clus>
<clus scale="  122.572">  1  7  2 -1</clus>
<clus scale="  200.441">  2  5  1 -1</clus>
</clustering>
</event>
<event>
 9    1  0.6399313E-006  0.2778286E+03  0.7546771E-02  0.1125232E+00
         21   -1    0    0  501  502  0.00000000000E+00  0.00000000000E+00  0.14313121020E+03  0.14313121020E+03  0.00000000000E+00 0. -1.
          2   -1    0    0  502    0 -0.00000000000E+00 -0.00000000000E+00 -0.32153587278E+03  0.32153587278E+03  0.00000000000E+00 0. -1.
         23    2    1    2    0    0  0.97794359760E+02  0.14183199029E+02 -0.12012280202E+03  0.18079123035E+03  0.92147064354E+02 0.  0.
         23    2    1    2    0    0 -0.10603597525E+03  0.48809429379E+02  0.51602678871E+02  0.15694828485E+03  0.91345165204E+02 0.  0.
        -11    1    3    3    0    0  0.37372786122E+02 -0.19566493238E+02 -0.31669176853E-01  0.42184994999E+02  0.00000000000E+00 0.  1.
         11    1    3    3    0    0  0.60421573638E+02  0.33749692267E+02 -0.12009113285E+03  0.13860623535E+03  0.00000000000E+00 0. -1.
        -11    1    4    4    0    0 -0.32197311659E+02  0.55669030161E+02  0.52138598709E+02  0.82789741348E+02  0.00000000000E+00 0. -1.
         11    1    4    4    0    0 -0.73838663591E+02 -0.68596007824E+01 -0.53591983741E+00  0.74158543499E+02  0.00000000000E+00 0.  1.
          2    1    1    2  501    0  0.82416154900E+01 -0.62992628408E+02 -0.10988453943E+03  0.12692756779E+03  0.00000000000E+00 0. -1.
<scales pt_clust_5="13000.00000" pt_clust_6="13000.00000" pt_clust_7="13000.00000" pt_clust_8="13000.00000" pt_clust_9="13000.00000"></scales>
<clustering>
<clus scale="   91.345">  7  8 -1 -1</clus>
<clus scale="   63.530">  7  9 -1 -1</clus>
<clus scale="   92.147">  5  6 -1 -1</clus>
<clus scale="  135.115">  2  5  1 -1</clus>
<clus scale="  277.829">  1  5  2 -1</clus>
</clustering>
</event>
<event>
 9    1  0.6399313E-006  0.2509799E+03  0.7546771E-02  0.1137248E+00
         21   -1    0    0  501  502  0.00000000000E+00  0.00000000000E+00  0.72588489684E+02  0.72588489684E+02  0.00000000000E+00 0. -1.
          4   -1    0    0  502    0 -0.00000000000E+00 -0.00000000000E+00 -0.72260314619E+03  0.72260314619E+03  0.00000000000E+00 0. -1.
         23    2    1    2    0    0  0.93017270858E+02  0.39347695012E+02 -0.46157228033E+03  0.48134225847E+03  0.91874621291E+02 0.  0.
         23    2    1    2    0    0  0.22408511655E+02  0.37274723016E+02 -0.12598211619E+03  0.16187770146E+03  0.91876821119E+02 0.  0.
        -11    1    3    3    0    0  0.57038534467E+02  0.69258875985E+02 -0.29921421999E+03  0.31237691298E+03  0.00000000000E+00 0. -1.
         11    1    3    3    0    0  0.35978736391E+02 -0.29911180973E+02 -0.16235806034E+03  0.16896534549E+03  0.00000000000E+00 0.  1.
        -13    1    4    4    0    0 -0.38738736606E+01 -0.28215613998E+02 -0.54145289317E+02  0.61178755509E+02  0.00000000000E+00 0.  1.
         13    1    4    4    0    0  0.26282385316E+02  0.65490337013E+02 -0.71836826872E+02  0.10069894595E+03  0.00000000000E+00 0. -1.
          4    1    1    2  501    0 -0.11542578251E+03 -0.76622418027E+02 -0.62460259986E+02  0.15197167595E+03  0.00000000000E+00 0. -1.
<scales pt_clust_5="13000.00000" pt_clust_6="13000.00000" pt_clust_7="13000.00000" pt_clust_8="13000.00000" pt_clust_9="13000.00000"></scales>
<clustering>
<clus scale="   91.875">  5  6 -1 -1</clus>
<clus scale="   91.877">  7  8 -1 -1</clus>
<clus scale="  136.534">  2  5  1 -1</clus>
<clus scale="   96.498">  7  9 -1 -1</clus>
<clus scale="  250.980">  1  5  2 -1</clus>
</clustering>
</event>
<event>
 9    1  0.6399313E-006  0.2824278E+03  0.7546771E-02  0.1116580E+00
         21   -1    0    0  501  502  0.00000000000E+00  0.00000000000E+00  0.45473672686E+02  0.45473672686E+02  0.00000000000E+00 0. -1.
          1   -1    0    0  502    0 -0.00000000000E+00 -0.00000000000E+00 -0.11221385490E+04  0.11221385490E+04  0.00000000000E+00 0. -1.
         23    2    1    2    0    0  0.11362307191E+03 -0.63321348622E+02 -0.27924648254E+03  0.32165621461E+03  0.92543647670E+02 0.  0.
         23    2    1    2    0    0 -0.12500357427E+03  0.17973079480E+02 -0.78127144208E+03  0.79649182409E+03  0.89806650480E+02 0.  0.
        -11    1    4    4    0    0 -0.18604266685E+02 -0.32304765792E+02 -0.18503875026E+03  0.18875660447E+03  0.00000000000E+00 0. -1.
         11    1    4    4    0    0 -0.10639930759E+03  0.50277845271E+02 -0.59623269182E+03  0.60773521962E+03  0.00000000000E+00 0.  1.
        -11    1    3    3    0    0  0.28837231160E+02  0.24124362824E+02 -0.73566989953E+02  0.82617630040E+02  0.00000000000E+00 0.  1.
         11    1    3    3    0    0  0.84785840750E+02 -0.87445711447E+02 -0.20567949259E+03  0.23903858457E+03  0.00000000000E+00 0. -1.
          1    1    1    2  501    0  0.11380502363E+02  0.45348269143E+02 -0.16146951679E+02  0.49464182969E+02  0.00000000000E+00 0. -1.
<scales pt_clust_5="13000.00000" pt_clust_6="13000.00000" pt_clust_7="13000.00000" pt_clust_8="13000.00000" pt_clust_9="13000.00000"></scales>
<clustering>
<clus scale="   89.807">  5  6 -1 -1</clus>
<clus scale="   46.755">  5  9 -1 -1</clus>
<clus scale="   92.544">  7  8 -1 -1</clus>
<clus scale="  159.638">  2  7  1 -1</clus>
<clus scale="  282.428">  1  5  2 -1</clus>
</clustering>
</event>
<event>
 9    1  0.6399313E-006  0.3514810E+03  0.7546771E-02  0.1101673E+00
         21   -1    0    0  501  502  0.00000000000E+00  0.00000000000E+00  0.42372990883E+03  0.42372990883E+03  0.00000000000E+00 0. -1.
          4   -1    0    0  502    0 -0.00000000000E+00 -0.00000000000E+00 -0.24438452531E+03  0.24438452531E+03  0.00000000000E+00 0. -1.
         23    2    1    2    0    0  0.66388881167E+02 -0.35625995384E+02 -0.14561958521E+03  0.18942755075E+03  0.94873801951E+02 0.  0.
         23    2    1    2    0    0  0.10070726211E+02 -0.20269618307E+02 -0.39820067381E+02  0.10180691077E+03  0.90921572591E+02 0.  0.
        -13    1    3    3    0    0  0.86831043168E+02 -0.16445344287E+02 -0.13041494657E+03  0.15753773419E+03  0.00000000000E+00 0. -1.
         13    1    3    3    0    0 -0.20442162000E+02 -0.19180651096E+02 -0.15204638637E+02  0.31889816553E+02  0.00000000000E+00 0.  1.
        -13    1    4    4    0    0  0.21549090548E+02 -0.48679030052E+02 -0.46225458221E+02  0.70503930798E+02  0.00000000000E+00 0.  1.
         13    1    4    4    0    0 -0.11478364337E+02  0.28409411745E+02  0.64053908398E+01  0.31302979976E+02  0.00000000000E+00 0. -1.
          4    1    1    2  501    0 -0.76459607379E+02  0.55895613691E+02  0.36478503611E+03  0.37687997261E+03  0.00000000000E+00 0. -1.
<scales pt_clust_5="13000.00000" pt_clust_6="13000.00000" pt_clust_7="13000.00000" pt_clust_8="13000.00000" pt_clust_9="13000.00000"></scales>
<clustering>
<clus scale="   90.922">  7  8 -1 -1</clus>
<clus scale="   94.712">  7  9 -1 -1</clus>
<clus scale="   94.874">  5  6 -1 -1</clus>
<clus scale="  121.152">  2  5  1 -1</clus>
<clus scale="  351.481">  1  5  2 -1</clus>
</clustering>
</event>
<event>
 9    1  0.6399313E-006  0.2779816E+03  0.7546771E-02  0.1111764E+00
          1   -1    0    0  502    0 -0.00000000000E+00  0.00000000000E+00  0.14714953755E+03  0.14714953755E+03  0.00000000000E+00 0. -1.
         21   -1    0    0  501  502  0.00000000000E+00 -0.00000000000E+00 -0.43964142992E+03  0.43964142992E+03  0.00000000000E+00 0. -1.
         23    2    1    2    0    0 -0.15555365785E+03  0.57670778165E+02 -0.83356577576E+01  0.18927554672E+03  0.90735275770E+02 0.  0.
         23    2    1    2    0    0 -0.10446189929E+02 -0.60874507402E+02 -0.11171166128E+03  0.15813425145E+03  0.93338725515E+02 0.  0.
        -11    1    4    4    0    0  0.25621341229E+02 -0.30955972996E+02 -0.36497970381E+01  0.40349057100E+02  0.00000000000E+00 0.  1.
         11    1    4    4    0    0 -0.36067531158E+02 -0.29918534407E+02 -0.10806186424E+03  0.11778519435E+03  0.00000000000E+00 0. -1.
        -13    1    3    3    0    0 -0.25818011298E+02  0.50114572389E+02  0.12277064781E+02  0.57695462497E+02  0.00000000000E+00 0.  1.
         13    1    3    3    0    0 -0.12973564655E+03  0.75562057762E+01 -0.20612722539E+02  0.13158008422E+03  0.00000000000E+00 0. -1.
          1    1    1    2  501    0  0.16599984778E+03  0.32037292368E+01 -0.17244457333E+03  0.23938116930E+03  0.00000000000E+00 0. -1.
<scales pt_clust_5="13000.00000" pt_clust_6="13000.00000" pt_clust_7="13000.00000" pt_clust_8="13000.00000" pt_clust_9="13000.00000"></scales>
<clustering>
<clus scale="   90.735">  7  8 -1 -1</clus>
<clus scale="   93.339">  5  6 -1 -1</clus>
<clus scale="  166.031">  5  9 -1 -1</clus>
<clus scale="  189.092">  1  7  2 -1</clus>
<clus scale="  277.982">  2  5  1 -1</clus>
</clustering>
</event>
<event>
 9    1  0.6399313E-006  0.2512529E+03  0.7546771E-02  0.1139732E+00
         21   -1    0    0  501  502  0.00000000000E+00  0.00000000000E+00  0.34521872593E+02  0.34521872593E+02  0.00000000000E+00 0. -1.
          2   -1    0    0  502    0 -0.00000000000E+00 -0.00000000000E+00 -0.10569116043E+04  0.10569116043E+04  0.00000000000E+00 0. -1.
         23    2    1    2    0    0 -0.32109297399E+02 -0.81755851755E+02 -0.40803681902E+03  0.42768842235E+03  0.93318351126E+02 0.  0.
         23    2    1    2    0    0 -0.64551084128E+02  0.56257867149E+02 -0.48243831226E+03  0.49823119296E+03  0.90309503469E+02 0.  0.
        -11    1    3    3    0    0  0.10840208039E+02 -0.43048502856E+02 -0.58682821524E+02  0.73582316153E+02  0.00000000000E+00 0.  1.
         11    1    3    3    0    0 -0.42949505438E+02 -0.38707348899E+02 -0.34935399750E+03  0.35410610619E+03  0.00000000000E+00 0. -1.
        -13    1    4    4    0    0 -0.20187825003E+02 -0.14426948717E+02 -0.33986515651E+02  0.42080498734E+02  0.00000000000E+00 0. -1.
         13    1    4    4    0    0 -0.44363259126E+02  0.70684815866E+02 -0.44845179661E+03  0.45615069422E+03  0.00000000000E+00 0.  1.
          2    1    1    2  501    0  0.96660381527E+02  0.25497984606E+02 -0.13191460045E+03  0.16551386162E+03  0.00000000000E+00 0. -1.
<scales pt_clust_5="13000.00000" pt_clust_6="13000.00000" pt_clust_7="13000.00000" pt_clust_8="13000.00000" pt_clust_9="13000.00000"></scales>
<clustering>
<clus scale="   90.310">  7  8 -1 -1</clus>
<clus scale="   93.318">  5  6 -1 -1</clus>
<clus scale="   99.967">  7  9 -1 -1</clus>
<clus scale="  128.154">  2  5  1 -1</clus>
<clus scale="  251.253">  1  5  2 -1</clus>
</clustering>
</event>
<event>
 9    1  0.6399313E-006  0.3692477E+03  0.7546771E-02  0.1087654E+00
         21   -1    0    0  501  502  0.00000000000E+00  0.00000000000E+00  0.98982245342E+02  0.98982245342E+02  0.00000000000E+00 0. -1.
          2   -1    0    0  502    0 -0.00000000000E+00 -0.00000000000E+00 -0.71159508501E+03  0.71159508501E+03  0.00000000000E+00 0. -1.
         23    2    1    2    0    0 -0.80693757251E+02 -0.90447912306E+02 -0.25649291635E+03  0.29758095972E+03  0.89852680258E+02 0.  0.
         23    2    1    2    0    0 -0.19788077244E+02 -0.19607675527E+01 -0.36499566436E+03  0.37619453601E+03  0.88910524203E+02 0.  0.
        -11    1    4    4    0    0 -0.48360820908E+02 -0.13842768659E+02 -0.30024146579E+03  0.30442622920E+03  0.00000000000E+00 0. -1.
         11    1    4    4    0    0  0.28572743665E+02  0.11882001106E+02 -0.64754198564E+02  0.71768306811E+02  0.00000000000E+00 0.  1.
        -13    1    3    3    0    0 -0.30666486203E+02  0.14871554958E+02 -0.64681216961E+02  0.73111260080E+02  0.00000000000E+00 0.  1.
         13    1    3    3    0    0 -0.50027271048E+02 -0.10531946726E+03 -0.19181169939E+03  0.22446969964E+03  0.00000000000E+00 0. -1.
          2    1    1    2  501    0  0.10048183449E+03  0.92408679858E+02  0.88757410411E+01  0.13680183462E+03  0.00000000000E+00 0. -1.
<scales pt_clust_5="13000.00000" pt_clust_6="13000.00000" pt_clust_7="13000.00000" pt_clust_8="13000.00000" pt_clust_9="13000.00000"></scales>
<clustering>
<clus scale="   88.911">  5  6 -1 -1</clus>
<clus scale="   89.853">  7  8 -1 -1</clus>
<clus scale="  136.514">  5  9 -1 -1</clus>
<clus scale="  150.883">  2  7  1 -1</clus>
<clus scale="  369.248">  1  5  2 -1</clus>
</clustering>
</event>
<event>
 9    1  0.6399313E-006  0.2222497E+03  0.7546771E-02  0.1165845E+00
          2   -1    0    0  502    0 -0.00000000000E+00  0.00000000000E+00  0.95753928349E+03  0.95753928349E+03  0.00000000000E+00 0. -1.
         21   -1    0    0  501  502  0.00000000000E+00 -0.00000000000E+00 -0.28309633735E+02  0.28309633735E+02  0.00000000000E+00 0.  1.
         23    2    1    2    0    0  0.59475830437E+01  0.37519695682E+02  0.38977625744E+03  0.40240662049E+03  0.92533540080E+02 0.  0.
         23    2    1    2    0    0 -0.62532053039E+02  0.46984598051E+02  0.28047849558E+03  0.30521437750E+03  0.91486718377E+02 0.  0.
        -11    1    4    4    0    0 -0.68448803041E+02  0.66761907345E+02  0.19369730241E+03  0.21601165679E+03  0.00000000000E+00 0.  1.
         11    1    4    4    0    0  0.59167500020E+01 -0.19777309294E+02  0.86781193174E+02  0.89202720710E+02  0.00000000000E+00 0. -1.
        -13    1    3    3    0    0  0.28472235242E+02  0.60859797499E+02  0.24545878156E+03  0.25448889284E+03  0.00000000000E+00 0.  1.
         13    1    3    3    0    0 -0.22524652199E+02 -0.23340101817E+02  0.14431747588E+03  0.14791772765E+03  0.00000000000E+00 0. -1.
          2    1    1    2  501    0  0.56584469995E+02 -0.84504293733E+02  0.25897489674E+03  0.27822791924E+03  0.00000000000E+00 0. -1.
<scales pt_clust_5="13000.00000" pt_clust_6="13000.00000" pt_clust_7="13000.00000" pt_clust_8="13000.00000" pt_clust_9="13000.00000"></scales>
<clustering>
<clus scale="   91.487">  5  6 -1 -1</clus>
<clus scale="   92.534">  7  8 -1 -1</clus>
<clus scale="  100.028">  1  7  2 -1</clus>
<clus scale="   89.227">  5  9 -1 -1</clus>
<clus scale="  222.250">  2  5  1 -1</clus>
</clustering>
</event>
<event>
 9    1  0.6399313E-006  0.1627148E+03  0.7546771E-02  0.1200561E+00
         -1   -1    0    0    0  501 -0.00000000000E+00  0.00000000000E+00  0.26228565709E+03  0.26228565709E+03  0.00000000000E+00 0.  1.
         21   -1    0    0  501  502  0.00000000000E+00 -0.00000000000E+00 -0.75357567474E+02  0.75357567474E+02  0.00000000000E+00 0.  1.
         23    2    1    2    0    0 -0.55595862451E+02 -0.42768821396E+02  0.93640021214E+02  0.15008319434E+03  0.94002338507E+02 0.  0.
         23    2    1    2    0    0  0.52738929066E+01  0.65665375305E+02  0.71307635213E+02  0.12806471744E+03  0.83522676882E+02 0.  0.
        -11    1    3    3    0    0 -0.44635313895E+02 -0.61304172470E+02  0.10189968461E+03  0.12701991392E+03  0.00000000000E+00 0.  1.
         11    1    3    3    0    0 -0.10960548555E+02  0.18535351075E+02 -0.82596633985E+01  0.23063280416E+02  0.00000000000E+00 0. -1.
        -13    1    4    4    0    0  0.31231228160E+02 -0.44843462600E+01  0.19868707274E+02  0.37286250851E+02  0.00000000000E+00 0. -1.
         13    1    4    4    0    0 -0.25957335254E+02  0.70149721565E+02  0.51438927939E+02  0.90778466591E+02  0.00000000000E+00 0.  1.
         -1    1    1    2    0  502  0.50321969544E+02 -0.22896553909E+02  0.21980433185E+02  0.59495312780E+02  0.00000000000E+00 0.  1.
<scales pt_clust_5="13000.00000" pt_clust_6="13000.00000" pt_clust_7="13000.00000" pt_clust_8="13000.00000" pt_clust_9="13000.00000"></scales>
<clustering>
<clus scale="   83.523">  7  8 -1 -1</clus>
<clus scale="   55.286">  7  9 -1 -1</clus>
<clus scale="   94.002">  5  6 -1 -1</clus>
<clus scale="  117.288">  1  5  2 -1</clus>
<clus scale="  162.715">  2  5  1 -1</clus>
</clustering>
</event>
<event>
 9    1  0.6399313E-006  0.2709664E+03  0.7546771E-02  0.1124644E+00
          1   -1    0    0  502    0 -0.00000000000E+00  0.00000000000E+00  0.46517206741E+03  0.46517206741E+03  0.00000000000E+00 0. -1.
         21   -1    0    0  501  502  0.00000000000E+00 -0.00000000000E+00 -0.14959501093E+03  0.14959501093E+03  0.00000000000E+00 0. -1.
         23    2    1    2    0    0 -0.10873585761E+03  0.42656192252E+02 -0.53267374366E+02  0.15708924932E+03  0.90534974536E+02 0.  0.
         23    2    1    2    0    0  0.52218752590E+02 -0.77081563886E+00  0.37235684964E+03  0.38724413666E+03  0.92633717505E+02 0.  0.
        -11    1    4    4    0    0  0.11373224525E+02 -0.44692830480E+02  0.17497680717E+03  0.18095215494E+03  0.00000000000E+00 0.  1.
         11    1    4    4    0    0  0.40845528065E+02  0.43922014841E+02  0.19738004248E+03  0.20629198171E+03  0.00000000000E+00 0. -1.
        -13    1    3    3    0    0 -0.91631864578E+02  0.66451485375E+02 -0.24069842612E+02  0.11572189006E+03  0.00000000000E+00 0. -1.
         13    1    3    3    0    0 -0.17103993030E+02 -0.23795293123E+02 -0.29197531754E+02  0.41367359269E+02  0.00000000000E+00 0.  1.
          1    1    1    2  501    0  0.56517105019E+02 -0.41885376613E+02 -0.35124188013E+01  0.70433692361E+02  0.00000000000E+00 0. -1.
<scales pt_clust_5="13000.00000" pt_clust_6="13000.00000" pt_clust_7="13000.00000" pt_clust_8="13000.00000" pt_clust_9="13000.00000"></scales>
<clustering>
<clus scale="   90.535">  7  8 -1 -1</clus>
<clus scale="   92.634">  5  6 -1 -1</clus>
<clus scale="   70.346">  5  9 -1 -1</clus>
<clus scale="  147.782">  1  7  2 -1</clus>
<clus scale="  270.966">  2  5  1 -1</clus>
</clustering>
</event>
<event>
 9    1  0.6399313E-006  0.1791258E+03  0.7546771E-02  0.1183197E+00
         -1   -1    0    0    0  501 -0.00000000000E+00  0.00000000000E+00  0.18821750622E+03  0.18821750622E+03  0.00000000000E+00 0.  1.
         21   -1    0    0  501  502  0.00000000000E+00 -0.00000000000E+00 -0.20475833896E+03  0.20475833896E+03  0.00000000000E+00 0. -1.
         23    2    1    2    0    0 -0.89024560235E+02  0.18003390871E+01 -0.12829941745E+03  0.18184549318E+03  0.93158087811E+02 0.  0.
         23    2    1    2    0    0  0.49996268153E+01 -0.16896766799E+02  0.71561886533E+02  0.11677005256E+03  0.90573972937E+02 0.  0.
        -11    1    3    3    0    0 -0.45935053965E+02  0.28653447208E+02 -0.11829785307E+03  0.13009777578E+03  0.00000000000E+00 0. -1.
         11    1    3    3    0    0 -0.43089506271E+02 -0.26853108121E+02 -0.10001564378E+02  0.51747717403E+02  0.00000000000E+00 0.  1.
        -11    1    4    4    0    0 -0.27530993425E+02  0.25346302613E+02  0.40160050051E+02  0.54892807136E+02  0.00000000000E+00 0. -1.
         11    1    4    4    0    0  0.32530620240E+02 -0.42243069412E+02  0.31401836482E+02  0.61877245422E+02  0.00000000000E+00 0.  1.
         -1    1    1    2    0  502  0.84024933420E+02  0.15096427712E+02  0.40196698183E+02  0.94360299442E+02  0.00000000000E+00 0.  1.
<scales pt_clust_5="13000.00000" pt_clust_6="13000.00000" pt_clust_7="13000.00000" pt_clust_8="13000.00000" pt_clust_9="13000.00000"></scales>
<clustering>
<clus scale="   90.574">  7  8 -1 -1</clus>
<clus scale="   85.370">  7  9 -1 -1</clus>
<clus scale="   93.158">  5  6 -1 -1</clus>
<clus scale="  128.868">  1  5  2 -1</clus>
<clus scale="  179.126">  2  5  1 -1</clus>
</clustering>
</event>
<event>
 9    1  0.6399313E-006  0.2055735E+03  0.7546771E-02  0.1163567E+00
         -4   -1    0    0    0  501 -0.00000000000E+00  0.00000000000E+00  0.11343324947E+03  0.11343324947E+03  0.00000000000E+00 0.  1.
         21   -1    0    0  501  502  0.00000000000E+00 -0.00000000000E+00 -0.28269115159E+03  0.28269115159E+03  0.00000000000E+00 0.  1.
         23    2    1    2    0    0  0.97956101483E+02  0.15372536566E+02 -0.55696029324E+01  0.13334246919E+03  0.88980227661E+02 0.  0.
         23    2    1    2    0    0 -0.91023733142E+01 -0.34070879456E+02 -0.26679870254E+02  0.98416720715E+02  0.87922451130E+02 0.  0.
        -11    1    4    4    0    0  0.22786834370E+02 -0.46438825224E+02 -0.35932479649E+02  0.62983707438E+02  0.00000000000E+00 0.  1.
         11    1    4    4    0    0 -0.31889207684E+02  0.12367945769E+02  0.92526093955E+01  0.35433013277E+02  0.00000000000E+00 0. -1.
        -11    1    3    3    0    0  0.48931644572E+02  0.42472705567E+02  0.25093118880E+02  0.69483099915E+02  0.00000000000E+00 0.  1.
         11    1    3    3    0    0  0.49024456911E+02 -0.27100169000E+02 -0.30662721813E+02  0.63859369276E+02  0.00000000000E+00 0. -1.
         -4    1    1    2    0  502 -0.88853728169E+02  0.18698342889E+02 -0.13700842894E+03  0.16436521115E+03  0.00000000000E+00 0.  1.
<scales pt_clust_5="13000.00000" pt_clust_6="13000.00000" pt_clust_7="13000.00000" pt_clust_8="13000.00000" pt_clust_9="13000.00000"></scales>
<clustering>
<clus scale="   87.922">  5  6 -1 -1</clus>
<clus scale="   88.980">  7  8 -1 -1</clus>
<clus scale="   90.800">  5  9 -1 -1</clus>
<clus scale="  133.226">  1  7  2 -1</clus>
<clus scale="  205.574">  2  5  1 -1</clus>
</clustering>
</event>
<event>
 9    1  0.6399313E-006  0.2422973E+03  0.7546771E-02  0.1154133E+00
         21   -1    0    0  501  502  0.00000000000E+00  0.00000000000E+00  0.39370218614E+02  0.39370218614E+02  0.00000000000E+00 0. -1.
          2   -1    0    0  502    0 -0.00000000000E+00 -0.00000000000E+00 -0.80455665282E+03  0.80455665282E+03  0.00000000000E+00 0. -1.
         23    2    1    2    0    0 -0.15953882394E+02  0.41709927429E+02 -0.33718488411E+03  0.35210035702E+03  0.91031702893E+02 0.  0.
         23    2    1    2    0    0  0.93537030683E+02 -0.37373693813E+02 -0.37392058557E+03  0.39715498467E+03  0.88144815136E+02 0.  0.
        -11    1    3    3    0    0 -0.51753073293E+02  0.83533539338E+01 -0.17942659199E+03  0.18692795679E+03  0.00000000000E+00 0.  1.
         11    1    3    3    0    0  0.35799190900E+02  0.33356573496E+02 -0.15775829212E+03  0.16517240023E+03  0.00000000000E+00 0. -1.
        -13    1    4    4    0    0  0.87113018193E+02 -0.26716994301E+01 -0.32716913574E+03  0.33857858659E+03  0.00000000000E+00 0.  1.
         13    1    4    4    0    0  0.64240124903E+01 -0.34701994383E+02 -0.46751449832E+02  0.58576398080E+02  0.00000000000E+00 0. -1.
          2    1    1    2  501    0 -0.77583148290E+02 -0.43362336167E+01 -0.54080964529E+02  0.94671529748E+02  0.00000000000E+00 0. -1.
<scales pt_clust_5="13000.00000" pt_clust_6="13000.00000" pt_clust_7="13000.00000" pt_clust_8="13000.00000" pt_clust_9="13000.00000"></scales>
<clustering>
<clus scale="   88.145">  7  8 -1 -1</clus>
<clus scale="   77.704">  7  9 -1 -1</clus>
<clus scale="   91.032">  5  6 -1 -1</clus>
<clus scale="  101.395">  2  5  1 -1</clus>
<clus scale="  242.297">  1  5  2 -1</clus>
</clustering>
</event>
<event>
 9    1  0.6399313E-006  0.2240487E+03  0.7546771E-02  0.1156435E+00
         21   -1    0    0  501  502  0.00000000000E+00  0.00000000000E+00  0.44615560918E+03  0.44615560918E+03  0.00000000000E+00 0. -1.
          2   -1    0    0  502    0 -0.00000000000E+00 -0.00000000000E+00 -0.58845347700E+03  0.58845347700E+03  0.00000000000E+00 0. -1.
         23    2    1    2    0    0 -0.14956050592E+02 -0.77935806951E+02 -0.55331273389E+03  0.56649473524E+03  0.91997989741E+02 0.  0.
         23    2    1    2    0    0 -0.76047254319E+02  0.35311455066E+02  0.21798069059E+03  0.25048937587E+03  0.90549777488E+02 0.  0.
        -11    1    4    4    0    0 -0.41785446725E+02  0.45342890504E+02  0.51841112696E+02  0.80557446849E+02  0.00000000000E+00 0.  1.
         11    1    4    4    0    0 -0.34261807593E+02 -0.10031435437E+02  0.16613957790E+03  0.16993192902E+03  0.00000000000E+00 0. -1.
        -13    1    3    3    0    0 -0.53627039180E+02 -0.38899782481E+02 -0.32208325906E+03  0.32882621272E+03  0.00000000000E+00 0.  1.
         13    1    3    3    0    0  0.38670988588E+02 -0.39036024470E+02 -0.23122947483E+03  0.23766852252E+03  0.00000000000E+00 0. -1.
          2    1    1    2  501    0  0.91003304911E+02  0.42624351885E+02  0.19303417547E+03  0.21762497508E+03  0.00000000000E+00 0. -1.
<scales pt_clust_5="13000.00000" pt_clust_6="13000.00000" pt_clust_7="13000.00000" pt_clust_8="13000.00000" pt_clust_9="13000.00000"></scales>
<clustering>
<clus scale="   90.550">  5  6 -1 -1</clus>
<clus scale="   91.998">  7  8 -1 -1</clus>
<clus scale="  100.491">  5  9 -1 -1</clus>
<clus scale="  121.496">  2  7  1 -1</clus>
<clus scale="  224.049">  1  5  2 -1</clus>
</clustering>
</event>
<event>
 9    1  0.1482223E-005  0.1439777E+04  0.7546771E-02  0.9608845E-01
          2   -1    0    0  502    0 -0.00000000000E+00  0.00000000000E+00  0.11631636133E+04  0.11631636133E+04  0.00000000000E+00 0. -1.
         21   -1    0    0  501  502  0.00000000000E+00 -0.00000000000E+00 -0.57692757791E+03  0.57692757791E+03  0.00000000000E+00 0. -1.
         23    2    1    2    0    0  0.41794989723E+02  0.60976410478E+02  0.22890143217E+03  0.25663362282E+03  0.89442757746E+02 0.  0.
         23    2    1    2    0    0 -0.11852139664E+03 -0.10135546089E+03  0.90813614343E+03  0.92587372175E+03  0.90612596840E+02 0.  0.
        -13    1    4    4    0    0 -0.48624348110E+02  0.61777316016E+01  0.18130271700E+03  0.18781151932E+03  0.00000000000E+00 0.  1.
         13    1    4    4    0    0 -0.69897048530E+02 -0.10753319249E+03  0.72683342643E+03  0.73806220243E+03  0.00000000000E+00 0. -1.
        -13    1    3    3    0    0  0.62933111668E+02  0.69010661520E+02  0.18647620255E+03  0.20855795853E+03  0.00000000000E+00 0.  1.
         13    1    3    3    0    0 -0.21138121945E+02 -0.80342510424E+01  0.42425229616E+02  0.48075664293E+02  0.00000000000E+00 0. -1.
          2    1    1    2  501    0  0.76726406916E+02  0.40379050407E+02 -0.55080154026E+03  0.55758384659E+03  0.00000000000E+00 0. -1.
<scales pt_clust_5="13000.00000" pt_clust_6="13000.00000" pt_clust_7="13000.00000" pt_clust_8="13000.00000" pt_clust_9="13000.00000"></scales>
<clustering>
<clus scale="   89.443">  7  8 -1 -1</clus>
<clus scale="   90.613">  5  6 -1 -1</clus>
<clus scale="   86.703">  5  9 -1 -1</clus>
<clus scale="  116.039">  1  7  2 -1</clus>
<clus scale=" 1439.777">  2  5  1 -1</clus>
</clustering>
</event>
<event>
 9    1  0.6399313E-006  0.2258910E+03  0.7546771E-02  0.1165237E+00
          1   -1    0    0  502    0 -0.00000000000E+00  0.00000000000E+00  0.19378106331E+03  0.19378106331E+03  0.00000000000E+00 0. -1.
         21   -1    0    0  501  502  0.00000000000E+00 -0.00000000000E+00 -0.13424944218E+03  0.13424944218E+03  0.00000000000E+00 0. -1.
         23    2    1    2    0    0  0.30419890782E+02  0.44947042138E+01  0.21133218917E+02  0.98899128581E+02  0.91590679500E+02 0.  0.
         23    2    1    2    0    0  0.37682155922E+02  0.59687500527E+02  0.63752182237E+02  0.13217747894E+03  0.91782365433E+02 0.  0.
        -11    1    4    4    0    0  0.60546059648E+02  0.62111848628E+02  0.30900063524E+02  0.92078884684E+02  0.00000000000E+00 0.  1.
         11    1    4    4    0    0 -0.22863903726E+02 -0.24243481006E+01  0.32852118713E+02  0.40098594255E+02  0.00000000000E+00 0. -1.
        -13    1    3    3    0    0 -0.28754282844E+02  0.96214758429E+01  0.25112286508E+02  0.39370147484E+02  0.00000000000E+00 0. -1.
         13    1    3    3    0    0  0.59174173626E+02 -0.51267716291E+01 -0.39790675906E+01  0.59528981097E+02  0.00000000000E+00 0.  1.
          1    1    1    2  501    0 -0.68102046704E+02 -0.64182204741E+02 -0.25353780023E+02  0.96953897973E+02  0.00000000000E+00 0. -1.
<scales pt_clust_5="13000.00000" pt_clust_6="13000.00000" pt_clust_7="13000.00000" pt_clust_8="13000.00000" pt_clust_9="13000.00000"></scales>
<clustering>
<clus scale="   91.591">  7  8 -1 -1</clus>
<clus scale="   91.782">  5  6 -1 -1</clus>
<clus scale="   93.580">  5  9 -1 -1</clus>
<clus scale="   96.615">  1  7  2 -1</clus>
<clus scale="  225.891">  2  5  1 -1</clus>
</clustering>
</event>
<event>
 9    1  0.6399313E-006  0.2256523E+03  0.7546771E-02  0.1143013E+00
         21   -1    0    0  501  502  0.00000000000E+00  0.00000000000E+00  0.12005035849E+03  0.12005035849E+03  0.00000000000E+00 0. -1.
          1   -1    0    0  502    0 -0.00000000000E+00 -0.00000000000E+00 -0.35394933134E+03  0.35394933134E+03  0.00000000000E+00 0. -1.
         23    2    1    2    0    0 -0.48700914345E+02 -0.11907131169E+03 -0.17768834738E+03  0.24145166767E+03  0.10087617508E+03 0.  0.
         23    2    1    2    0    0 -0.24797854897E+02  0.74377887670E+02 -0.79951029207E+02  0.14331138170E+03  0.89437024052E+02 0.  0.
        -11    1    3    3    0    0 -0.28203719362E+02 -0.11617726961E+03 -0.18433619627E+03  0.21970990195E+03  0.00000000000E+00 0. -1.
         11    1    3    3    0    0 -0.20497194984E+02 -0.28940420850E+01  0.66478488868E+01  0.21741765720E+02  0.00000000000E+00 0.  1.
        -13    1    4    4    0    0  0.84516219461E+01  0.79626555876E+02 -0.74190849789E+02  0.10916089275E+03  0.00000000000E+00 0. -1.
         13    1    4    4    0    0 -0.33249476843E+02 -0.52486682062E+01 -0.57601794180E+01  0.34150488945E+02  0.00000000000E+00 0.  1.
          1    1    1    2  501    0  0.73498769242E+02  0.44693424023E+02  0.23740403734E+02  0.89236640459E+02  0.00000000000E+00 0. -1.
<scales pt_clust_5="13000.00000" pt_clust_6="13000.00000" pt_clust_7="13000.00000" pt_clust_8="13000.00000" pt_clust_9="13000.00000"></scales>
<clustering>
<clus scale="   89.437">  7  8 -1 -1</clus>
<clus scale="   86.021">  7  9 -1 -1</clus>
<clus scale="  100.876">  5  6 -1 -1</clus>
<clus scale="  163.480">  2  5  1 -1</clus>
<clus scale="  225.652">  1  5  2 -1</clus>
</clustering>
</event>
<event>
 9    1  0.6399313E-006  0.2462754E+03  0.7546771E-02  0.1140891E+00
         21   -1    0    0  501  502  0.00000000000E+00  0.00000000000E+00  0.23645713035E+03  0.23645713035E+03  0.00000000000E+00 0.  1.
         -4   -1    0    0    0  501 -0.00000000000E+00 -0.00000000000E+00 -0.18307834381E+03  0.18307834381E+03  0.00000000000E+00 0.  1.
         23    2    1    2    0    0  0.32269822791E+01  0.97644082837E+02 -0.63678473066E+02  0.14685620121E+03  0.89258140098E+02 0.  0.
         23    2    1    2    0    0  0.58829355161E+02 -0.73448104601E+02 -0.85593979779E+01  0.13049636596E+03  0.90002895162E+02 0.  0.
        -11    1    3    3    0    0  0.32090208145E+02  0.74035744038E+02 -0.97308698465E+01  0.81275843164E+02  0.00000000000E+00 0.  1.
         11    1    3    3    0    0 -0.28863225866E+02  0.23608338800E+02 -0.53947603219E+02  0.65580358046E+02  0.00000000000E+00 0. -1.
        -13    1    4    4    0    0  0.33758596999E+02  0.84315403376E+01  0.20114663931E+02  0.40191211090E+02  0.00000000000E+00 0.  1.
         13    1    4    4    0    0  0.25070758162E+02 -0.81879644939E+02 -0.28674061909E+02  0.90305154872E+02  0.00000000000E+00 0. -1.
         -4    1    1    2    0  502 -0.62056337440E+02 -0.24195978236E+02  0.12561665758E+03  0.14218290700E+03  0.00000000000E+00 0.  1.
<scales pt_clust_5="13000.00000" pt_clust_6="13000.00000" pt_clust_7="13000.00000" pt_clust_8="13000.00000" pt_clust_9="13000.00000"></scales>
<clustering>
<clus scale="   89.258">  5  6 -1 -1</clus>
<clus scale="   90.003">  7  8 -1 -1</clus>
<clus scale="   66.607">  7  9 -1 -1</clus>
<clus scale="  132.332">  2  5  1 -1</clus>
<clus scale="  246.275">  1  5  2 -1</clus>
</clustering>
</event>
<event>
 9    1  0.6399313E-006  0.3093871E+03  0.7546771E-02  0.1102765E+00
         21   -1    0    0  501  502  0.00000000000E+00  0.00000000000E+00  0.65008383338E+02  0.65008383338E+02  0.00000000000E+00 0. -1.
          1   -1    0    0  502    0 -0.00000000000E+00 -0.00000000000E+00 -0.92944996082E+03  0.92944996082E+03  0.00000000000E+00 0. -1.
         23    2    1    2    0    0 -0.48996859999E+02 -0.13836805664E+03 -0.22073869770E+03  0.28026385620E+03  0.90971671632E+02 0.  0.
         23    2    1    2    0    0 -0.29930943035E+02  0.16813990950E+03 -0.28618449931E+03  0.34685900957E+03  0.96139036579E+02 0.  0.
        -11    1    3    3    0    0  0.79396884751E+01 -0.68495535885E+02 -0.15200482003E+03  0.16691357764E+03  0.00000000000E+00 0.  1.
         11    1    3    3    0    0 -0.56936548474E+02 -0.69872520750E+02 -0.68733877674E+02  0.11335027855E+03  0.00000000000E+00 0. -1.
        -13    1    4    4    0    0 -0.21562083094E+02  0.80224181013E+02 -0.22383828887E+03  0.23875598885E+03  0.00000000000E+00 0.  1.
         13    1    4    4    0    0 -0.83688599410E+01  0.87915728488E+02 -0.62346210440E+02  0.10810302072E+03  0.00000000000E+00 0. -1.
          1    1    1    2  501    0  0.78927803034E+02 -0.29771852865E+02 -0.35751838047E+03  0.36733547839E+03  0.00000000000E+00 0. -1.
<scales pt_clust_5="13000.00000" pt_clust_6="13000.00000" pt_clust_7="13000.00000" pt_clust_8="13000.00000" pt_clust_9="13000.00000"></scales>
<clustering>
<clus scale="   90.972">  5  6 -1 -1</clus>
<clus scale="   96.139">  7  8 -1 -1</clus>
<clus scale="   84.356">  7  9 -1 -1</clus>
<clus scale="  172.691">  2  5  1 -1</clus>
<clus scale="  309.387">  1  5  2 -1</clus>
</clustering>
</event>
<event>
 9    1  0.6399313E-006  0.3249211E+03  0.7546771E-02  0.1115891E+00
          1   -1    0    0  502    0 -0.00000000000E+00  0.00000000000E+00  0.95279095731E+02  0.95279095731E+02  0.00000000000E+00 0. -1.
         21   -1    0    0  501  502  0.00000000000E+00 -0.00000000000E+00 -0.75263904172E+03  0.75263904172E+03  0.00000000000E+00 0.  1.
         23    2    1    2    0    0 -0.46170934292E+02 -0.27784470192E+02  0.85000110296E+01  0.10701113556E+03  0.92061941043E+02 0.  0.
         23    2    1    2    0    0 -0.52085611230E+00 -0.48545834124E+02 -0.43154535993E+02  0.11180567458E+03  0.91001239499E+02 0.  0.
        -13    1    4    4    0    0  0.21951019910E+02 -0.69185651292E+02 -0.31884145372E+02  0.79278624773E+02  0.00000000000E+00 0. -1.
         13    1    4    4    0    0 -0.22471876022E+02  0.20639817168E+02 -0.11270390620E+02  0.32527049811E+02  0.00000000000E+00 0.  1.
        -13    1    3    3    0    0 -0.55136650723E+02 -0.54722643405E+02  0.11804597403E+01  0.77691772019E+02  0.00000000000E+00 0.  1.
         13    1    3    3    0    0  0.89657164318E+01  0.26938173214E+02  0.73195512893E+01  0.29319363538E+02  0.00000000000E+00 0. -1.
          1    1    1    2  501    0  0.46691790404E+02  0.76330304316E+02 -0.62270542103E+03  0.62910132731E+03  0.00000000000E+00 0. -1.
<scales pt_clust_5="13000.00000" pt_clust_6="13000.00000" pt_clust_7="13000.00000" pt_clust_8="13000.00000" pt_clust_9="13000.00000"></scales>
<clustering>
<clus scale="   91.001">  5  6 -1 -1</clus>
<clus scale="   89.479">  5  9 -1 -1</clus>
<clus scale="   92.062">  7  8 -1 -1</clus>
<clus scale="  106.673">  1  7  2 -1</clus>
<clus scale="  324.921">  2  5  1 -1</clus>
</clustering>
</event>
<event>
 9    1  0.6399313E-006  0.3945380E+03  0.7546771E-02  0.1068966E+00
         21   -1    0    0  501  502  0.00000000000E+00  0.00000000000E+00  0.66714521300E+03  0.66714521300E+03  0.00000000000E+00 0. -1.
          1   -1    0    0  502    0 -0.00000000000E+00 -0.00000000000E+00 -0.63656748882E+03  0.63656748882E+03  0.00000000000E+00 0. -1.
         23    2    1    2    0    0 -0.63205937405E+02  0.17230797757E+03 -0.55838537824E+03  0.59481372795E+03  0.91236564320E+02 0.  0.
         23    2    1    2    0    0  0.14873691751E+02 -0.68121884287E+02  0.61686047905E+01  0.11489546003E+03  0.91110357402E+02 0.  0.
        -11    1    3    3    0    0 -0.13029532009E+02  0.14604169187E+03 -0.43513442384E+03  0.45917307334E+03  0.00000000000E+00 0. -1.
         11    1    3    3    0    0 -0.50176405396E+02  0.26266285696E+02 -0.12325095440E+03  0.13564065461E+03  0.00000000000E+00 0.  1.
        -13    1    4    4    0    0  0.41137414827E+02 -0.18373590191E+01  0.13222518742E+02  0.43249251886E+02  0.00000000000E+00 0. -1.
         13    1    4    4    0    0 -0.26263723076E+02 -0.66284525268E+02 -0.70539139517E+01  0.71646208147E+02  0.00000000000E+00 0.  1.
          1    1    1    2  501    0  0.48332245654E+02 -0.10418609328E+03  0.58279449762E+03  0.59400351385E+03  0.00000000000E+00 0. -1.
<scales pt_clust_5="13000.00000" pt_clust_6="13000.00000" pt_clust_7="13000.00000" pt_clust_8="13000.00000" pt_clust_9="13000.00000"></scales>
<clustering>
<clus scale="   91.110">  7  8 -1 -1</clus>
<clus scale="   91.237">  5  6 -1 -1</clus>
<clus scale="  114.851">  7  9 -1 -1</clus>
<clus scale="  204.961">  2  5  1 -1</clus>
<clus scale="  394.538">  1  5  2 -1</clus>
</clustering>
</event>
<event>
 9    1  0.6399313E-006  0.2642148E+03  0.7546771E-02  0.1147121E+00
          1   -1    0    0  502    0 -0.00000000000E+00  0.00000000000E+00  0.16698450097E+03  0.16698450097E+03  0.00000000000E+00 0. -1.
         21   -1    0    0  501  502  0.00000000000E+00 -0.00000000000E+00 -0.20930916453E+03  0.20930916453E+03  0.00000000000E+00 0. -1.
         23    2    1    2    0    0 -0.17687093415E+02  0.16942559872E+02  0.38461335410E+02  0.10000423141E+03  0.89003867164E+02 0.  0.
         23    2    1    2    0    0  0.25355342723E+02  0.38162796033E+02  0.65112380033E+02  0.12014290261E+03  0.89974455315E+02 0.  0.
        -13    1    3    3    0    0 -0.44506221496E+02 -0.11404375428E+02  0.10669436099E+01  0.45956521838E+02  0.00000000000E+00 0.  1.
         13    1    3    3    0    0  0.26819128082E+02  0.28346935300E+02  0.37394391800E+02  0.54047709573E+02  0.00000000000E+00 0. -1.
        -13    1    4    4    0    0 -0.52807703314E+01  0.35353869346E+02 -0.11527480378E+02  0.37558826085E+02  0.00000000000E+00 0.  1.
         13    1    4    4    0    0  0.30636113054E+02  0.28089266870E+01  0.76639860411E+02  0.82584076528E+02  0.00000000000E+00 0. -1.
          1    1    1    2  501    0 -0.76682493084E+01 -0.55105355905E+02 -0.14589837900E+03  0.15614653148E+03  0.00000000000E+00 0. -1.
<scales pt_clust_5="13000.00000" pt_clust_6="13000.00000" pt_clust_7="13000.00000" pt_clust_8="13000.00000" pt_clust_9="13000.00000"></scales>
<clustering>
<clus scale="   89.004">  5  6 -1 -1</clus>
<clus scale="   89.974">  7  8 -1 -1</clus>
<clus scale="   55.636">  7  9 -1 -1</clus>
<clus scale="   92.312">  1  5  2 -1</clus>
<clus scale="  264.215">  2  5  1 -1</clus>
</clustering>
</event>
<event>
 9    1  0.6399313E-006  0.3016281E+03  0.7546771E-02  0.1094033E+00
         21   -1    0    0  501  502  0.00000000000E+00  0.00000000000E+00  0.23194896656E+03  0.23194896656E+03  0.00000000000E+00 0. -1.
          2   -1    0    0  502    0 -0.00000000000E+00 -0.00000000000E+00 -0.41569927562E+03  0.41569927562E+03  0.00000000000E+00 0. -1.
         23    2    1    2    0    0 -0.84679843504E+02  0.19848923306E+03 -0.24622342307E+03  0.33961841190E+03  0.90255415892E+02 0.  0.
         23    2    1    2    0    0 -0.28275242039E+01 -0.13377807507E+02 -0.60867321617E+01  0.92103380337E+02  0.90879171070E+02 0.  0.
        -11    1    3    3    0    0 -0.10122372733E+03  0.18288914891E+03 -0.23412295970E+03  0.31386023007E+03  0.00000000000E+00 0. -1.
         11    1    3    3    0    0  0.16543883822E+02  0.15600084154E+02 -0.12100463375E+02  0.25758181835E+02  0.00000000000E+00 0.  1.
        -13    1    4    4    0    0  0.38181431365E+02  0.15833586936E+02 -0.59043563550E+01  0.41753869286E+02  0.00000000000E+00 0. -1.
         13    1    4    4    0    0 -0.41008955569E+02 -0.29211394443E+02 -0.18237580665E+00  0.50349511052E+02  0.00000000000E+00 0.  1.
          2    1    1    2  501    0  0.87507367708E+02 -0.18511142555E+03  0.68559846175E+02  0.21592644993E+03  0.00000000000E+00 0. -1.
<scales pt_clust_5="13000.00000" pt_clust_6="13000.00000" pt_clust_7="13000.00000" pt_clust_8="13000.00000" pt_clust_9="13000.00000"></scales>
<clustering>
<clus scale="   90.255">  5  6 -1 -1</clus>
<clus scale="   90.879">  7  8 -1 -1</clus>
<clus scale="  204.753">  7  9 -1 -1</clus>
<clus scale="  233.912">  2  5  1 -1</clus>
<clus scale="  301.628">  1  5  2 -1</clus>
</clustering>
</event>
<event>
 9    1  0.6399313E-006  0.3897033E+03  0.7546771E-02  0.1049267E+00
         21   -1    0    0  501  502  0.00000000000E+00  0.00000000000E+00  0.22122305219E+03  0.22122305219E+03  0.00000000000E+00 0. -1.
          1   -1    0    0  502    0 -0.00000000000E+00 -0.00000000000E+00 -0.10020634894E+04  0.10020634894E+04  0.00000000000E+00 0. -1.
         23    2    1    2    0    0 -0.26958112355E+03 -0.23577939051E+03 -0.74543596939E+03  0.83197827256E+03  0.90813866736E+02 0.  0.
         23    2    1    2    0    0  0.25000012950E+03  0.16325628962E+03 -0.17457444996E+02  0.31407413722E+03  0.95839033968E+02 0.  0.
        -11    1    3    3    0    0 -0.22637933869E+03 -0.23156315727E+03 -0.62415038380E+03  0.70315915864E+03  0.00000000000E+00 0. -1.
         11    1    3    3    0    0 -0.43201784860E+02 -0.42162332361E+01 -0.12128558560E+03  0.12881911392E+03  0.00000000000E+00 0.  1.
        -13    1    4    4    0    0  0.33202763282E+02  0.61582108625E+02 -0.25550672335E+02  0.74482323064E+02  0.00000000000E+00 0. -1.
         13    1    4    4    0    0  0.21679736622E+03  0.10167418100E+03  0.80932273387E+01  0.23959181415E+03  0.00000000000E+00 0.  1.
          1    1    1    2  501    0  0.19580994051E+02  0.72523100884E+02 -0.17947022838E+02  0.77234131824E+02  0.00000000000E+00 0. -1.
<scales pt_clust_5="13000.00000" pt_clust_6="13000.00000" pt_clust_7="13000.00000" pt_clust_8="13000.00000" pt_clust_9="13000.00000"></scales>
<clustering>
<clus scale="   90.814">  5  6 -1 -1</clus>
<clus scale="   95.839">  7  8 -1 -1</clus>
<clus scale="   75.120">  7  9 -1 -1</clus>
<clus scale="  369.477">  2  5  1 -1</clus>
<clus scale="  389.703">  1  5  2 -1</clus>
</clustering>
</event>
<event>
 9    1  0.6399313E-006  0.2156927E+03  0.7546771E-02  0.1159482E+00
         -1   -1    0    0    0  501 -0.00000000000E+00  0.00000000000E+00  0.25411915047E+03  0.25411915047E+03  0.00000000000E+00 0.  1.
         21   -1    0    0  501  502  0.00000000000E+00 -0.00000000000E+00 -0.23474054961E+03  0.23474054961E+03  0.00000000000E+00 0.  1.
         23    2    1    2    0    0  0.60086659922E+02  0.65150179157E+02  0.17981934843E+03  0.22003901587E+03  0.90704012541E+02 0.  0.
         23    2    1    2    0    0  0.35972570831E+02 -0.21015830921E+02 -0.43771408883E+02  0.11138196250E+03  0.93564492910E+02 0.  0.
        -13    1    4    4    0    0  0.31182886669E+02 -0.42846702340E+02  0.92944396903E+01  0.53801477039E+02  0.00000000000E+00 0.  1.
         13    1    4    4    0    0  0.47896841628E+01  0.21830871419E+02 -0.53065848573E+02  0.57580485462E+02  0.00000000000E+00 0. -1.
        -13    1    3    3    0    0  0.55688867971E+02 -0.11916702933E+01  0.53202561738E+02  0.77027155403E+02  0.00000000000E+00 0. -1.
         13    1    3    3    0    0  0.43977919511E+01  0.66341849450E+02  0.12661678669E+03  0.14301186047E+03  0.00000000000E+00 0.  1.
         -1    1    1    2    0  502 -0.96059230753E+02 -0.44134348236E+02 -0.11666933868E+03  0.15743872171E+03  0.00000000000E+00 0.  1.
<scales pt_clust_5="13000.00000" pt_clust_6="13000.00000" pt_clust_7="13000.00000" pt_clust_8="13000.00000" pt_clust_9="13000.00000"></scales>
<clustering>
<clus scale="   90.704">  7  8 -1 -1</clus>
<clus scale="   93.564">  5  6 -1 -1</clus>
<clus scale="  105.713">  5  9 -1 -1</clus>
<clus scale="  126.815">  1  7  2 -1</clus>
<clus scale="  215.693">  2  5  1 -1</clus>
</clustering>
</event>
<event>
 9    1  0.6399313E-006  0.5867329E+03  0.7546771E-02  0.1036497E+00
         21   -1    0    0  501  502  0.00000000000E+00  0.00000000000E+00  0.15761913017E+03  0.15761913017E+03  0.00000000000E+00 0.  1.
          2   -1    0    0  502    0 -0.00000000000E+00 -0.00000000000E+00 -0.88730432791E+03  0.88730432791E+03  0.00000000000E+00 0. -1.
         23    2    1    2    0    0  0.19142598262E+02 -0.12433332792E+03 -0.20350698843E+03  0.25681245016E+03  0.93339834558E+02 0.  0.
         23    2    1    2    0    0  0.16483390178E+03  0.28564696888E+03 -0.31231260013E+03  0.46313725187E+03  0.90512694504E+02 0.  0.
        -11    1    4    4    0    0  0.23508550653E+02  0.60763883886E+00 -0.16649066656E+02  0.28813410060E+02  0.00000000000E+00 0. -1.
         11    1    4    4    0    0  0.14132535113E+03  0.28503933004E+03 -0.29566353347E+03  0.43432384181E+03  0.00000000000E+00 0.  1.
        -11    1    3    3    0    0  0.27478777488E+02 -0.15529794439E+02 -0.74463410040E+01  0.32430012672E+02  0.00000000000E+00 0.  1.
         11    1    3    3    0    0 -0.83361792266E+01 -0.10880353348E+03 -0.19606064742E+03  0.22438243748E+03  0.00000000000E+00 0. -1.
          2    1    1    2  501    0 -0.18397650004E+03 -0.16131364096E+03 -0.21386560919E+03  0.32497375605E+03  0.00000000000E+00 0. -1.
<scales pt_clust_5="13000.00000" pt_clust_6="13000.00000" pt_clust_7="13000.00000" pt_clust_8="13000.00000" pt_clust_9="13000.00000"></scales>
<clustering>
<clus scale="   90.513">  5  6 -1 -1</clus>
<clus scale="   93.340">  7  8 -1 -1</clus>
<clus scale="  156.645">  2  7  1 -1</clus>
<clus scale="  275.840">  5  9 -1 -1</clus>
<clus scale="  586.733">  1  5  2 -1</clus>
</clustering>
</event>
<event>
 9    1  0.6399313E-006  0.1752360E+03  0.7546771E-02  0.1193902E+00
         21   -1    0    0  501  502  0.00000000000E+00  0.00000000000E+00  0.31304798228E+03  0.31304798228E+03  0.00000000000E+00 0.  1.
          1   -1    0    0  502    0 -0.00000000000E+00 -0.00000000000E+00 -0.13032913413E+03  0.13032913413E+03  0.00000000000E+00 0. -1.
         23    2    1    2    0    0  0.52734506667E+02 -0.24514647439E+02 -0.74824403836E+02  0.13187077889E+03  0.91702316123E+02 0.  0.
         23    2    1    2    0    0  0.19717927566E+02 -0.97235553620E+01  0.13277028067E+03  0.16321640487E+03  0.92348812619E+02 0.  0.
        -11    1    4    4    0    0  0.92856938663E+01 -0.43942698518E+02  0.11461171940E+03  0.12309764859E+03  0.00000000000E+00 0.  1.
         11    1    4    4    0    0  0.10432233700E+02  0.34219143156E+02  0.18158561275E+02  0.40118756285E+02  0.00000000000E+00 0. -1.
        -11    1    3    3    0    0 -0.20667632951E+02  0.79020341827E+01 -0.37114921269E+02  0.43210074945E+02  0.00000000000E+00 0.  1.
         11    1    3    3    0    0  0.73402139618E+02 -0.32416681622E+02 -0.37709482567E+02  0.88660703941E+02  0.00000000000E+00 0. -1.
          1    1    1    2  501    0 -0.72452434233E+02  0.34238202801E+02  0.12477297131E+03  0.14828993266E+03  0.00000000000E+00 0. -1.
<scales pt_clust_5="13000.00000" pt_clust_6="13000.00000" pt_clust_7="13000.00000" pt_clust_8="13000.00000" pt_clust_9="13000.00000"></scales>
<clustering>
<clus scale="   91.702">  7  8 -1 -1</clus>
<clus scale="   92.349">  5  6 -1 -1</clus>
<clus scale="   80.135">  5  9 -1 -1</clus>
<clus scale="  108.587">  2  7  1 -1</clus>
<clus scale="  175.236">  1  5  2 -1</clus>
</clustering>
</event>
<event>
 9    1  0.6399313E-006  0.2289078E+03  0.7546771E-02  0.1152118E+00
         21   -1    0    0  501  502  0.00000000000E+00  0.00000000000E+00  0.71395672680E+02  0.71395672680E+02  0.00000000000E+00 0. -1.
          1   -1    0    0  502    0 -0.00000000000E+00 -0.00000000000E+00 -0.45344816203E+03  0.45344816203E+03  0.00000000000E+00 0. -1.
         23    2    1    2    0    0 -0.19936241469E+02  0.86077923232E+02 -0.96018572480E+02  0.15849129002E+03  0.89961437065E+02 0.  0.
         23    2    1    2    0    0  0.20164454803E+02  0.29916715939E+02 -0.61701180233E+02  0.11380554882E+03  0.88561008179E+02 0.  0.
        -13    1    4    4    0    0  0.34137597686E+02 -0.22825188290E+02 -0.26254613197E+02  0.48740840271E+02  0.00000000000E+00 0. -1.
         13    1    4    4    0    0 -0.13973142883E+02  0.52741904229E+02 -0.35446567035E+02  0.65064708547E+02  0.00000000000E+00 0.  1.
        -13    1    3    3    0    0  0.35158431738E+02  0.31732137069E+02 -0.25482290986E+02  0.53780953869E+02  0.00000000000E+00 0. -1.
         13    1    3    3    0    0 -0.55094673207E+02  0.54345786163E+02 -0.70536281493E+02  0.10471033615E+03  0.00000000000E+00 0.  1.
          1    1    1    2  501    0 -0.22821333341E+00 -0.11599463917E+03 -0.22433273664E+03  0.25254699588E+03  0.00000000000E+00 0. -1.
<scales pt_clust_5="13000.00000" pt_clust_6="13000.00000" pt_clust_7="13000.00000" pt_clust_8="13000.00000" pt_clust_9="13000.00000"></scales>
<clustering>
<clus scale="   88.561">  5  6 -1 -1</clus>
<clus scale="   89.961">  7  8 -1 -1</clus>
<clus scale="  115.995">  5  9 -1 -1</clus>
<clus scale="  126.095">  2  7  1 -1</clus>
<clus scale="  228.908">  1  5  2 -1</clus>
</clustering>
</event>
<event>
 9    1  0.6399313E-006  0.1919754E+03  0.7546771E-02  0.1171402E+00
         21   -1    0    0  501  502  0.00000000000E+00  0.00000000000E+00  0.10395919350E+03  0.10395919350E+03  0.00000000000E+00 0.  1.
         -1   -1    0    0    0  501 -0.00000000000E+00 -0.00000000000E+00 -0.26583365281E+03  0.26583365281E+03  0.00000000000E+00 0.  1.
         23    2    1    2    0    0 -0.23300260720E+02  0.97481595334E+02 -0.95343038386E+02  0.16661563955E+03  0.92870408605E+02 0.  0.
         23    2    1    2    0    0  0.16643038898E+02 -0.34771462897E+02 -0.91036581167E+02  0.13552085309E+03  0.92694105188E+02 0.  0.
        -11    1    3    3    0    0  0.25697256503E+02  0.80823291156E+02 -0.56467882760E+02  0.10188903360E+03  0.00000000000E+00 0.  1.
         11    1    3    3    0    0 -0.48997517223E+02  0.16658304177E+02 -0.38875155627E+02  0.64726605944E+02  0.00000000000E+00 0. -1.
        -13    1    4    4    0    0 -0.11830355538E+02 -0.60508878954E+02 -0.50500438967E+02  0.79696775846E+02  0.00000000000E+00 0. -1.
         13    1    4    4    0    0  0.28473394435E+02  0.25737416057E+02 -0.40536142200E+02  0.55824077246E+02  0.00000000000E+00 0.  1.
         -1    1    1    2    0  502  0.66572218221E+01 -0.62710132437E+02  0.24505160246E+02  0.67656353665E+02  0.00000000000E+00 0.  1.
<scales pt_clust_5="13000.00000" pt_clust_6="13000.00000" pt_clust_7="13000.00000" pt_clust_8="13000.00000" pt_clust_9="13000.00000"></scales>
<clustering>
<clus scale="   92.694">  7  8 -1 -1</clus>
<clus scale="   63.063">  7  9 -1 -1</clus>
<clus scale="   92.870">  5  6 -1 -1</clus>
<clus scale="  136.640">  2  5  1 -1</clus>
<clus scale="  191.975">  1  5  2 -1</clus>
</clustering>
</event>
<event>
 9    1  0.6399313E-006  0.2199654E+03  0.7546771E-02  0.1164555E+00
         21   -1    0    0  501  502  0.00000000000E+00  0.00000000000E+00  0.14410130713E+03  0.14410130713E+03  0.00000000000E+00 0. -1.
         -1   -1    0    0    0  501 -0.00000000000E+00 -0.00000000000E+00 -0.19054534584E+03  0.19054534584E+03  0.00000000000E+00 0.  1.
         23    2    1    2    0    0 -0.47267673790E+02  0.85177467494E+01  0.12218464349E+02  0.10699327537E+03  0.94823441765E+02 0.  0.
         23    2    1    2    0    0  0.48366165794E+02  0.75896226827E+02 -0.29490952250E+01  0.12650541948E+03  0.88856067636E+02 0.  0.
        -11    1    4    4    0    0  0.41947884486E+02  0.38870113856E+02  0.39734342795E+02  0.69637122006E+02  0.00000000000E+00 0. -1.
         11    1    4    4    0    0  0.64182813076E+01  0.37026112971E+02 -0.42683438020E+02  0.56868297476E+02  0.00000000000E+00 0.  1.
        -11    1    3    3    0    0 -0.76053473525E+02  0.11807234055E+02  0.49569114233E+01  0.77124007819E+02  0.00000000000E+00 0.  1.
         11    1    3    3    0    0  0.28785799735E+02 -0.32894873059E+01  0.72615529253E+01  0.29869267551E+02  0.00000000000E+00 0. -1.
         -1    1    1    2    0  502 -0.10984920040E+01 -0.84413973576E+02 -0.55713407836E+02  0.10114795812E+03  0.00000000000E+00 0.  1.
<scales pt_clust_5="13000.00000" pt_clust_6="13000.00000" pt_clust_7="13000.00000" pt_clust_8="13000.00000" pt_clust_9="13000.00000"></scales>
<clustering>
<clus scale="   88.856">  5  6 -1 -1</clus>
<clus scale="   84.421">  5  9 -1 -1</clus>
<clus scale="   94.823">  7  8 -1 -1</clus>
<clus scale="  106.293">  2  7  1 -1</clus>
<clus scale="  219.965">  1  5  2 -1</clus>
</clustering>
</event>
<event>
 9    1  0.6399313E-006  0.1642682E+03  0.7546771E-02  0.1194406E+00
          2   -1    0    0  502    0 -0.00000000000E+00  0.00000000000E+00  0.66321256662E+02  0.66321256662E+02  0.00000000000E+00 0. -1.
         21   -1    0    0  501  502  0.00000000000E+00 -0.00000000000E+00 -0.60835605226E+03  0.60835605226E+03  0.00000000000E+00 0.  1.
         23    2    1    2    0    0 -0.54558736589E+02  0.51398855879E+02 -0.25750198948E+02  0.13288967561E+03  0.10666815371E+03 0.  0.
         23    2    1    2    0    0  0.20089441129E+02 -0.15502970577E+02 -0.20695131091E+03  0.22847671972E+03  0.93428253874E+02 0.  0.
        -11    1    4    4    0    0 -0.12633289511E+02  0.33863557744E+02 -0.60089104937E+02  0.70121616347E+02  0.00000000000E+00 0.  1.
         11    1    4    4    0    0  0.32722730640E+02 -0.49366528321E+02 -0.14686220598E+03  0.15835510337E+03  0.00000000000E+00 0. -1.
        -13    1    3    3    0    0 -0.52872584320E+02 -0.93745754170E+00  0.26298061421E+02  0.59059097807E+02  0.00000000000E+00 0.  1.
         13    1    3    3    0    0 -0.16861522690E+01  0.52336313421E+02 -0.52048260369E+02  0.73830577808E+02  0.00000000000E+00 0. -1.
          2    1    1    2  501    0  0.34469295460E+02 -0.35895885302E+02 -0.30933328574E+03  0.31331091359E+03  0.00000000000E+00 0. -1.
<scales pt_clust_5="13000.00000" pt_clust_6="13000.00000" pt_clust_7="13000.00000" pt_clust_8="13000.00000" pt_clust_9="13000.00000"></scales>
<clustering>
<clus scale="   93.428">  5  6 -1 -1</clus>
<clus scale="   49.766">  5  9 -1 -1</clus>
<clus scale="  106.668">  7  8 -1 -1</clus>
<clus scale="  130.371">  1  7  2 -1</clus>
<clus scale="  164.268">  2  5  1 -1</clus>
</clustering>
</event>
<event>
 9    1  0.6399313E-006  0.1755574E+03  0.7546771E-02  0.1201872E+00
         21   -1    0    0  501  502  0.00000000000E+00  0.00000000000E+00  0.12586230216E+03  0.12586230216E+03  0.00000000000E+00 0.  1.
          1   -1    0    0  502    0 -0.00000000000E+00 -0.00000000000E+00 -0.22136210350E+03  0.22136210350E+03  0.00000000000E+00 0. -1.
         23    2    1    2    0    0 -0.18684672116E+02 -0.20770468460E+02 -0.13932080820E+03  0.16628058472E+03  0.86362120888E+02 0.  0.
         23    2    1    2    0    0  0.15487805827E+02  0.66031314875E+02 -0.33774753817E+01  0.11547275177E+03  0.93394552240E+02 0.  0.
        -11    1    3    3    0    0  0.34258012729E+02 -0.59005467296E+01 -0.42223176400E+02  0.54692088214E+02  0.00000000000E+00 0.  1.
         11    1    3    3    0    0 -0.52942684845E+02 -0.14869921730E+02 -0.97097631798E+02  0.11158849650E+03  0.00000000000E+00 0. -1.
        -13    1    4    4    0    0  0.23039498580E+02  0.19072865189E+02 -0.43810816076E+02  0.53046963029E+02  0.00000000000E+00 0. -1.
         13    1    4    4    0    0 -0.75516927534E+01  0.46958449685E+02  0.40433340694E+02  0.62425788742E+02  0.00000000000E+00 0.  1.
          1    1    1    2  501    0  0.31968662898E+01 -0.45260846415E+02  0.47198482242E+02  0.65471069170E+02  0.00000000000E+00 0. -1.
<scales pt_clust_5="13000.00000" pt_clust_6="13000.00000" pt_clust_7="13000.00000" pt_clust_8="13000.00000" pt_clust_9="13000.00000"></scales>
<clustering>
<clus scale="   86.362">  5  6 -1 -1</clus>
<clus scale="   90.769">  2  5  1 -1</clus>
<clus scale="   93.395">  7  8 -1 -1</clus>
<clus scale="   48.034">  7  9 -1 -1</clus>
<clus scale="  175.557">  1  5  2 -1</clus>
</clustering>
</event>
<event>
 9    1  0.6399313E-006  0.1801116E+03  0.7546771E-02  0.1190984E+00
         21   -1    0    0  501  502  0.00000000000E+00  0.00000000000E+00  0.43834023845E+02  0.43834023845E+02  0.00000000000E+00 0.  1.
         -1   -1    0    0    0  501 -0.00000000000E+00 -0.00000000000E+00 -0.68913664080E+03  0.68913664080E+03  0.00000000000E+00 0.  1.
         23    2    1    2    0    0 -0.48302258906E+01  0.57456731632E+02 -0.46886669802E+03  0.48084013359E+03  0.89703101809E+02 0.  0.
         23    2    1    2    0    0  0.51949014387E+02 -0.56005249125E+01 -0.72751299421E+02  0.12699162132E+03  0.90022521308E+02 0.  0.
        -11    1    3    3    0    0 -0.41658234641E+01  0.78695126842E+02 -0.42316268530E+03  0.43043807371E+03  0.00000000000E+00 0.  1.
         11    1    3    3    0    0 -0.66440242648E+00 -0.21238395209E+02 -0.45704012720E+02  0.50402059882E+02  0.00000000000E+00 0. -1.
        -11    1    4    4    0    0  0.51274788868E+02 -0.40593539098E+02 -0.30598006281E+02  0.72202336377E+02  0.00000000000E+00 0. -1.
         11    1    4    4    0    0  0.67422551886E+00  0.34993014186E+02 -0.42153293140E+02  0.54789284942E+02  0.00000000000E+00 0.  1.
         -1    1    1    2    0  502 -0.47118788496E+02 -0.51856206720E+02 -0.10368461952E+03  0.12513890974E+03  0.00000000000E+00 0.  1.
<scales pt_clust_5="13000.00000" pt_clust_6="13000.00000" pt_clust_7="13000.00000" pt_clust_8="13000.00000" pt_clust_9="13000.00000"></scales>
<clustering>
<clus scale="   89.703">  5  6 -1 -1</clus>
<clus scale="   90.023">  7  8 -1 -1</clus>
<clus scale="   70.066">  7  9 -1 -1</clus>
<clus scale="  106.636">  2  5  1 -1</clus>
<clus scale="  180.112">  1  5  2 -1</clus>
</clustering>
</event>
<event>
 9    1  0.6399313E-006  0.4568987E+03  0.7546771E-02  0.1078724E+00
         21   -1    0    0  501  502  0.00000000000E+00  0.00000000000E+00  0.10520670590E+03  0.10520670590E+03  0.00000000000E+00 0. -1.
          2   -1    0    0  502    0 -0.00000000000E+00 -0.00000000000E+00 -0.76956621037E+03  0.76956621037E+03  0.00000000000E+00 0. -1.
         23    2    1    2    0    0 -0.26091456199E+02  0.37604502974E+02 -0.61663227464E+02  0.11846663336E+03  0.90206024564E+02 0.  0.
         23    2    1    2    0    0  0.28098514829E+02 -0.19363850435E+03 -0.55098571331E+03  0.59191461564E+03  0.92153453734E+02 0.  0.
        -13    1    4    4    0    0  0.20753837701E+02 -0.12163473043E+02 -0.21929755445E+02  0.32551283072E+02  0.00000000000E+00 0.  1.
         13    1    4    4    0    0  0.73446771282E+01 -0.18147503131E+03 -0.52905595786E+03  0.55936333257E+03  0.00000000000E+00 0. -1.
        -13    1    3    3    0    0  0.31231124343E+02  0.22211797392E+02 -0.95844597821E+01  0.39504543288E+02  0.00000000000E+00 0.  1.
         13    1    3    3    0    0 -0.57322580542E+02  0.15392705582E+02 -0.52078767682E+02  0.78962090071E+02  0.00000000000E+00 0. -1.
          2    1    1    2  501    0 -0.20070586303E+01  0.15603400138E+03 -0.51710563697E+02  0.16439166727E+03  0.00000000000E+00 0. -1.
<scales pt_clust_5="13000.00000" pt_clust_6="13000.00000" pt_clust_7="13000.00000" pt_clust_8="13000.00000" pt_clust_9="13000.00000"></scales>
<clustering>
<clus scale="   90.206">  7  8 -1 -1</clus>
<clus scale="   92.153">  5  6 -1 -1</clus>
<clus scale="  101.153">  2  7  1 -1</clus>
<clus scale="  162.131">  5  9 -1 -1</clus>
<clus scale="  456.899">  1  5  2 -1</clus>
</clustering>
</event>
<event>
 9    1  0.6399313E-006  0.2276644E+03  0.7546771E-02  0.1165967E+00
         21   -1    0    0  501  502  0.00000000000E+00  0.00000000000E+00  0.16772884444E+03  0.16772884444E+03  0.00000000000E+00 0. -1.
          1   -1    0    0  502    0 -0.00000000000E+00 -0.00000000000E+00 -0.25885833511E+03  0.25885833511E+03  0.00000000000E+00 0. -1.
         23    2    1    2    0    0 -0.85879771807E+01  0.13137761910E+02 -0.16324126563E+03  0.18777511282E+03  0.91462713977E+02 0.  0.
         23    2    1    2    0    0 -0.89945096312E+02 -0.10231381385E+02  0.49147306886E+02  0.13759655204E+03  0.91228021153E+02 0.  0.
        -11    1    4    4    0    0 -0.49436791315E+02 -0.28050423365E+02 -0.15808954143E+02  0.58997844177E+02  0.00000000000E+00 0.  1.
         11    1    4    4    0    0 -0.40508304997E+02  0.17819041979E+02  0.64956261029E+02  0.78598707863E+02  0.00000000000E+00 0. -1.
        -13    1    3    3    0    0 -0.22897862011E+02 -0.30430482402E+02 -0.11532645925E+03  0.12145171283E+03  0.00000000000E+00 0. -1.
         13    1    3    3    0    0  0.14309884830E+02  0.43568244312E+02 -0.47914806379E+02  0.66323399993E+02  0.00000000000E+00 0.  1.
          1    1    1    2  501    0  0.98533073493E+02 -0.29063805243E+01  0.22964468075E+02  0.10121551469E+03  0.00000000000E+00 0. -1.
<scales pt_clust_5="13000.00000" pt_clust_6="13000.00000" pt_clust_7="13000.00000" pt_clust_8="13000.00000" pt_clust_9="13000.00000"></scales>
<clustering>
<clus scale="   91.228">  5  6 -1 -1</clus>
<clus scale="   91.463">  7  8 -1 -1</clus>
<clus scale="   92.800">  2  7  1 -1</clus>
<clus scale="   94.558">  5  9 -1 -1</clus>
<clus scale="  227.664">  1  5  2 -1</clus>
</clustering>
</event>
<event>
 9    1  0.6399313E-006  0.1468670E+03  0.7546771E-02  0.1212743E+00
         21   -1    0    0  501  502  0.00000000000E+00  0.00000000000E+00  0.22133132998E+03  0.22133132998E+03  0.00000000000E+00 0. -1.
         -2   -1    0    0    0  501 -0.00000000000E+00 -0.00000000000E+00 -0.83855855669E+02  0.83855855669E+02  0.00000000000E+00 0.  1.
         23    2    1    2    0    0  0.69790615660E+02 -0.43991799776E+02  0.40925139342E+02  0.12942630521E+03  0.90941151133E+02 0.  0.
         23    2    1    2    0    0 -0.35012784345E+02  0.35503100426E+02  0.41501549247E+02  0.11009563562E+03  0.88951139309E+02 0.  0.
        -11    1    3    3    0    0  0.24657752746E+02  0.24517944180E+02 -0.54329863184E+01  0.35194483909E+02  0.00000000000E+00 0. -1.
         11    1    3    3    0    0  0.45132862914E+02 -0.68509743956E+02  0.46358125660E+02  0.94231821305E+02  0.00000000000E+00 0.  1.
        -11    1    4    4    0    0 -0.29588252140E+02 -0.15820427544E+01 -0.21624009333E+02  0.36681947925E+02  0.00000000000E+00 0.  1.
         11    1    4    4    0    0 -0.54245322049E+01  0.37085143181E+02  0.63125558580E+02  0.73413687691E+02  0.00000000000E+00 0. -1.
         -2    1    1    2    0  502 -0.34777831315E+02  0.84886993495E+01  0.55048785725E+02  0.65665244822E+02  0.00000000000E+00 0.  1.
<scales pt_clust_5="13000.00000" pt_clust_6="13000.00000" pt_clust_7="13000.00000" pt_clust_8="13000.00000" pt_clust_9="13000.00000"></scales>
<clustering>
<clus scale="   88.951">  7  8 -1 -1</clus>
<clus scale="   35.799">  7  9 -1 -1</clus>
<clus scale="   90.941">  5  6 -1 -1</clus>
<clus scale="  122.786">  2  5  1 -1</clus>
<clus scale="  146.867">  1  5  2 -1</clus>
</clustering>
</event>
<event>
 9    1  0.6399313E-006  0.2807248E+03  0.7546771E-02  0.1101701E+00
         21   -1    0    0  501  502  0.00000000000E+00  0.00000000000E+00  0.78181505159E+03  0.78181505159E+03  0.00000000000E+00 0.  1.
         -1   -1    0    0    0  501 -0.00000000000E+00 -0.00000000000E+00 -0.86577315119E+02  0.86577315119E+02  0.00000000000E+00 0.  1.
         23    2    1    2    0    0 -0.21678186866E+03  0.25662591112E+01  0.28110191894E+03  0.36807759595E+03  0.97272110803E+02 0.  0.
         23    2    1    2    0    0  0.65532373299E+02 -0.22512615141E+02  0.10092313428E+03  0.15192353678E+03  0.89966506012E+02 0.  0.
        -11    1    4    4    0    0 -0.15329799784E+01 -0.42748171545E+02  0.46766714112E+02  0.63378874610E+02  0.00000000000E+00 0.  1.
         11    1    4    4    0    0  0.67065353278E+02  0.20235556404E+02  0.54156420169E+02  0.88544662169E+02  0.00000000000E+00 0. -1.
        -13    1    3    3    0    0 -0.45621125412E+02  0.37263751609E+02  0.10289191674E+03  0.11856062077E+03  0.00000000000E+00 0. -1.
         13    1    3    3    0    0 -0.17116074325E+03 -0.34697492498E+02  0.17821000220E+03  0.24951697518E+03  0.00000000000E+00 0.  1.
         -1    1    1    2    0  502  0.15124949536E+03  0.19946356030E+02  0.31321268325E+03  0.34839123398E+03  0.00000000000E+00 0.  1.
<scales pt_clust_5="13000.00000" pt_clust_6="13000.00000" pt_clust_7="13000.00000" pt_clust_8="13000.00000" pt_clust_9="13000.00000"></scales>
<clustering>
<clus scale="   89.967">  5  6 -1 -1</clus>
<clus scale="   97.272">  7  8 -1 -1</clus>
<clus scale="  152.559">  5  9 -1 -1</clus>
<clus scale="  237.619">  2  7  1 -1</clus>
<clus scale="  280.725">  1  5  2 -1</clus>
</clustering>
</event>
<event>
 9    1  0.6399313E-006  0.2446100E+03  0.7546771E-02  0.1147233E+00
         21   -1    0    0  501  502  0.00000000000E+00  0.00000000000E+00  0.54482005807E+02  0.54482005807E+02  0.00000000000E+00 0. -1.
          1   -1    0    0  502    0 -0.00000000000E+00 -0.00000000000E+00 -0.59859803367E+03  0.59859803367E+03  0.00000000000E+00 0. -1.
         23    2    1    2    0    0 -0.59097020859E+02  0.39439758981E+02 -0.15861598630E+03  0.19652301581E+03  0.91729559951E+02 0.  0.
         23    2    1    2    0    0  0.19660214043E+02 -0.51336749360E+02 -0.39893653044E+03  0.41322874947E+03  0.92658826985E+02 0.  0.
        -11    1    4    4    0    0 -0.39136249996E+01  0.26298239488E+02 -0.10153983811E+03  0.10496310106E+03  0.00000000000E+00 0.  1.
         11    1    4    4    0    0  0.23573839043E+02 -0.77634988848E+02 -0.29739669233E+03  0.30826564841E+03  0.00000000000E+00 0. -1.
        -13    1    3    3    0    0 -0.62421530467E+02 -0.12402354544E+02 -0.95744427091E+02  0.11496634805E+03  0.00000000000E+00 0.  1.
         13    1    3    3    0    0  0.33245096077E+01  0.51842113525E+02 -0.62871559210E+02  0.81556667762E+02  0.00000000000E+00 0. -1.
          1    1    1    2  501    0  0.39436806816E+02  0.11896990379E+02  0.13436488876E+02  0.43328274201E+02  0.00000000000E+00 0. -1.
<scales pt_clust_5="13000.00000" pt_clust_6="13000.00000" pt_clust_7="13000.00000" pt_clust_8="13000.00000" pt_clust_9="13000.00000"></scales>
<clustering>
<clus scale="   91.730">  7  8 -1 -1</clus>
<clus scale="   92.659">  5  6 -1 -1</clus>
<clus scale="   41.192">  5  9 -1 -1</clus>
<clus scale="  116.027">  2  7  1 -1</clus>
<clus scale="  244.610">  1  5  2 -1</clus>
</clustering>
</event>
<event>
 9    1  0.6399313E-006  0.3491639E+03  0.7546771E-02  0.1105969E+00
         21   -1    0    0  501  502  0.00000000000E+00  0.00000000000E+00  0.27163570311E+03  0.27163570311E+03  0.00000000000E+00 0.  1.
         -1   -1    0    0    0  501 -0.00000000000E+00 -0.00000000000E+00 -0.19612439356E+03  0.19612439356E+03  0.00000000000E+00 0.  1.
         23    2    1    2    0    0 -0.45523793705E+02 -0.41110859853E+02  0.50830536192E+00  0.11063140135E+03  0.92068072633E+02 0.  0.
         23    2    1    2    0    0  0.40366916382E+02 -0.47639444539E+02 -0.10789903472E+03  0.15376604941E+03  0.90015507805E+02 0.  0.
        -11    1    3    3    0    0 -0.49790112953E+02  0.15620136158E+02  0.94806776229E+01  0.53037036585E+02  0.00000000000E+00 0.  1.
         11    1    3    3    0    0  0.42663192485E+01 -0.56730996010E+02 -0.89723722610E+01  0.57594364761E+02  0.00000000000E+00 0. -1.
        -11    1    4    4    0    0  0.52751891125E+02 -0.67642446371E+02 -0.88771914213E+02  0.12344519157E+03  0.00000000000E+00 0.  1.
         11    1    4    4    0    0 -0.12384974744E+02  0.20003001832E+02 -0.19127120504E+02  0.30320857845E+02  0.00000000000E+00 0. -1.
         -1    1    1    2    0  502  0.51568773231E+01  0.88750304392E+02  0.18290203891E+03  0.20336264591E+03  0.00000000000E+00 0.  1.
<scales pt_clust_5="13000.00000" pt_clust_6="13000.00000" pt_clust_7="13000.00000" pt_clust_8="13000.00000" pt_clust_9="13000.00000"></scales>
<clustering>
<clus scale="   90.016">  7  8 -1 -1</clus>
<clus scale="   88.900">  7  9 -1 -1</clus>
<clus scale="   92.068">  5  6 -1 -1</clus>
<clus scale="  110.630">  2  5  1 -1</clus>
<clus scale="  349.164">  1  5  2 -1</clus>
</clustering>
</event>
<event>
 9    1  0.6399313E-006  0.2397153E+03  0.7546771E-02  0.1152148E+00
         21   -1    0    0  501  502  0.00000000000E+00  0.00000000000E+00  0.14523484900E+03  0.14523484900E+03  0.00000000000E+00 0. -1.
         -1   -1    0    0    0  501 -0.00000000000E+00 -0.00000000000E+00 -0.22158162840E+03  0.22158162840E+03  0.00000000000E+00 0.  1.
         23    2    1    2    0    0  0.22125865180E+02  0.63142108889E+02 -0.63471104326E+02  0.12675558584E+03  0.86959287215E+02 0.  0.
         23    2    1    2    0    0  0.72221354535E+02 -0.53843196198E+02  0.33297768376E+02  0.13461017072E+03  0.94319366270E+02 0.  0.
        -13    1    3    3    0    0  0.41924038457E+02  0.66694485125E+02 -0.70229136068E+02  0.10553630133E+03  0.00000000000E+00 0.  1.
         13    1    3    3    0    0 -0.19798173276E+02 -0.35523762356E+01  0.67580317415E+01  0.21219284508E+02  0.00000000000E+00 0. -1.
        -13    1    4    4    0    0  0.72323902462E+02 -0.77570980726E+02  0.32280258192E+02  0.11086035805E+03  0.00000000000E+00 0. -1.
         13    1    4    4    0    0 -0.10254792743E+00  0.23727784528E+02  0.10175101837E+01  0.23749812665E+02  0.00000000000E+00 0.  1.
         -1    1    1    2    0  502 -0.94347219715E+02 -0.92989126910E+01 -0.46173443451E+02  0.10545072084E+03  0.00000000000E+00 0.  1.
<scales pt_clust_5="13000.00000" pt_clust_6="13000.00000" pt_clust_7="13000.00000" pt_clust_8="13000.00000" pt_clust_9="13000.00000"></scales>
<clustering>
<clus scale="   86.959">  5  6 -1 -1</clus>
<clus scale="   94.319">  7  8 -1 -1</clus>
<clus scale="   94.804">  7  9 -1 -1</clus>
<clus scale="  109.720">  2  5  1 -1</clus>
<clus scale="  239.715">  1  5  2 -1</clus>
</clustering>
</event>
<event>
 9    1  0.6399313E-006  0.3771278E+03  0.7546771E-02  0.1087408E+00
         21   -1    0    0  501  502  0.00000000000E+00  0.00000000000E+00  0.30552570563E+03  0.30552570563E+03  0.00000000000E+00 0.  1.
         -1   -1    0    0    0  501 -0.00000000000E+00 -0.00000000000E+00 -0.24349959585E+03  0.24349959585E+03  0.00000000000E+00 0.  1.
         23    2    1    2    0    0  0.28594114900E+02 -0.10563822847E+03 -0.57055848008E+02  0.15354346050E+03  0.91340931390E+02 0.  0.
         23    2    1    2    0    0  0.34165160400E+02  0.54765160426E+02 -0.10600259246E+03  0.15633784576E+03  0.95070980989E+02 0.  0.
        -13    1    3    3    0    0  0.24499509161E+02 -0.98096572727E+01  0.17836117526E+02  0.31852510315E+02  0.00000000000E+00 0. -1.
         13    1    3    3    0    0  0.40946057391E+01 -0.95828571200E+02 -0.74891965534E+02  0.12169095018E+03  0.00000000000E+00 0.  1.
        -13    1    4    4    0    0  0.60167579205E+02  0.70907884385E+01 -0.54285607928E+02  0.81347059542E+02  0.00000000000E+00 0.  1.
         13    1    4    4    0    0 -0.26002418805E+02  0.47674371987E+02 -0.51716984534E+02  0.74990786217E+02  0.00000000000E+00 0. -1.
         -1    1    1    2    0  502 -0.62759275301E+02  0.50873068047E+02  0.22508455025E+03  0.23914399522E+03  0.00000000000E+00 0.  1.
<scales pt_clust_5="13000.00000" pt_clust_6="13000.00000" pt_clust_7="13000.00000" pt_clust_8="13000.00000" pt_clust_9="13000.00000"></scales>
<clustering>
<clus scale="   91.341">  5  6 -1 -1</clus>
<clus scale="   95.071">  7  8 -1 -1</clus>
<clus scale="   80.789">  7  9 -1 -1</clus>
<clus scale="  142.549">  2  5  1 -1</clus>
<clus scale="  377.128">  1  5  2 -1</clus>
</clustering>
</event>
<event>
 9    1  0.6399313E-006  0.2272367E+03  0.7546771E-02  0.1166492E+00
          3   -1    0    0  502    0 -0.00000000000E+00  0.00000000000E+00  0.64213068364E+03  0.64213068364E+03  0.00000000000E+00 0. -1.
         21   -1    0    0  501  502  0.00000000000E+00 -0.00000000000E+00 -0.40839411782E+02  0.40839411782E+02  0.00000000000E+00 0. -1.
         23    2    1    2    0    0 -0.13830275622E+02 -0.31394567095E+02  0.12580365459E+03  0.15597387803E+03  0.85582683727E+02 0.  0.
         23    2    1    2    0    0 -0.15684641420E+02 -0.78366298096E+02  0.26367605869E+03  0.28661586420E+03  0.78970279387E+02 0.  0.
        -13    1    3    3    0    0  0.24811536887E+02 -0.14725605065E+02  0.66527145275E+01  0.29609363684E+02  0.00000000000E+00 0.  1.
         13    1    3    3    0    0 -0.38641812508E+02 -0.16668962030E+02  0.11915094006E+03  0.12636451435E+03  0.00000000000E+00 0. -1.
        -13    1    4    4    0    0 -0.35296680193E+02 -0.36760002189E+02  0.20920149866E+03  0.21531934525E+03  0.00000000000E+00 0. -1.
         13    1    4    4    0    0  0.19612038773E+02 -0.41606295907E+02  0.54474560029E+02  0.71296518949E+02  0.00000000000E+00 0.  1.
          3    1    1    2  501    0  0.29514917042E+02  0.10976086519E+03  0.21181155857E+03  0.24038035319E+03  0.00000000000E+00 0. -1.
<scales pt_clust_5="13000.00000" pt_clust_6="13000.00000" pt_clust_7="13000.00000" pt_clust_8="13000.00000" pt_clust_9="13000.00000"></scales>
<clustering>
<clus scale="   78.970">  7  8 -1 -1</clus>
<clus scale="   85.583">  5  6 -1 -1</clus>
<clus scale="   92.202">  1  5  2 -1</clus>
<clus scale="   98.393">  7  9 -1 -1</clus>
<clus scale="  227.237">  2  5  1 -1</clus>
</clustering>
</event>
<event>
 9    1  0.6399313E-006  0.1460151E+03  0.7546771E-02  0.1217448E+00
         -4   -1    0    0    0  501 -0.00000000000E+00  0.00000000000E+00  0.25549790631E+03  0.25549790631E+03  0.00000000000E+00 0.  1.
         21   -1    0    0  501  502  0.00000000000E+00 -0.00000000000E+00 -0.69213660041E+02  0.69213660041E+02  0.00000000000E+00 0. -1.
         23    2    1    2    0    0 -0.60385053851E+01  0.62404502789E+02  0.11822857862E+03  0.16361533335E+03  0.94133920497E+02 0.  0.
         23    2    1    2    0    0  0.28967683493E+02 -0.18690244802E+02  0.40205145488E+02  0.10441876707E+03  0.89990962071E+02 0.  0.
        -11    1    4    4    0    0 -0.11477912189E+02 -0.16777110396E+02 -0.22154182813E+02  0.30066953912E+02  0.00000000000E+00 0. -1.
         11    1    4    4    0    0  0.40445595682E+02 -0.19131344062E+01  0.62359328301E+02  0.74351813156E+02  0.00000000000E+00 0.  1.
        -13    1    3    3    0    0 -0.35895763470E+02  0.63203153433E+02  0.11133694994E+03  0.13296262957E+03  0.00000000000E+00 0. -1.
         13    1    3    3    0    0  0.29857258085E+02 -0.79865064419E+00  0.68916286792E+01  0.30652703781E+02  0.00000000000E+00 0.  1.
         -4    1    1    2    0  502 -0.22929178108E+02 -0.43714257987E+02  0.27850522158E+02  0.56677465933E+02  0.00000000000E+00 0.  1.
<scales pt_clust_5="13000.00000" pt_clust_6="13000.00000" pt_clust_7="13000.00000" pt_clust_8="13000.00000" pt_clust_9="13000.00000"></scales>
<clustering>
<clus scale="   89.991">  5  6 -1 -1</clus>
<clus scale="   49.363">  5  9 -1 -1</clus>
<clus scale="   94.134">  7  8 -1 -1</clus>
<clus scale="  113.102">  1  7  2 -1</clus>
<clus scale="  146.015">  2  5  1 -1</clus>
</clustering>
</event>
<event>
 9    1  0.6399313E-006  0.2879236E+03  0.7546771E-02  0.1126133E+00
         21   -1    0    0  501  502  0.00000000000E+00  0.00000000000E+00  0.88411982700E+02  0.88411982700E+02  0.00000000000E+00 0. -1.
          1   -1    0    0  502    0 -0.00000000000E+00 -0.00000000000E+00 -0.11944253857E+04  0.11944253857E+04  0.00000000000E+00 0. -1.
         23    2    1    2    0    0 -0.12835227297E+02 -0.71998077041E+02  0.20179063629E+02  0.12042200046E+03  0.93518968284E+02 0.  0.
         23    2    1    2    0    0 -0.10286493187E+03  0.98533021242E+02 -0.59784344670E+03  0.62089591589E+03  0.88345917349E+02 0.  0.
        -13    1    4    4    0    0 -0.49880713372E+02 -0.57700377529E+01 -0.20010620374E+03  0.20631013469E+03  0.00000000000E+00 0. -1.
         13    1    4    4    0    0 -0.52984218502E+02  0.10430305900E+03 -0.39773724297E+03  0.41458578119E+03  0.00000000000E+00 0.  1.
        -13    1    3    3    0    0 -0.19689193526E+02  0.19042757911E+02  0.57879872718E+01  0.27996281311E+02  0.00000000000E+00 0.  1.
         13    1    3    3    0    0  0.68539662291E+01 -0.91040834952E+02  0.14391076357E+02  0.92425719151E+02  0.00000000000E+00 0. -1.
          1    1    1    2  501    0  0.11570015917E+03 -0.26534944201E+02 -0.52834901991E+03  0.54151945204E+03  0.00000000000E+00 0. -1.
<scales pt_clust_5="13000.00000" pt_clust_6="13000.00000" pt_clust_7="13000.00000" pt_clust_8="13000.00000" pt_clust_9="13000.00000"></scales>
<clustering>
<clus scale="   88.346">  5  6 -1 -1</clus>
<clus scale="   93.519">  7  8 -1 -1</clus>
<clus scale="  118.704">  5  9 -1 -1</clus>
<clus scale="  118.719">  2  7  1 -1</clus>
<clus scale="  287.924">  1  5  2 -1</clus>
</clustering>
</event>
<event>
 9    1  0.6399313E-006  0.3632563E+03  0.7546771E-02  0.1105929E+00
          1   -1    0    0  502    0 -0.00000000000E+00  0.00000000000E+00  0.93210025224E+03  0.93210025224E+03  0.00000000000E+00 0. -1.
         21   -1    0    0  501  502  0.00000000000E+00 -0.00000000000E+00 -0.73355245255E+02  0.73355245255E+02  0.00000000000E+00 0.  1.
         23    2    1    2    0    0 -0.26137075886E+02 -0.26579784615E+02  0.44112598124E+03  0.45195682193E+03  0.91012119407E+02 0.  0.
         23    2    1    2    0    0  0.80908835857E+02 -0.13690807121E+03  0.15686197173E+03  0.24089274806E+03  0.90186352684E+02 0.  0.
        -11    1    3    3    0    0 -0.41208223671E+02 -0.52404225605E+02  0.34126108263E+03  0.34771172986E+03  0.00000000000E+00 0.  1.
         11    1    3    3    0    0  0.15071147785E+02  0.25824440990E+02  0.99864898606E+02  0.10424509207E+03  0.00000000000E+00 0. -1.
        -13    1    4    4    0    0  0.31012111060E+02 -0.11719712101E+03  0.73537664956E+02  0.14179105886E+03  0.00000000000E+00 0.  1.
         13    1    4    4    0    0  0.49896724797E+02 -0.19710950204E+02  0.83324306777E+02  0.99101689205E+02  0.00000000000E+00 0. -1.
          1    1    1    2  501    0 -0.54771759971E+02  0.16348785583E+03  0.26075705401E+03  0.31260592750E+03  0.00000000000E+00 0. -1.
<scales pt_clust_5="13000.00000" pt_clust_6="13000.00000" pt_clust_7="13000.00000" pt_clust_8="13000.00000" pt_clust_9="13000.00000"></scales>
<clustering>
<clus scale="   90.186">  7  8 -1 -1</clus>
<clus scale="   91.012">  5  6 -1 -1</clus>
<clus scale="   98.351">  1  5  2 -1</clus>
<clus scale="  163.621">  7  9 -1 -1</clus>
<clus scale="  363.256">  2  5  1 -1</clus>
</clustering>
</event>
<event>
 9    1  0.6399313E-006  0.3765101E+03  0.7546771E-02  0.1087035E+00
         21   -1    0    0  501  502  0.00000000000E+00  0.00000000000E+00  0.23097970981E+03  0.23097970981E+03  0.00000000000E+00 0. -1.
          2   -1    0    0  502    0 -0.00000000000E+00 -0.00000000000E+00 -0.30098134236E+03  0.30098134236E+03  0.00000000000E+00 0. -1.
         23    2    1    2    0    0 -0.11885938414E+02  0.10788446605E+03 -0.56166429766E+02  0.15519685561E+03  0.95661186547E+02 0.  0.
         23    2    1    2    0    0  0.68089218538E+02  0.24501429377E+02 -0.14333147112E+03  0.18323353356E+03  0.88284514423E+02 0.  0.
        -13    1    3    3    0    0 -0.32038182122E+02  0.11613950130E+03 -0.36583302456E+02  0.12590935984E+03  0.00000000000E+00 0. -1.
         13    1    3    3    0    0  0.20152243707E+02 -0.82550352489E+01 -0.19583127310E+02  0.29287495773E+02  0.00000000000E+00 0.  1.
        -13    1    4    4    0    0  0.54315630343E+02 -0.14338083719E+02 -0.12706642550E+03  0.13893035966E+03  0.00000000000E+00 0.  1.
         13    1    4    4    0    0  0.13773588195E+02  0.38839513095E+02 -0.16265045611E+02  0.44303173904E+02  0.00000000000E+00 0. -1.
          2    1    1    2  501    0 -0.56203280124E+02 -0.13238589543E+03  0.12949626834E+03  0.19353066300E+03  0.00000000000E+00 0. -1.
<scales pt_clust_5="13000.00000" pt_clust_6="13000.00000" pt_clust_7="13000.00000" pt_clust_8="13000.00000" pt_clust_9="13000.00000"></scales>
<clustering>
<clus scale="   88.285">  7  8 -1 -1</clus>
<clus scale="   95.661">  5  6 -1 -1</clus>
<clus scale="  143.822">  7  9 -1 -1</clus>
<clus scale="  144.677">  2  5  1 -1</clus>
<clus scale="  376.510">  1  5  2 -1</clus>
</clustering>
</event>
<event>
 9    1  0.9774385E-006  0.7793560E+03  0.7546771E-02  0.1020368E+00
          1   -1    0    0  502    0 -0.00000000000E+00  0.00000000000E+00  0.42737648414E+03  0.42737648414E+03  0.00000000000E+00 0. -1.
         21   -1    0    0  501  502  0.00000000000E+00 -0.00000000000E+00 -0.47895166927E+03  0.47895166927E+03  0.00000000000E+00 0. -1.
         23    2    1    2    0    0 -0.61551766148E+02 -0.12590764531E+02 -0.66451492148E+02  0.12683015436E+03  0.87880259317E+02 0.  0.
         23    2    1    2    0    0  0.11942808863E+02  0.24181218676E+03  0.30900371226E+03  0.40331394894E+03  0.92536927105E+02 0.  0.
        -13    1    4    4    0    0 -0.22614811465E+02  0.14117008024E+02  0.17836176335E+02  0.32075673015E+02  0.00000000000E+00 0.  1.
         13    1    4    4    0    0  0.34557620328E+02  0.22769517873E+03  0.29116753592E+03  0.37123827593E+03  0.00000000000E+00 0. -1.
        -13    1    3    3    0    0 -0.36308232799E+02 -0.50154484169E+02 -0.46167513086E+02  0.77234702794E+02  0.00000000000E+00 0.  1.
         13    1    3    3    0    0 -0.25243533349E+02  0.37563719637E+02 -0.20283979062E+02  0.49595451561E+02  0.00000000000E+00 0. -1.
          1    1    1    2  501    0  0.49608957285E+02 -0.22922142222E+03 -0.29412740524E+03  0.37618405012E+03  0.00000000000E+00 0. -1.
<scales pt_clust_5="13000.00000" pt_clust_6="13000.00000" pt_clust_7="13000.00000" pt_clust_8="13000.00000" pt_clust_9="13000.00000"></scales>
<clustering>
<clus scale="   87.880">  7  8 -1 -1</clus>
<clus scale="   92.537">  5  6 -1 -1</clus>
<clus scale="  108.028">  1  7  2 -1</clus>
<clus scale="  234.544">  5  9 -1 -1</clus>
<clus scale="  779.356">  2  5  1 -1</clus>
</clustering>
</event>
<event>
 9    1  0.6399313E-006  0.1373443E+03  0.7546771E-02  0.1225178E+00
          1   -1    0    0  502    0 -0.00000000000E+00  0.00000000000E+00  0.40110014856E+03  0.40110014856E+03  0.00000000000E+00 0. -1.
         21   -1    0    0  501  502  0.00000000000E+00 -0.00000000000E+00 -0.64597743169E+02  0.64597743169E+02  0.00000000000E+00 0.  1.
         23    2    1    2    0    0 -0.42831114458E+02 -0.31063482081E+02  0.30304233129E+03  0.32433657844E+03  0.10276243125E+03 0.  0.
         23    2    1    2    0    0  0.11534053176E+02 -0.99317240632E+00  0.16489558530E+02  0.93453761265E+02  0.91256118589E+02 0.  0.
        -11    1    3    3    0    0  0.27766172947E+02 -0.18926993216E+02  0.42798730920E+02  0.54414362081E+02  0.00000000000E+00 0.  1.
         11    1    3    3    0    0 -0.70597287405E+02 -0.12136488866E+02  0.26024360037E+03  0.26992221636E+03  0.00000000000E+00 0. -1.
        -13    1    4    4    0    0 -0.90449610876E+01 -0.37018953272E+02 -0.15423390257E+02  0.41110767318E+02  0.00000000000E+00 0. -1.
         13    1    4    4    0    0  0.20579014264E+02  0.36025780866E+02  0.31912948788E+02  0.52342993947E+02  0.00000000000E+00 0.  1.
          1    1    1    2  501    0  0.31297061282E+02  0.32056654488E+02  0.16970515565E+02  0.47907552018E+02  0.00000000000E+00 0. -1.
<scales pt_clust_5="13000.00000" pt_clust_6="13000.00000" pt_clust_7="13000.00000" pt_clust_8="13000.00000" pt_clust_9="13000.00000"></scales>
<clustering>
<clus scale="   91.256">  7  8 -1 -1</clus>
<clus scale="   44.801">  7  9 -1 -1</clus>
<clus scale="  102.762">  5  6 -1 -1</clus>
<clus scale="  115.584">  1  5  2 -1</clus>
<clus scale="  137.344">  2  5  1 -1</clus>
</clustering>
</event>
<event>
 9    1  0.6399313E-006  0.4408642E+03  0.7546771E-02  0.1081489E+00
         21   -1    0    0  501  502  0.00000000000E+00  0.00000000000E+00  0.15367955577E+03  0.15367955577E+03  0.00000000000E+00 0.  1.
          1   -1    0    0  502    0 -0.00000000000E+00 -0.00000000000E+00 -0.55284091447E+03  0.55284091447E+03  0.00000000000E+00 0. -1.
         23    2    1    2    0    0  0.40555757546E+02  0.27925639728E+02 -0.19377018118E+03  0.22015969705E+03  0.92188927025E+02 0.  0.
         23    2    1    2    0    0  0.10425363402E+02  0.18468176850E+03 -0.34501107151E+02  0.20886410497E+03  0.90652325578E+02 0.  0.
        -11    1    3    3    0    0 -0.80185618618E+01  0.46407008220E+02 -0.12764175571E+03  0.13605265726E+03  0.00000000000E+00 0.  1.
         11    1    3    3    0    0  0.48574319408E+02 -0.18481368492E+02 -0.66128425470E+02  0.84107039791E+02  0.00000000000E+00 0. -1.
        -11    1    4    4    0    0 -0.78330498630E+01  0.70339955863E+02  0.29369008313E+02  0.76626396955E+02  0.00000000000E+00 0.  1.
         11    1    4    4    0    0  0.18258413265E+02  0.11434181263E+03 -0.63870115465E+02  0.13223770801E+03  0.00000000000E+00 0. -1.
          1    1    1    2  501    0 -0.50981120948E+02 -0.21260740823E+03 -0.17089007036E+03  0.27749666822E+03  0.00000000000E+00 0. -1.
<scales pt_clust_5="13000.00000" pt_clust_6="13000.00000" pt_clust_7="13000.00000" pt_clust_8="13000.00000" pt_clust_9="13000.00000"></scales>
<clustering>
<clus scale="   90.652">  7  8 -1 -1</clus>
<clus scale="   92.189">  5  6 -1 -1</clus>
<clus scale="  104.515">  2  5  1 -1</clus>
<clus scale="  196.068">  7  9 -1 -1</clus>
<clus scale="  440.864">  1  5  2 -1</clus>
</clustering>
</event>
<event>
 9    1  0.6399313E-006  0.2949778E+03  0.7546771E-02  0.1109062E+00
         -1   -1    0    0    0  501 -0.00000000000E+00  0.00000000000E+00  0.65129081963E+03  0.65129081963E+03  0.00000000000E+00 0.  1.
         21   -1    0    0  501  502  0.00000000000E+00 -0.00000000000E+00 -0.84588276991E+02  0.84588276991E+02  0.00000000000E+00 0. -1.
         23    2    1    2    0    0 -0.68761061696E+02 -0.12522139429E+03  0.15715178480E+03  0.23115764995E+03  0.91261681285E+02 0.  0.
         23    2    1    2    0    0  0.35584970108E+02  0.10071588151E+03  0.43429116250E+03  0.45662507639E+03  0.92128538873E+02 0.  0.
        -11    1    3    3    0    0 -0.48413930393E+02 -0.10465484336E+02  0.69430976996E+02  0.85288308607E+02  0.00000000000E+00 0.  1.
         11    1    3    3    0    0 -0.20347131302E+02 -0.11475590996E+03  0.87720807807E+02  0.14586934135E+03  0.00000000000E+00 0. -1.
        -11    1    4    4    0    0  0.63431116070E+02  0.70250480096E+02  0.23981916507E+03  0.25782138851E+03  0.00000000000E+00 0. -1.
         11    1    4    4    0    0 -0.27846145962E+02  0.30465401409E+02  0.19447199744E+03  0.19880368788E+03  0.00000000000E+00 0.  1.
         -1    1    1    2    0  502  0.33176091588E+02  0.24505512788E+02 -0.24740404672E+02  0.48096370272E+02  0.00000000000E+00 0.  1.
<scales pt_clust_5="13000.00000" pt_clust_6="13000.00000" pt_clust_7="13000.00000" pt_clust_8="13000.00000" pt_clust_9="13000.00000"></scales>
<clustering>
<clus scale="   91.262">  5  6 -1 -1</clus>
<clus scale="   92.129">  7  8 -1 -1</clus>
<clus scale="   41.245">  7  9 -1 -1</clus>
<clus scale="  169.521">  1  5  2 -1</clus>
<clus scale="  294.978">  2  5  1 -1</clus>
</clustering>
</event>
<event>
 9    1  0.6399313E-006  0.2079627E+03  0.7546771E-02  0.1174336E+00
         -2   -1    0    0    0  501 -0.00000000000E+00  0.00000000000E+00  0.43943711049E+03  0.43943711049E+03  0.00000000000E+00 0.  1.
         21   -1    0    0  501  502  0.00000000000E+00 -0.00000000000E+00 -0.68881070895E+02  0.68881070895E+02  0.00000000000E+00 0.  1.
         23    2    1    2    0    0 -0.37570396568E+02  0.74061854701E+01  0.24637371928E+03  0.26609978103E+03  0.92966110133E+02 0.  0.
         23    2    1    2    0    0  0.93548557380E+02 -0.45930551494E+02  0.99198675380E+02  0.16981768364E+03  0.90203771161E+02 0.  0.
        -11    1    4    4    0    0  0.53929502284E+02 -0.26137625626E+02 -0.13527488281E+01  0.59944946571E+02  0.00000000000E+00 0.  1.
         11    1    4    4    0    0  0.39619055096E+02 -0.19792925867E+02  0.10055142421E+03  0.10987273707E+03  0.00000000000E+00 0. -1.
        -11    1    3    3    0    0 -0.50211119660E+02 -0.27342178300E+02  0.10061753833E+03  0.11572657548E+03  0.00000000000E+00 0.  1.
         11    1    3    3    0    0  0.12640723092E+02  0.34748363770E+02  0.14575618095E+03  0.15037320556E+03  0.00000000000E+00 0. -1.
         -2    1    1    2    0  502 -0.55978160813E+02  0.38524366023E+02  0.24983644933E+02  0.72400716706E+02  0.00000000000E+00 0.  1.
<scales pt_clust_5="13000.00000" pt_clust_6="13000.00000" pt_clust_7="13000.00000" pt_clust_8="13000.00000" pt_clust_9="13000.00000"></scales>
<clustering>
<clus scale="   90.204">  5  6 -1 -1</clus>
<clus scale="   67.954">  5  9 -1 -1</clus>
<clus scale="   92.966">  7  8 -1 -1</clus>
<clus scale="  100.544">  1  7  2 -1</clus>
<clus scale="  207.963">  2  5  1 -1</clus>
</clustering>
</event>
<event>
 9    1  0.6399313E-006  0.2563865E+03  0.7546771E-02  0.1145025E+00
         21   -1    0    0  501  502  0.00000000000E+00  0.00000000000E+00  0.13049678989E+03  0.13049678989E+03  0.00000000000E+00 0.  1.
          1   -1    0    0  502    0 -0.00000000000E+00 -0.00000000000E+00 -0.28004281785E+03  0.28004281785E+03  0.00000000000E+00 0. -1.
         23    2    1    2    0    0 -0.47017867093E+02  0.26468791967E+02 -0.10678686716E+03  0.15061195633E+03  0.91483603008E+02 0.  0.
         23    2    1    2    0    0  0.96751664066E+02 -0.37576449722E+02 -0.10909277188E+03  0.17627970713E+03  0.91653849880E+02 0.  0.
        -11    1    4    4    0    0  0.21226726968E+02 -0.10575974924E+02 -0.91024910963E+02  0.94063593378E+02  0.00000000000E+00 0. -1.
         11    1    4    4    0    0  0.75524937098E+02 -0.27000474798E+02 -0.18067860915E+02  0.82216113756E+02  0.00000000000E+00 0.  1.
        -13    1    3    3    0    0 -0.60860487590E+02 -0.13643840432E+02 -0.51293204897E+02  0.80753614160E+02  0.00000000000E+00 0. -1.
         13    1    3    3    0    0  0.13842620497E+02  0.40112632398E+02 -0.55493662260E+02  0.69858342173E+02  0.00000000000E+00 0.  1.
          1    1    1    2  501    0 -0.49733796973E+02  0.11107657756E+02  0.66333611073E+02  0.83647944267E+02  0.00000000000E+00 0. -1.
<scales pt_clust_5="13000.00000" pt_clust_6="13000.00000" pt_clust_7="13000.00000" pt_clust_8="13000.00000" pt_clust_9="13000.00000"></scales>
<clustering>
<clus scale="   91.484">  7  8 -1 -1</clus>
<clus scale="   91.654">  5  6 -1 -1</clus>
<clus scale="   50.959">  5  9 -1 -1</clus>
<clus scale="  106.210">  2  7  1 -1</clus>
<clus scale="  256.387">  1  5  2 -1</clus>
</clustering>
</event>
<event>
 9    1  0.6399313E-006  0.2915063E+03  0.7546771E-02  0.1124888E+00
         21   -1    0    0  501  502  0.00000000000E+00  0.00000000000E+00  0.18341011436E+03  0.18341011436E+03  0.00000000000E+00 0. -1.
          1   -1    0    0  502    0 -0.00000000000E+00 -0.00000000000E+00 -0.23189126418E+03  0.23189126418E+03  0.00000000000E+00 0. -1.
         23    2    1    2    0    0 -0.75372472704E+02  0.20540379108E+02 -0.36715435707E+02  0.12355771971E+03  0.88405712848E+02 0.  0.
         23    2    1    2    0    0 -0.75666886445E+02  0.19918550839E+02 -0.51430908757E+02  0.13042676360E+03  0.90795241698E+02 0.  0.
        -13    1    4    4    0    0 -0.25774300147E+02  0.28252874491E+02  0.19797909243E+02  0.43063867400E+02  0.00000000000E+00 0.  1.
         13    1    4    4    0    0 -0.49892586298E+02 -0.83343236518E+01 -0.71228818000E+02  0.87362896197E+02  0.00000000000E+00 0. -1.
        -13    1    3    3    0    0  0.57887930478E+01 -0.23143756135E+02 -0.17021120779E+02  0.29306349578E+02  0.00000000000E+00 0.  1.
         13    1    3    3    0    0 -0.81161265752E+02  0.43684135243E+02 -0.19694314928E+02  0.94251370127E+02  0.00000000000E+00 0. -1.
          1    1    1    2  501    0  0.15103935915E+03 -0.40458929947E+02  0.39665194639E+02  0.16131689524E+03  0.00000000000E+00 0. -1.
<scales pt_clust_5="13000.00000" pt_clust_6="13000.00000" pt_clust_7="13000.00000" pt_clust_8="13000.00000" pt_clust_9="13000.00000"></scales>
<clustering>
<clus scale="   88.406">  7  8 -1 -1</clus>
<clus scale="   90.795">  5  6 -1 -1</clus>
<clus scale="  117.977">  2  7  1 -1</clus>
<clus scale="  125.053">  5  9 -1 -1</clus>
<clus scale="  291.506">  1  5  2 -1</clus>
</clustering>
</event>
<event>
 9    1  0.6399313E-006  0.2986537E+03  0.7546771E-02  0.1117161E+00
          4   -1    0    0  502    0 -0.00000000000E+00  0.00000000000E+00  0.26849255044E+03  0.26849255044E+03  0.00000000000E+00 0. -1.
         21   -1    0    0  501  502  0.00000000000E+00 -0.00000000000E+00 -0.17432009322E+03  0.17432009322E+03  0.00000000000E+00 0.  1.
         23    2    1    2    0    0  0.76712377351E+01 -0.99448348259E+02  0.42879335301E+02  0.13978623303E+03  0.88049597894E+02 0.  0.
         23    2    1    2    0    0  0.89340814672E+01 -0.50394618391E+01  0.13747821513E+03  0.16656649206E+03  0.93482205020E+02 0.  0.
        -11    1    3    3    0    0  0.34677800309E+02 -0.15978300572E+02  0.34840093695E+02  0.51688374439E+02  0.00000000000E+00 0. -1.
         11    1    3    3    0    0 -0.27006562574E+02 -0.83470047687E+02  0.80392416062E+01  0.88097858592E+02  0.00000000000E+00 0.  1.
        -13    1    4    4    0    0  0.31203402466E+02  0.13526540551E+02  0.13293854534E+03  0.13721981075E+03  0.00000000000E+00 0. -1.
         13    1    4    4    0    0 -0.22269320999E+02 -0.18566002390E+02  0.45396697925E+01  0.29346681317E+02  0.00000000000E+00 0.  1.
          4    1    1    2  501    0 -0.16605319202E+02  0.10448781010E+03 -0.86185093205E+02  0.13645991857E+03  0.00000000000E+00 0. -1.
<scales pt_clust_5="13000.00000" pt_clust_6="13000.00000" pt_clust_7="13000.00000" pt_clust_8="13000.00000" pt_clust_9="13000.00000"></scales>
<clustering>
<clus scale="   88.050">  5  6 -1 -1</clus>
<clus scale="   93.482">  7  8 -1 -1</clus>
<clus scale="  105.799">  7  9 -1 -1</clus>
<clus scale="  133.047">  1  5  2 -1</clus>
<clus scale="  298.654">  2  5  1 -1</clus>
</clustering>
</event>
<event>
 9    1  0.6399313E-006  0.1804904E+03  0.7546771E-02  0.1193246E+00
         21   -1    0    0  501  502  0.00000000000E+00  0.00000000000E+00  0.51922043553E+02  0.51922043553E+02  0.00000000000E+00 0. -1.
         -2   -1    0    0    0  501 -0.00000000000E+00 -0.00000000000E+00 -0.38863178295E+03  0.38863178295E+03  0.00000000000E+00 0.  1.
         23    2    1    2    0    0  0.41125123710E+02 -0.20392835769E+02 -0.15119144911E+03  0.18172216690E+03  0.89760504163E+02 0.  0.
         23    2    1    2    0    0 -0.12074835942E+02 -0.14290127800E+02 -0.19230087121E+03  0.21308419426E+03  0.89862335597E+02 0.  0.
        -11    1    3    3    0    0  0.64732052079E+02 -0.33290725152E+02 -0.12167719392E+03  0.14178804769E+03  0.00000000000E+00 0.  1.
         11    1    3    3    0    0 -0.23606928369E+02  0.12897889383E+02 -0.29514255187E+02  0.39934119206E+02  0.00000000000E+00 0. -1.
        -13    1    4    4    0    0  0.37848873294E+02  0.34318144710E+01 -0.94531885953E+02  0.10188519040E+03  0.00000000000E+00 0.  1.
         13    1    4    4    0    0 -0.49923709236E+02 -0.17721942271E+02 -0.97768985262E+02  0.11119900387E+03  0.00000000000E+00 0. -1.
         -2    1    1    2    0  502 -0.29050287768E+02  0.34682963569E+02  0.67825809259E+01  0.45747465343E+02  0.00000000000E+00 0.  1.
<scales pt_clust_5="13000.00000" pt_clust_6="13000.00000" pt_clust_7="13000.00000" pt_clust_8="13000.00000" pt_clust_9="13000.00000"></scales>
<clustering>
<clus scale="   89.761">  5  6 -1 -1</clus>
<clus scale="   89.862">  7  8 -1 -1</clus>
<clus scale="   45.242">  7  9 -1 -1</clus>
<clus scale="  100.817">  2  5  1 -1</clus>
<clus scale="  180.490">  1  5  2 -1</clus>
</clustering>
</event>
<event>
 9    1  0.6399313E-006  0.2968131E+03  0.7546771E-02  0.1124054E+00
          2   -1    0    0  502    0 -0.00000000000E+00  0.00000000000E+00  0.25081048535E+03  0.25081048535E+03  0.00000000000E+00 0. -1.
         21   -1    0    0  501  502  0.00000000000E+00 -0.00000000000E+00 -0.19308216872E+03  0.19308216872E+03  0.00000000000E+00 0.  1.
         23    2    1    2    0    0 -0.39574043501E+02 -0.63461708836E+02  0.90013430330E+02  0.14532886998E+03  0.86165941091E+02 0.  0.
         23    2    1    2    0    0  0.61884320141E+02  0.13516608695E+03 -0.96558986467E+02  0.19971846551E+03  0.92001562249E+02 0.  0.
        -11    1    4    4    0    0 -0.67994812777E+01  0.56639870969E+02 -0.73210407842E+02  0.92812023712E+02  0.00000000000E+00 0. -1.
         11    1    4    4    0    0  0.68683801418E+02  0.78526215978E+02 -0.23348578625E+02  0.10690644179E+03  0.00000000000E+00 0.  1.
        -13    1    3    3    0    0 -0.38223961772E+02  0.72123594034E+00  0.46393428604E+01  0.38511231310E+02  0.00000000000E+00 0.  1.
         13    1    3    3    0    0 -0.13500817282E+01 -0.64182944776E+02  0.85374087470E+02  0.10681763867E+03  0.00000000000E+00 0. -1.
          2    1    1    2  501    0 -0.22310276640E+02 -0.71704378112E+02  0.64273872771E+02  0.98845318580E+02  0.00000000000E+00 0. -1.
<scales pt_clust_5="13000.00000" pt_clust_6="13000.00000" pt_clust_7="13000.00000" pt_clust_8="13000.00000" pt_clust_9="13000.00000"></scales>
<clustering>
<clus scale="   86.166">  7  8 -1 -1</clus>
<clus scale="   92.002">  5  6 -1 -1</clus>
<clus scale="   75.095">  5  9 -1 -1</clus>
<clus scale="  114.097">  1  7  2 -1</clus>
<clus scale="  296.813">  2  5  1 -1</clus>
</clustering>
</event>
<event>
 9    1  0.6399313E-006  0.7761298E+03  0.7546771E-02  0.1016990E+00
         21   -1    0    0  501  502  0.00000000000E+00  0.00000000000E+00  0.26881334164E+03  0.26881334164E+03  0.00000000000E+00 0. -1.
          2   -1    0    0  502    0 -0.00000000000E+00 -0.00000000000E+00 -0.10850306506E+04  0.10850306506E+04  0.00000000000E+00 0. -1.
         23    2    1    2    0    0  0.76439465323E+02 -0.13303451244E+02  0.97099392070E+02  0.15529286942E+03  0.93099998277E+02 0.  0.
         23    2    1    2    0    0 -0.50549865044E+02 -0.35992895388E+03 -0.61443187043E+03  0.71969327166E+03  0.91256458253E+02 0.  0.
        -13    1    4    4    0    0  0.15904452889E+02 -0.16255971466E+02 -0.58206757632E+02  0.62491878384E+02  0.00000000000E+00 0.  1.
         13    1    4    4    0    0 -0.66454317933E+02 -0.34367298242E+03 -0.55622511280E+03  0.65720139328E+03  0.00000000000E+00 0. -1.
        -13    1    3    3    0    0  0.30774042281E+02 -0.19437334501E+02 -0.10800459692E+02  0.37967111825E+02  0.00000000000E+00 0.  1.
         13    1    3    3    0    0  0.45665423043E+02  0.61338832562E+01  0.10789985176E+03  0.11732575760E+03  0.00000000000E+00 0. -1.
          2    1    1    2  501    0 -0.25889600279E+02  0.37323240513E+03 -0.29888483056E+03  0.47885785112E+03  0.00000000000E+00 0. -1.
<scales pt_clust_5="13000.00000" pt_clust_6="13000.00000" pt_clust_7="13000.00000" pt_clust_8="13000.00000" pt_clust_9="13000.00000"></scales>
<clustering>
<clus scale="   91.256">  5  6 -1 -1</clus>
<clus scale="   93.100">  7  8 -1 -1</clus>
<clus scale="  121.192">  2  7  1 -1</clus>
<clus scale="  368.340">  5  9 -1 -1</clus>
<clus scale="  776.130">  1  5  2 -1</clus>
</clustering>
</event>
<event>
 9    1  0.6399313E-006  0.2269573E+03  0.7546771E-02  0.1142646E+00
         21   -1    0    0  501  502  0.00000000000E+00  0.00000000000E+00  0.14492314261E+03  0.14492314261E+03  0.00000000000E+00 0.  1.
         -1   -1    0    0    0  501 -0.00000000000E+00 -0.00000000000E+00 -0.50100934627E+03  0.50100934627E+03  0.00000000000E+00 0.  1.
         23    2    1    2    0    0 -0.10628323484E+03 -0.79236693544E+02 -0.38443473064E+03  0.41721153808E+03  0.93278217019E+02 0.  0.
         23    2    1    2    0    0  0.67762344699E+02  0.43543586253E+02 -0.51961445628E+02  0.13276497868E+03  0.91862769764E+02 0.  0.
        -11    1    3    3    0    0 -0.82435233137E+02 -0.98292386359E+02 -0.33912648267E+03  0.36257927702E+03  0.00000000000E+00 0.  1.
         11    1    3    3    0    0 -0.23848001698E+02  0.19055692815E+02 -0.45308247974E+02  0.54632261056E+02  0.00000000000E+00 0. -1.
        -13    1    4    4    0    0  0.83099545770E+02  0.82092610407E+01 -0.32469481193E+02  0.89594607444E+02  0.00000000000E+00 0.  1.
         13    1    4    4    0    0 -0.15337201072E+02  0.35334325213E+02 -0.19491964435E+02  0.43170371234E+02  0.00000000000E+00 0. -1.
         -1    1    1    2    0  502  0.38520890137E+02  0.35693107291E+02  0.80309972617E+02  0.95955972127E+02  0.00000000000E+00 0.  1.
<scales pt_clust_5="13000.00000" pt_clust_6="13000.00000" pt_clust_7="13000.00000" pt_clust_8="13000.00000" pt_clust_9="13000.00000"></scales>
<clustering>
<clus scale="   91.863">  7  8 -1 -1</clus>
<clus scale="   52.515">  7  9 -1 -1</clus>
<clus scale="   93.278">  5  6 -1 -1</clus>
<clus scale="  162.097">  2  5  1 -1</clus>
<clus scale="  226.957">  1  5  2 -1</clus>
</clustering>
</event>
<event>
 9    1  0.6399313E-006  0.3856540E+03  0.7546771E-02  0.1064205E+00
          2   -1    0    0  502    0 -0.00000000000E+00  0.00000000000E+00  0.11071089150E+04  0.11071089150E+04  0.00000000000E+00 0. -1.
         21   -1    0    0  501  502  0.00000000000E+00 -0.00000000000E+00 -0.96711953823E+02  0.96711953823E+02  0.00000000000E+00 0.  1.
         23    2    1    2    0    0  0.10635986717E+03  0.21101969264E+03  0.54257211282E+03  0.59752959400E+03  0.82555351499E+02 0.  0.
         23    2    1    2    0    0  0.41462669070E+02  0.81007245695E+01  0.22763124703E+03  0.24913833060E+03  0.92027976629E+02 0.  0.
        -11    1    3    3    0    0  0.38825225741E+01  0.70879641610E+02  0.22050954714E+03  0.23165374582E+03  0.00000000000E+00 0. -1.
         11    1    3    3    0    0  0.10247734460E+03  0.14014005103E+03  0.32206256569E+03  0.36587584817E+03  0.00000000000E+00 0.  1.
        -11    1    4    4    0    0  0.36238401198E+02 -0.38966645024E+02  0.13486991480E+03  0.14498798248E+03  0.00000000000E+00 0.  1.
         11    1    4    4    0    0  0.52242678720E+01  0.47067369593E+02  0.92761332236E+02  0.10415034812E+03  0.00000000000E+00 0. -1.
          2    1    1    2  501    0 -0.14782253624E+03 -0.21912041721E+03  0.24019360133E+03  0.35715294424E+03  0.00000000000E+00 0. -1.
<scales pt_clust_5="13000.00000" pt_clust_6="13000.00000" pt_clust_7="13000.00000" pt_clust_8="13000.00000" pt_clust_9="13000.00000"></scales>
<clustering>
<clus scale="   82.555">  5  6 -1 -1</clus>
<clus scale="   92.028">  7  8 -1 -1</clus>
<clus scale="  250.314">  1  5  2 -1</clus>
<clus scale="  134.979">  7  9 -1 -1</clus>
<clus scale="  385.654">  2  5  1 -1</clus>
</clustering>
</event>
<event>
 9    1  0.6399313E-006  0.2143144E+03  0.7546771E-02  0.1146112E+00
         21   -1    0    0  501  502  0.00000000000E+00  0.00000000000E+00  0.21787992615E+03  0.21787992615E+03  0.00000000000E+00 0.  1.
         -1   -1    0    0    0  501 -0.00000000000E+00 -0.00000000000E+00 -0.22605341288E+03  0.22605341288E+03  0.00000000000E+00 0.  1.
         23    2    1    2    0    0 -0.15134107311E+03 -0.44234030137E+01 -0.10800297250E+03  0.20750873902E+03  0.92041011481E+02 0.  0.
         23    2    1    2    0    0  0.71062166587E+02 -0.21773105049E+02  0.20189560590E+02  0.12034929019E+03  0.92479368877E+02 0.  0.
        -13    1    3    3    0    0 -0.73599026049E+02  0.51146125945E+01 -0.10601390825E+03  0.12915852523E+03  0.00000000000E+00 0.  1.
         13    1    3    3    0    0 -0.77742047065E+02 -0.95380156082E+01 -0.19890642463E+01  0.78350213785E+02  0.00000000000E+00 0. -1.
        -13    1    4    4    0    0  0.90010096742E+02 -0.33761708663E+02  0.18177743876E+02  0.97837113918E+02  0.00000000000E+00 0.  1.
         13    1    4    4    0    0 -0.18947930156E+02  0.11988603614E+02  0.20118167139E+01  0.22512176267E+02  0.00000000000E+00 0. -1.
         -1    1    1    2    0  502  0.80278906527E+02  0.26196508063E+02  0.79639925187E+02  0.11607530983E+03  0.00000000000E+00 0.  1.
<scales pt_clust_5="13000.00000" pt_clust_6="13000.00000" pt_clust_7="13000.00000" pt_clust_8="13000.00000" pt_clust_9="13000.00000"></scales>
<clustering>
<clus scale="   92.041">  5  6 -1 -1</clus>
<clus scale="   92.479">  7  8 -1 -1</clus>
<clus scale="   84.445">  7  9 -1 -1</clus>
<clus scale="  177.187">  2  5  1 -1</clus>
<clus scale="  214.314">  1  5  2 -1</clus>
</clustering>
</event>
<event>
 9    1  0.6399313E-006  0.6081209E+03  0.7546771E-02  0.1041912E+00
         21   -1    0    0  501  502  0.00000000000E+00  0.00000000000E+00  0.16745947008E+03  0.16745947008E+03  0.00000000000E+00 0. -1.
          1   -1    0    0  502    0 -0.00000000000E+00 -0.00000000000E+00 -0.79184844809E+03  0.79184844809E+03  0.00000000000E+00 0. -1.
         23    2    1    2    0    0  0.72181316630E+02  0.36239491315E+02 -0.10063640465E+03  0.15673219401E+03  0.88959830798E+02 0.  0.
         23    2    1    2    0    0 -0.20999713100E+03  0.94714083477E+02 -0.55697999575E+03  0.60958323974E+03  0.91079404224E+02 0.  0.
        -11    1    3    3    0    0  0.62127553719E+02 -0.17622370678E+02 -0.63301417470E+02  0.90429255958E+02  0.00000000000E+00 0. -1.
         11    1    3    3    0    0  0.10053762911E+02  0.53861861993E+02 -0.37334987185E+02  0.66302938051E+02  0.00000000000E+00 0.  1.
        -11    1    4    4    0    0 -0.54432811554E+02 -0.14647990838E+02 -0.15393632980E+03  0.16393257224E+03  0.00000000000E+00 0.  1.
         11    1    4    4    0    0 -0.15556431945E+03  0.10936207432E+03 -0.40304366594E+03  0.44565066750E+03  0.00000000000E+00 0. -1.
          1    1    1    2  501    0  0.13781581437E+03 -0.13095357479E+03  0.33227422393E+02  0.19299248441E+03  0.00000000000E+00 0. -1.
<scales pt_clust_5="13000.00000" pt_clust_6="13000.00000" pt_clust_7="13000.00000" pt_clust_8="13000.00000" pt_clust_9="13000.00000"></scales>
<clustering>
<clus scale="   88.960">  5  6 -1 -1</clus>
<clus scale="   91.079">  7  8 -1 -1</clus>
<clus scale="  120.155">  2  5  1 -1</clus>
<clus scale="  193.623">  7  9 -1 -1</clus>
<clus scale="  608.121">  1  5  2 -1</clus>
</clustering>
</event>
<event>
 9    1  0.6399313E-006  0.1264119E+03  0.7546771E-02  0.1244621E+00
         21   -1    0    0  501  502  0.00000000000E+00  0.00000000000E+00  0.10199168916E+03  0.10199168916E+03  0.00000000000E+00 0.  1.
          1   -1    0    0  502    0 -0.00000000000E+00 -0.00000000000E+00 -0.13488215680E+03  0.13488215680E+03  0.00000000000E+00 0. -1.
         23    2    1    2    0    0 -0.33049708647E+02 -0.24263563153E+02 -0.46242855013E+02  0.10975870133E+03  0.90705937734E+02 0.  0.
         23    2    1    2    0    0  0.63190990834E+01  0.15788229448E+02 -0.15139436108E+02  0.87138391705E+02  0.84111221492E+02 0.  0.
        -13    1    3    3    0    0  0.18425004414E+02 -0.41368548655E+02 -0.21936000180E+02  0.50319237965E+02  0.00000000000E+00 0. -1.
         13    1    3    3    0    0 -0.51474713061E+02  0.17104985502E+02 -0.24306854832E+02  0.59439463368E+02  0.00000000000E+00 0.  1.
        -13    1    4    4    0    0 -0.36297483209E+02 -0.35506347227E+01 -0.17137624786E+02  0.40296556646E+02  0.00000000000E+00 0.  1.
         13    1    4    4    0    0  0.42616582292E+02  0.19338864171E+02  0.19981886775E+01  0.46841835059E+02  0.00000000000E+00 0. -1.
          1    1    1    2  501    0  0.26730609564E+02  0.84753337054E+01  0.28491823474E+02  0.39976752919E+02  0.00000000000E+00 0. -1.
<scales pt_clust_5="13000.00000" pt_clust_6="13000.00000" pt_clust_7="13000.00000" pt_clust_8="13000.00000" pt_clust_9="13000.00000"></scales>
<clustering>
<clus scale="   84.111">  7  8 -1 -1</clus>
<clus scale="   28.042">  7  9 -1 -1</clus>
<clus scale="   90.706">  5  6 -1 -1</clus>
<clus scale="   99.542">  2  5  1 -1</clus>
<clus scale="  126.412">  1  5  2 -1</clus>
</clustering>
</event>
<event>
 9    1  0.6399313E-006  0.2146219E+03  0.7546771E-02  0.1157830E+00
         21   -1    0    0  501  502  0.00000000000E+00  0.00000000000E+00  0.86069088007E+03  0.86069088007E+03  0.00000000000E+00 0.  1.
         -2   -1    0    0    0  501 -0.00000000000E+00 -0.00000000000E+00 -0.14796921026E+03  0.14796921026E+03  0.00000000000E+00 0.  1.
         23    2    1    2    0    0 -0.90113062101E+02 -0.39420341536E+02 -0.10067072367E+03  0.16742900907E+03  0.90683797818E+02 0.  0.
         23    2    1    2    0    0 -0.33377702429E+01 -0.28709240093E+02  0.29701521056E+03  0.31206183329E+03  0.91264403318E+02 0.  0.
        -13    1    3    3    0    0 -0.73141858649E+02  0.91215627302E+01 -0.87379753079E+02  0.11431603405E+03  0.00000000000E+00 0.  1.
         13    1    3    3    0    0 -0.16971203452E+02 -0.48541904266E+02 -0.13290970595E+02  0.53112975022E+02  0.00000000000E+00 0. -1.
        -13    1    4    4    0    0  0.19364700854E+02 -0.52003101004E+02  0.12169393244E+03  0.13374874708E+03  0.00000000000E+00 0.  1.
         13    1    4    4    0    0 -0.22702471097E+02  0.23293860911E+02  0.17532127813E+03  0.17831308621E+03  0.00000000000E+00 0. -1.
         -2    1    1    2    0  502  0.93450832344E+02  0.68129581629E+02  0.51637718292E+03  0.52916924797E+03  0.00000000000E+00 0.  1.
<scales pt_clust_5="13000.00000" pt_clust_6="13000.00000" pt_clust_7="13000.00000" pt_clust_8="13000.00000" pt_clust_9="13000.00000"></scales>
<clustering>
<clus scale="   90.684">  5  6 -1 -1</clus>
<clus scale="   91.264">  7  8 -1 -1</clus>
<clus scale="  115.649">  7  9 -1 -1</clus>
<clus scale="  133.783">  2  5  1 -1</clus>
<clus scale="  214.622">  1  5  2 -1</clus>
</clustering>
</event>
<event>
 9    1  0.6399313E-006  0.1696801E+03  0.7546771E-02  0.1204275E+00
         21   -1    0    0  501  502  0.00000000000E+00  0.00000000000E+00  0.68137476013E+02  0.68137476013E+02  0.00000000000E+00 0.  1.
          1   -1    0    0  502    0 -0.00000000000E+00 -0.00000000000E+00 -0.28617244895E+03  0.28617244895E+03  0.00000000000E+00 0. -1.
         23    2    1    2    0    0 -0.74135142259E+01  0.23367724305E+02 -0.27830731753E+02  0.99419769793E+02  0.92242778923E+02 0.  0.
         23    2    1    2    0    0  0.20294298263E+02  0.61568117019E+01 -0.19993403274E+03  0.22124076189E+03  0.92326011524E+02 0.  0.
        -11    1    3    3    0    0  0.28324425865E+02  0.16361701437E+02 -0.47773331312E+02  0.57898787199E+02  0.00000000000E+00 0. -1.
         11    1    3    3    0    0 -0.35737940091E+02  0.70060228675E+01  0.19942599559E+02  0.41520982593E+02  0.00000000000E+00 0.  1.
        -11    1    4    4    0    0  0.36859943929E+02 -0.34660023803E+02 -0.11151230539E+03  0.12245393816E+03  0.00000000000E+00 0.  1.
         11    1    4    4    0    0 -0.16565645666E+02  0.40816835504E+02 -0.88421727345E+02  0.98786823735E+02  0.00000000000E+00 0. -1.
          1    1    1    2  501    0 -0.12880784037E+02 -0.29524536007E+02  0.97297915581E+01  0.33649393272E+02  0.00000000000E+00 0. -1.
<scales pt_clust_5="13000.00000" pt_clust_6="13000.00000" pt_clust_7="13000.00000" pt_clust_8="13000.00000" pt_clust_9="13000.00000"></scales>
<clustering>
<clus scale="   92.243">  5  6 -1 -1</clus>
<clus scale="   92.326">  7  8 -1 -1</clus>
<clus scale="   32.212">  7  9 -1 -1</clus>
<clus scale="   95.445">  2  5  1 -1</clus>
<clus scale="  169.680">  1  5  2 -1</clus>
</clustering>
</event>
<event>
 9    1  0.6399313E-006  0.2564354E+03  0.7546771E-02  0.1109748E+00
          2   -1    0    0  502    0 -0.00000000000E+00  0.00000000000E+00  0.15581825448E+04  0.15581825448E+04  0.00000000000E+00 0. -1.
         21   -1    0    0  501  502  0.00000000000E+00 -0.00000000000E+00 -0.41981323373E+02  0.41981323373E+02  0.00000000000E+00 0.  1.
         23    2    1    2    0    0  0.20014301500E+03  0.10712203282E+03  0.69179149262E+03  0.73679225690E+03  0.11293805465E+03 0.  0.
         23    2    1    2    0    0 -0.12514317190E+03 -0.50799363076E+02  0.55165290993E+03  0.57493877362E+03  0.89399505703E+02 0.  0.
        -13    1    4    4    0    0 -0.58482874207E+02 -0.69370083435E+02  0.35707616081E+03  0.36842345157E+03  0.00000000000E+00 0.  1.
         13    1    4    4    0    0 -0.66660297692E+02  0.18570720359E+02  0.19457674912E+03  0.20651532205E+03  0.00000000000E+00 0. -1.
        -13    1    3    3    0    0  0.12545790823E+03  0.23499111689E+02  0.48553447890E+03  0.50203149820E+03  0.00000000000E+00 0.  1.
         13    1    3    3    0    0  0.74685106778E+02  0.83622921132E+02  0.20625701372E+03  0.23476075869E+03  0.00000000000E+00 0. -1.
          2    1    1    2  501    0 -0.74999843104E+02 -0.56322669745E+02  0.27275681884E+03  0.28843283762E+03  0.00000000000E+00 0. -1.
<scales pt_clust_5="13000.00000" pt_clust_6="13000.00000" pt_clust_7="13000.00000" pt_clust_8="13000.00000" pt_clust_9="13000.00000"></scales>
<clustering>
<clus scale="   89.400">  5  6 -1 -1</clus>
<clus scale="   93.794">  5  9 -1 -1</clus>
<clus scale="  112.938">  7  8 -1 -1</clus>
<clus scale="  253.550">  1  7  2 -1</clus>
<clus scale="  256.435">  2  5  1 -1</clus>
</clustering>
</event>
<event>
 9    1  0.6399313E-006  0.3365858E+03  0.7546771E-02  0.1076020E+00
         -2   -1    0    0    0  501 -0.00000000000E+00  0.00000000000E+00  0.48679610679E+03  0.48679610679E+03  0.00000000000E+00 0.  1.
         21   -1    0    0  501  502  0.00000000000E+00 -0.00000000000E+00 -0.22873005190E+03  0.22873005190E+03  0.00000000000E+00 0.  1.
         23    2    1    2    0    0 -0.95342978431E+01 -0.25721092368E+03  0.26353874081E+03  0.37889590348E+03  0.88662707341E+02 0.  0.
         23    2    1    2    0    0 -0.18487836848E+02  0.36945343308E+02  0.42548993395E+02  0.10945576806E+03  0.91996683740E+02 0.  0.
        -13    1    4    4    0    0 -0.40356849425E+02  0.56755607812E+02  0.38774194940E+02  0.79707669059E+02  0.00000000000E+00 0.  1.
         13    1    4    4    0    0  0.21869012577E+02 -0.19810264503E+02  0.37747984544E+01  0.29748099001E+02  0.00000000000E+00 0. -1.
        -13    1    3    3    0    0 -0.36326279988E+02 -0.23304708270E+03  0.23430768068E+03  0.33246147235E+03  0.00000000000E+00 0.  1.
         13    1    3    3    0    0  0.26791982145E+02 -0.24163840981E+02  0.29231060128E+02  0.46434431130E+02  0.00000000000E+00 0. -1.
         -2    1    1    2    0  502  0.28022134691E+02  0.22026558037E+03 -0.48021679312E+02  0.22717448715E+03  0.00000000000E+00 0.  1.
<scales pt_clust_5="13000.00000" pt_clust_6="13000.00000" pt_clust_7="13000.00000" pt_clust_8="13000.00000" pt_clust_9="13000.00000"></scales>
<clustering>
<clus scale="   88.663">  7  8 -1 -1</clus>
<clus scale="   91.997">  5  6 -1 -1</clus>
<clus scale="  222.041">  5  9 -1 -1</clus>
<clus scale="  272.230">  1  7  2 -1</clus>
<clus scale="  336.586">  2  5  1 -1</clus>
</clustering>
</event>
<event>
 9    1  0.6399313E-006  0.1718758E+03  0.7546771E-02  0.1201247E+00
         21   -1    0    0  501  502  0.00000000000E+00  0.00000000000E+00  0.20751387538E+02  0.20751387538E+02  0.00000000000E+00 0.  1.
         -1   -1    0    0    0  501 -0.00000000000E+00 -0.00000000000E+00 -0.94660974455E+03  0.94660974455E+03  0.00000000000E+00 0.  1.
         23    2    1    2    0    0  0.39071285633E+02 -0.17722090233E+02 -0.47136679588E+03  0.48145591313E+03  0.88161795512E+02 0.  0.
         23    2    1    2    0    0  0.60566928169E+01 -0.21947458016E+02 -0.36933959890E+03  0.38168878949E+03  0.93574666830E+02 0.  0.
        -11    1    4    4    0    0 -0.10219176084E+02  0.33885215852E+02 -0.18630795930E+03  0.18963990907E+03  0.00000000000E+00 0. -1.
         11    1    4    4    0    0  0.16275868901E+02 -0.55832673868E+02 -0.18303163959E+03  0.19204888042E+03  0.00000000000E+00 0.  1.
        -11    1    3    3    0    0  0.67721381056E+02 -0.11547401088E+02 -0.33661847145E+03  0.34355716154E+03  0.00000000000E+00 0.  1.
         11    1    3    3    0    0 -0.28650095423E+02 -0.61746891448E+01 -0.13474832442E+03  0.13789875158E+03  0.00000000000E+00 0. -1.
         -1    1    1    2    0  502 -0.45127978450E+02  0.39669548249E+02 -0.85151962244E+02  0.10421642947E+03  0.00000000000E+00 0.  1.
<scales pt_clust_5="13000.00000" pt_clust_6="13000.00000" pt_clust_7="13000.00000" pt_clust_8="13000.00000" pt_clust_9="13000.00000"></scales>
<clustering>
<clus scale="   88.162">  7  8 -1 -1</clus>
<clus scale="   93.575">  5  6 -1 -1</clus>
<clus scale="   60.085">  5  9 -1 -1</clus>
<clus scale="   98.047">  2  7  1 -1</clus>
<clus scale="  171.876">  1  5  2 -1</clus>
</clustering>
</event>
<event>
 9    1  0.6399313E-006  0.2446075E+03  0.7546771E-02  0.1141786E+00
          1   -1    0    0  502    0 -0.00000000000E+00  0.00000000000E+00  0.23874550503E+03  0.23874550503E+03  0.00000000000E+00 0. -1.
         21   -1    0    0  501  502  0.00000000000E+00 -0.00000000000E+00 -0.15816571471E+03  0.15816571471E+03  0.00000000000E+00 0. -1.
         23    2    1    2    0    0 -0.18091482268E+02 -0.94551547793E+02  0.75555981316E+02  0.15225213779E+03  0.90579855529E+02 0.  0.
         23    2    1    2    0    0 -0.61941720339E+02  0.49279729300E+01  0.42287561162E+02  0.11885651475E+03  0.92073729336E+02 0.  0.
        -13    1    4    4    0    0 -0.57218501115E+02 -0.17391992348E+02  0.63837338420E+02  0.87473676293E+02  0.00000000000E+00 0. -1.
         13    1    4    4    0    0 -0.47232192244E+01  0.22319965278E+02 -0.21549777258E+02  0.31382838458E+02  0.00000000000E+00 0.  1.
        -13    1    3    3    0    0  0.32041844621E+02 -0.10162654316E+02  0.24614999008E+02  0.41663623530E+02  0.00000000000E+00 0.  1.
         13    1    3    3    0    0 -0.50133326890E+02 -0.84388893477E+02  0.50940982308E+02  0.11058851426E+03  0.00000000000E+00 0. -1.
          1    1    1    2  501    0  0.80033202608E+02  0.89623574863E+02 -0.37263752160E+02  0.12580256721E+03  0.00000000000E+00 0. -1.
<scales pt_clust_5="13000.00000" pt_clust_6="13000.00000" pt_clust_7="13000.00000" pt_clust_8="13000.00000" pt_clust_9="13000.00000"></scales>
<clustering>
<clus scale="   90.580">  7  8 -1 -1</clus>
<clus scale="   92.074">  5  6 -1 -1</clus>
<clus scale="  120.157">  5  9 -1 -1</clus>
<clus scale="  132.182">  1  7  2 -1</clus>
<clus scale="  244.607">  2  5  1 -1</clus>
</clustering>
</event>
<event>
 9    1  0.6399313E-006  0.1716446E+03  0.7546771E-02  0.1200759E+00
          3   -1    0    0  502    0 -0.00000000000E+00  0.00000000000E+00  0.14540706056E+03  0.14540706056E+03  0.00000000000E+00 0. -1.
         21   -1    0    0  501  502  0.00000000000E+00 -0.00000000000E+00 -0.14441646888E+03  0.14441646888E+03  0.00000000000E+00 0.  1.
         23    2    1    2    0    0 -0.76614576138E+01  0.37827933526E+02 -0.49202234832E+02  0.11099066966E+03  0.91697428272E+02 0.  0.
         23    2    1    2    0    0  0.54273621087E+02 -0.33297379975E+02  0.65773726916E+02  0.12947716957E+03  0.91563163055E+02 0.  0.
        -11    1    3    3    0    0  0.38050949188E+02  0.37896394685E+02 -0.24448349832E+02  0.59006213858E+02  0.00000000000E+00 0.  1.
         11    1    3    3    0    0 -0.45712406802E+02 -0.68461159905E-01 -0.24753885000E+02  0.51984455803E+02  0.00000000000E+00 0. -1.
        -11    1    4    4    0    0 -0.17489314115E+02 -0.35616020844E+02  0.25231238078E+02  0.47021191222E+02  0.00000000000E+00 0. -1.
         11    1    4    4    0    0  0.71762935202E+02  0.23186408695E+01  0.40542488838E+02  0.82455978349E+02  0.00000000000E+00 0.  1.
          3    1    1    2  501    0 -0.46612163473E+02 -0.45305535510E+01 -0.15580900403E+02  0.49355690214E+02  0.00000000000E+00 0. -1.
<scales pt_clust_5="13000.00000" pt_clust_6="13000.00000" pt_clust_7="13000.00000" pt_clust_8="13000.00000" pt_clust_9="13000.00000"></scales>
<clustering>
<clus scale="   91.563">  7  8 -1 -1</clus>
<clus scale="   46.832">  7  9 -1 -1</clus>
<clus scale="   91.697">  5  6 -1 -1</clus>
<clus scale="   99.489">  1  5  2 -1</clus>
<clus scale="  171.645">  2  5  1 -1</clus>
</clustering>
</event>
<event>
 9    1  0.6399313E-006  0.2116317E+03  0.7546771E-02  0.1164885E+00
         -3   -1    0    0    0  501 -0.00000000000E+00  0.00000000000E+00  0.23029784920E+03  0.23029784920E+03  0.00000000000E+00 0.  1.
         21   -1    0    0  501  502  0.00000000000E+00 -0.00000000000E+00 -0.21738288246E+03  0.21738288246E+03  0.00000000000E+00 0.  1.
         23    2    1    2    0    0  0.74940549812E+02  0.11383798464E+01  0.15329397671E+03  0.19372358232E+03  0.91719142697E+02 0.  0.
         23    2    1    2    0    0 -0.34191121664E+02 -0.17407410769E+02 -0.17228640229E+03  0.19970515449E+03  0.93421055259E+02 0.  0.
        -11    1    4    4    0    0 -0.32217577368E+02  0.86026966697E+01 -0.17031181621E+03  0.17354565227E+03  0.00000000000E+00 0.  1.
         11    1    4    4    0    0 -0.19735442959E+01 -0.26010107438E+02 -0.19745860767E+01  0.26159502216E+02  0.00000000000E+00 0. -1.
        -13    1    3    3    0    0  0.58309039817E+02 -0.40537657446E+02  0.11273255160E+03  0.13323615870E+03  0.00000000000E+00 0.  1.
         13    1    3    3    0    0  0.16631509995E+02  0.41676037292E+02  0.40561425109E+02  0.60487423618E+02  0.00000000000E+00 0. -1.
         -3    1    1    2    0  502 -0.40749428148E+02  0.16269030922E+02  0.31907392312E+02  0.54251994855E+02  0.00000000000E+00 0.  1.
<scales pt_clust_5="13000.00000" pt_clust_6="13000.00000" pt_clust_7="13000.00000" pt_clust_8="13000.00000" pt_clust_9="13000.00000"></scales>
<clustering>
<clus scale="   91.719">  7  8 -1 -1</clus>
<clus scale="   93.421">  5  6 -1 -1</clus>
<clus scale="   43.877">  5  9 -1 -1</clus>
<clus scale="  118.447">  1  7  2 -1</clus>
<clus scale="  211.632">  2  5  1 -1</clus>
</clustering>
</event>
<event>
 9    1  0.6399313E-006  0.2112581E+03  0.7546771E-02  0.1151881E+00
          1   -1    0    0  502    0 -0.00000000000E+00  0.00000000000E+00  0.55211573874E+03  0.55211573874E+03  0.00000000000E+00 0. -1.
         21   -1    0    0  501  502  0.00000000000E+00 -0.00000000000E+00 -0.71328842225E+02  0.71328842225E+02  0.00000000000E+00 0.  1.
         23    2    1    2    0    0 -0.12989826638E+03 -0.41782331244E+02  0.10539843305E+03  0.19269349663E+03  0.86038544509E+02 0.  0.
         23    2    1    2    0    0  0.18477820856E+02  0.17324305561E+01  0.15747523855E+03  0.18274970567E+03  0.90854680605E+02 0.  0.
        -11    1    4    4    0    0  0.24440939885E+02 -0.31685147447E+02  0.27850814186E+02  0.48754240451E+02  0.00000000000E+00 0.  1.
         11    1    4    4    0    0 -0.59631190287E+01  0.33417578003E+02  0.12962442436E+03  0.13399546522E+03  0.00000000000E+00 0. -1.
        -13    1    3    3    0    0 -0.61929748881E+02 -0.25549854707E+02  0.91989835384E+00  0.66999515558E+02  0.00000000000E+00 0.  1.
         13    1    3    3    0    0 -0.67968517498E+02 -0.16232476538E+02  0.10447853469E+03  0.12569398107E+03  0.00000000000E+00 0. -1.
          1    1    1    2  501    0  0.11142044552E+03  0.40049900688E+02  0.21791322492E+03  0.24800137867E+03  0.00000000000E+00 0. -1.
<scales pt_clust_5="13000.00000" pt_clust_6="13000.00000" pt_clust_7="13000.00000" pt_clust_8="13000.00000" pt_clust_9="13000.00000"></scales>
<clustering>
<clus scale="   86.039">  7  8 -1 -1</clus>
<clus scale="   90.855">  5  6 -1 -1</clus>
<clus scale="  118.400">  5  9 -1 -1</clus>
<clus scale="  161.313">  1  7  2 -1</clus>
<clus scale="  211.258">  2  5  1 -1</clus>
</clustering>
</event>
<event>
 9    1  0.6399313E-006  0.2848896E+03  0.7546771E-02  0.1130280E+00
          1   -1    0    0  502    0 -0.00000000000E+00  0.00000000000E+00  0.26619194664E+03  0.26619194664E+03  0.00000000000E+00 0. -1.
         21   -1    0    0  501  502  0.00000000000E+00 -0.00000000000E+00 -0.14754824345E+03  0.14754824345E+03  0.00000000000E+00 0.  1.
         23    2    1    2    0    0  0.54999368749E+01  0.61853203555E+02  0.45282122129E+02  0.11955660276E+03  0.91581890043E+02 0.  0.
         23    2    1    2    0    0 -0.41995677381E+02 -0.17642193609E+01  0.15498282975E+03  0.18645869079E+03  0.94765059312E+02 0.  0.
        -11    1    4    4    0    0  0.11209707508E+02  0.35951535609E+02  0.45956151264E+02  0.59414966920E+02  0.00000000000E+00 0.  1.
         11    1    4    4    0    0 -0.53205384889E+02 -0.37715754970E+02  0.10902667848E+03  0.12704372387E+03  0.00000000000E+00 0. -1.
        -13    1    3    3    0    0  0.16448407689E+02  0.16173267179E+02 -0.25639692775E+02  0.34489397391E+02  0.00000000000E+00 0.  1.
         13    1    3    3    0    0 -0.10948470814E+02  0.45679936376E+02  0.70921814904E+02  0.85067205372E+02  0.00000000000E+00 0. -1.
          1    1    1    2  501    0  0.36495740506E+02 -0.60088984194E+02 -0.81621248681E+02  0.10772489653E+03  0.00000000000E+00 0. -1.
<scales pt_clust_5="13000.00000" pt_clust_6="13000.00000" pt_clust_7="13000.00000" pt_clust_8="13000.00000" pt_clust_9="13000.00000"></scales>
<clustering>
<clus scale="   91.582">  7  8 -1 -1</clus>
<clus scale="   94.765">  5  6 -1 -1</clus>
<clus scale="   70.304">  5  9 -1 -1</clus>
<clus scale="  110.649">  1  7  2 -1</clus>
<clus scale="  284.890">  2  5  1 -1</clus>
</clustering>
</event>
<event>
 9    1  0.6399313E-006  0.3263154E+03  0.7546771E-02  0.1089482E+00
         -4   -1    0    0    0  501 -0.00000000000E+00  0.00000000000E+00  0.30766972372E+03  0.30766972372E+03  0.00000000000E+00 0.  1.
         21   -1    0    0  501  502  0.00000000000E+00 -0.00000000000E+00 -0.40989972891E+03  0.40989972891E+03  0.00000000000E+00 0.  1.
         23    2    1    2    0    0 -0.78431472761E+02  0.17000680380E+03  0.18821309823E+03  0.28071826503E+03  0.91240148628E+02 0.  0.
         23    2    1    2    0    0  0.75356562960E+02 -0.40366485928E+02 -0.11608818715E+02  0.12933756934E+03  0.96360663154E+02 0.  0.
        -13    1    4    4    0    0  0.83133281903E+02  0.40394717887E+01 -0.20667779095E+01  0.83257020504E+02  0.00000000000E+00 0.  1.
         13    1    4    4    0    0 -0.77767189431E+01 -0.44405957717E+02 -0.95420408057E+01  0.46080548836E+02  0.00000000000E+00 0. -1.
        -13    1    3    3    0    0 -0.75959304427E+02  0.73978728938E+02  0.64568768647E+02  0.12414424734E+03  0.00000000000E+00 0. -1.
         13    1    3    3    0    0 -0.24721683344E+01  0.96028074858E+02  0.12364432958E+03  0.15657401769E+03  0.00000000000E+00 0.  1.
         -4    1    1    2    0  502  0.30749098016E+01 -0.12964031787E+03 -0.27883428470E+03  0.30751361825E+03  0.00000000000E+00 0.  1.
<scales pt_clust_5="13000.00000" pt_clust_6="13000.00000" pt_clust_7="13000.00000" pt_clust_8="13000.00000" pt_clust_9="13000.00000"></scales>
<clustering>
<clus scale="   91.240">  7  8 -1 -1</clus>
<clus scale="   96.361">  5  6 -1 -1</clus>
<clus scale="  129.677">  5  9 -1 -1</clus>
<clus scale="  208.275">  1  7  2 -1</clus>
<clus scale="  326.315">  2  5  1 -1</clus>
</clustering>
</event>
<event>
 9    1  0.6399313E-006  0.3968410E+03  0.7546771E-02  0.1082675E+00
          2   -1    0    0  502    0 -0.00000000000E+00  0.00000000000E+00  0.18565402982E+04  0.18565402982E+04  0.00000000000E+00 0. -1.
         21   -1    0    0  501  502  0.00000000000E+00 -0.00000000000E+00 -0.39005286150E+02  0.39005286150E+02  0.00000000000E+00 0. -1.
         23    2    1    2    0    0 -0.88687550258E+02 -0.51420914557E+02  0.55595222221E+03  0.57302000209E+03  0.93591972864E+02 0.  0.
         23    2    1    2    0    0  0.25457880377E+02  0.20392650643E+03  0.85786587095E+03  0.88635669605E+03  0.86372544208E+02 0.  0.
        -11    1    3    3    0    0  0.14695824434E+02 -0.26712922495E+02  0.16928476785E+03  0.17200837221E+03  0.00000000000E+00 0.  1.
         11    1    3    3    0    0 -0.10338337469E+03 -0.24707992062E+02  0.38666745436E+03  0.40101162988E+03  0.00000000000E+00 0. -1.
        -11    1    4    4    0    0 -0.50716419003E+01  0.98809957586E+02  0.56717419082E+03  0.57573925696E+03  0.00000000000E+00 0.  1.
         11    1    4    4    0    0  0.30529522277E+02  0.10511654884E+03  0.29069168013E+03  0.31061743910E+03  0.00000000000E+00 0. -1.
          2    1    1    2  501    0  0.63229669882E+02 -0.15250559187E+03  0.40371691889E+03  0.43616888622E+03  0.00000000000E+00 0. -1.
<scales pt_clust_5="13000.00000" pt_clust_6="13000.00000" pt_clust_7="13000.00000" pt_clust_8="13000.00000" pt_clust_9="13000.00000"></scales>
<clustering>
<clus scale="   86.373">  7  8 -1 -1</clus>
<clus scale="   93.592">  5  6 -1 -1</clus>
<clus scale="  138.813">  1  5  2 -1</clus>
<clus scale="  172.681">  7  9 -1 -1</clus>
<clus scale="  396.841">  2  5  1 -1</clus>
</clustering>
</event>
<event>
 9    1  0.6399313E-006  0.3206344E+03  0.7546771E-02  0.1078900E+00
         -4   -1    0    0    0  501 -0.00000000000E+00  0.00000000000E+00  0.41448741288E+03  0.41448741288E+03  0.00000000000E+00 0.  1.
         21   -1    0    0  501  502  0.00000000000E+00 -0.00000000000E+00 -0.27513437619E+03  0.27513437619E+03  0.00000000000E+00 0. -1.
         23    2    1    2    0    0 -0.16289196993E+03 -0.22386569358E+03  0.21271760649E+03  0.36070119621E+03  0.90592108971E+02 0.  0.
         23    2    1    2    0    0  0.66884119194E+02  0.18644880222E+03 -0.51782152766E+02  0.22364318842E+03  0.89990239091E+02 0.  0.
        -11    1    4    4    0    0  0.51117185434E+02  0.14892361741E+03  0.41394704430E+00  0.15745279236E+03  0.00000000000E+00 0. -1.
         11    1    4    4    0    0  0.15766933759E+02  0.37525184806E+02 -0.52196099810E+02  0.66190396058E+02  0.00000000000E+00 0.  1.
        -13    1    3    3    0    0 -0.42559674581E+02 -0.69775963454E+01  0.27596097938E+02  0.51201146204E+02  0.00000000000E+00 0. -1.
         13    1    3    3    0    0 -0.12033229534E+03 -0.21688809723E+03  0.18512150855E+03  0.30950005000E+03  0.00000000000E+00 0.  1.
         -4    1    1    2    0  502  0.96007850732E+02  0.37416891363E+02 -0.21582417038E+02  0.10527740444E+03  0.00000000000E+00 0.  1.
<scales pt_clust_5="13000.00000" pt_clust_6="13000.00000" pt_clust_7="13000.00000" pt_clust_8="13000.00000" pt_clust_9="13000.00000"></scales>
<clustering>
<clus scale="   89.990">  5  6 -1 -1</clus>
<clus scale="   90.592">  7  8 -1 -1</clus>
<clus scale="  103.041">  5  9 -1 -1</clus>
<clus scale="  291.302">  1  7  2 -1</clus>
<clus scale="  320.634">  2  5  1 -1</clus>
</clustering>
</event>
<event>
 9    1  0.6399313E-006  0.1945739E+03  0.7546771E-02  0.1186647E+00
         21   -1    0    0  501  502  0.00000000000E+00  0.00000000000E+00  0.11220779755E+03  0.11220779755E+03  0.00000000000E+00 0. -1.
          2   -1    0    0  502    0 -0.00000000000E+00 -0.00000000000E+00 -0.30393971576E+03  0.30393971576E+03  0.00000000000E+00 0. -1.
         23    2    1    2    0    0  0.14066774819E+02  0.11005187738E+02 -0.20082826236E+03  0.22136107371E+03  0.91376942835E+02 0.  0.
         23    2    1    2    0    0  0.55138717783E+02 -0.51237300191E+02  0.26552747814E+02  0.11285507133E+03  0.79785209018E+02 0.  0.
        -13    1    4    4    0    0  0.65432049329E+02 -0.27535763883E+02  0.42259046104E+02  0.82615969096E+02  0.00000000000E+00 0. -1.
         13    1    4    4    0    0 -0.10293331547E+02 -0.23701536308E+02 -0.15706298291E+02  0.30239102230E+02  0.00000000000E+00 0.  1.
        -13    1    3    3    0    0  0.48501605509E+02  0.28983828315E+01 -0.16060771317E+03  0.16779643586E+03  0.00000000000E+00 0. -1.
         13    1    3    3    0    0 -0.34434830691E+02  0.81068049067E+01 -0.40220549193E+02  0.53564637849E+02  0.00000000000E+00 0.  1.
          2    1    1    2  501    0 -0.69205492601E+02  0.40232112453E+02 -0.17456403657E+02  0.81931368274E+02  0.00000000000E+00 0. -1.
<scales pt_clust_5="13000.00000" pt_clust_6="13000.00000" pt_clust_7="13000.00000" pt_clust_8="13000.00000" pt_clust_9="13000.00000"></scales>
<clustering>
<clus scale="   79.785">  5  6 -1 -1</clus>
<clus scale="   80.050">  5  9 -1 -1</clus>
<clus scale="   91.377">  7  8 -1 -1</clus>
<clus scale="   93.106">  2  7  1 -1</clus>
<clus scale="  194.574">  1  5  2 -1</clus>
</clustering>
</event>
<event>
 9    1  0.6399313E-006  0.2034763E+03  0.7546771E-02  0.1174239E+00
         21   -1    0    0  501  502  0.00000000000E+00  0.00000000000E+00  0.56937230227E+02  0.56937230227E+02  0.00000000000E+00 0.  1.
          2   -1    0    0  502    0 -0.00000000000E+00 -0.00000000000E+00 -0.54843589611E+03  0.54843589611E+03  0.00000000000E+00 0. -1.
         23    2    1    2    0    0  0.16977840099E+02  0.55473724600E+02 -0.32536544467E+03  0.34268916741E+03  0.90595870243E+02 0.  0.
         23    2    1    2    0    0  0.20717215019E+01 -0.15623795784E+02 -0.18869047145E+03  0.21308827199E+03  0.97745192292E+02 0.  0.
        -11    1    3    3    0    0 -0.41085195932E+01  0.73352248015E+02 -0.28074554309E+03  0.29019905614E+03  0.00000000000E+00 0. -1.
         11    1    3    3    0    0  0.21086359692E+02 -0.17878523415E+02 -0.44619901577E+02  0.52490111272E+02  0.00000000000E+00 0.  1.
        -13    1    4    4    0    0  0.43445816453E+02 -0.17099135188E+02 -0.50262823149E+02  0.68602265140E+02  0.00000000000E+00 0.  1.
         13    1    4    4    0    0 -0.41374094951E+02  0.14753394042E+01 -0.13842764830E+03  0.14448600685E+03  0.00000000000E+00 0. -1.
          2    1    1    2  501    0 -0.19049561601E+02 -0.39849928817E+02  0.22557250241E+02  0.49595686932E+02  0.00000000000E+00 0. -1.
<scales pt_clust_5="13000.00000" pt_clust_6="13000.00000" pt_clust_7="13000.00000" pt_clust_8="13000.00000" pt_clust_9="13000.00000"></scales>
<clustering>
<clus scale="   90.596">  5  6 -1 -1</clus>
<clus scale="   97.745">  7  8 -1 -1</clus>
<clus scale="   44.169">  7  9 -1 -1</clus>
<clus scale="  107.579">  2  5  1 -1</clus>
<clus scale="  203.476">  1  5  2 -1</clus>
</clustering>
</event>
<event>
 9    1  0.6399313E-006  0.2661791E+03  0.7546771E-02  0.1142827E+00
          1   -1    0    0  502    0 -0.00000000000E+00  0.00000000000E+00  0.69592483281E+02  0.69592483281E+02  0.00000000000E+00 0. -1.
         21   -1    0    0  501  502  0.00000000000E+00 -0.00000000000E+00 -0.77369548498E+03  0.77369548498E+03  0.00000000000E+00 0. -1.
         23    2    1    2    0    0 -0.31509379818E+02  0.13543485889E+02 -0.10778972009E+02  0.10062415102E+03  0.93982798977E+02 0.  0.
         23    2    1    2    0    0 -0.23618318828E+02 -0.10401698048E+03 -0.24948457706E+03  0.28635473769E+03  0.91537557259E+02 0.  0.
        -11    1    4    4    0    0  0.21108717428E+02 -0.82732419560E+02 -0.19411024719E+03  0.21205899949E+03  0.00000000000E+00 0.  1.
         11    1    4    4    0    0 -0.44727036256E+02 -0.21284560921E+02 -0.55374329872E+02  0.74295738200E+02  0.00000000000E+00 0. -1.
        -13    1    3    3    0    0  0.25543480307E+02  0.15170827878E+02 -0.28186621417E+02  0.40952521675E+02  0.00000000000E+00 0.  1.
         13    1    3    3    0    0 -0.57052860124E+02 -0.16273419884E+01  0.17407649408E+02  0.59671629341E+02  0.00000000000E+00 0. -1.
          1    1    1    2  501    0  0.55127698646E+02  0.90473494592E+02 -0.44383945263E+03  0.45630907956E+03  0.00000000000E+00 0. -1.
<scales pt_clust_5="13000.00000" pt_clust_6="13000.00000" pt_clust_7="13000.00000" pt_clust_8="13000.00000" pt_clust_9="13000.00000"></scales>
<clustering>
<clus scale="   91.538">  5  6 -1 -1</clus>
<clus scale="   93.983">  7  8 -1 -1</clus>
<clus scale="  100.045">  1  7  2 -1</clus>
<clus scale="  105.076">  5  9 -1 -1</clus>
<clus scale="  266.179">  2  5  1 -1</clus>
</clustering>
</event>
<event>
 9    1  0.6399313E-006  0.2677594E+03  0.7546771E-02  0.1144444E+00
          2   -1    0    0  502    0 -0.00000000000E+00  0.00000000000E+00  0.67122634866E+02  0.67122634866E+02  0.00000000000E+00 0. -1.
         21   -1    0    0  501  502  0.00000000000E+00 -0.00000000000E+00 -0.60618228765E+03  0.60618228765E+03  0.00000000000E+00 0. -1.
         23    2    1    2    0    0  0.16573971613E+02  0.12438338749E+02 -0.31871648285E+02  0.99776578258E+02  0.92250500263E+02 0.  0.
         23    2    1    2    0    0  0.26750548405E+02 -0.11665934277E+03 -0.24628572629E+03  0.28925905206E+03  0.93215589503E+02 0.  0.
        -11    1    4    4    0    0 -0.28582792080E+02 -0.18340326196E+02 -0.29987716778E+02  0.45305703014E+02  0.00000000000E+00 0.  1.
         11    1    4    4    0    0  0.55333340486E+02 -0.98319016575E+02 -0.21629800951E+03  0.24395334904E+03  0.00000000000E+00 0. -1.
        -13    1    3    3    0    0 -0.16726934688E+02  0.13460427311E+02 -0.55117695478E+02  0.59151786129E+02  0.00000000000E+00 0.  1.
         13    1    3    3    0    0  0.33300906301E+02 -0.10220885614E+01  0.23246047193E+02  0.40624792130E+02  0.00000000000E+00 0. -1.
          2    1    1    2  501    0 -0.43324520018E+02  0.10422100402E+03 -0.26090227821E+03  0.28426929220E+03  0.00000000000E+00 0. -1.
<scales pt_clust_5="13000.00000" pt_clust_6="13000.00000" pt_clust_7="13000.00000" pt_clust_8="13000.00000" pt_clust_9="13000.00000"></scales>
<clustering>
<clus scale="   92.251">  7  8 -1 -1</clus>
<clus scale="   93.216">  5  6 -1 -1</clus>
<clus scale="   94.549">  1  7  2 -1</clus>
<clus scale="  114.890">  5  9 -1 -1</clus>
<clus scale="  267.759">  2  5  1 -1</clus>
</clustering>
</event>
<event>
 9    1  0.6399313E-006  0.9703764E+03  0.7546771E-02  0.9847250E-01
         21   -1    0    0  501  502  0.00000000000E+00  0.00000000000E+00  0.35422169489E+03  0.35422169489E+03  0.00000000000E+00 0. -1.
          2   -1    0    0  502    0 -0.00000000000E+00 -0.00000000000E+00 -0.12382129965E+04  0.12382129965E+04  0.00000000000E+00 0. -1.
         23    2    1    2    0    0  0.74962485819E+01  0.14427835437E+03  0.10987867951E+03  0.20340338845E+03  0.91799656523E+02 0.  0.
         23    2    1    2    0    0  0.37212625909E+03  0.21244385090E+03 -0.55938301353E+03  0.71069296180E+03  0.92546137893E+02 0.  0.
        -13    1    4    4    0    0  0.25410443823E+02  0.48674413995E+02 -0.67734902255E+02  0.87194645572E+02  0.00000000000E+00 0.  1.
         13    1    4    4    0    0  0.34671581527E+03  0.16376943691E+03 -0.49164811127E+03  0.62349831623E+03  0.00000000000E+00 0. -1.
        -13    1    3    3    0    0  0.35775827129E+02  0.31972125861E+02  0.69863303463E+01  0.48486446050E+02  0.00000000000E+00 0.  1.
         13    1    3    3    0    0 -0.28279578547E+02  0.11230622851E+03  0.10289234916E+03  0.15491694240E+03  0.00000000000E+00 0. -1.
          2    1    1    2  501    0 -0.37962250767E+03 -0.35672220528E+03 -0.43448696762E+03  0.67833834117E+03  0.00000000000E+00 0. -1.
<scales pt_clust_5="13000.00000" pt_clust_6="13000.00000" pt_clust_7="13000.00000" pt_clust_8="13000.00000" pt_clust_9="13000.00000"></scales>
<clustering>
<clus scale="   91.800">  7  8 -1 -1</clus>
<clus scale="   92.546">  5  6 -1 -1</clus>
<clus scale="  171.171">  2  7  1 -1</clus>
<clus scale="  474.539">  5  9 -1 -1</clus>
<clus scale="  970.376">  1  5  2 -1</clus>
</clustering>
</event>
<event>
 9    1  0.6399313E-006  0.1163045E+03  0.7546771E-02  0.1259813E+00
          1   -1    0    0  502    0 -0.00000000000E+00  0.00000000000E+00  0.10261961944E+03  0.10261961944E+03  0.00000000000E+00 0. -1.
         21   -1    0    0  501  502  0.00000000000E+00 -0.00000000000E+00 -0.18992539818E+03  0.18992539818E+03  0.00000000000E+00 0.  1.
         23    2    1    2    0    0  0.78714401852E+01  0.29649185200E+02  0.54571619007E+02  0.10908949900E+03  0.89338812608E+02 0.  0.
         23    2    1    2    0    0  0.32282716901E+01 -0.10695315026E+02 -0.12105617326E+03  0.15319042010E+03  0.93208884914E+02 0.  0.
        -11    1    4    4    0    0  0.37665275155E+02 -0.16878087613E+02 -0.19254644637E+02  0.45544309568E+02  0.00000000000E+00 0.  1.
         11    1    4    4    0    0 -0.34437003465E+02  0.61827725873E+01 -0.10180152862E+03  0.10764611054E+03  0.00000000000E+00 0. -1.
        -13    1    3    3    0    0  0.34456821404E+02  0.97645360072E+01 -0.93908388712E+01  0.37024404916E+02  0.00000000000E+00 0.  1.
         13    1    3    3    0    0 -0.26585381219E+02  0.19884649192E+02  0.63962457878E+02  0.72065094088E+02  0.00000000000E+00 0. -1.
          1    1    1    2  501    0 -0.11099711875E+02 -0.18953870174E+02 -0.20821224495E+02  0.30265098509E+02  0.00000000000E+00 0. -1.
<scales pt_clust_5="13000.00000" pt_clust_6="13000.00000" pt_clust_7="13000.00000" pt_clust_8="13000.00000" pt_clust_9="13000.00000"></scales>
<clustering>
<clus scale="   89.339">  7  8 -1 -1</clus>
<clus scale="   93.209">  5  6 -1 -1</clus>
<clus scale="   21.965">  5  9 -1 -1</clus>
<clus scale="   94.459">  1  7  2 -1</clus>
<clus scale="  116.304">  2  5  1 -1</clus>
</clustering>
</event>
<event>
 9    1  0.7746494E-006  0.8726854E+03  0.7546771E-02  0.9704225E-01
          2   -1    0    0  502    0 -0.00000000000E+00  0.00000000000E+00  0.97026185891E+03  0.97026185891E+03  0.00000000000E+00 0. -1.
         21   -1    0    0  501  502  0.00000000000E+00 -0.00000000000E+00 -0.49506839896E+03  0.49506839896E+03  0.00000000000E+00 0. -1.
         23    2    1    2    0    0 -0.36549942087E+03  0.22174456079E+02 -0.13469557354E+03  0.40064983645E+03  0.91081615932E+02 0.  0.
         23    2    1    2    0    0 -0.23400257585E+02  0.17892975071E+03  0.59318841542E+03  0.62654257492E+03  0.90109235121E+02 0.  0.
        -13    1    3    3    0    0 -0.15415418070E+03 -0.21025259565E+02 -0.92008694043E+02  0.18075168809E+03  0.00000000000E+00 0.  1.
         13    1    3    3    0    0 -0.21134524016E+03  0.43199715644E+02 -0.42686879500E+02  0.21989814836E+03  0.00000000000E+00 0. -1.
        -13    1    4    4    0    0  0.24258626919E+02  0.12910171794E+03  0.35283791395E+03  0.37649744763E+03  0.00000000000E+00 0.  1.
         13    1    4    4    0    0 -0.47658884504E+02  0.49828032774E+02  0.24035050147E+03  0.25004512729E+03  0.00000000000E+00 0. -1.
          2    1    1    2  501    0  0.38889967845E+03 -0.20110420679E+03  0.16700618069E+02  0.43813784650E+03  0.00000000000E+00 0. -1.
<scales pt_clust_5="13000.00000" pt_clust_6="13000.00000" pt_clust_7="13000.00000" pt_clust_8="13000.00000" pt_clust_9="13000.00000"></scales>
<clustering>
<clus scale="   90.109">  7  8 -1 -1</clus>
<clus scale="   91.082">  5  6 -1 -1</clus>
<clus scale="  377.329">  1  5  2 -1</clus>
<clus scale="  349.198">  7  9 -1 -1</clus>
<clus scale="  872.685">  2  5  1 -1</clus>
</clustering>
</event>
<event>
 9    1  0.6399313E-006  0.3687465E+03  0.7546771E-02  0.1096191E+00
         -1   -1    0    0    0  501 -0.00000000000E+00  0.00000000000E+00  0.83861495218E+03  0.83861495218E+03  0.00000000000E+00 0.  1.
         21   -1    0    0  501  502  0.00000000000E+00 -0.00000000000E+00 -0.18974989249E+03  0.18974989249E+03  0.00000000000E+00 0.  1.
         23    2    1    2    0    0 -0.79297200399E+02  0.11190788843E+02  0.64842687564E+03  0.65961807537E+03  0.90693508895E+02 0.  0.
         23    2    1    2    0    0  0.17705039885E+03 -0.11169283581E+03  0.11304990451E+02  0.22812516095E+03  0.89950836264E+02 0.  0.
        -11    1    3    3    0    0 -0.99745101598E+02  0.11501651148E+02  0.54986717848E+03  0.55895911053E+03  0.00000000000E+00 0.  1.
         11    1    3    3    0    0  0.20447901199E+02 -0.31086230418E+00  0.98559697153E+02  0.10065896484E+03  0.00000000000E+00 0. -1.
        -11    1    4    4    0    0  0.11261232372E+03 -0.84403940177E+02  0.48526495236E+02  0.14886363327E+03  0.00000000000E+00 0. -1.
         11    1    4    4    0    0  0.64438075131E+02 -0.27288895636E+02 -0.37221504784E+02  0.79261527679E+02  0.00000000000E+00 0.  1.
         -1    1    1    2    0  502 -0.97753198454E+02  0.10050204697E+03 -0.10866806393E+02  0.14062160835E+03  0.00000000000E+00 0.  1.
<scales pt_clust_5="13000.00000" pt_clust_6="13000.00000" pt_clust_7="13000.00000" pt_clust_8="13000.00000" pt_clust_9="13000.00000"></scales>
<clustering>
<clus scale="   89.951">  7  8 -1 -1</clus>
<clus scale="   90.694">  5  6 -1 -1</clus>
<clus scale="  120.990">  1  5  2 -1</clus>
<clus scale="  163.364">  7  9 -1 -1</clus>
<clus scale="  368.747">  2  5  1 -1</clus>
</clustering>
</event>
<event>
 9    1  0.6399313E-006  0.2520296E+03  0.7546771E-02  0.1153544E+00
         21   -1    0    0  501  502  0.00000000000E+00  0.00000000000E+00  0.76015261168E+02  0.76015261168E+02  0.00000000000E+00 0. -1.
          2   -1    0    0  502    0 -0.00000000000E+00 -0.00000000000E+00 -0.39778023085E+03  0.39778023085E+03  0.00000000000E+00 0. -1.
         23    2    1    2    0    0 -0.75661783965E+01  0.15404344167E+02 -0.12078762791E+03  0.15144346179E+03  0.89726975800E+02 0.  0.
         23    2    1    2    0    0  0.52824809275E+02  0.89262313364E+02 -0.10541449392E+03  0.17357128297E+03  0.90865580281E+02 0.  0.
        -11    1    4    4    0    0  0.49633893560E+02  0.91347645867E+01 -0.14851423043E+02  0.52607338655E+02  0.00000000000E+00 0.  1.
         11    1    4    4    0    0  0.31909157146E+01  0.80127548777E+02 -0.90563070881E+02  0.12096394431E+03  0.00000000000E+00 0. -1.
        -13    1    3    3    0    0 -0.59012591165E+01  0.47607204798E+02 -0.10521319889E+03  0.11563342090E+03  0.00000000000E+00 0. -1.
         13    1    3    3    0    0 -0.16649192800E+01 -0.32202860631E+02 -0.15574429022E+02  0.35810040888E+02  0.00000000000E+00 0.  1.
          2    1    1    2  501    0 -0.45258630878E+02 -0.10466665753E+03 -0.95562847845E+02  0.14878074726E+03  0.00000000000E+00 0. -1.
<scales pt_clust_5="13000.00000" pt_clust_6="13000.00000" pt_clust_7="13000.00000" pt_clust_8="13000.00000" pt_clust_9="13000.00000"></scales>
<clustering>
<clus scale="   89.727">  7  8 -1 -1</clus>
<clus scale="   90.866">  5  6 -1 -1</clus>
<clus scale="   91.354">  2  7  1 -1</clus>
<clus scale="  109.004">  5  9 -1 -1</clus>
<clus scale="  252.030">  1  5  2 -1</clus>
</clustering>
</event>
<event>
 9    1  0.6399313E-006  0.1731363E+03  0.7546771E-02  0.1187274E+00
         21   -1    0    0  501  502  0.00000000000E+00  0.00000000000E+00  0.51284134673E+03  0.51284134673E+03  0.00000000000E+00 0.  1.
          1   -1    0    0  502    0 -0.00000000000E+00 -0.00000000000E+00 -0.69153627004E+02  0.69153627004E+02  0.00000000000E+00 0. -1.
         23    2    1    2    0    0  0.92267929650E+02 -0.85249938830E+01  0.37277598949E+03  0.39489969335E+03  0.91639418960E+02 0.  0.
         23    2    1    2    0    0 -0.56860885063E+02  0.78047987696E+01  0.12423933863E+01  0.10894162414E+03  0.92588653701E+02 0.  0.
        -11    1    4    4    0    0 -0.10219100310E+02  0.45903292564E+02 -0.89214871112E+01  0.47865804199E+02  0.00000000000E+00 0.  1.
         11    1    4    4    0    0 -0.46641784753E+02 -0.38098493794E+02  0.10163880498E+02  0.61075819938E+02  0.00000000000E+00 0. -1.
        -11    1    3    3    0    0  0.10038723817E+03 -0.27941539587E+02  0.25868701680E+03  0.27888581872E+03  0.00000000000E+00 0.  1.
         11    1    3    3    0    0 -0.81193085213E+01  0.19416545704E+02  0.11408897269E+03  0.11601387463E+03  0.00000000000E+00 0. -1.
          1    1    1    2  501    0 -0.35407044587E+02  0.72019511347E+00  0.69669336850E+02  0.78153656245E+02  0.00000000000E+00 0. -1.
<scales pt_clust_5="13000.00000" pt_clust_6="13000.00000" pt_clust_7="13000.00000" pt_clust_8="13000.00000" pt_clust_9="13000.00000"></scales>
<clustering>
<clus scale="   91.639">  7  8 -1 -1</clus>
<clus scale="   92.589">  5  6 -1 -1</clus>
<clus scale="   35.414">  5  9 -1 -1</clus>
<clus scale="  130.322">  2  7  1 -1</clus>
<clus scale="  173.136">  1  5  2 -1</clus>
</clustering>
</event>
<event>
 9    1  0.6399313E-006  0.4412559E+03  0.7546771E-02  0.1047156E+00
          2   -1    0    0  502    0 -0.00000000000E+00  0.00000000000E+00  0.79728363852E+03  0.79728363852E+03  0.00000000000E+00 0. -1.
         21   -1    0    0  501  502  0.00000000000E+00 -0.00000000000E+00 -0.16145111485E+03  0.16145111485E+03  0.00000000000E+00 0. -1.
         23    2    1    2    0    0 -0.24583714797E+03  0.71544420332E+02  0.30255842096E+03  0.40576242111E+03  0.86873683496E+02 0.  0.
         23    2    1    2    0    0  0.13547216756E+03 -0.18358327496E+03  0.30831291028E+03  0.39373604565E+03  0.88970197127E+02 0.  0.
        -11    1    3    3    0    0 -0.22650109626E+03  0.89406216039E+02  0.26491250615E+03  0.35982614412E+03  0.00000000000E+00 0. -1.
         11    1    3    3    0    0 -0.19336051701E+02 -0.17861795708E+02  0.37645914814E+02  0.45936276988E+02  0.00000000000E+00 0.  1.
        -13    1    4    4    0    0  0.40726197890E+02 -0.81946369959E+01  0.83557774948E+02  0.93314934626E+02  0.00000000000E+00 0.  1.
         13    1    4    4    0    0  0.94745969669E+02 -0.17538863796E+03  0.22475513533E+03  0.30042111103E+03  0.00000000000E+00 0. -1.
          2    1    1    2  501    0  0.11036498041E+03  0.11203885463E+03  0.24961192424E+02  0.15923628661E+03  0.00000000000E+00 0. -1.
<scales pt_clust_5="13000.00000" pt_clust_6="13000.00000" pt_clust_7="13000.00000" pt_clust_8="13000.00000" pt_clust_9="13000.00000"></scales>
<clustering>
<clus scale="   86.874">  5  6 -1 -1</clus>
<clus scale="   88.970">  7  8 -1 -1</clus>
<clus scale="  157.268">  7  9 -1 -1</clus>
<clus scale="  270.373">  1  5  2 -1</clus>
<clus scale="  441.256">  2  5  1 -1</clus>
</clustering>
</event>
<event>
 9    1  0.6399313E-006  0.2289496E+03  0.7546771E-02  0.1152672E+00
         -1   -1    0    0    0  501 -0.00000000000E+00  0.00000000000E+00  0.18728724797E+03  0.18728724797E+03  0.00000000000E+00 0.  1.
         21   -1    0    0  501  502  0.00000000000E+00 -0.00000000000E+00 -0.17075533800E+03  0.17075533800E+03  0.00000000000E+00 0.  1.
         23    2    1    2    0    0 -0.43202563697E+02  0.76239441557E+02  0.32412447224E+02  0.12854285498E+03  0.88282415415E+02 0.  0.
         23    2    1    2    0    0  0.60694145204E+02  0.35972261348E+02  0.56348695005E+01  0.11391281815E+03  0.89255787128E+02 0.  0.
        -13    1    4    4    0    0  0.54994511239E+02  0.63868267814E+02 -0.24390833636E+01  0.84317857109E+02  0.00000000000E+00 0.  1.
         13    1    4    4    0    0  0.56996339658E+01 -0.27896006466E+02  0.80739528641E+01  0.29594961040E+02  0.00000000000E+00 0. -1.
        -13    1    3    3    0    0 -0.54089429392E+02  0.12922424113E+02  0.32270574161E+02  0.64296542470E+02  0.00000000000E+00 0.  1.
         13    1    3    3    0    0  0.10886865696E+02  0.63317017444E+02  0.14187306388E+00  0.64246312506E+02  0.00000000000E+00 0. -1.
         -1    1    1    2    0  502 -0.17491581508E+02 -0.11221170290E+03 -0.21515406751E+02  0.11558691284E+03  0.00000000000E+00 0.  1.
<scales pt_clust_5="13000.00000" pt_clust_6="13000.00000" pt_clust_7="13000.00000" pt_clust_8="13000.00000" pt_clust_9="13000.00000"></scales>
<clustering>
<clus scale="   88.282">  7  8 -1 -1</clus>
<clus scale="   89.256">  5  6 -1 -1</clus>
<clus scale="  113.567">  5  9 -1 -1</clus>
<clus scale="  124.389">  1  7  2 -1</clus>
<clus scale="  228.950">  2  5  1 -1</clus>
</clustering>
</event>
<event>
 9    1  0.6399313E-006  0.1733652E+03  0.7546771E-02  0.1201775E+00
         -1   -1    0    0    0  501 -0.00000000000E+00  0.00000000000E+00  0.21553851842E+03  0.21553851842E+03  0.00000000000E+00 0.  1.
         21   -1    0    0  501  502  0.00000000000E+00 -0.00000000000E+00 -0.12235689817E+03  0.12235689817E+03  0.00000000000E+00 0. -1.
         23    2    1    2    0    0  0.30919020883E+02 -0.10761031255E+02  0.12997342367E+03  0.16066925156E+03  0.88598712697E+02 0.  0.
         23    2    1    2    0    0 -0.52727275176E+02  0.58451571269E+02 -0.24618891428E+02  0.12339153539E+03  0.91774884681E+02 0.  0.
        -13    1    3    3    0    0  0.77157910245E+01 -0.39069264593E+02  0.11395841332E+03  0.12071644807E+03  0.00000000000E+00 0.  1.
         13    1    3    3    0    0  0.23203229859E+02  0.28308233339E+02  0.16015010342E+02  0.39952803492E+02  0.00000000000E+00 0. -1.
        -13    1    4    4    0    0  0.13165220540E+02  0.48348276598E+02  0.51725001178E+01  0.50374930663E+02  0.00000000000E+00 0.  1.
         13    1    4    4    0    0 -0.65892495716E+02  0.10103294671E+02 -0.29791391546E+02  0.73016604722E+02  0.00000000000E+00 0. -1.
         -1    1    1    2    0  502  0.21808254293E+02 -0.47690540015E+02 -0.12172911992E+02  0.53834629641E+02  0.00000000000E+00 0.  1.
<scales pt_clust_5="13000.00000" pt_clust_6="13000.00000" pt_clust_7="13000.00000" pt_clust_8="13000.00000" pt_clust_9="13000.00000"></scales>
<clustering>
<clus scale="   88.599">  5  6 -1 -1</clus>
<clus scale="   91.775">  7  8 -1 -1</clus>
<clus scale="   52.440">  7  9 -1 -1</clus>
<clus scale="   94.454">  1  5  2 -1</clus>
<clus scale="  173.365">  2  5  1 -1</clus>
</clustering>
</event>
<event>
 9    1  0.6399313E-006  0.2253223E+03  0.7546771E-02  0.1147860E+00
          3   -1    0    0  502    0 -0.00000000000E+00  0.00000000000E+00  0.73448964418E+03  0.73448964418E+03  0.00000000000E+00 0. -1.
         21   -1    0    0  501  502  0.00000000000E+00 -0.00000000000E+00 -0.14978681112E+03  0.14978681112E+03  0.00000000000E+00 0.  1.
         23    2    1    2    0    0  0.74167767329E+02 -0.86722181978E+02  0.63649321269E+03  0.65307873877E+03  0.91469310035E+02 0.  0.
         23    2    1    2    0    0 -0.12146025580E+03  0.59869733669E+02 -0.64836921928E+02  0.17527057006E+03  0.90437644462E+02 0.  0.
        -11    1    4    4    0    0 -0.62558631067E+02  0.22946408002E+02  0.16125498317E+02  0.68557652068E+02  0.00000000000E+00 0.  1.
         11    1    4    4    0    0 -0.58901624732E+02  0.36923325667E+02 -0.80962420245E+02  0.10671291799E+03  0.00000000000E+00 0. -1.
        -13    1    3    3    0    0  0.18266343878E+02  0.14667339400E+02  0.49335030766E+02  0.54614425058E+02  0.00000000000E+00 0.  1.
         13    1    3    3    0    0  0.55901423451E+02 -0.10138952138E+03  0.58715818193E+03  0.59846431372E+03  0.00000000000E+00 0. -1.
          3    1    1    2  501    0  0.47292488470E+02  0.26852448309E+02  0.13046542296E+02  0.55927146466E+02  0.00000000000E+00 0. -1.
<scales pt_clust_5="13000.00000" pt_clust_6="13000.00000" pt_clust_7="13000.00000" pt_clust_8="13000.00000" pt_clust_9="13000.00000"></scales>
<clustering>
<clus scale="   90.438">  5  6 -1 -1</clus>
<clus scale="   54.384">  5  9 -1 -1</clus>
<clus scale="   91.469">  7  8 -1 -1</clus>
<clus scale="  146.247">  1  7  2 -1</clus>
<clus scale="  225.322">  2  5  1 -1</clus>
</clustering>
</event>
<event>
 9    1  0.6399313E-006  0.1479773E+03  0.7546771E-02  0.1223416E+00
         -3   -1    0    0    0  501 -0.00000000000E+00  0.00000000000E+00  0.27705733222E+03  0.27705733222E+03  0.00000000000E+00 0.  1.
         21   -1    0    0  501  502  0.00000000000E+00 -0.00000000000E+00 -0.89357613260E+02  0.89357613260E+02  0.00000000000E+00 0. -1.
         23    2    1    2    0    0  0.29876477123E+02 -0.38904929560E+01  0.19601392502E+03  0.21820426401E+03  0.91015944801E+02 0.  0.
         23    2    1    2    0    0 -0.50251472792E+00 -0.20728069178E+02 -0.44378601377E+02  0.95584225409E+02  0.82079099130E+02 0.  0.
        -11    1    3    3    0    0  0.49436593129E+02  0.23188954681E+02  0.16010183566E+03  0.16915762513E+03  0.00000000000E+00 0.  1.
         11    1    3    3    0    0 -0.19560116006E+02 -0.27079447637E+02  0.35912089366E+02  0.49046638877E+02  0.00000000000E+00 0. -1.
        -13    1    4    4    0    0 -0.36431936448E+02 -0.86329093564E+01 -0.29565064285E+00  0.37441962109E+02  0.00000000000E+00 0.  1.
         13    1    4    4    0    0  0.35929421720E+02 -0.12095159822E+02 -0.44082950734E+02  0.58142263300E+02  0.00000000000E+00 0. -1.
         -3    1    1    2    0  502 -0.29373962395E+02  0.24618562134E+02  0.36064395313E+02  0.52626456062E+02  0.00000000000E+00 0.  1.
<scales pt_clust_5="13000.00000" pt_clust_6="13000.00000" pt_clust_7="13000.00000" pt_clust_8="13000.00000" pt_clust_9="13000.00000"></scales>
<clustering>
<clus scale="   82.079">  7  8 -1 -1</clus>
<clus scale="   38.326">  7  9 -1 -1</clus>
<clus scale="   91.016">  5  6 -1 -1</clus>
<clus scale="   95.873">  1  5  2 -1</clus>
<clus scale="  147.977">  2  5  1 -1</clus>
</clustering>
</event>
<event>
 9    1  0.6399313E-006  0.3605361E+03  0.7546771E-02  0.1099247E+00
          2   -1    0    0  502    0 -0.00000000000E+00  0.00000000000E+00  0.41921607836E+03  0.41921607836E+03  0.00000000000E+00 0. -1.
         21   -1    0    0  501  502  0.00000000000E+00 -0.00000000000E+00 -0.21040502693E+03  0.21040502693E+03  0.00000000000E+00 0. -1.
         23    2    1    2    0    0  0.63222168521E+02  0.26793747437E+02  0.23961016402E+03  0.26777191553E+03  0.97845902057E+02 0.  0.
         23    2    1    2    0    0  0.12027984564E+03 -0.58661333756E+02 -0.54092701930E+02  0.17414963311E+03  0.97435522093E+02 0.  0.
        -11    1    4    4    0    0  0.40834237923E+02 -0.28537220478E+02  0.27028382395E+02  0.56677521067E+02  0.00000000000E+00 0.  1.
         11    1    4    4    0    0  0.79445607721E+02 -0.30124113278E+02 -0.81121084325E+02  0.11747211205E+03  0.00000000000E+00 0. -1.
        -13    1    3    3    0    0  0.55209471230E+01  0.21892571881E+02  0.13971662956E+01  0.22621176680E+02  0.00000000000E+00 0. -1.
         13    1    3    3    0    0  0.57701221398E+02  0.49011755552E+01  0.23821299772E+03  0.24515073885E+03  0.00000000000E+00 0.  1.
          2    1    1    2  501    0 -0.18350201417E+03  0.31867586319E+02  0.23293589343E+02  0.18769955665E+03  0.00000000000E+00 0. -1.
<scales pt_clust_5="13000.00000" pt_clust_6="13000.00000" pt_clust_7="13000.00000" pt_clust_8="13000.00000" pt_clust_9="13000.00000"></scales>
<clustering>
<clus scale="   97.436">  5  6 -1 -1</clus>
<clus scale="   97.846">  7  8 -1 -1</clus>
<clus scale="  119.536">  1  7  2 -1</clus>
<clus scale="  151.341">  5  9 -1 -1</clus>
<clus scale="  360.536">  2  5  1 -1</clus>
</clustering>
</event>
<event>
 9    1  0.6399313E-006  0.2620960E+03  0.7546771E-02  0.1141780E+00
         21   -1    0    0  501  502  0.00000000000E+00  0.00000000000E+00  0.27663069228E+03  0.27663069228E+03  0.00000000000E+00 0.  1.
         -1   -1    0    0    0  501 -0.00000000000E+00 -0.00000000000E+00 -0.12554393522E+03  0.12554393522E+03  0.00000000000E+00 0.  1.
         23    2    1    2    0    0 -0.72199749849E+01 -0.55966835341E+02  0.20707656447E+02  0.10944087848E+03  0.91455366986E+02 0.  0.
         23    2    1    2    0    0  0.61133171564E+02  0.10921044166E+03  0.16186761437E+02  0.15568848384E+03  0.91174050705E+02 0.  0.
        -11    1    3    3    0    0  0.33418061629E+02 -0.54246736943E+02 -0.18523573991E+00  0.63714281164E+02  0.00000000000E+00 0. -1.
         11    1    3    3    0    0 -0.40638036614E+02 -0.17200983974E+01  0.20892892186E+02  0.45726597317E+02  0.00000000000E+00 0.  1.
        -11    1    4    4    0    0  0.85352376122E+02  0.85770756298E+02  0.15362231580E+02  0.12197396814E+03  0.00000000000E+00 0.  1.
         11    1    4    4    0    0 -0.24219204558E+02  0.23439685359E+02  0.82452985709E+00  0.33714515696E+02  0.00000000000E+00 0. -1.
         -1    1    1    2    0  502 -0.53913196580E+02 -0.53243606316E+02  0.11419233918E+03  0.13704526518E+03  0.00000000000E+00 0.  1.
<scales pt_clust_5="13000.00000" pt_clust_6="13000.00000" pt_clust_7="13000.00000" pt_clust_8="13000.00000" pt_clust_9="13000.00000"></scales>
<clustering>
<clus scale="   91.174">  7  8 -1 -1</clus>
<clus scale="   75.773">  7  9 -1 -1</clus>
<clus scale="   91.455">  5  6 -1 -1</clus>
<clus scale="  107.464">  2  5  1 -1</clus>
<clus scale="  262.096">  1  5  2 -1</clus>
</clustering>
</event>
<event>
 9    1  0.6399313E-006  0.3454692E+03  0.7546771E-02  0.1106107E+00
         -3   -1    0    0    0  501 -0.00000000000E+00  0.00000000000E+00  0.82599165763E+02  0.82599165763E+02  0.00000000000E+00 0.  1.
         21   -1    0    0  501  502  0.00000000000E+00 -0.00000000000E+00 -0.12507128624E+04  0.12507128624E+04  0.00000000000E+00 0. -1.
         23    2    1    2    0    0 -0.66652215203E+02 -0.19914969075E+02  0.14170718323E+01  0.11382394473E+03  0.90081954447E+02 0.  0.
         23    2    1    2    0    0 -0.11778415226E+03 -0.31766215848E+02 -0.50449301183E+03  0.52741660137E+03  0.93663618491E+02 0.  0.
        -11    1    3    3    0    0 -0.35140276753E+02 -0.55086070790E+02 -0.74914096517E+01  0.65768042877E+02  0.00000000000E+00 0. -1.
         11    1    3    3    0    0 -0.31511938449E+02  0.35171101714E+02  0.89084814840E+01  0.48055901854E+02  0.00000000000E+00 0.  1.
        -11    1    4    4    0    0 -0.63167947641E+02 -0.50699698345E+02 -0.39886555488E+03  0.40700660915E+03  0.00000000000E+00 0. -1.
         11    1    4    4    0    0 -0.54616204617E+02  0.18933482497E+02 -0.10562745695E+03  0.12040999223E+03  0.00000000000E+00 0.  1.
         -3    1    1    2    0  502  0.18443636746E+03  0.51681184923E+02 -0.66503775661E+03  0.69207148203E+03  0.00000000000E+00 0.  1.
<scales pt_clust_5="13000.00000" pt_clust_6="13000.00000" pt_clust_7="13000.00000" pt_clust_8="13000.00000" pt_clust_9="13000.00000"></scales>
<clustering>
<clus scale="   90.082">  5  6 -1 -1</clus>
<clus scale="   93.664">  7  8 -1 -1</clus>
<clus scale="  113.815">  1  5  2 -1</clus>
<clus scale="  153.904">  7  9 -1 -1</clus>
<clus scale="  345.469">  2  5  1 -1</clus>
</clustering>
</event>
<event>
 9    1  0.6399313E-006  0.7962769E+03  0.7546771E-02  0.9879426E-01
         21   -1    0    0  501  502  0.00000000000E+00  0.00000000000E+00  0.18372311791E+03  0.18372311791E+03  0.00000000000E+00 0. -1.
          2   -1    0    0  502    0 -0.00000000000E+00 -0.00000000000E+00 -0.16390049428E+04  0.16390049428E+04  0.00000000000E+00 0. -1.
         23    2    1    2    0    0  0.86053664170E+02 -0.24937932383E+03 -0.23111317607E+03  0.36236993527E+03  0.91122936549E+02 0.  0.
         23    2    1    2    0    0 -0.29458999436E+03 -0.91861186363E+01 -0.10310203782E+04  0.10761059381E+04  0.90184922072E+02 0.  0.
        -13    1    3    3    0    0 -0.19066092552E+02 -0.48538611402E+02 -0.37178670929E+02  0.64045033016E+02  0.00000000000E+00 0.  1.
         13    1    3    3    0    0  0.10511975672E+03 -0.20084071243E+03 -0.19393450514E+03  0.29832490226E+03  0.00000000000E+00 0. -1.
        -13    1    4    4    0    0 -0.16862137891E+03 -0.47625184252E+02 -0.63688059610E+03  0.66054388294E+03  0.00000000000E+00 0. -1.
         13    1    4    4    0    0 -0.12596861546E+03  0.38439065616E+02 -0.39413978210E+03  0.41556205515E+03  0.00000000000E+00 0.  1.
          2    1    1    2  501    0  0.20853633019E+03  0.25856544247E+03 -0.19314827064E+03  0.38425218737E+03  0.00000000000E+00 0. -1.
<scales pt_clust_5="13000.00000" pt_clust_6="13000.00000" pt_clust_7="13000.00000" pt_clust_8="13000.00000" pt_clust_9="13000.00000"></scales>
<clustering>
<clus scale="   90.185">  7  8 -1 -1</clus>
<clus scale="   91.123">  5  6 -1 -1</clus>
<clus scale="  279.103">  2  5  1 -1</clus>
<clus scale="  305.851">  7  9 -1 -1</clus>
<clus scale="  796.277">  1  5  2 -1</clus>
</clustering>
</event>
<event>
 9    1  0.6399313E-006  0.1876946E+03  0.7546771E-02  0.1199051E+00
         21   -1    0    0  501  502  0.00000000000E+00  0.00000000000E+00  0.44986001106E+02  0.44986001106E+02  0.00000000000E+00 0.  1.
          3   -1    0    0  502    0 -0.00000000000E+00 -0.00000000000E+00 -0.42998686095E+03  0.42998686095E+03  0.00000000000E+00 0. -1.
         23    2    1    2    0    0  0.18071373570E+02 -0.98962654044E+01 -0.18257641821E+03  0.19892049553E+03  0.76227976791E+02 0.  0.
         23    2    1    2    0    0  0.21832191912E+02 -0.31315055160E+02 -0.49082452641E+02  0.11233177200E+03  0.93552458871E+02 0.  0.
        -11    1    3    3    0    0  0.17422571548E+02 -0.42656771546E+02 -0.10127672419E+03  0.11126599220E+03  0.00000000000E+00 0. -1.
         11    1    3    3    0    0  0.64880202168E+00  0.32760506141E+02 -0.81299694022E+02  0.87654503334E+02  0.00000000000E+00 0.  1.
        -11    1    4    4    0    0  0.12015351869E+02 -0.57989197025E+02 -0.44116525725E+01  0.59385000889E+02  0.00000000000E+00 0.  1.
         11    1    4    4    0    0  0.98168400433E+01  0.26674141865E+02 -0.44670800069E+02  0.52946771115E+02  0.00000000000E+00 0. -1.
          3    1    1    2  501    0 -0.39903565482E+02  0.41211320565E+02 -0.15334198899E+03  0.16372059451E+03  0.00000000000E+00 0. -1.
<scales pt_clust_5="13000.00000" pt_clust_6="13000.00000" pt_clust_7="13000.00000" pt_clust_8="13000.00000" pt_clust_9="13000.00000"></scales>
<clustering>
<clus scale="   76.228">  5  6 -1 -1</clus>
<clus scale="   78.963">  2  5  1 -1</clus>
<clus scale="   93.552">  7  8 -1 -1</clus>
<clus scale="   44.507">  7  9 -1 -1</clus>
<clus scale="  187.695">  1  5  2 -1</clus>
</clustering>
</event>
<event>
 9    1  0.6399313E-006  0.1857840E+03  0.7546771E-02  0.1193369E+00
         21   -1    0    0  501  502  0.00000000000E+00  0.00000000000E+00  0.55496838981E+02  0.55496838981E+02  0.00000000000E+00 0. -1.
          3   -1    0    0  502    0 -0.00000000000E+00 -0.00000000000E+00 -0.39630520638E+03  0.39630520638E+03  0.00000000000E+00 0. -1.
         23    2    1    2    0    0 -0.10395316790E+02 -0.45650959044E+01 -0.45242154542E+02  0.10269590866E+03  0.91491499036E+02 0.  0.
         23    2    1    2    0    0  0.24444006375E+02  0.43916132584E+02 -0.28765823303E+03  0.30658078060E+03  0.93372264907E+02 0.  0.
        -11    1    3    3    0    0 -0.36563698970E+02 -0.28678235950E+02 -0.48246022969E+02  0.66985252346E+02  0.00000000000E+00 0. -1.
         11    1    3    3    0    0  0.26168382180E+02  0.24113140045E+02  0.30038684264E+01  0.35710656313E+02  0.00000000000E+00 0.  1.
        -13    1    4    4    0    0  0.42484567938E+02 -0.29387054075E+01 -0.60786199588E+02  0.74219516050E+02  0.00000000000E+00 0.  1.
         13    1    4    4    0    0 -0.18040561563E+02  0.46854837991E+02 -0.22687203345E+03  0.23236126455E+03  0.00000000000E+00 0. -1.
          3    1    1    2  501    0 -0.14048689586E+02 -0.39351036679E+02 -0.79079798268E+01  0.42525356104E+02  0.00000000000E+00 0. -1.
<scales pt_clust_5="13000.00000" pt_clust_6="13000.00000" pt_clust_7="13000.00000" pt_clust_8="13000.00000" pt_clust_9="13000.00000"></scales>
<clustering>
<clus scale="   91.491">  5  6 -1 -1</clus>
<clus scale="   92.193">  2  5  1 -1</clus>
<clus scale="   93.372">  7  8 -1 -1</clus>
<clus scale="   42.398">  7  9 -1 -1</clus>
<clus scale="  185.784">  1  5  2 -1</clus>
</clustering>
</event>
<event>
 9    1  0.6399313E-006  0.1346377E+03  0.7546771E-02  0.1236477E+00
         21   -1    0    0  501  502  0.00000000000E+00  0.00000000000E+00  0.23028862389E+03  0.23028862389E+03  0.00000000000E+00 0.  1.
          1   -1    0    0  502    0 -0.00000000000E+00 -0.00000000000E+00 -0.61605842285E+02  0.61605842285E+02  0.00000000000E+00 0. -1.
         23    2    1    2    0    0 -0.19324505713E+02  0.26486310432E+02  0.38286220622E+02  0.10446295790E+03  0.91497069472E+02 0.  0.
         23    2    1    2    0    0  0.17377399131E+02 -0.23297414163E+01  0.51982759753E+02  0.10535803343E+03  0.89948352962E+02 0.  0.
        -11    1    3    3    0    0 -0.33673257560E+02  0.48083032356E+02  0.58289232208E+00  0.58704395395E+02  0.00000000000E+00 0.  1.
         11    1    3    3    0    0  0.14348751847E+02 -0.21596721924E+02  0.37703328300E+02  0.45758562503E+02  0.00000000000E+00 0. -1.
        -13    1    4    4    0    0  0.13399004243E+02  0.43252727093E+02  0.31899864593E+02  0.55388925579E+02  0.00000000000E+00 0.  1.
         13    1    4    4    0    0  0.39783948877E+01 -0.45582468509E+02  0.20082895160E+02  0.49969107849E+02  0.00000000000E+00 0. -1.
          1    1    1    2  501    0  0.19471065819E+01 -0.24156569016E+02  0.78413801227E+02  0.82073474847E+02  0.00000000000E+00 0. -1.
<scales pt_clust_5="13000.00000" pt_clust_6="13000.00000" pt_clust_7="13000.00000" pt_clust_8="13000.00000" pt_clust_9="13000.00000"></scales>
<clustering>
<clus scale="   89.948">  7  8 -1 -1</clus>
<clus scale="   24.235">  7  9 -1 -1</clus>
<clus scale="   91.497">  5  6 -1 -1</clus>
<clus scale="   97.194">  2  5  1 -1</clus>
<clus scale="  134.638">  1  5  2 -1</clus>
</clustering>
</event>
<event>
 9    1  0.6399313E-006  0.3962547E+03  0.7546771E-02  0.1098569E+00
         21   -1    0    0  501  502  0.00000000000E+00  0.00000000000E+00  0.57569216943E+03  0.57569216943E+03  0.00000000000E+00 0. -1.
          1   -1    0    0  502    0 -0.00000000000E+00 -0.00000000000E+00 -0.11891571796E+03  0.11891571796E+03  0.00000000000E+00 0. -1.
         23    2    1    2    0    0  0.15394007345E+02 -0.48274047144E+01  0.23357632600E+01  0.91669981079E+02  0.90208926069E+02 0.  0.
         23    2    1    2    0    0  0.16518385830E+03 -0.58251697363E+02  0.17355369327E+03  0.26310729762E+03  0.91791057994E+02 0.  0.
        -11    1    3    3    0    0  0.50631586753E+02 -0.14742349312E+01 -0.14193489760E+02  0.52604050199E+02  0.00000000000E+00 0.  1.
         11    1    3    3    0    0 -0.35237579408E+02 -0.33531697833E+01  0.16529253020E+02  0.39065930880E+02  0.00000000000E+00 0. -1.
        -11    1    4    4    0    0  0.13939084442E+03 -0.81543129178E+02  0.12953139406E+03  0.20702046148E+03  0.00000000000E+00 0. -1.
         11    1    4    4    0    0  0.25793013877E+02  0.23291431815E+02  0.44022299212E+02  0.56086836146E+02  0.00000000000E+00 0.  1.
          1    1    1    2  501    0 -0.18057786564E+03  0.63079102078E+02  0.28088699494E+03  0.33983060869E+03  0.00000000000E+00 0. -1.
<scales pt_clust_5="13000.00000" pt_clust_6="13000.00000" pt_clust_7="13000.00000" pt_clust_8="13000.00000" pt_clust_9="13000.00000"></scales>
<clustering>
<clus scale="   90.209">  5  6 -1 -1</clus>
<clus scale="   91.640">  2  5  1 -1</clus>
<clus scale="   91.791">  7  8 -1 -1</clus>
<clus scale="  184.878">  7  9 -1 -1</clus>
<clus scale="  396.255">  1  5  2 -1</clus>
</clustering>
</event>
<event>
 9    1  0.6399313E-006  0.3658654E+03  0.7546771E-02  0.1099820E+00
          1   -1    0    0  502    0 -0.00000000000E+00  0.00000000000E+00  0.20027902191E+03  0.20027902191E+03  0.00000000000E+00 0. -1.
         21   -1    0    0  501  502  0.00000000000E+00 -0.00000000000E+00 -0.28815585703E+03  0.28815585703E+03  0.00000000000E+00 0. -1.
         23    2    1    2    0    0 -0.62226000262E+02 -0.26538802823E+02 -0.24332150905E+01  0.11272478351E+03  0.90136413934E+02 0.  0.
         23    2    1    2    0    0  0.64545954104E+02 -0.80734109833E+02  0.91975450242E+02  0.16836886348E+03  0.95939637583E+02 0.  0.
        -11    1    3    3    0    0 -0.48118970806E+02 -0.59073835186E+02 -0.87929396667E+01  0.76697256424E+02  0.00000000000E+00 0. -1.
         11    1    3    3    0    0 -0.14107029457E+02  0.32535032363E+02  0.63597245763E+01  0.36027527082E+02  0.00000000000E+00 0.  1.
        -13    1    4    4    0    0  0.32852623315E+02 -0.45574691383E+02  0.10516425949E+03  0.11923031841E+03  0.00000000000E+00 0. -1.
         13    1    4    4    0    0  0.31693330788E+02 -0.35159418450E+02 -0.13188809248E+02  0.49138545070E+02  0.00000000000E+00 0.  1.
          1    1    1    2  501    0 -0.23199538411E+01  0.10727291266E+03 -0.17741907027E+03  0.20734123196E+03  0.00000000000E+00 0. -1.
<scales pt_clust_5="13000.00000" pt_clust_6="13000.00000" pt_clust_7="13000.00000" pt_clust_8="13000.00000" pt_clust_9="13000.00000"></scales>
<clustering>
<clus scale="   90.136">  5  6 -1 -1</clus>
<clus scale="   95.940">  7  8 -1 -1</clus>
<clus scale="  107.298">  7  9 -1 -1</clus>
<clus scale="  112.699">  1  5  2 -1</clus>
<clus scale="  365.865">  2  5  1 -1</clus>
</clustering>
</event>
<event>
 9    1  0.6399313E-006  0.2898319E+03  0.7546771E-02  0.1137902E+00
          3   -1    0    0  502    0 -0.00000000000E+00  0.00000000000E+00  0.32087728470E+03  0.32087728470E+03  0.00000000000E+00 0. -1.
         21   -1    0    0  501  502  0.00000000000E+00 -0.00000000000E+00 -0.11227675127E+03  0.11227675127E+03  0.00000000000E+00 0. -1.
         23    2    1    2    0    0  0.10241248079E+02  0.30423810338E+02  0.27944857966E+02  0.91629482376E+02  0.81145274392E+02 0.  0.
         23    2    1    2    0    0 -0.91976991024E+01  0.24694517721E+02  0.24085218756E+03  0.25989895007E+03  0.94038668242E+02 0.  0.
        -11    1    4    4    0    0  0.12909848711E+02  0.56427221206E+02  0.12476572615E+03  0.13753974665E+03  0.00000000000E+00 0. -1.
         11    1    4    4    0    0 -0.22107547813E+02 -0.31732703485E+02  0.11608646140E+03  0.12235920342E+03  0.00000000000E+00 0.  1.
        -13    1    3    3    0    0 -0.44782421716E+01  0.52871809028E+02  0.35380546689E+02  0.63775119967E+02  0.00000000000E+00 0.  1.
         13    1    3    3    0    0  0.14719490250E+02 -0.22447998690E+02 -0.74356887223E+01  0.27854362409E+02  0.00000000000E+00 0. -1.
          3    1    1    2  501    0 -0.10435489761E+01 -0.55118328059E+02 -0.60196512085E+02  0.81625603518E+02  0.00000000000E+00 0. -1.
<scales pt_clust_5="13000.00000" pt_clust_6="13000.00000" pt_clust_7="13000.00000" pt_clust_8="13000.00000" pt_clust_9="13000.00000"></scales>
<clustering>
<clus scale="   81.145">  7  8 -1 -1</clus>
<clus scale="   87.264">  1  7  2 -1</clus>
<clus scale="   94.039">  5  6 -1 -1</clus>
<clus scale="   53.873">  5  9 -1 -1</clus>
<clus scale="  289.832">  2  5  1 -1</clus>
</clustering>
</event>
<event>
 9    1  0.6399313E-006  0.3388762E+03  0.7546771E-02  0.1113361E+00
         21   -1    0    0  501  502  0.00000000000E+00  0.00000000000E+00  0.29542133447E+03  0.29542133447E+03  0.00000000000E+00 0. -1.
          1   -1    0    0  502    0 -0.00000000000E+00 -0.00000000000E+00 -0.21070333385E+03  0.21070333385E+03  0.00000000000E+00 0. -1.
         23    2    1    2    0    0  0.31360745851E+02  0.32206056659E+02 -0.81025462870E+02  0.12888741507E+03  0.89588579981E+02 0.  0.
         23    2    1    2    0    0 -0.15114417775E+03 -0.34701727120E+02  0.10812462519E+02  0.18138548790E+03  0.93461294357E+02 0.  0.
        -11    1    4    4    0    0 -0.22389303235E+02 -0.44405207189E+02 -0.96390499002E+01  0.50655844755E+02  0.00000000000E+00 0. -1.
         11    1    4    4    0    0 -0.12875487452E+03  0.97034800697E+01  0.20451512419E+02  0.13072964315E+03  0.00000000000E+00 0.  1.
        -11    1    3    3    0    0 -0.16103138560E+02  0.32110874151E+02 -0.11100348642E+01  0.35939553248E+02  0.00000000000E+00 0.  1.
         11    1    3    3    0    0  0.47463884412E+02  0.95182507665E-01 -0.79915428006E+02  0.92947861818E+02  0.00000000000E+00 0. -1.
          1    1    1    2  501    0  0.11978343190E+03  0.24956704608E+01  0.15493100097E+03  0.19585176535E+03  0.00000000000E+00 0. -1.
<scales pt_clust_5="13000.00000" pt_clust_6="13000.00000" pt_clust_7="13000.00000" pt_clust_8="13000.00000" pt_clust_9="13000.00000"></scales>
<clustering>
<clus scale="   89.589">  7  8 -1 -1</clus>
<clus scale="   93.461">  5  6 -1 -1</clus>
<clus scale="  100.234">  2  7  1 -1</clus>
<clus scale="  126.154">  5  9 -1 -1</clus>
<clus scale="  338.876">  1  5  2 -1</clus>
</clustering>
</event>
<event>
 9    1  0.6399313E-006  0.3076434E+03  0.7546771E-02  0.1090258E+00
         21   -1    0    0  501  502  0.00000000000E+00  0.00000000000E+00  0.12734753361E+03  0.12734753361E+03  0.00000000000E+00 0. -1.
          2   -1    0    0  502    0 -0.00000000000E+00 -0.00000000000E+00 -0.72266129210E+03  0.72266129210E+03  0.00000000000E+00 0. -1.
         23    2    1    2    0    0 -0.14013479955E+03  0.17689622254E+03 -0.44578497708E+03  0.50795130522E+03  0.91434386802E+02 0.  0.
         23    2    1    2    0    0  0.15619920276E+01 -0.16520052082E+02 -0.60947914823E+02  0.11234137182E+03  0.92900934119E+02 0.  0.
        -11    1    3    3    0    0 -0.91897147638E+02  0.14902382610E+03 -0.39702842466E+03  0.43391791444E+03  0.00000000000E+00 0. -1.
         11    1    3    3    0    0 -0.48237651917E+02  0.27872396445E+02 -0.48756552424E+02  0.74033390780E+02  0.00000000000E+00 0.  1.
        -13    1    4    4    0    0  0.26513709100E+02 -0.41847527259E+02 -0.58565407982E+02  0.76707883037E+02  0.00000000000E+00 0.  1.
         13    1    4    4    0    0 -0.24951717073E+02  0.25327475176E+02 -0.23825068410E+01  0.35633488778E+02  0.00000000000E+00 0. -1.
          2    1    1    2  501    0  0.13857280753E+03 -0.16037617046E+03 -0.88580866593E+02  0.22971614868E+03  0.00000000000E+00 0. -1.
<scales pt_clust_5="13000.00000" pt_clust_6="13000.00000" pt_clust_7="13000.00000" pt_clust_8="13000.00000" pt_clust_9="13000.00000"></scales>
<clustering>
<clus scale="   91.434">  5  6 -1 -1</clus>
<clus scale="   92.901">  7  8 -1 -1</clus>
<clus scale="  211.950">  7  9 -1 -1</clus>
<clus scale="  243.496">  2  5  1 -1</clus>
<clus scale="  307.643">  1  5  2 -1</clus>
</clustering>
</event>
<event>
 9    1  0.6399313E-006  0.7140779E+03  0.7546771E-02  0.1013469E+00
         -3   -1    0    0    0  501 -0.00000000000E+00  0.00000000000E+00  0.36282025233E+03  0.36282025233E+03  0.00000000000E+00 0.  1.
         21   -1    0    0  501  502  0.00000000000E+00 -0.00000000000E+00 -0.66701122756E+03  0.66701122756E+03  0.00000000000E+00 0.  1.
         23    2    1    2    0    0 -0.31191456774E+02 -0.14653193956E+03 -0.26249695067E+03  0.31453743525E+03  0.87089797215E+02 0.  0.
         23    2    1    2    0    0  0.19530260920E+03  0.33696017623E+03  0.11864973366E+03  0.41712378376E+03  0.90715060216E+02 0.  0.
        -11    1    3    3    0    0 -0.52151572248E+02 -0.88931083548E+02 -0.11300101520E+03  0.15296324246E+03  0.00000000000E+00 0. -1.
         11    1    3    3    0    0  0.20960115473E+02 -0.57600856013E+02 -0.14949593547E+03  0.16157419279E+03  0.00000000000E+00 0.  1.
        -13    1    4    4    0    0  0.12064243514E+03  0.11910191769E+03  0.46496233950E+02  0.17578897498E+03  0.00000000000E+00 0. -1.
         13    1    4    4    0    0  0.74660174067E+02  0.21785825854E+03  0.72153499706E+02  0.24133480878E+03  0.00000000000E+00 0.  1.
         -3    1    1    2    0  502 -0.16411115243E+03 -0.19042823667E+03 -0.16034375822E+03  0.29817026088E+03  0.00000000000E+00 0.  1.
<scales pt_clust_5="13000.00000" pt_clust_6="13000.00000" pt_clust_7="13000.00000" pt_clust_8="13000.00000" pt_clust_9="13000.00000"></scales>
<clustering>
<clus scale="   87.090">  5  6 -1 -1</clus>
<clus scale="   90.715">  7  8 -1 -1</clus>
<clus scale="  173.289">  1  5  2 -1</clus>
<clus scale="  278.655">  7  9 -1 -1</clus>
<clus scale="  714.078">  2  5  1 -1</clus>
</clustering>
</event>
<event>
 9    1  0.6399313E-006  0.3177906E+03  0.7546771E-02  0.1121525E+00
         21   -1    0    0  501  502  0.00000000000E+00  0.00000000000E+00  0.10051857659E+03  0.10051857659E+03  0.00000000000E+00 0.  1.
          1   -1    0    0  502    0 -0.00000000000E+00 -0.00000000000E+00 -0.60595677713E+03  0.60595677713E+03  0.00000000000E+00 0. -1.
         23    2    1    2    0    0  0.37568839271E+02  0.18321163341E+02 -0.32776474698E+03  0.34238924529E+03  0.89741758492E+02 0.  0.
         23    2    1    2    0    0 -0.16130559442E+03  0.99760054743E+01 -0.74012760091E+02  0.20020489014E+03  0.92114569427E+02 0.  0.
        -11    1    3    3    0    0  0.63628774756E+01 -0.35801452972E+02 -0.13014869703E+03  0.13513294781E+03  0.00000000000E+00 0.  1.
         11    1    3    3    0    0  0.31205961795E+02  0.54122616314E+02 -0.19761604995E+03  0.20725629748E+03  0.00000000000E+00 0. -1.
        -11    1    4    4    0    0 -0.15389191283E+02 -0.17234429156E+02  0.14602684255E+02  0.27332968081E+02  0.00000000000E+00 0.  1.
         11    1    4    4    0    0 -0.14591640314E+03  0.27210434630E+02 -0.88615444346E+02  0.17287192206E+03  0.00000000000E+00 0. -1.
          1    1    1    2  501    0  0.12373675515E+03 -0.28297168816E+02 -0.10366069347E+03  0.16388121829E+03  0.00000000000E+00 0. -1.
<scales pt_clust_5="13000.00000" pt_clust_6="13000.00000" pt_clust_7="13000.00000" pt_clust_8="13000.00000" pt_clust_9="13000.00000"></scales>
<clustering>
<clus scale="   89.742">  5  6 -1 -1</clus>
<clus scale="   92.115">  7  8 -1 -1</clus>
<clus scale="   98.998">  2  5  1 -1</clus>
<clus scale="  143.586">  7  9 -1 -1</clus>
<clus scale="  317.791">  1  5  2 -1</clus>
</clustering>
</event>
<event>
 9    1  0.6399313E-006  0.4378114E+03  0.7546771E-02  0.1060355E+00
          1   -1    0    0  502    0 -0.00000000000E+00  0.00000000000E+00  0.59515292043E+03  0.59515292043E+03  0.00000000000E+00 0. -1.
         21   -1    0    0  501  502  0.00000000000E+00 -0.00000000000E+00 -0.16628214514E+03  0.16628214514E+03  0.00000000000E+00 0. -1.
         23    2    1    2    0    0 -0.16417275784E+03 -0.34976156490E+02  0.14893872218E+03  0.24178062160E+03  0.89995000299E+02 0.  0.
         23    2    1    2    0    0  0.16678621040E+03  0.44647305251E+01  0.37342010975E+03  0.42127866451E+03  0.10097307068E+03 0.  0.
        -11    1    3    3    0    0 -0.26920227510E+02  0.27198652148E+02  0.18587804306E+02  0.42543763313E+02  0.00000000000E+00 0.  1.
         11    1    3    3    0    0 -0.13725253033E+03 -0.62174808638E+02  0.13035091787E+03  0.19923685829E+03  0.00000000000E+00 0. -1.
        -13    1    4    4    0    0  0.11464177439E+03  0.43290298285E+02  0.18452351006E+03  0.22150781505E+03  0.00000000000E+00 0.  1.
         13    1    4    4    0    0  0.52144436004E+02 -0.38825567760E+02  0.18889659969E+03  0.19977084946E+03  0.00000000000E+00 0. -1.
          1    1    1    2  501    0 -0.26134525597E+01  0.30511425965E+02 -0.93488056646E+02  0.98375779459E+02  0.00000000000E+00 0. -1.
<scales pt_clust_5="13000.00000" pt_clust_6="13000.00000" pt_clust_7="13000.00000" pt_clust_8="13000.00000" pt_clust_9="13000.00000"></scales>
<clustering>
<clus scale="   89.995">  5  6 -1 -1</clus>
<clus scale="  100.973">  7  8 -1 -1</clus>
<clus scale="   30.623">  7  9 -1 -1</clus>
<clus scale="  190.460">  1  5  2 -1</clus>
<clus scale="  437.811">  2  5  1 -1</clus>
</clustering>
</event>
<event>
 9    1  0.6399313E-006  0.4214814E+03  0.7546771E-02  0.1075101E+00
          2   -1    0    0  502    0 -0.00000000000E+00  0.00000000000E+00  0.15564756441E+03  0.15564756441E+03  0.00000000000E+00 0. -1.
         21   -1    0    0  501  502  0.00000000000E+00 -0.00000000000E+00 -0.60559203624E+03  0.60559203624E+03  0.00000000000E+00 0. -1.
         23    2    1    2    0    0  0.11158981238E+03  0.13762042420E+02  0.34634280043E+01  0.14218766073E+03  0.86969279016E+02 0.  0.
         23    2    1    2    0    0  0.64401080881E+02 -0.73875396537E+02 -0.46440307939E+01  0.13327892707E+03  0.90203281242E+02 0.  0.
        -11    1    4    4    0    0  0.82310239143E+02 -0.38376613210E+02 -0.15343136063E+02  0.92104026695E+02  0.00000000000E+00 0. -1.
         11    1    4    4    0    0 -0.17909158262E+02 -0.35498783327E+02  0.10699105269E+02  0.41174900375E+02  0.00000000000E+00 0.  1.
        -13    1    3    3    0    0  0.99395817910E+01 -0.21132928309E+02 -0.21621728025E+02  0.31826012440E+02  0.00000000000E+00 0.  1.
         13    1    3    3    0    0  0.10165023058E+03  0.34894970729E+02  0.25085156029E+02  0.11036164829E+03  0.00000000000E+00 0. -1.
          2    1    1    2  501    0 -0.17599089326E+03  0.60113354117E+02 -0.44876386904E+03  0.48577301285E+03  0.00000000000E+00 0. -1.
<scales pt_clust_5="13000.00000" pt_clust_6="13000.00000" pt_clust_7="13000.00000" pt_clust_8="13000.00000" pt_clust_9="13000.00000"></scales>
<clustering>
<clus scale="   86.969">  7  8 -1 -1</clus>
<clus scale="   90.203">  5  6 -1 -1</clus>
<clus scale="  142.145">  1  7  2 -1</clus>
<clus scale="  163.742">  5  9 -1 -1</clus>
<clus scale="  421.481">  2  5  1 -1</clus>
</clustering>
</event>
<event>
 9    1  0.6399313E-006  0.2652387E+03  0.7546771E-02  0.1129259E+00
          1   -1    0    0  502    0 -0.00000000000E+00  0.00000000000E+00  0.78919093870E+03  0.78919093870E+03  0.00000000000E+00 0. -1.
         21   -1    0    0  501  502  0.00000000000E+00 -0.00000000000E+00 -0.12877401436E+03  0.12877401436E+03  0.00000000000E+00 0. -1.
         23    2    1    2    0    0  0.99855116642E+02  0.41010639729E+02  0.63628353777E+03  0.65163061381E+03  0.90071080432E+02 0.  0.
         23    2    1    2    0    0 -0.13542994251E+02 -0.10616121981E+02  0.10795102538E+03  0.14224160877E+03  0.91011739059E+02 0.  0.
        -11    1    4    4    0    0 -0.43471491627E+02 -0.28351881253E+02  0.87926264087E+02  0.10210106596E+03  0.00000000000E+00 0.  1.
         11    1    4    4    0    0  0.29928497376E+02  0.17735759272E+02  0.20024761293E+02  0.40140542808E+02  0.00000000000E+00 0. -1.
        -13    1    3    3    0    0  0.64541785738E+00  0.37372403200E+02  0.11325566269E+03  0.11926423696E+03  0.00000000000E+00 0.  1.
         13    1    3    3    0    0  0.99209698785E+02  0.36382365295E+01  0.52302787507E+03  0.53236637685E+03  0.00000000000E+00 0. -1.
          1    1    1    2  501    0 -0.86312122391E+02 -0.30394517749E+02 -0.83817638815E+02  0.12409273048E+03  0.00000000000E+00 0. -1.
<scales pt_clust_5="13000.00000" pt_clust_6="13000.00000" pt_clust_7="13000.00000" pt_clust_8="13000.00000" pt_clust_9="13000.00000"></scales>
<clustering>
<clus scale="   90.071">  7  8 -1 -1</clus>
<clus scale="   91.012">  5  6 -1 -1</clus>
<clus scale="   91.507">  5  9 -1 -1</clus>
<clus scale="  140.591">  1  7  2 -1</clus>
<clus scale="  265.239">  2  5  1 -1</clus>
</clustering>
</event>
<event>
 9    1  0.7892023E-006  0.3627078E+03  0.7546771E-02  0.1078376E+00
         -1   -1    0    0    0  501 -0.00000000000E+00  0.00000000000E+00  0.74114168554E+03  0.74114168554E+03  0.00000000000E+00 0.  1.
         21   -1    0    0  501  502  0.00000000000E+00 -0.00000000000E+00 -0.11004338838E+03  0.11004338838E+03  0.00000000000E+00 0.  1.
         23    2    1    2    0    0  0.15748643464E+03  0.91219351366E+02  0.17819839733E+03  0.27094782535E+03  0.92385648745E+02 0.  0.
         23    2    1    2    0    0  0.11035302533E+02 -0.22524375318E+01  0.35529853857E+03  0.36613280354E+03  0.87688807376E+02 0.  0.
        -11    1    4    4    0    0 -0.27355476929E+02  0.27926489870E+02  0.13916662801E+03  0.14455297059E+03  0.00000000000E+00 0. -1.
         11    1    4    4    0    0  0.38390779462E+02 -0.30178927402E+02  0.21613191056E+03  0.22157983295E+03  0.00000000000E+00 0.  1.
        -13    1    3    3    0    0  0.10548056761E+03  0.93593555654E+02  0.16536742720E+03  0.21732991000E+03  0.00000000000E+00 0.  1.
         13    1    3    3    0    0  0.52005867037E+02 -0.23742042876E+01  0.12830970124E+02  0.53617915351E+02  0.00000000000E+00 0. -1.
         -1    1    1    2    0  502 -0.16852173718E+03 -0.88966913834E+02  0.97601361261E+02  0.21410444502E+03  0.00000000000E+00 0.  1.
<scales pt_clust_5="13000.00000" pt_clust_6="13000.00000" pt_clust_7="13000.00000" pt_clust_8="13000.00000" pt_clust_9="13000.00000"></scales>
<clustering>
<clus scale="   87.689">  5  6 -1 -1</clus>
<clus scale="   92.386">  7  8 -1 -1</clus>
<clus scale="  190.564">  5  9 -1 -1</clus>
<clus scale="  204.103">  1  7  2 -1</clus>
<clus scale="  362.708">  2  5  1 -1</clus>
</clustering>
</event>
<event>
 9    1  0.6399313E-006  0.2984805E+03  0.7546771E-02  0.1113027E+00
         21   -1    0    0  501  502  0.00000000000E+00  0.00000000000E+00  0.10425747624E+03  0.10425747624E+03  0.00000000000E+00 0. -1.
          2   -1    0    0  502    0 -0.00000000000E+00 -0.00000000000E+00 -0.57721767675E+03  0.57721767675E+03  0.00000000000E+00 0. -1.
         23    2    1    2    0    0 -0.64556032834E+02 -0.97257124567E+02 -0.30500011916E+03  0.33898254308E+03  0.90871679700E+02 0.  0.
         23    2    1    2    0    0  0.99196661241E+02 -0.98249577827E+01 -0.18474003777E+03  0.22870283694E+03  0.90772235133E+02 0.  0.
        -13    1    4    4    0    0  0.27734925420E+02 -0.43994499016E+02 -0.99941991106E+02  0.11266385231E+03  0.00000000000E+00 0. -1.
         13    1    4    4    0    0  0.71461735821E+02  0.34169541234E+02 -0.84798046666E+02  0.11603898463E+03  0.00000000000E+00 0.  1.
        -13    1    3    3    0    0 -0.29456882461E+02  0.10628508896E+02 -0.40634669919E+02  0.51301554802E+02  0.00000000000E+00 0.  1.
         13    1    3    3    0    0 -0.35099150372E+02 -0.10788563346E+03 -0.26436544924E+03  0.28768098828E+03  0.00000000000E+00 0. -1.
          2    1    1    2  501    0 -0.34640628407E+02  0.10708208235E+03  0.16779956418E+02  0.11378977298E+03  0.00000000000E+00 0. -1.
<scales pt_clust_5="13000.00000" pt_clust_6="13000.00000" pt_clust_7="13000.00000" pt_clust_8="13000.00000" pt_clust_9="13000.00000"></scales>
<clustering>
<clus scale="   90.772">  5  6 -1 -1</clus>
<clus scale="   90.872">  7  8 -1 -1</clus>
<clus scale="  112.546">  5  9 -1 -1</clus>
<clus scale="  147.933">  2  7  1 -1</clus>
<clus scale="  298.480">  1  5  2 -1</clus>
</clustering>
</event>
<event>
 9    1  0.6399313E-006  0.2050724E+03  0.7546771E-02  0.1161207E+00
         21   -1    0    0  501  502  0.00000000000E+00  0.00000000000E+00  0.36570045032E+03  0.36570045032E+03  0.00000000000E+00 0.  1.
          3   -1    0    0  502    0 -0.00000000000E+00 -0.00000000000E+00 -0.86351520974E+02  0.86351520974E+02  0.00000000000E+00 0. -1.
         23    2    1    2    0    0 -0.76841218181E+02  0.45098755054E+02  0.66805101291E+02  0.15670547509E+03  0.11025068637E+03 0.  0.
         23    2    1    2    0    0  0.11171559534E+03  0.28842707181E+01  0.12947705320E+03  0.19327455085E+03  0.90011396168E+02 0.  0.
        -13    1    4    4    0    0  0.55745561385E+02 -0.99911406303E+01  0.12308363520E+03  0.13548790263E+03  0.00000000000E+00 0.  1.
         13    1    4    4    0    0  0.55970033955E+02  0.12875411348E+02  0.63934179985E+01  0.57786648216E+02  0.00000000000E+00 0. -1.
        -13    1    3    3    0    0 -0.16457749667E+02 -0.34029220993E+02  0.36776516475E+02  0.52738577621E+02  0.00000000000E+00 0.  1.
         13    1    3    3    0    0 -0.60383468514E+02  0.79127976046E+02  0.30028584816E+02  0.10396689747E+03  0.00000000000E+00 0. -1.
          3    1    1    2  501    0 -0.34874377160E+02 -0.47983025772E+02  0.83066774856E+02  0.10207194536E+03  0.00000000000E+00 0. -1.
<scales pt_clust_5="13000.00000" pt_clust_6="13000.00000" pt_clust_7="13000.00000" pt_clust_8="13000.00000" pt_clust_9="13000.00000"></scales>
<clustering>
<clus scale="   90.011">  5  6 -1 -1</clus>
<clus scale="   59.318">  5  9 -1 -1</clus>
<clus scale="  110.251">  7  8 -1 -1</clus>
<clus scale="  141.752">  2  7  1 -1</clus>
<clus scale="  205.072">  1  5  2 -1</clus>
</clustering>
</event>
<event>
 9    1  0.6399313E-006  0.2627976E+03  0.7546771E-02  0.1134586E+00
          1   -1    0    0  502    0 -0.00000000000E+00  0.00000000000E+00  0.12504232553E+03  0.12504232553E+03  0.00000000000E+00 0. -1.
         21   -1    0    0  501  502  0.00000000000E+00 -0.00000000000E+00 -0.32881566963E+03  0.32881566963E+03  0.00000000000E+00 0. -1.
         23    2    1    2    0    0  0.51394878721E+02  0.74969277182E+02 -0.12829267809E+03  0.18043540684E+03  0.88521741451E+02 0.  0.
         23    2    1    2    0    0  0.65434311383E+02 -0.91751425734E+02 -0.47658872433E+02  0.15215943493E+03  0.90449722426E+02 0.  0.
        -11    1    4    4    0    0 -0.14571982213E+02 -0.34218307997E+02  0.93009919784E+01  0.38337236723E+02  0.00000000000E+00 0.  1.
         11    1    4    4    0    0  0.80006293596E+02 -0.57533117737E+02 -0.56959864411E+02  0.11382219821E+03  0.00000000000E+00 0. -1.
        -13    1    3    3    0    0 -0.85351672244E+01  0.25119757034E+02  0.40536452832E+01  0.26838094438E+02  0.00000000000E+00 0.  1.
         13    1    3    3    0    0  0.59930045946E+02  0.49849520148E+02 -0.13234632337E+03  0.15359731240E+03  0.00000000000E+00 0. -1.
          1    1    1    2  501    0 -0.11682919010E+03  0.16782148552E+02 -0.27821793576E+02  0.12126315338E+03  0.00000000000E+00 0. -1.
<scales pt_clust_5="13000.00000" pt_clust_6="13000.00000" pt_clust_7="13000.00000" pt_clust_8="13000.00000" pt_clust_9="13000.00000"></scales>
<clustering>
<clus scale="   88.522">  7  8 -1 -1</clus>
<clus scale="   90.450">  5  6 -1 -1</clus>
<clus scale="  118.028">  5  9 -1 -1</clus>
<clus scale="  126.878">  1  7  2 -1</clus>
<clus scale="  262.798">  2  5  1 -1</clus>
</clustering>
</event>
<event>
 9    1  0.6399313E-006  0.1942483E+03  0.7546771E-02  0.1184804E+00
         21   -1    0    0  501  502  0.00000000000E+00  0.00000000000E+00  0.26354006199E+03  0.26354006199E+03  0.00000000000E+00 0.  1.
          1   -1    0    0  502    0 -0.00000000000E+00 -0.00000000000E+00 -0.24818935738E+03  0.24818935738E+03  0.00000000000E+00 0. -1.
         23    2    1    2    0    0 -0.56100503382E+01  0.30512822039E+02 -0.19952376206E+03  0.22206848866E+03  0.92423898718E+02 0.  0.
         23    2    1    2    0    0  0.52098066424E+02  0.26744636182E+02  0.76384162130E+02  0.13275612958E+03  0.91433941336E+02 0.  0.
        -13    1    3    3    0    0  0.53835185073E+00 -0.32928364936E+02 -0.82145161954E+02  0.88500817355E+02  0.00000000000E+00 0.  1.
         13    1    3    3    0    0 -0.61484021889E+01  0.63441186974E+02 -0.11737860011E+03  0.13356767131E+03  0.00000000000E+00 0. -1.
        -13    1    4    4    0    0  0.27510633421E+02 -0.23413388861E+02 -0.23698177729E+01  0.36202731464E+02  0.00000000000E+00 0. -1.
         13    1    4    4    0    0  0.24587433003E+02  0.50158025044E+02  0.78753979903E+02  0.96553398120E+02  0.00000000000E+00 0.  1.
          1    1    1    2  501    0 -0.46488016086E+02 -0.57257458221E+02  0.13849030455E+03  0.15690480112E+03  0.00000000000E+00 0. -1.
<scales pt_clust_5="13000.00000" pt_clust_6="13000.00000" pt_clust_7="13000.00000" pt_clust_8="13000.00000" pt_clust_9="13000.00000"></scales>
<clustering>
<clus scale="   91.434">  7  8 -1 -1</clus>
<clus scale="   73.753">  7  9 -1 -1</clus>
<clus scale="   92.424">  5  6 -1 -1</clus>
<clus scale="   97.492">  2  5  1 -1</clus>
<clus scale="  194.248">  1  5  2 -1</clus>
</clustering>
</event>
<event>
 9    1  0.6399313E-006  0.6094625E+03  0.7546771E-02  0.1037440E+00
         21   -1    0    0  501  502  0.00000000000E+00  0.00000000000E+00  0.66468512095E+03  0.66468512095E+03  0.00000000000E+00 0. -1.
          4   -1    0    0  502    0 -0.00000000000E+00 -0.00000000000E+00 -0.23655113024E+03  0.23655113024E+03  0.00000000000E+00 0. -1.
         23    2    1    2    0    0  0.26678034665E+01  0.10415975022E+03 -0.29455619598E+02  0.13911241186E+03  0.87339904204E+02 0.  0.
         23    2    1    2    0    0 -0.13369251650E+03  0.88840128685E+02 -0.59879840685E+02  0.19450507520E+03  0.92088932692E+02 0.  0.
        -13    1    3    3    0    0 -0.18343982347E+02  0.11200872568E+03 -0.25627162327E+02  0.11635810142E+03  0.00000000000E+00 0.  1.
         13    1    3    3    0    0  0.21011785813E+02 -0.78489754551E+01 -0.38284572708E+01  0.22754310445E+02  0.00000000000E+00 0. -1.
        -13    1    4    4    0    0 -0.49676620225E+02  0.35807376399E+00 -0.52482742988E+02  0.72265711962E+02  0.00000000000E+00 0.  1.
         13    1    4    4    0    0 -0.84015896274E+02  0.88482054921E+02 -0.73970976967E+01  0.12223936324E+03  0.00000000000E+00 0. -1.
          4    1    1    2  501    0  0.13102471303E+03 -0.19299987891E+03  0.51746945100E+03  0.56761876414E+03  0.00000000000E+00 0. -1.
<scales pt_clust_5="13000.00000" pt_clust_6="13000.00000" pt_clust_7="13000.00000" pt_clust_8="13000.00000" pt_clust_9="13000.00000"></scales>
<clustering>
<clus scale="   87.340">  5  6 -1 -1</clus>
<clus scale="   92.089">  7  8 -1 -1</clus>
<clus scale="  135.958">  2  5  1 -1</clus>
<clus scale="  219.557">  7  9 -1 -1</clus>
<clus scale="  609.462">  1  5  2 -1</clus>
</clustering>
</event>
<event>
 9    1  0.6399313E-006  0.2512525E+03  0.7546771E-02  0.1145387E+00
         -3   -1    0    0    0  501 -0.00000000000E+00  0.00000000000E+00  0.57176570604E+03  0.57176570604E+03  0.00000000000E+00 0.  1.
         21   -1    0    0  501  502  0.00000000000E+00 -0.00000000000E+00 -0.72524295764E+02  0.72524295764E+02  0.00000000000E+00 0.  1.
         23    2    1    2    0    0 -0.58175186193E+02  0.29144842987E+02  0.31050051513E+03  0.33004337061E+03  0.91018033532E+02 0.  0.
         23    2    1    2    0    0  0.73882690509E+01 -0.11710984400E+03  0.10821505492E+03  0.18462578680E+03  0.92773277179E+02 0.  0.
        -11    1    3    3    0    0  0.16283312516E+02  0.30584461315E+02  0.67297524911E+02  0.75693542654E+02  0.00000000000E+00 0. -1.
         11    1    3    3    0    0 -0.74458498709E+02 -0.14396183287E+01  0.24320299022E+03  0.25434982796E+03  0.00000000000E+00 0.  1.
        -13    1    4    4    0    0  0.43520528548E+02 -0.97962172534E+02  0.66159425029E+02  0.12596703209E+03  0.00000000000E+00 0.  1.
         13    1    4    4    0    0 -0.36132259497E+02 -0.19147671468E+02  0.42055629891E+02  0.58658754714E+02  0.00000000000E+00 0. -1.
         -3    1    1    2    0  502  0.50786917142E+02  0.87965001016E+02  0.80525840225E+02  0.12962084439E+03  0.00000000000E+00 0.  1.
<scales pt_clust_5="13000.00000" pt_clust_6="13000.00000" pt_clust_7="13000.00000" pt_clust_8="13000.00000" pt_clust_9="13000.00000"></scales>
<clustering>
<clus scale="   91.018">  5  6 -1 -1</clus>
<clus scale="   92.773">  7  8 -1 -1</clus>
<clus scale="  101.573">  7  9 -1 -1</clus>
<clus scale="  111.884">  1  5  2 -1</clus>
<clus scale="  251.253">  2  5  1 -1</clus>
</clustering>
</event>
<event>
 9    1  0.6399313E-006  0.8198446E+03  0.7546771E-02  0.9902477E-01
         21   -1    0    0  501  502  0.00000000000E+00  0.00000000000E+00  0.52698516663E+03  0.52698516663E+03  0.00000000000E+00 0. -1.
          1   -1    0    0  502    0 -0.00000000000E+00 -0.00000000000E+00 -0.53134854260E+03  0.53134854260E+03  0.00000000000E+00 0. -1.
         23    2    1    2    0    0 -0.10130625078E+03 -0.19522755432E+03  0.18879983230E+02  0.23815969909E+03  0.89369089115E+02 0.  0.
         23    2    1    2    0    0  0.38154011468E+03  0.26132434340E+03 -0.16509786374E+03  0.49920282068E+03  0.89904838585E+02 0.  0.
        -11    1    3    3    0    0 -0.95393311114E+02 -0.15676945919E+03 -0.18198839852E+02  0.18441188929E+03  0.00000000000E+00 0.  1.
         11    1    3    3    0    0 -0.59129396631E+01 -0.38458095132E+02  0.37078823082E+02  0.53747809795E+02  0.00000000000E+00 0. -1.
        -11    1    4    4    0    0  0.33081298313E+02  0.44301379626E+02 -0.45545929052E+02  0.71633903900E+02  0.00000000000E+00 0.  1.
         11    1    4    4    0    0  0.34845881637E+03  0.21702296377E+03 -0.11955193469E+03  0.42756891678E+03  0.00000000000E+00 0. -1.
          1    1    1    2  501    0 -0.28023386390E+03 -0.66096789077E+02  0.14185450454E+03  0.32097118946E+03  0.00000000000E+00 0. -1.
<scales pt_clust_5="13000.00000" pt_clust_6="13000.00000" pt_clust_7="13000.00000" pt_clust_8="13000.00000" pt_clust_9="13000.00000"></scales>
<clustering>
<clus scale="   89.369">  5  6 -1 -1</clus>
<clus scale="   89.905">  7  8 -1 -1</clus>
<clus scale="  237.410">  2  5  1 -1</clus>
<clus scale="  320.345">  7  9 -1 -1</clus>
<clus scale="  819.845">  1  5  2 -1</clus>
</clustering>
</event>
<event>
 9    1  0.6399313E-006  0.2074514E+03  0.7546771E-02  0.1170377E+00
          2   -1    0    0  502    0 -0.00000000000E+00  0.00000000000E+00  0.44441911753E+03  0.44441911753E+03  0.00000000000E+00 0. -1.
         21   -1    0    0  501  502  0.00000000000E+00 -0.00000000000E+00 -0.57014477988E+02  0.57014477988E+02  0.00000000000E+00 0. -1.
         23    2    1    2    0    0 -0.13648343113E+02  0.60355235043E+02  0.13960852944E+03  0.17826335456E+03  0.91968746972E+02 0.  0.
         23    2    1    2    0    0  0.34350840387E+02 -0.10355971303E+03  0.23438058275E+03  0.27341889238E+03  0.88988981029E+02 0.  0.
        -11    1    3    3    0    0  0.23823456240E+02 -0.13715680688E+02  0.28838233995E+02  0.39841193555E+02  0.00000000000E+00 0.  1.
         11    1    3    3    0    0 -0.37471799354E+02  0.74070915732E+02  0.11077029544E+03  0.13842216100E+03  0.00000000000E+00 0. -1.
        -13    1    4    4    0    0 -0.17592589189E+02 -0.39143580054E+02  0.28462637610E+02  0.51496026969E+02  0.00000000000E+00 0.  1.
         13    1    4    4    0    0  0.51943429576E+02 -0.64416132972E+02  0.20591794514E+03  0.22192286542E+03  0.00000000000E+00 0. -1.
          2    1    1    2  501    0 -0.20702497273E+02  0.43204477983E+02  0.13415527358E+02  0.49751348579E+02  0.00000000000E+00 0. -1.
<scales pt_clust_5="13000.00000" pt_clust_6="13000.00000" pt_clust_7="13000.00000" pt_clust_8="13000.00000" pt_clust_9="13000.00000"></scales>
<clustering>
<clus scale="   88.989">  7  8 -1 -1</clus>
<clus scale="   47.908">  7  9 -1 -1</clus>
<clus scale="   91.969">  5  6 -1 -1</clus>
<clus scale="  110.848">  1  5  2 -1</clus>
<clus scale="  207.451">  2  5  1 -1</clus>
</clustering>
</event>
<event>
 9    1  0.6399313E-006  0.2473250E+03  0.7546771E-02  0.1166759E+00
         21   -1    0    0  501  502  0.00000000000E+00  0.00000000000E+00  0.15214281184E+04  0.15214281184E+04  0.00000000000E+00 0. -1.
          3   -1    0    0  502    0 -0.00000000000E+00 -0.00000000000E+00 -0.17974411037E+02  0.17974411037E+02  0.00000000000E+00 0. -1.
         23    2    1    2    0    0 -0.85897897823E+01 -0.10900837048E+01  0.18983078075E+03  0.20269956012E+03  0.70543699811E+02 0.  0.
         23    2    1    2    0    0  0.79430300519E+02  0.64572269087E+02  0.57657524016E+03  0.59354238241E+03  0.96823558989E+02 0.  0.
        -11    1    4    4    0    0  0.18947730891E+02  0.76230306083E+02  0.29229232934E+03  0.30266298397E+03  0.00000000000E+00 0.  1.
         11    1    4    4    0    0  0.60482569628E+02 -0.11658036996E+02  0.28428291082E+03  0.29087939845E+03  0.00000000000E+00 0. -1.
        -13    1    3    3    0    0 -0.37975745572E+02  0.10377076234E+02  0.11211649227E+03  0.11882739079E+03  0.00000000000E+00 0.  1.
         13    1    3    3    0    0  0.29385955790E+02 -0.11467159939E+02  0.77714288477E+02  0.83872169330E+02  0.00000000000E+00 0. -1.
          3    1    1    2  501    0 -0.70840510737E+02 -0.63482185382E+02  0.73704768650E+03  0.74316058695E+03  0.00000000000E+00 0. -1.
<scales pt_clust_5="13000.00000" pt_clust_6="13000.00000" pt_clust_7="13000.00000" pt_clust_8="13000.00000" pt_clust_9="13000.00000"></scales>
<clustering>
<clus scale="   70.544">  7  8 -1 -1</clus>
<clus scale="   71.073">  2  7  1 -1</clus>
<clus scale="   96.824">  5  6 -1 -1</clus>
<clus scale="   97.019">  5  9 -1 -1</clus>
<clus scale="  247.325">  1  5  2 -1</clus>
</clustering>
</event>
<event>
 9    1  0.6399313E-006  0.1308651E+03  0.7546771E-02  0.1240191E+00
          1   -1    0    0  502    0 -0.00000000000E+00  0.00000000000E+00  0.25990755661E+03  0.25990755661E+03  0.00000000000E+00 0. -1.
         21   -1    0    0  501  502  0.00000000000E+00 -0.00000000000E+00 -0.17474651080E+03  0.17474651080E+03  0.00000000000E+00 0.  1.
         23    2    1    2    0    0 -0.28589238921E+02  0.21527259938E+02  0.22357876906E+03  0.24416748184E+03  0.91375739185E+02 0.  0.
         23    2    1    2    0    0  0.47934745626E+02 -0.34191739472E+02 -0.10510361370E+03  0.14993455028E+03  0.89256847735E+02 0.  0.
        -11    1    3    3    0    0  0.35752287277E+01 -0.20122488219E+02  0.74956658983E+01  0.21768826331E+02  0.00000000000E+00 0.  1.
         11    1    3    3    0    0 -0.32164467649E+02  0.41649748157E+02  0.21608310316E+03  0.22239865551E+03  0.00000000000E+00 0. -1.
        -11    1    4    4    0    0  0.35034249014E+02  0.88707537185E+01 -0.56935285424E+00  0.36144336184E+02  0.00000000000E+00 0. -1.
         11    1    4    4    0    0  0.12900496611E+02 -0.43062493191E+02 -0.10453426085E+03  0.11379021409E+03  0.00000000000E+00 0.  1.
          1    1    1    2  501    0 -0.19345506705E+02  0.12664479534E+02 -0.33314109544E+02  0.40552035291E+02  0.00000000000E+00 0. -1.
<scales pt_clust_5="13000.00000" pt_clust_6="13000.00000" pt_clust_7="13000.00000" pt_clust_8="13000.00000" pt_clust_9="13000.00000"></scales>
<clustering>
<clus scale="   89.257">  7  8 -1 -1</clus>
<clus scale="   23.122">  7  9 -1 -1</clus>
<clus scale="   91.376">  5  6 -1 -1</clus>
<clus scale="   98.134">  1  5  2 -1</clus>
<clus scale="  130.865">  2  5  1 -1</clus>
</clustering>
</event>
<event>
 9    1  0.6399313E-006  0.3068171E+03  0.7546771E-02  0.1119151E+00
         21   -1    0    0  501  502  0.00000000000E+00  0.00000000000E+00  0.10865982371E+03  0.10865982371E+03  0.00000000000E+00 0.  1.
          2   -1    0    0  502    0 -0.00000000000E+00 -0.00000000000E+00 -0.42219455113E+03  0.42219455113E+03  0.00000000000E+00 0. -1.
         23    2    1    2    0    0 -0.59143446383E+02  0.40650011824E+02 -0.12358378787E+03  0.16999692318E+03  0.92063187850E+02 0.  0.
         23    2    1    2    0    0  0.45181838171E+02  0.38522025053E+02  0.42130459886E+02  0.11524614513E+03  0.89338420636E+02 0.  0.
        -11    1    3    3    0    0 -0.43535778294E+02 -0.23308354399E+02 -0.66698651229E+02  0.82990080444E+02  0.00000000000E+00 0. -1.
         11    1    3    3    0    0 -0.15607668089E+02  0.63958366223E+02 -0.56885136637E+02  0.87006842739E+02  0.00000000000E+00 0.  1.
        -11    1    4    4    0    0  0.48034165322E+02  0.61180651881E+02  0.14035575491E+02  0.79040183338E+02  0.00000000000E+00 0.  1.
         11    1    4    4    0    0 -0.28523271510E+01 -0.22658626828E+02  0.28094884394E+02  0.36205961789E+02  0.00000000000E+00 0. -1.
          2    1    1    2  501    0  0.13961608212E+02 -0.79172036877E+02 -0.23208139945E+03  0.24561130653E+03  0.00000000000E+00 0. -1.
<scales pt_clust_5="13000.00000" pt_clust_6="13000.00000" pt_clust_7="13000.00000" pt_clust_8="13000.00000" pt_clust_9="13000.00000"></scales>
<clustering>
<clus scale="   89.338">  7  8 -1 -1</clus>
<clus scale="   80.394">  7  9 -1 -1</clus>
<clus scale="   92.063">  5  6 -1 -1</clus>
<clus scale="  116.730">  2  5  1 -1</clus>
<clus scale="  306.817">  1  5  2 -1</clus>
</clustering>
</event>
<event>
 9    1  0.6399313E-006  0.4886808E+03  0.7546771E-02  0.1066067E+00
          3   -1    0    0  502    0 -0.00000000000E+00  0.00000000000E+00  0.18373264519E+03  0.18373264519E+03  0.00000000000E+00 0. -1.
         21   -1    0    0  501  502  0.00000000000E+00 -0.00000000000E+00 -0.49894022667E+03  0.49894022667E+03  0.00000000000E+00 0.  1.
         23    2    1    2    0    0 -0.44403221132E+01  0.75531158014E+02 -0.63346772384E+02  0.13290676552E+03  0.89032142830E+02 0.  0.
         23    2    1    2    0    0 -0.18890549403E+03 -0.17154805950E+03 -0.12711572712E+03  0.30044064541E+03  0.94826952584E+02 0.  0.
        -13    1    3    3    0    0  0.19797287944E+02  0.18827591654E+02 -0.65742964192E+02  0.71193736791E+02  0.00000000000E+00 0.  1.
         13    1    3    3    0    0 -0.24237610057E+02  0.56703566360E+02  0.23961918086E+01  0.61713028725E+02  0.00000000000E+00 0. -1.
        -13    1    4    4    0    0 -0.17476009924E+03 -0.10485885023E+03 -0.89653128718E+02  0.22265254152E+03  0.00000000000E+00 0.  1.
         13    1    4    4    0    0 -0.14145394799E+02 -0.66689209273E+02 -0.37462598403E+02  0.77788103889E+02  0.00000000000E+00 0. -1.
          3    1    1    2  501    0  0.19334581615E+03  0.96016901487E+02 -0.12474508198E+03  0.24932546094E+03  0.00000000000E+00 0. -1.
<scales pt_clust_5="13000.00000" pt_clust_6="13000.00000" pt_clust_7="13000.00000" pt_clust_8="13000.00000" pt_clust_9="13000.00000"></scales>
<clustering>
<clus scale="   89.032">  5  6 -1 -1</clus>
<clus scale="   94.827">  7  8 -1 -1</clus>
<clus scale="  116.839">  1  5  2 -1</clus>
<clus scale="  230.110">  7  9 -1 -1</clus>
<clus scale="  488.681">  2  5  1 -1</clus>
</clustering>
</event>
<event>
 9    1  0.6399313E-006  0.2616808E+03  0.7546771E-02  0.1116266E+00
         -1   -1    0    0    0  501 -0.00000000000E+00  0.00000000000E+00  0.29576300216E+03  0.29576300216E+03  0.00000000000E+00 0.  1.
         21   -1    0    0  501  502  0.00000000000E+00 -0.00000000000E+00 -0.21531682727E+03  0.21531682727E+03  0.00000000000E+00 0.  1.
         23    2    1    2    0    0 -0.15598036671E+03 -0.92983629994E+02  0.13575320568E+03  0.24361825088E+03  0.89135229089E+02 0.  0.
         23    2    1    2    0    0  0.17030953198E+03  0.36028835122E+02 -0.16941153098E+02  0.19731092491E+03  0.91330086914E+02 0.  0.
        -11    1    3    3    0    0 -0.84259492760E+02 -0.15292329379E+02  0.22214406842E+02  0.88470318917E+02  0.00000000000E+00 0. -1.
         11    1    3    3    0    0 -0.71720873945E+02 -0.77691300615E+02  0.11353879883E+03  0.15514793196E+03  0.00000000000E+00 0.  1.
        -11    1    4    4    0    0  0.15308298230E+03  0.59611411676E+02 -0.26874126559E+02  0.16646362531E+03  0.00000000000E+00 0. -1.
         11    1    4    4    0    0  0.17226549682E+02 -0.23582576555E+02  0.99329734615E+01  0.30847299601E+02  0.00000000000E+00 0.  1.
         -1    1    1    2    0  502 -0.14329165277E+02  0.56954794872E+02 -0.38365877693E+02  0.70150653651E+02  0.00000000000E+00 0.  1.
<scales pt_clust_5="13000.00000" pt_clust_6="13000.00000" pt_clust_7="13000.00000" pt_clust_8="13000.00000" pt_clust_9="13000.00000"></scales>
<clustering>
<clus scale="   89.135">  5  6 -1 -1</clus>
<clus scale="   91.330">  7  8 -1 -1</clus>
<clus scale="   58.730">  7  9 -1 -1</clus>
<clus scale="  202.289">  1  5  2 -1</clus>
<clus scale="  261.681">  2  5  1 -1</clus>
</clustering>
</event>
<event>
 9    1  0.6399313E-006  0.3235859E+03  0.7546771E-02  0.1108277E+00
          2   -1    0    0  502    0 -0.00000000000E+00  0.00000000000E+00  0.74122566579E+02  0.74122566579E+02  0.00000000000E+00 0. -1.
         21   -1    0    0  501  502  0.00000000000E+00 -0.00000000000E+00 -0.72069929566E+03  0.72069929566E+03  0.00000000000E+00 0. -1.
         23    2    1    2    0    0 -0.13158456785E+02  0.94280461385E+02 -0.12538097314E+03  0.18134581557E+03  0.90022030717E+02 0.  0.
         23    2    1    2    0    0  0.12936401447E+02  0.39650629523E+02 -0.30801288632E+02  0.10512152472E+03  0.91445572194E+02 0.  0.
        -13    1    3    3    0    0  0.15619015005E+02  0.60256024630E+02 -0.12162103467E+03  0.13662510094E+03  0.00000000000E+00 0.  1.
         13    1    3    3    0    0 -0.28777471790E+02  0.34024436756E+02 -0.37599384700E+01  0.44720714624E+02  0.00000000000E+00 0. -1.
        -13    1    4    4    0    0 -0.39667299218E+02  0.14917177228E+02 -0.13062219492E+02  0.44346796748E+02  0.00000000000E+00 0.  1.
         13    1    4    4    0    0  0.52603700665E+02  0.24733452294E+02 -0.17739069140E+02  0.60774727971E+02  0.00000000000E+00 0. -1.
          2    1    1    2  501    0  0.22205533874E+00 -0.13393109091E+03 -0.49039446731E+03  0.50835452195E+03  0.00000000000E+00 0. -1.
<scales pt_clust_5="13000.00000" pt_clust_6="13000.00000" pt_clust_7="13000.00000" pt_clust_8="13000.00000" pt_clust_9="13000.00000"></scales>
<clustering>
<clus scale="   90.022">  5  6 -1 -1</clus>
<clus scale="   91.446">  7  8 -1 -1</clus>
<clus scale="  131.019">  1  5  2 -1</clus>
<clus scale="  115.605">  7  9 -1 -1</clus>
<clus scale="  323.586">  2  5  1 -1</clus>
</clustering>
</event>
<event>
 9    1  0.6399313E-006  0.1813671E+03  0.7546771E-02  0.1193608E+00
          2   -1    0    0  502    0 -0.00000000000E+00  0.00000000000E+00  0.16880717449E+03  0.16880717449E+03  0.00000000000E+00 0. -1.
         21   -1    0    0  501  502  0.00000000000E+00 -0.00000000000E+00 -0.13140084836E+03  0.13140084836E+03  0.00000000000E+00 0.  1.
         23    2    1    2    0    0 -0.12946619254E+02 -0.38030288911E+02  0.63082411743E+02  0.11703242682E+03  0.90018222778E+02 0.  0.
         23    2    1    2    0    0 -0.25911437403E+02 -0.23626375604E+02 -0.50839899436E+02  0.10607364811E+03  0.86239870341E+02 0.  0.
        -11    1    3    3    0    0 -0.48891617428E+02 -0.61898439287E+01  0.22561034077E+02  0.54200596687E+02  0.00000000000E+00 0.  1.
         11    1    3    3    0    0  0.35944998174E+02 -0.31840444982E+02  0.40521377666E+02  0.62831830137E+02  0.00000000000E+00 0. -1.
        -13    1    4    4    0    0 -0.37526041200E+02  0.12177204683E+02 -0.55555742865E+02  0.68139039085E+02  0.00000000000E+00 0.  1.
         13    1    4    4    0    0  0.11614603797E+02 -0.35803580287E+02  0.47158434296E+01  0.37934609026E+02  0.00000000000E+00 0. -1.
          2    1    1    2  501    0  0.38858056658E+02  0.61656664515E+02  0.25163813817E+02  0.77101947914E+02  0.00000000000E+00 0. -1.
<scales pt_clust_5="13000.00000" pt_clust_6="13000.00000" pt_clust_7="13000.00000" pt_clust_8="13000.00000" pt_clust_9="13000.00000"></scales>
<clustering>
<clus scale="   86.240">  7  8 -1 -1</clus>
<clus scale="   72.880">  7  9 -1 -1</clus>
<clus scale="   90.018">  5  6 -1 -1</clus>
<clus scale="   98.576">  1  5  2 -1</clus>
<clus scale="  181.367">  2  5  1 -1</clus>
</clustering>
</event>
<event>
 9    1  0.6399313E-006  0.1713646E+03  0.7546771E-02  0.1203338E+00
          2   -1    0    0  502    0 -0.00000000000E+00  0.00000000000E+00  0.37687807616E+03  0.37687807616E+03  0.00000000000E+00 0. -1.
         21   -1    0    0  501  502  0.00000000000E+00 -0.00000000000E+00 -0.57787549121E+02  0.57787549121E+02  0.00000000000E+00 0.  1.
         23    2    1    2    0    0 -0.20067259725E+02 -0.10459191535E+02  0.31075885156E+02  0.99526456872E+02  0.91802589172E+02 0.  0.
         23    2    1    2    0    0  0.64960507353E+02 -0.65844927419E+00  0.25435280044E+03  0.27793667556E+03  0.91286074815E+02 0.  0.
        -13    1    3    3    0    0 -0.11224589514E+02  0.35905619831E+02 -0.77498036056E+01  0.38409170795E+02  0.00000000000E+00 0.  1.
         13    1    3    3    0    0 -0.88426702104E+01 -0.46364811367E+02  0.38825688762E+02  0.61117286077E+02  0.00000000000E+00 0. -1.
        -13    1    4    4    0    0  0.37158693100E+02  0.42966172635E+02  0.98298855751E+02  0.11353204616E+03  0.00000000000E+00 0.  1.
         13    1    4    4    0    0  0.27801814253E+02 -0.43624621909E+02  0.15605394469E+03  0.16440462939E+03  0.00000000000E+00 0. -1.
          2    1    1    2  501    0 -0.44893247628E+02  0.11117640810E+02  0.33661841445E+02  0.57202492858E+02  0.00000000000E+00 0. -1.
<scales pt_clust_5="13000.00000" pt_clust_6="13000.00000" pt_clust_7="13000.00000" pt_clust_8="13000.00000" pt_clust_9="13000.00000"></scales>
<clustering>
<clus scale="   91.286">  7  8 -1 -1</clus>
<clus scale="   46.249">  7  9 -1 -1</clus>
<clus scale="   91.803">  5  6 -1 -1</clus>
<clus scale="   94.551">  1  5  2 -1</clus>
<clus scale="  171.365">  2  5  1 -1</clus>
</clustering>
</event>
<event>
 9    1  0.6399313E-006  0.1569295E+03  0.7546771E-02  0.1207821E+00
          3   -1    0    0  502    0 -0.00000000000E+00  0.00000000000E+00  0.19994288538E+03  0.19994288538E+03  0.00000000000E+00 0. -1.
         21   -1    0    0  501  502  0.00000000000E+00 -0.00000000000E+00 -0.32572293935E+03  0.32572293935E+03  0.00000000000E+00 0. -1.
         23    2    1    2    0    0  0.26268097208E+02  0.62050182295E+02  0.16261574100E+03  0.19733822206E+03  0.89209061261E+02 0.  0.
         23    2    1    2    0    0 -0.50262236581E+02 -0.28707938424E+02 -0.24202585875E+03  0.26637927795E+03  0.95031390932E+02 0.  0.
        -11    1    3    3    0    0  0.48958056401E+02  0.21252195870E+02  0.12960121670E+03  0.14016070236E+03  0.00000000000E+00 0. -1.
         11    1    3    3    0    0 -0.22689959193E+02  0.40797986425E+02  0.33014524307E+02  0.57177519706E+02  0.00000000000E+00 0.  1.
        -13    1    4    4    0    0  0.26361252852E+02  0.27203995722E+00 -0.35648819192E+02  0.44337658570E+02  0.00000000000E+00 0.  1.
         13    1    4    4    0    0 -0.76623489434E+02 -0.28979978382E+02 -0.20637703956E+03  0.22204161938E+03  0.00000000000E+00 0. -1.
          3    1    1    2  501    0  0.23994139374E+02 -0.33342243870E+02 -0.46369936218E+02  0.61948324719E+02  0.00000000000E+00 0. -1.
<scales pt_clust_5="13000.00000" pt_clust_6="13000.00000" pt_clust_7="13000.00000" pt_clust_8="13000.00000" pt_clust_9="13000.00000"></scales>
<clustering>
<clus scale="   89.209">  5  6 -1 -1</clus>
<clus scale="   95.031">  7  8 -1 -1</clus>
<clus scale="   41.078">  7  9 -1 -1</clus>
<clus scale="  111.797">  1  5  2 -1</clus>
<clus scale="  156.930">  2  5  1 -1</clus>
</clustering>
</event>
<event>
 9    1  0.6399313E-006  0.1530715E+03  0.7546771E-02  0.1213622E+00
         21   -1    0    0  501  502  0.00000000000E+00  0.00000000000E+00  0.74435499822E+02  0.74435499822E+02  0.00000000000E+00 0.  1.
         -4   -1    0    0    0  501 -0.00000000000E+00 -0.00000000000E+00 -0.23972745916E+03  0.23972745916E+03  0.00000000000E+00 0.  1.
         23    2    1    2    0    0  0.52958734991E+02 -0.11875798880E+02 -0.10537801589E+03  0.14978362531E+03  0.91569350599E+02 0.  0.
         23    2    1    2    0    0  0.75241392717E+01  0.20009545546E+01 -0.29730165369E+02  0.96065710656E+02  0.91017149703E+02 0.  0.
        -11    1    3    3    0    0  0.68820639633E+02 -0.26131714122E+02 -0.10527082899E+03  0.12845658550E+03  0.00000000000E+00 0.  1.
         11    1    3    3    0    0 -0.15861904642E+02  0.14255915242E+02 -0.10718690025E+00  0.21327039816E+02  0.00000000000E+00 0. -1.
        -11    1    4    4    0    0  0.34466227123E+02 -0.26471833272E+02  0.49339588114E+01  0.43738115168E+02  0.00000000000E+00 0.  1.
         11    1    4    4    0    0 -0.26942087851E+02  0.28472787826E+02 -0.34664124181E+02  0.52327595489E+02  0.00000000000E+00 0. -1.
         -4    1    1    2    0  502 -0.60482874263E+02  0.98748443253E+01 -0.30183778079E+02  0.68313623009E+02  0.00000000000E+00 0.  1.
<scales pt_clust_5="13000.00000" pt_clust_6="13000.00000" pt_clust_7="13000.00000" pt_clust_8="13000.00000" pt_clust_9="13000.00000"></scales>
<clustering>
<clus scale="   91.017">  7  8 -1 -1</clus>
<clus scale="   61.284">  7  9 -1 -1</clus>
<clus scale="   91.569">  5  6 -1 -1</clus>
<clus scale="  106.445">  2  5  1 -1</clus>
<clus scale="  153.072">  1  5  2 -1</clus>
</clustering>
</event>
<event>
 9    1  0.6399313E-006  0.2272020E+03  0.7546771E-02  0.1156529E+00
         21   -1    0    0  501  502  0.00000000000E+00  0.00000000000E+00  0.58390529940E+02  0.58390529940E+02  0.00000000000E+00 0.  1.
          1   -1    0    0  502    0 -0.00000000000E+00 -0.00000000000E+00 -0.50630187341E+03  0.50630187341E+03  0.00000000000E+00 0. -1.
         23    2    1    2    0    0  0.30418961306E+02  0.62472149426E+02 -0.16509509538E+03  0.20191732419E+03  0.93199423968E+02 0.  0.
         23    2    1    2    0    0 -0.10054519771E+03 -0.36770807516E+02 -0.23585328500E+03  0.27454941447E+03  0.91044933260E+02 0.  0.
        -11    1    4    4    0    0 -0.16398381691E+02 -0.52222075997E+02 -0.10004983720E+03  0.11404394797E+03  0.00000000000E+00 0.  1.
         11    1    4    4    0    0 -0.84146816018E+02  0.15451268481E+02 -0.13580344780E+03  0.16050546651E+03  0.00000000000E+00 0. -1.
        -13    1    3    3    0    0 -0.20433518282E+02  0.45257563272E+02 -0.12621026491E+03  0.13562745545E+03  0.00000000000E+00 0. -1.
         13    1    3    3    0    0  0.50852479588E+02  0.17214586154E+02 -0.38884830465E+02  0.66289868735E+02  0.00000000000E+00 0.  1.
          1    1    1    2  501    0  0.70126236403E+02 -0.25701341910E+02 -0.46962963084E+02  0.88225664688E+02  0.00000000000E+00 0. -1.
<scales pt_clust_5="13000.00000" pt_clust_6="13000.00000" pt_clust_7="13000.00000" pt_clust_8="13000.00000" pt_clust_9="13000.00000"></scales>
<clustering>
<clus scale="   91.045">  5  6 -1 -1</clus>
<clus scale="   74.688">  5  9 -1 -1</clus>
<clus scale="   93.199">  7  8 -1 -1</clus>
<clus scale="  116.251">  2  7  1 -1</clus>
<clus scale="  227.202">  1  5  2 -1</clus>
</clustering>
</event>
<event>
 9    1  0.6399313E-006  0.1630837E+03  0.7546771E-02  0.1204098E+00
         21   -1    0    0  501  502  0.00000000000E+00  0.00000000000E+00  0.19822900350E+03  0.19822900350E+03  0.00000000000E+00 0. -1.
         -1   -1    0    0    0  501 -0.00000000000E+00 -0.00000000000E+00 -0.92620750516E+02  0.92620750516E+02  0.00000000000E+00 0.  1.
         23    2    1    2    0    0  0.49238382289E+02 -0.28464291622E+02  0.42757116052E+02  0.11607398875E+03  0.91708046006E+02 0.  0.
         23    2    1    2    0    0 -0.59535746329E+02  0.49365303621E+02  0.15538648124E+02  0.12203716834E+03  0.93113815189E+02 0.  0.
        -13    1    4    4    0    0 -0.83289853891E+01 -0.25933490949E+02 -0.72134943272E+01  0.28177161866E+02  0.00000000000E+00 0.  1.
         13    1    4    4    0    0 -0.51206760939E+02  0.75298794570E+02  0.22752142451E+02  0.93860006476E+02  0.00000000000E+00 0. -1.
        -13    1    3    3    0    0 -0.20267589526E+02  0.11831621092E+02  0.24008529905E+02  0.33573381585E+02  0.00000000000E+00 0. -1.
         13    1    3    3    0    0  0.69505971814E+02 -0.40295912714E+02  0.18748586146E+02  0.82500607160E+02  0.00000000000E+00 0.  1.
         -1    1    1    2    0  502  0.10297364040E+02 -0.20901011999E+02  0.47312488807E+02  0.52738596927E+02  0.00000000000E+00 0.  1.
<scales pt_clust_5="13000.00000" pt_clust_6="13000.00000" pt_clust_7="13000.00000" pt_clust_8="13000.00000" pt_clust_9="13000.00000"></scales>
<clustering>
<clus scale="   91.708">  7  8 -1 -1</clus>
<clus scale="   93.114">  5  6 -1 -1</clus>
<clus scale="   23.300">  5  9 -1 -1</clus>
<clus scale="  107.912">  2  7  1 -1</clus>
<clus scale="  163.084">  1  5  2 -1</clus>
</clustering>
</event>
<event>
 9    1  0.6399313E-006  0.1781465E+03  0.7546771E-02  0.1191770E+00
          2   -1    0    0  502    0 -0.00000000000E+00  0.00000000000E+00  0.11341944836E+03  0.11341944836E+03  0.00000000000E+00 0. -1.
         21   -1    0    0  501  502  0.00000000000E+00 -0.00000000000E+00 -0.21673438084E+03  0.21673438084E+03  0.00000000000E+00 0.  1.
         23    2    1    2    0    0 -0.55548856405E+02 -0.25838553510E+02  0.24314992782E+02  0.11100643792E+03  0.89319113801E+02 0.  0.
         23    2    1    2    0    0  0.93409723690E+02  0.21821347975E+02 -0.11981310146E+03  0.18027984767E+03  0.94573233458E+02 0.  0.
        -13    1    3    3    0    0  0.20565639646E+02 -0.99420428801E+01 -0.11295861741E+02  0.25483057963E+02  0.00000000000E+00 0.  1.
         13    1    3    3    0    0 -0.76114496051E+02 -0.15896510630E+02  0.35610854523E+02  0.85523379957E+02  0.00000000000E+00 0. -1.
        -13    1    4    4    0    0  0.60679525511E+02  0.12678452997E+02 -0.69107131321E+01  0.62373920373E+02  0.00000000000E+00 0. -1.
         13    1    4    4    0    0  0.32730198178E+02  0.91428949779E+01 -0.11290238833E+03  0.11790592730E+03  0.00000000000E+00 0.  1.
          2    1    1    2  501    0 -0.37860867285E+02  0.40172055355E+01 -0.78168237996E+01  0.38867543609E+02  0.00000000000E+00 0. -1.
<scales pt_clust_5="13000.00000" pt_clust_6="13000.00000" pt_clust_7="13000.00000" pt_clust_8="13000.00000" pt_clust_9="13000.00000"></scales>
<clustering>
<clus scale="   89.319">  5  6 -1 -1</clus>
<clus scale="   94.573">  7  8 -1 -1</clus>
<clus scale="   38.073">  7  9 -1 -1</clus>
<clus scale="  108.311">  1  5  2 -1</clus>
<clus scale="  178.147">  2  5  1 -1</clus>
</clustering>
</event>
<event>
 9    1  0.6399313E-006  0.4524420E+03  0.7546771E-02  0.1053902E+00
         21   -1    0    0  501  502  0.00000000000E+00  0.00000000000E+00  0.13543237462E+04  0.13543237462E+04  0.00000000000E+00 0.  1.
          1   -1    0    0  502    0 -0.00000000000E+00 -0.00000000000E+00 -0.16653173783E+03  0.16653173783E+03  0.00000000000E+00 0. -1.
         23    2    1    2    0    0 -0.18258847947E+03 -0.34593299181E+02 -0.41403105254E+02  0.21103703941E+03  0.91033871132E+02 0.  0.
         23    2    1    2    0    0  0.22878144278E+01 -0.11081367412E+03  0.15954285161E+03  0.21537453133E+03  0.92991197331E+02 0.  0.
        -11    1    4    4    0    0 -0.36790282801E+02 -0.94453733374E+02  0.12333622154E+03  0.15964603409E+03  0.00000000000E+00 0.  1.
         11    1    4    4    0    0  0.39078097229E+02 -0.16359940746E+02  0.36206630074E+02  0.55728497248E+02  0.00000000000E+00 0. -1.
        -13    1    3    3    0    0 -0.20431535590E+02 -0.39731383489E+02 -0.10164085905E+02  0.45818545621E+02  0.00000000000E+00 0.  1.
         13    1    3    3    0    0 -0.16215694388E+03  0.51380843079E+01 -0.31239019348E+02  0.16521849379E+03  0.00000000000E+00 0. -1.
          1    1    1    2  501    0  0.18030066504E+03  0.14540697330E+03  0.10696522620E+04  0.10944439133E+04  0.00000000000E+00 0. -1.
<scales pt_clust_5="13000.00000" pt_clust_6="13000.00000" pt_clust_7="13000.00000" pt_clust_8="13000.00000" pt_clust_9="13000.00000"></scales>
<clustering>
<clus scale="   91.034">  7  8 -1 -1</clus>
<clus scale="   92.991">  5  6 -1 -1</clus>
<clus scale="  206.936">  2  7  1 -1</clus>
<clus scale="  183.241">  5  9 -1 -1</clus>
<clus scale="  452.442">  1  5  2 -1</clus>
</clustering>
</event>
<event>
 9    1  0.6399313E-006  0.1684136E+03  0.7546771E-02  0.1205520E+00
          1   -1    0    0  502    0 -0.00000000000E+00  0.00000000000E+00  0.47641162907E+03  0.47641162907E+03  0.00000000000E+00 0. -1.
         21   -1    0    0  501  502  0.00000000000E+00 -0.00000000000E+00 -0.39228489510E+02  0.39228489510E+02  0.00000000000E+00 0.  1.
         23    2    1    2    0    0 -0.20187209452E+02 -0.15714152814E+02  0.22851770968E+03  0.24749014939E+03  0.91523616518E+02 0.  0.
         23    2    1    2    0    0 -0.19257965672E+02 -0.39523900106E+02  0.89131383376E+02  0.13068887432E+03  0.84865602261E+02 0.  0.
        -11    1    4    4    0    0  0.23475100011E+02  0.93292786266E+01  0.46849771419E+02  0.53226091743E+02  0.00000000000E+00 0. -1.
         11    1    4    4    0    0 -0.42733065682E+02 -0.48853178732E+02  0.42281611957E+02  0.77462782577E+02  0.00000000000E+00 0.  1.
        -11    1    3    3    0    0 -0.17877717345E+02 -0.53893025300E+02  0.13736023465E+03  0.14863345860E+03  0.00000000000E+00 0.  1.
         11    1    3    3    0    0 -0.23094921078E+01  0.38178872487E+02  0.91157475037E+02  0.98856690786E+02  0.00000000000E+00 0. -1.
          1    1    1    2  501    0  0.39445175124E+02  0.55238052919E+02  0.11953404650E+03  0.13746109487E+03  0.00000000000E+00 0. -1.
<scales pt_clust_5="13000.00000" pt_clust_6="13000.00000" pt_clust_7="13000.00000" pt_clust_8="13000.00000" pt_clust_9="13000.00000"></scales>
<clustering>
<clus scale="   84.866">  5  6 -1 -1</clus>
<clus scale="   67.876">  5  9 -1 -1</clus>
<clus scale="   91.524">  7  8 -1 -1</clus>
<clus scale="   95.032">  1  7  2 -1</clus>
<clus scale="  168.414">  2  5  1 -1</clus>
</clustering>
</event>
<event>
 9    1  0.6399313E-006  0.2846570E+03  0.7546771E-02  0.1111307E+00
         21   -1    0    0  501  502  0.00000000000E+00  0.00000000000E+00  0.56487529506E+03  0.56487529506E+03  0.00000000000E+00 0. -1.
          1   -1    0    0  502    0 -0.00000000000E+00 -0.00000000000E+00 -0.10369210932E+03  0.10369210932E+03  0.00000000000E+00 0. -1.
         23    2    1    2    0    0  0.69513796391E+01 -0.15030297560E+03  0.86573976956E+02  0.19807654996E+03  0.95393710508E+02 0.  0.
         23    2    1    2    0    0  0.37587876618E+02 -0.26778189809E+02  0.12917606293E+03  0.16458414711E+03  0.90948151863E+02 0.  0.
        -11    1    3    3    0    0  0.40778914203E+02 -0.13468316702E+03  0.64835536109E+02  0.15493909147E+03  0.00000000000E+00 0. -1.
         11    1    3    3    0    0 -0.33827534564E+02 -0.15619808583E+02  0.21738440847E+02  0.43137458494E+02  0.00000000000E+00 0.  1.
        -13    1    4    4    0    0 -0.24468340370E+02  0.70320991637E+01  0.12958171250E+02  0.28566839189E+02  0.00000000000E+00 0.  1.
         13    1    4    4    0    0  0.62056216988E+02 -0.33810288972E+02  0.11621789168E+03  0.13601730792E+03  0.00000000000E+00 0. -1.
          1    1    1    2  501    0 -0.44539256257E+02  0.17708116541E+03  0.24543314585E+03  0.30590670731E+03  0.00000000000E+00 0. -1.
<scales pt_clust_5="13000.00000" pt_clust_6="13000.00000" pt_clust_7="13000.00000" pt_clust_8="13000.00000" pt_clust_9="13000.00000"></scales>
<clustering>
<clus scale="   90.948">  7  8 -1 -1</clus>
<clus scale="   95.394">  5  6 -1 -1</clus>
<clus scale="  178.155">  2  5  1 -1</clus>
<clus scale="   91.559">  7  9 -1 -1</clus>
<clus scale="  284.657">  1  5  2 -1</clus>
</clustering>
</event>
<event>
 9    1  0.6399313E-006  0.1701874E+03  0.7546771E-02  0.1191680E+00
          1   -1    0    0  502    0 -0.00000000000E+00  0.00000000000E+00  0.88422385019E+02  0.88422385019E+02  0.00000000000E+00 0. -1.
         21   -1    0    0  501  502  0.00000000000E+00 -0.00000000000E+00 -0.26327942760E+03  0.26327942760E+03  0.00000000000E+00 0. -1.
         23    2    1    2    0    0  0.36761978288E+02 -0.47606722600E+02 -0.29581530278E+02  0.12794138225E+03  0.10897746223E+03 0.  0.
         23    2    1    2    0    0 -0.43956881240E+02 -0.15959907175E+02 -0.69067327040E+02  0.12426082961E+03  0.92106091361E+02 0.  0.
        -13    1    4    4    0    0 -0.56891722978E+02  0.84391300646E+01 -0.90858280516E+01  0.58227479174E+02  0.00000000000E+00 0.  1.
         13    1    4    4    0    0  0.12934841738E+02 -0.24399037240E+02 -0.59981498988E+02  0.66033350437E+02  0.00000000000E+00 0. -1.
        -13    1    3    3    0    0  0.49611696629E+02  0.20724773532E+02 -0.42227048090E+01  0.53932067606E+02  0.00000000000E+00 0.  1.
         13    1    3    3    0    0 -0.12849718341E+02 -0.68331496132E+02 -0.25358825469E+02  0.74009314645E+02  0.00000000000E+00 0. -1.
          1    1    1    2  501    0  0.71949029518E+01  0.63566629775E+02 -0.76208185261E+02  0.99499600753E+02  0.00000000000E+00 0. -1.
<scales pt_clust_5="13000.00000" pt_clust_6="13000.00000" pt_clust_7="13000.00000" pt_clust_8="13000.00000" pt_clust_9="13000.00000"></scales>
<clustering>
<clus scale="   92.106">  5  6 -1 -1</clus>
<clus scale="   63.973">  5  9 -1 -1</clus>
<clus scale="  108.977">  7  8 -1 -1</clus>
<clus scale="  124.475">  1  7  2 -1</clus>
<clus scale="  170.187">  2  5  1 -1</clus>
</clustering>
</event>
<event>
 9    1  0.6399313E-006  0.2637889E+03  0.7546771E-02  0.1128743E+00
         21   -1    0    0  501  502  0.00000000000E+00  0.00000000000E+00  0.48212323425E+03  0.48212323425E+03  0.00000000000E+00 0. -1.
          3   -1    0    0  502    0 -0.00000000000E+00 -0.00000000000E+00 -0.18394319479E+03  0.18394319479E+03  0.00000000000E+00 0. -1.
         23    2    1    2    0    0  0.10513601494E+03  0.38219842315E+02 -0.10879721501E+03  0.18107666960E+03  0.91856345983E+02 0.  0.
         23    2    1    2    0    0 -0.47654491922E+02  0.96181829421E+01  0.38429815696E+02  0.10893149697E+03  0.89586607561E+02 0.  0.
        -11    1    3    3    0    0  0.66812084132E+02 -0.24308031333E+02 -0.59509829343E+02  0.92715450502E+02  0.00000000000E+00 0.  1.
         11    1    3    3    0    0  0.38323930810E+02  0.62527873648E+02 -0.49287385664E+02  0.88361219102E+02  0.00000000000E+00 0. -1.
        -13    1    4    4    0    0 -0.15051293699E+02  0.45575311462E+02  0.36600983620E+02  0.60359609499E+02  0.00000000000E+00 0. -1.
         13    1    4    4    0    0 -0.32603198223E+02 -0.35957128520E+02  0.18288320757E+01  0.48571887471E+02  0.00000000000E+00 0.  1.
          3    1    1    2  501    0 -0.57481523019E+02 -0.47838025257E+02  0.36854743877E+03  0.37605826247E+03  0.00000000000E+00 0. -1.
<scales pt_clust_5="13000.00000" pt_clust_6="13000.00000" pt_clust_7="13000.00000" pt_clust_8="13000.00000" pt_clust_9="13000.00000"></scales>
<clustering>
<clus scale="   89.587">  7  8 -1 -1</clus>
<clus scale="   74.784">  7  9 -1 -1</clus>
<clus scale="   91.856">  5  6 -1 -1</clus>
<clus scale="  144.748">  2  5  1 -1</clus>
<clus scale="  263.789">  1  5  2 -1</clus>
</clustering>
</event>
<event>
 9    1  0.6399313E-006  0.2740927E+03  0.7546771E-02  0.1141001E+00
          2   -1    0    0  502    0 -0.00000000000E+00  0.00000000000E+00  0.60432033062E+03  0.60432033062E+03  0.00000000000E+00 0. -1.
         21   -1    0    0  501  502  0.00000000000E+00 -0.00000000000E+00 -0.60718862653E+02  0.60718862653E+02  0.00000000000E+00 0. -1.
         23    2    1    2    0    0 -0.10173003892E+02 -0.30846981506E+02  0.22646533427E+03  0.24587080218E+03  0.90060410091E+02 0.  0.
         23    2    1    2    0    0 -0.47888027608E+02  0.96108980098E+02  0.29796051137E+03  0.32973732082E+03  0.91738951164E+02 0.  0.
        -11    1    4    4    0    0  0.51712679331E+01  0.61510142607E+02  0.22404724410E+03  0.23239493807E+03  0.00000000000E+00 0. -1.
         11    1    4    4    0    0 -0.53059295541E+02  0.34598837492E+02  0.73913267272E+02  0.97342382742E+02  0.00000000000E+00 0.  1.
        -13    1    3    3    0    0 -0.29972309187E+02 -0.56120527479E+02  0.15222107623E+03  0.16498214743E+03  0.00000000000E+00 0. -1.
         13    1    3    3    0    0  0.19799305295E+02  0.25273545973E+02  0.74244258036E+02  0.80888654752E+02  0.00000000000E+00 0.  1.
          2    1    1    2  501    0  0.58061031500E+02 -0.65261998592E+02  0.19175622338E+02  0.89431070278E+02  0.00000000000E+00 0. -1.
<scales pt_clust_5="13000.00000" pt_clust_6="13000.00000" pt_clust_7="13000.00000" pt_clust_8="13000.00000" pt_clust_9="13000.00000"></scales>
<clustering>
<clus scale="   90.060">  7  8 -1 -1</clus>
<clus scale="   91.739">  5  6 -1 -1</clus>
<clus scale="   87.351">  5  9 -1 -1</clus>
<clus scale="   95.739">  1  7  2 -1</clus>
<clus scale="  274.093">  2  5  1 -1</clus>
</clustering>
</event>
<event>
 9    1  0.6399313E-006  0.4464168E+03  0.7546771E-02  0.1033412E+00
         21   -1    0    0  501  502  0.00000000000E+00  0.00000000000E+00  0.45940610814E+03  0.45940610814E+03  0.00000000000E+00 0. -1.
          3   -1    0    0  502    0 -0.00000000000E+00 -0.00000000000E+00 -0.44154493354E+03  0.44154493354E+03  0.00000000000E+00 0. -1.
         23    2    1    2    0    0  0.10358421782E+03 -0.36419780030E+03  0.17604919219E+03  0.42733576666E+03  0.90844985955E+02 0.  0.
         23    2    1    2    0    0 -0.14558946948E+03  0.20494113688E+03 -0.15494406263E+03  0.30888018691E+03  0.90565689487E+02 0.  0.
        -11    1    4    4    0    0 -0.24021619121E+01  0.59542825262E+02 -0.57242409097E+02  0.82630574373E+02  0.00000000000E+00 0. -1.
         11    1    4    4    0    0 -0.14318730757E+03  0.14539831162E+03 -0.97701653533E+02  0.22624961254E+03  0.00000000000E+00 0.  1.
        -11    1    3    3    0    0  0.82075016514E+02 -0.16608017120E+03  0.51289826416E+02  0.19222272991E+03  0.00000000000E+00 0.  1.
         11    1    3    3    0    0  0.21509201308E+02 -0.19811762910E+03  0.12475936577E+03  0.23511303675E+03  0.00000000000E+00 0. -1.
          3    1    1    2  501    0  0.42005251661E+02  0.15925666342E+03 -0.32439549603E+01  0.16473508811E+03  0.00000000000E+00 0. -1.
<scales pt_clust_5="13000.00000" pt_clust_6="13000.00000" pt_clust_7="13000.00000" pt_clust_8="13000.00000" pt_clust_9="13000.00000"></scales>
<clustering>
<clus scale="   90.566">  5  6 -1 -1</clus>
<clus scale="   90.845">  7  8 -1 -1</clus>
<clus scale="  164.703">  5  9 -1 -1</clus>
<clus scale="  389.388">  2  7  1 -1</clus>
<clus scale="  446.417">  1  5  2 -1</clus>
</clustering>
</event>
<event>
 9    1  0.6399313E-006  0.4214060E+03  0.7546771E-02  0.1087528E+00
         21   -1    0    0  501  502  0.00000000000E+00  0.00000000000E+00  0.57325487907E+02  0.57325487907E+02  0.00000000000E+00 0.  1.
          1   -1    0    0  502    0 -0.00000000000E+00 -0.00000000000E+00 -0.13458176340E+04  0.13458176340E+04  0.00000000000E+00 0. -1.
         23    2    1    2    0    0 -0.16342244576E+02  0.38307883147E+02 -0.10244444764E+03  0.14445643839E+03  0.92942104946E+02 0.  0.
         23    2    1    2    0    0 -0.12501155858E+03 -0.91023656799E+02 -0.23161221225E+03  0.29240155593E+03  0.89113731680E+02 0.  0.
        -11    1    3    3    0    0  0.16511784805E+02 -0.18888595589E+02 -0.31999605524E+01  0.25291457615E+02  0.00000000000E+00 0.  1.
         11    1    3    3    0    0 -0.32854029381E+02  0.57196478736E+02 -0.99244487091E+02  0.11916498078E+03  0.00000000000E+00 0. -1.
        -13    1    4    4    0    0 -0.26323609128E+02 -0.64528339087E+02 -0.13424878809E+03  0.15125996181E+03  0.00000000000E+00 0. -1.
         13    1    4    4    0    0 -0.98687949453E+02 -0.26495317712E+02 -0.97363424153E+02  0.14114159412E+03  0.00000000000E+00 0.  1.
          1    1    1    2  501    0  0.14135380316E+03  0.52715773652E+02 -0.95443548622E+03  0.96628512759E+03  0.00000000000E+00 0. -1.
<scales pt_clust_5="13000.00000" pt_clust_6="13000.00000" pt_clust_7="13000.00000" pt_clust_8="13000.00000" pt_clust_9="13000.00000"></scales>
<clustering>
<clus scale="   89.114">  7  8 -1 -1</clus>
<clus scale="   92.942">  5  6 -1 -1</clus>
<clus scale="  101.847">  2  5  1 -1</clus>
<clus scale="  152.885">  7  9 -1 -1</clus>
<clus scale="  421.406">  1  5  2 -1</clus>
</clustering>
</event>
<event>
 9    1  0.6399313E-006  0.3505789E+03  0.7546771E-02  0.1101944E+00
         -4   -1    0    0    0  501 -0.00000000000E+00  0.00000000000E+00  0.48280099245E+03  0.48280099245E+03  0.00000000000E+00 0.  1.
         21   -1    0    0  501  502  0.00000000000E+00 -0.00000000000E+00 -0.13272712169E+03  0.13272712169E+03  0.00000000000E+00 0.  1.
         23    2    1    2    0    0  0.53639617205E+01 -0.79980569595E+02  0.20065235883E+03  0.23443447724E+03  0.90953237539E+02 0.  0.
         23    2    1    2    0    0  0.29847151221E+02  0.18130253675E+03  0.11644001264E+02  0.20648376905E+03  0.93479954270E+02 0.  0.
        -11    1    4    4    0    0  0.49364431919E+01  0.17694285334E+03 -0.34258318149E+01  0.17704484783E+03  0.00000000000E+00 0.  1.
         11    1    4    4    0    0  0.24910708029E+02  0.43596834088E+01  0.15069833079E+02  0.29438921226E+02  0.00000000000E+00 0. -1.
        -13    1    3    3    0    0 -0.31200677017E+02 -0.49508531212E+01  0.92980426123E+02  0.98200574514E+02  0.00000000000E+00 0.  1.
         13    1    3    3    0    0  0.36564638738E+02 -0.75029716474E+02  0.10767193270E+03  0.13623390273E+03  0.00000000000E+00 0. -1.
         -4    1    1    2    0  502 -0.35211112941E+02 -0.10132196715E+03  0.13777751067E+03  0.17460986784E+03  0.00000000000E+00 0.  1.
<scales pt_clust_5="13000.00000" pt_clust_6="13000.00000" pt_clust_7="13000.00000" pt_clust_8="13000.00000" pt_clust_9="13000.00000"></scales>
<clustering>
<clus scale="   90.953">  7  8 -1 -1</clus>
<clus scale="   93.480">  5  6 -1 -1</clus>
<clus scale="  107.266">  5  9 -1 -1</clus>
<clus scale="  121.236">  1  7  2 -1</clus>
<clus scale="  350.579">  2  5  1 -1</clus>
</clustering>
</event>
<event>
 9    1  0.6399313E-006  0.1946801E+03  0.7546771E-02  0.1176161E+00
         21   -1    0    0  501  502  0.00000000000E+00  0.00000000000E+00  0.29467851237E+03  0.29467851237E+03  0.00000000000E+00 0.  1.
          2   -1    0    0  502    0 -0.00000000000E+00 -0.00000000000E+00 -0.86606226892E+02  0.86606226892E+02  0.00000000000E+00 0. -1.
         23    2    1    2    0    0 -0.67723915972E+02  0.33893949257E+02  0.11864615404E+03  0.16704798417E+03  0.89959938627E+02 0.  0.
         23    2    1    2    0    0  0.10977605649E+03 -0.43364197031E+02  0.51287862494E+02  0.15668160177E+03  0.89372497635E+02 0.  0.
        -13    1    4    4    0    0  0.96784456801E+02 -0.11493868863E+02  0.31621117283E+01  0.97515839997E+02  0.00000000000E+00 0.  1.
         13    1    4    4    0    0  0.12991599685E+02 -0.31870328168E+02  0.48125750766E+02  0.59165761777E+02  0.00000000000E+00 0. -1.
        -13    1    3    3    0    0 -0.17198344035E+02 -0.22883968699E+02  0.72948207082E+02  0.78363894604E+02  0.00000000000E+00 0.  1.
         13    1    3    3    0    0 -0.50525571936E+02  0.56777917956E+02  0.45697946956E+02  0.88684089570E+02  0.00000000000E+00 0. -1.
          2    1    1    2  501    0 -0.42052140515E+02  0.94702477743E+01  0.38138268945E+02  0.57555153314E+02  0.00000000000E+00 0. -1.
<scales pt_clust_5="13000.00000" pt_clust_6="13000.00000" pt_clust_7="13000.00000" pt_clust_8="13000.00000" pt_clust_9="13000.00000"></scales>
<clustering>
<clus scale="   89.372">  5  6 -1 -1</clus>
<clus scale="   43.105">  5  9 -1 -1</clus>
<clus scale="   89.960">  7  8 -1 -1</clus>
<clus scale="  117.593">  2  7  1 -1</clus>
<clus scale="  194.680">  1  5  2 -1</clus>
</clustering>
</event>
<event>
 9    1  0.6399313E-006  0.2028289E+03  0.7546771E-02  0.1182299E+00
         21   -1    0    0  501  502  0.00000000000E+00  0.00000000000E+00  0.10867432097E+03  0.10867432097E+03  0.00000000000E+00 0. -1.
          1   -1    0    0  502    0 -0.00000000000E+00 -0.00000000000E+00 -0.20819326420E+03  0.20819326420E+03  0.00000000000E+00 0. -1.
         23    2    1    2    0    0 -0.16436991964E+02 -0.56299164734E+01  0.83840088843E+00  0.90568759712E+02  0.88882656662E+02 0.  0.
         23    2    1    2    0    0 -0.39091455114E+02 -0.75687591757E+01 -0.12891657987E+03  0.16247685886E+03  0.90519705707E+02 0.  0.
        -13    1    4    4    0    0  0.27635485738E+01  0.32829839091E+02 -0.79834852390E+02  0.86365729266E+02  0.00000000000E+00 0. -1.
         13    1    4    4    0    0 -0.41855003688E+02 -0.40398598267E+02 -0.49081727475E+02  0.76111129591E+02  0.00000000000E+00 0.  1.
        -13    1    3    3    0    0 -0.50848289070E+02 -0.17994026338E+02  0.21373323873E+01  0.53980567568E+02  0.00000000000E+00 0. -1.
         13    1    3    3    0    0  0.34411297106E+02  0.12364109865E+02 -0.12989314989E+01  0.36588192143E+02  0.00000000000E+00 0.  1.
          1    1    1    2  501    0  0.55528447078E+02  0.13198675649E+02  0.28559235750E+02  0.63821966598E+02  0.00000000000E+00 0. -1.
<scales pt_clust_5="13000.00000" pt_clust_6="13000.00000" pt_clust_7="13000.00000" pt_clust_8="13000.00000" pt_clust_9="13000.00000"></scales>
<clustering>
<clus scale="   88.883">  7  8 -1 -1</clus>
<clus scale="   90.520">  5  6 -1 -1</clus>
<clus scale="   57.076">  5  9 -1 -1</clus>
<clus scale="   90.565">  2  7  1 -1</clus>
<clus scale="  202.829">  1  5  2 -1</clus>
</clustering>
</event>
<event>
 9    1  0.6399313E-006  0.2475124E+03  0.7546771E-02  0.1153146E+00
         21   -1    0    0  501  502  0.00000000000E+00  0.00000000000E+00  0.25000477984E+03  0.25000477984E+03  0.00000000000E+00 0.  1.
         -1   -1    0    0    0  501 -0.00000000000E+00 -0.00000000000E+00 -0.18089785215E+03  0.18089785215E+03  0.00000000000E+00 0.  1.
         23    2    1    2    0    0  0.15459842330E+02  0.38064435965E+02 -0.93316396305E+02  0.13485580634E+03  0.88262283412E+02 0.  0.
         23    2    1    2    0    0  0.74020531653E+02 -0.39490571484E+02  0.20544727923E+02  0.12830205759E+03  0.94872481751E+02 0.  0.
        -11    1    3    3    0    0 -0.36066633427E+02  0.22009041513E+02 -0.51295278060E+02  0.66456041910E+02  0.00000000000E+00 0.  1.
         11    1    3    3    0    0  0.51526475758E+02  0.16055394452E+02 -0.42021118245E+02  0.68399764426E+02  0.00000000000E+00 0. -1.
        -11    1    4    4    0    0  0.22832723389E+02  0.27891263697E+02 -0.11473748331E+02  0.37827275196E+02  0.00000000000E+00 0.  1.
         11    1    4    4    0    0  0.51187808264E+02 -0.67381835181E+02  0.32018476254E+02  0.90474782392E+02  0.00000000000E+00 0. -1.
         -1    1    1    2    0  502 -0.89480373983E+02  0.14261355189E+01  0.14187859607E+03  0.16774476807E+03  0.00000000000E+00 0.  1.
<scales pt_clust_5="13000.00000" pt_clust_6="13000.00000" pt_clust_7="13000.00000" pt_clust_8="13000.00000" pt_clust_9="13000.00000"></scales>
<clustering>
<clus scale="   88.262">  5  6 -1 -1</clus>
<clus scale="   94.872">  7  8 -1 -1</clus>
<clus scale="   89.492">  7  9 -1 -1</clus>
<clus scale="   97.356">  2  5  1 -1</clus>
<clus scale="  247.512">  1  5  2 -1</clus>
</clustering>
</event>
<event>
 9    1  0.6399313E-006  0.3173060E+03  0.7546771E-02  0.1120157E+00
         21   -1    0    0  501  502  0.00000000000E+00  0.00000000000E+00  0.20519263205E+03  0.20519263205E+03  0.00000000000E+00 0. -1.
          2   -1    0    0  502    0 -0.00000000000E+00 -0.00000000000E+00 -0.38985118248E+03  0.38985118248E+03  0.00000000000E+00 0. -1.
         23    2    1    2    0    0  0.33548123895E+02  0.36301558503E+02 -0.25064520310E+03  0.27094916724E+03  0.90261584417E+02 0.  0.
         23    2    1    2    0    0  0.10003792151E+03 -0.36571238352E+02 -0.49806214107E+02  0.14730864036E+03  0.88736324840E+02 0.  0.
        -11    1    4    4    0    0  0.74863752044E+02  0.20196945230E+01  0.57741305913E+01  0.75113255289E+02  0.00000000000E+00 0. -1.
         11    1    4    4    0    0  0.25174169464E+02 -0.38590932875E+02 -0.55580344698E+02  0.72195385068E+02  0.00000000000E+00 0.  1.
        -13    1    3    3    0    0  0.26609329372E+02 -0.27611308396E+02 -0.10339416837E+03  0.11027599383E+03  0.00000000000E+00 0.  1.
         13    1    3    3    0    0  0.69387945229E+01  0.63912866899E+02 -0.14725103473E+03  0.16067317341E+03  0.00000000000E+00 0. -1.
          2    1    1    2  501    0 -0.13358604540E+03  0.26967984859E+00  0.11579286678E+03  0.17678600694E+03  0.00000000000E+00 0. -1.
<scales pt_clust_5="13000.00000" pt_clust_6="13000.00000" pt_clust_7="13000.00000" pt_clust_8="13000.00000" pt_clust_9="13000.00000"></scales>
<clustering>
<clus scale="   88.736">  5  6 -1 -1</clus>
<clus scale="   90.262">  7  8 -1 -1</clus>
<clus scale="  102.910">  2  7  1 -1</clus>
<clus scale="  125.970">  5  9 -1 -1</clus>
<clus scale="  317.306">  1  5  2 -1</clus>
</clustering>
</event>
<event>
 9    1  0.6399313E-006  0.5801323E+03  0.7546771E-02  0.1016798E+00
          2   -1    0    0  502    0 -0.00000000000E+00  0.00000000000E+00  0.19435493711E+04  0.19435493711E+04  0.00000000000E+00 0. -1.
         21   -1    0    0  501  502  0.00000000000E+00 -0.00000000000E+00 -0.98380347012E+02  0.98380347012E+02  0.00000000000E+00 0. -1.
         23    2    1    2    0    0  0.25894812391E+03  0.80169507722E+02  0.69243227939E+03  0.75144320707E+03  0.10827350122E+03 0.  0.
         23    2    1    2    0    0 -0.13073812408E+03 -0.28198072795E+03  0.50453862725E+03  0.59959840713E+03  0.91397130262E+02 0.  0.
        -11    1    4    4    0    0 -0.50394335487E+02 -0.30404852209E+02  0.74534241886E+02  0.94970507530E+02  0.00000000000E+00 0.  1.
         11    1    4    4    0    0 -0.80343788592E+02 -0.25157587574E+03  0.43000438536E+03  0.50462789960E+03  0.00000000000E+00 0. -1.
        -11    1    3    3    0    0  0.44755938378E+02 -0.13885147903E+02  0.21156991406E+03  0.21669730014E+03  0.00000000000E+00 0.  1.
         11    1    3    3    0    0  0.21419218553E+03  0.94054655625E+02  0.48086236532E+03  0.53474590693E+03  0.00000000000E+00 0. -1.
          2    1    1    2  501    0 -0.12820999983E+03  0.20181122023E+03  0.64819811747E+03  0.69088810394E+03  0.00000000000E+00 0. -1.
<scales pt_clust_5="13000.00000" pt_clust_6="13000.00000" pt_clust_7="13000.00000" pt_clust_8="13000.00000" pt_clust_9="13000.00000"></scales>
<clustering>
<clus scale="   91.397">  5  6 -1 -1</clus>
<clus scale="  108.274">  7  8 -1 -1</clus>
<clus scale="  239.093">  5  9 -1 -1</clus>
<clus scale="  291.898">  1  7  2 -1</clus>
<clus scale="  580.132">  2  5  1 -1</clus>
</clustering>
</event>
<event>
 9    1  0.6399313E-006  0.6113790E+03  0.7546771E-02  0.1008643E+00
         -2   -1    0    0    0  501 -0.00000000000E+00  0.00000000000E+00  0.14111873648E+03  0.14111873648E+03  0.00000000000E+00 0.  1.
         21   -1    0    0  501  502  0.00000000000E+00 -0.00000000000E+00 -0.15443185206E+04  0.15443185206E+04  0.00000000000E+00 0. -1.
         23    2    1    2    0    0 -0.57829874908E+02  0.30179853555E+03 -0.53445484096E+03  0.62312749178E+03  0.90660043563E+02 0.  0.
         23    2    1    2    0    0  0.22609783151E+03 -0.34073209403E+03 -0.72567201801E+03  0.83803362055E+03  0.92097134234E+02 0.  0.
        -13    1    4    4    0    0  0.77415474077E+02 -0.49825617057E+02 -0.17513680343E+03  0.19786017199E+03  0.00000000000E+00 0. -1.
         13    1    4    4    0    0  0.14868235743E+03 -0.29090647698E+03 -0.55053521458E+03  0.64017344856E+03  0.00000000000E+00 0.  1.
        -13    1    3    3    0    0 -0.48755340154E+01  0.10667695065E+03 -0.11180729093E+03  0.15461116692E+03  0.00000000000E+00 0.  1.
         13    1    3    3    0    0 -0.52954340893E+02  0.19512158489E+03 -0.42264755003E+03  0.46851632486E+03  0.00000000000E+00 0. -1.
         -2    1    1    2    0  502 -0.16826795660E+03  0.38933558485E+02 -0.14307292519E+03  0.22427614478E+03  0.00000000000E+00 0.  1.
<scales pt_clust_5="13000.00000" pt_clust_6="13000.00000" pt_clust_7="13000.00000" pt_clust_8="13000.00000" pt_clust_9="13000.00000"></scales>
<clustering>
<clus scale="   90.660">  7  8 -1 -1</clus>
<clus scale="   92.097">  5  6 -1 -1</clus>
<clus scale="  172.714">  5  9 -1 -1</clus>
<clus scale="  320.384">  1  7  2 -1</clus>
<clus scale="  611.379">  2  5  1 -1</clus>
</clustering>
</event>
<event>
 9    1  0.6399313E-006  0.3888834E+03  0.7546771E-02  0.1100150E+00
         21   -1    0    0  501  502  0.00000000000E+00  0.00000000000E+00  0.38374404781E+02  0.38374404781E+02  0.00000000000E+00 0.  1.
          2   -1    0    0  502    0 -0.00000000000E+00 -0.00000000000E+00 -0.16605156844E+04  0.16605156844E+04  0.00000000000E+00 0. -1.
         23    2    1    2    0    0 -0.59522453597E+00 -0.22905628954E+02 -0.15230568014E+03  0.17847995456E+03  0.90183434435E+02 0.  0.
         23    2    1    2    0    0 -0.13562935329E+03  0.74624277571E+02 -0.40822924282E+03  0.44885051858E+03  0.10417086477E+03 0.  0.
        -13    1    3    3    0    0  0.56092256031E+01  0.19927701420E+02 -0.58876411617E+00  0.20710464479E+02  0.00000000000E+00 0.  1.
         13    1    3    3    0    0 -0.62044501391E+01 -0.42833330374E+02 -0.15171691602E+03  0.15776949008E+03  0.00000000000E+00 0. -1.
        -13    1    4    4    0    0 -0.38439470734E+02 -0.22068985982E+02 -0.59925682447E+02  0.74536705517E+02  0.00000000000E+00 0. -1.
         13    1    4    4    0    0 -0.97189882552E+02  0.96693263553E+02 -0.34830356037E+03  0.37431381307E+03  0.00000000000E+00 0.  1.
          2    1    1    2  501    0  0.13622457782E+03 -0.51718648617E+02 -0.10616063566E+04  0.10715596160E+04  0.00000000000E+00 0. -1.
<scales pt_clust_5="13000.00000" pt_clust_6="13000.00000" pt_clust_7="13000.00000" pt_clust_8="13000.00000" pt_clust_9="13000.00000"></scales>
<clustering>
<clus scale="   90.183">  5  6 -1 -1</clus>
<clus scale="   93.049">  2  5  1 -1</clus>
<clus scale="  104.171">  7  8 -1 -1</clus>
<clus scale="  151.900">  7  9 -1 -1</clus>
<clus scale="  388.883">  1  5  2 -1</clus>
</clustering>
</event>
<event>
 9    1  0.6399313E-006  0.2508344E+03  0.7546771E-02  0.1151864E+00
          1   -1    0    0  502    0 -0.00000000000E+00  0.00000000000E+00  0.34500342320E+03  0.34500342320E+03  0.00000000000E+00 0. -1.
         21   -1    0    0  501  502  0.00000000000E+00 -0.00000000000E+00 -0.11578198080E+03  0.11578198080E+03  0.00000000000E+00 0. -1.
         23    2    1    2    0    0  0.26163270291E+02 -0.10541464388E+02  0.18140710433E+03  0.20543444386E+03  0.92190748124E+02 0.  0.
         23    2    1    2    0    0 -0.36726407493E+02 -0.44092639441E+02  0.12059572085E+03  0.16373439588E+03  0.94723991922E+02 0.  0.
        -11    1    3    3    0    0  0.57185949497E+02 -0.95040846889E+01  0.15198767760E+03  0.16266780440E+03  0.00000000000E+00 0. -1.
         11    1    3    3    0    0 -0.31022679206E+02 -0.10373796987E+01  0.29419426723E+02  0.42766639457E+02  0.00000000000E+00 0.  1.
        -11    1    4    4    0    0 -0.29518559257E+02  0.15238714139E+01 -0.49449339803E+01  0.29968648565E+02  0.00000000000E+00 0.  1.
         11    1    4    4    0    0 -0.72078482357E+01 -0.45616510855E+02  0.12554065483E+03  0.13376574731E+03  0.00000000000E+00 0. -1.
          1    1    1    2  501    0  0.10563137202E+02  0.54634103829E+02 -0.72781382774E+02  0.91616564262E+02  0.00000000000E+00 0. -1.
<scales pt_clust_5="13000.00000" pt_clust_6="13000.00000" pt_clust_7="13000.00000" pt_clust_8="13000.00000" pt_clust_9="13000.00000"></scales>
<clustering>
<clus scale="   92.191">  5  6 -1 -1</clus>
<clus scale="   94.724">  7  8 -1 -1</clus>
<clus scale="   55.646">  7  9 -1 -1</clus>
<clus scale="   96.409">  1  5  2 -1</clus>
<clus scale="  250.834">  2  5  1 -1</clus>
</clustering>
</event>
<event>
 9    1  0.6399313E-006  0.7198854E+03  0.7546771E-02  0.1021512E+00
         21   -1    0    0  501  502  0.00000000000E+00  0.00000000000E+00  0.82387745659E+02  0.82387745659E+02  0.00000000000E+00 0. -1.
          1   -1    0    0  502    0 -0.00000000000E+00 -0.00000000000E+00 -0.23114531848E+04  0.23114531848E+04  0.00000000000E+00 0. -1.
         23    2    1    2    0    0  0.47030602498E+02 -0.82854144246E+02 -0.57253751698E+03  0.58765162662E+03  0.91970316585E+02 0.  0.
         23    2    1    2    0    0  0.25356716256E+03 -0.15720396463E+03 -0.51985152252E+03  0.60618090824E+03  0.90555483687E+02 0.  0.
        -11    1    3    3    0    0 -0.23643744311E+02 -0.16205220118E+01 -0.13467925845E+03  0.13674851148E+03  0.00000000000E+00 0.  1.
         11    1    3    3    0    0  0.70674346809E+02 -0.81233622234E+02 -0.43785825853E+03  0.45090311513E+03  0.00000000000E+00 0. -1.
        -13    1    4    4    0    0  0.76344708460E+02 -0.53137723560E+02 -0.25165217610E+03  0.26829265720E+03  0.00000000000E+00 0.  1.
         13    1    4    4    0    0  0.17722245410E+03 -0.10406624107E+03 -0.26819934643E+03  0.33788825104E+03  0.00000000000E+00 0. -1.
          1    1    1    2  501    0 -0.30059776506E+03  0.24005810888E+03 -0.11366763996E+04  0.12000083956E+04  0.00000000000E+00 0. -1.
<scales pt_clust_5="13000.00000" pt_clust_6="13000.00000" pt_clust_7="13000.00000" pt_clust_8="13000.00000" pt_clust_9="13000.00000"></scales>
<clustering>
<clus scale="   90.555">  7  8 -1 -1</clus>
<clus scale="   91.970">  5  6 -1 -1</clus>
<clus scale="  132.421">  2  5  1 -1</clus>
<clus scale="  325.878">  7  9 -1 -1</clus>
<clus scale="  719.885">  1  5  2 -1</clus>
</clustering>
</event>
<event>
 9    1  0.6399313E-006  0.4065804E+03  0.7546771E-02  0.1056920E+00
         21   -1    0    0  501  502  0.00000000000E+00  0.00000000000E+00  0.14838900867E+03  0.14838900867E+03  0.00000000000E+00 0. -1.
          1   -1    0    0  502    0 -0.00000000000E+00 -0.00000000000E+00 -0.84704032161E+03  0.84704032161E+03  0.00000000000E+00 0. -1.
         23    2    1    2    0    0  0.28903186931E+00 -0.24563936304E+03 -0.44464127282E+03  0.51602474045E+03  0.90757319550E+02 0.  0.
         23    2    1    2    0    0 -0.74888984332E+02 -0.29720503539E+02 -0.78879790268E+02  0.14465272137E+03  0.90613024347E+02 0.  0.
        -13    1    3    3    0    0 -0.67216986347E+01 -0.56853613445E+02 -0.41170334663E+02  0.70516033996E+02  0.00000000000E+00 0.  1.
         13    1    3    3    0    0  0.70107305040E+01 -0.18878574959E+03 -0.40347093816E+03  0.44550870646E+03  0.00000000000E+00 0. -1.
        -13    1    4    4    0    0  0.20041257276E+02 -0.12821531966E+02 -0.84519924917E+01  0.25248363358E+02  0.00000000000E+00 0.  1.
         13    1    4    4    0    0 -0.94930241608E+02 -0.16898971574E+02 -0.70427797777E+02  0.11940435801E+03  0.00000000000E+00 0. -1.
          1    1    1    2  501    0  0.74599952463E+02  0.27535986658E+03 -0.17513024985E+03  0.33475186846E+03  0.00000000000E+00 0. -1.
<scales pt_clust_5="13000.00000" pt_clust_6="13000.00000" pt_clust_7="13000.00000" pt_clust_8="13000.00000" pt_clust_9="13000.00000"></scales>
<clustering>
<clus scale="   90.613">  7  8 -1 -1</clus>
<clus scale="   90.757">  5  6 -1 -1</clus>
<clus scale="  261.870">  2  5  1 -1</clus>
<clus scale="  128.583">  7  9 -1 -1</clus>
<clus scale="  406.580">  1  5  2 -1</clus>
</clustering>
</event>
<event>
 9    1  0.6399313E-006  0.2108086E+03  0.7546771E-02  0.1166393E+00
         -1   -1    0    0    0  501 -0.00000000000E+00  0.00000000000E+00  0.22276448196E+03  0.22276448196E+03  0.00000000000E+00 0.  1.
         21   -1    0    0  501  502  0.00000000000E+00 -0.00000000000E+00 -0.40033857964E+03  0.40033857964E+03  0.00000000000E+00 0.  1.
         23    2    1    2    0    0  0.27311356966E+02  0.58825704621E+02  0.17647512485E+03  0.21104589092E+03  0.95867224009E+02 0.  0.
         23    2    1    2    0    0 -0.59122371016E+02 -0.73870739719E+02 -0.17949972254E+03  0.23399588448E+03  0.11654004728E+03 0.  0.
        -11    1    3    3    0    0  0.38089628189E+02  0.14990240771E+02  0.15635419791E+03  0.16162352025E+03  0.00000000000E+00 0.  1.
         11    1    3    3    0    0 -0.10778271223E+02  0.43835463850E+02  0.20120926939E+02  0.49422370667E+02  0.00000000000E+00 0. -1.
        -13    1    4    4    0    0  0.27310045523E+02 -0.33346192475E+02 -0.18676340951E+02  0.46974597926E+02  0.00000000000E+00 0.  1.
         13    1    4    4    0    0 -0.86432416539E+02 -0.40524547244E+02 -0.16082338159E+03  0.18702128656E+03  0.00000000000E+00 0. -1.
         -1    1    1    2    0  502  0.31811014050E+02  0.15045035098E+02 -0.17454949999E+03  0.17806128620E+03  0.00000000000E+00 0.  1.
<scales pt_clust_5="13000.00000" pt_clust_6="13000.00000" pt_clust_7="13000.00000" pt_clust_8="13000.00000" pt_clust_9="13000.00000"></scales>
<clustering>
<clus scale="   95.867">  5  6 -1 -1</clus>
<clus scale="  115.745">  1  5  2 -1</clus>
<clus scale="  116.540">  7  8 -1 -1</clus>
<clus scale="   38.289">  7  9 -1 -1</clus>
<clus scale="  210.809">  2  5  1 -1</clus>
</clustering>
</event>
<event>
 9    1  0.6399313E-006  0.2863084E+03  0.7546771E-02  0.1121730E+00
         21   -1    0    0  501  502  0.00000000000E+00  0.00000000000E+00  0.21470460177E+03  0.21470460177E+03  0.00000000000E+00 0.  1.
         -1   -1    0    0    0  501 -0.00000000000E+00 -0.00000000000E+00 -0.29807962056E+03  0.29807962056E+03  0.00000000000E+00 0.  1.
         23    2    1    2    0    0  0.56647586581E+02 -0.70615370677E+02 -0.16696966166E+03  0.21452168601E+03  0.99725654725E+02 0.  0.
         23    2    1    2    0    0 -0.14341740692E+03  0.23477725940E+02  0.10167570004E+03  0.19787387211E+03  0.87728929447E+02 0.  0.
        -11    1    4    4    0    0 -0.11203203311E+03  0.54896915777E+02  0.82043762587E+02  0.14931854133E+03  0.00000000000E+00 0.  1.
         11    1    4    4    0    0 -0.31385373809E+02 -0.31419189838E+02  0.19631937455E+02  0.48555330783E+02  0.00000000000E+00 0. -1.
        -11    1    3    3    0    0  0.16063646042E+02 -0.54073791594E+02 -0.17957882972E+02  0.59198827880E+02  0.00000000000E+00 0. -1.
         11    1    3    3    0    0  0.40583940539E+02 -0.16541579083E+02 -0.14901177869E+03  0.15532285813E+03  0.00000000000E+00 0.  1.
         -1    1    1    2    0  502  0.86769820341E+02  0.47137644737E+02 -0.18081057160E+02  0.10038866421E+03  0.00000000000E+00 0.  1.
<scales pt_clust_5="13000.00000" pt_clust_6="13000.00000" pt_clust_7="13000.00000" pt_clust_8="13000.00000" pt_clust_9="13000.00000"></scales>
<clustering>
<clus scale="   87.729">  5  6 -1 -1</clus>
<clus scale="   98.747">  5  9 -1 -1</clus>
<clus scale="   99.726">  7  8 -1 -1</clus>
<clus scale="  134.687">  2  7  1 -1</clus>
<clus scale="  286.308">  1  5  2 -1</clus>
</clustering>
</event>
<event>
 9    1  0.6399313E-006  0.2341152E+03  0.7546771E-02  0.1151413E+00
         21   -1    0    0  501  502  0.00000000000E+00  0.00000000000E+00  0.18259391919E+03  0.18259391919E+03  0.00000000000E+00 0.  1.
         -2   -1    0    0    0  501 -0.00000000000E+00 -0.00000000000E+00 -0.20702584362E+03  0.20702584362E+03  0.00000000000E+00 0.  1.
         23    2    1    2    0    0 -0.66459826343E+02  0.43718373413E+02 -0.86042285630E+02  0.14753352852E+03  0.89636278529E+02 0.  0.
         23    2    1    2    0    0  0.61557290597E+02  0.18481649359E+02 -0.43260639947E+02  0.12005834989E+03  0.91715064312E+02 0.  0.
        -13    1    3    3    0    0 -0.88717651187E+02  0.37680757661E+02 -0.64523381456E+02  0.11599106812E+03  0.00000000000E+00 0. -1.
         13    1    3    3    0    0  0.22257824844E+02  0.60376157524E+01 -0.21518904174E+02  0.31542460392E+02  0.00000000000E+00 0.  1.
        -13    1    4    4    0    0  0.75037113009E+02 -0.50633535465E+01 -0.80932938795E+01  0.75641967741E+02  0.00000000000E+00 0. -1.
         13    1    4    4    0    0 -0.13479822412E+02  0.23545002906E+02 -0.35167346067E+02  0.44416382152E+02  0.00000000000E+00 0.  1.
         -2    1    1    2    0  502  0.49025357460E+01 -0.62200022772E+02  0.10487100114E+03  0.12202788440E+03  0.00000000000E+00 0.  1.
<scales pt_clust_5="13000.00000" pt_clust_6="13000.00000" pt_clust_7="13000.00000" pt_clust_8="13000.00000" pt_clust_9="13000.00000"></scales>
<clustering>
<clus scale="   89.636">  5  6 -1 -1</clus>
<clus scale="   91.715">  7  8 -1 -1</clus>
<clus scale="   62.393">  7  9 -1 -1</clus>
<clus scale="  119.845">  2  5  1 -1</clus>
<clus scale="  234.115">  1  5  2 -1</clus>
</clustering>
</event>
<event>
 9    1  0.6399313E-006  0.4102394E+03  0.7546771E-02  0.1089973E+00
          3   -1    0    0  502    0 -0.00000000000E+00  0.00000000000E+00  0.15915438495E+03  0.15915438495E+03  0.00000000000E+00 0. -1.
         21   -1    0    0  501  502  0.00000000000E+00 -0.00000000000E+00 -0.49251343670E+03  0.49251343670E+03  0.00000000000E+00 0. -1.
         23    2    1    2    0    0 -0.47640826713E+02 -0.10735777493E+02 -0.19137308926E+03  0.21755223195E+03  0.91216276209E+02 0.  0.
         23    2    1    2    0    0  0.12432895986E+02 -0.72282788175E+02  0.11316301113E+03  0.16350021805E+03  0.92450396672E+02 0.  0.
        -11    1    4    4    0    0  0.51501413976E+02 -0.54473696979E+02  0.75305966529E+02  0.10625802510E+03  0.00000000000E+00 0. -1.
         11    1    4    4    0    0 -0.39068517990E+02 -0.17809091197E+02  0.37857044599E+02  0.57242192943E+02  0.00000000000E+00 0.  1.
        -11    1    3    3    0    0 -0.30439405049E+02 -0.39040993340E+02 -0.43142226111E+02  0.65665883186E+02  0.00000000000E+00 0. -1.
         11    1    3    3    0    0 -0.17201421664E+02  0.28305215847E+02 -0.14823086315E+03  0.15188634876E+03  0.00000000000E+00 0.  1.
          3    1    1    2  501    0  0.35207930727E+02  0.83018565668E+02 -0.25514897362E+03  0.27061537164E+03  0.00000000000E+00 0. -1.
<scales pt_clust_5="13000.00000" pt_clust_6="13000.00000" pt_clust_7="13000.00000" pt_clust_8="13000.00000" pt_clust_9="13000.00000"></scales>
<clustering>
<clus scale="   91.216">  7  8 -1 -1</clus>
<clus scale="   92.450">  5  6 -1 -1</clus>
<clus scale="   90.176">  5  9 -1 -1</clus>
<clus scale="  103.467">  1  7  2 -1</clus>
<clus scale="  410.239">  2  5  1 -1</clus>
</clustering>
</event>
<event>
 9    1  0.6399313E-006  0.5726815E+03  0.7546771E-02  0.1015715E+00
         21   -1    0    0  501  502  0.00000000000E+00  0.00000000000E+00  0.19708945420E+03  0.19708945420E+03  0.00000000000E+00 0. -1.
          3   -1    0    0  502    0 -0.00000000000E+00 -0.00000000000E+00 -0.10117377556E+04  0.10117377556E+04  0.00000000000E+00 0. -1.
         23    2    1    2    0    0  0.71761343653E+02 -0.29137189051E+03 -0.21893704837E+03  0.38248827451E+03  0.91195284787E+02 0.  0.
         23    2    1    2    0    0 -0.10785707512E+03  0.40468139090E+03 -0.55422197139E+03  0.70038932153E+03  0.89347811024E+02 0.  0.
        -11    1    3    3    0    0  0.72066927128E+02 -0.14538937465E+03 -0.79843310736E+02  0.18084984522E+03  0.00000000000E+00 0.  1.
         11    1    3    3    0    0 -0.30558347490E+00 -0.14598251587E+03 -0.13909373764E+03  0.20163842930E+03  0.00000000000E+00 0. -1.
        -13    1    4    4    0    0 -0.71289258962E+02  0.37230964045E+03 -0.48201068617E+03  0.61321360748E+03  0.00000000000E+00 0. -1.
         13    1    4    4    0    0 -0.36567816160E+02  0.32371750458E+02 -0.72211285224E+02  0.87175714050E+02  0.00000000000E+00 0.  1.
          3    1    1    2  501    0  0.36095731470E+02 -0.11330950039E+03 -0.41489281596E+02  0.12594961372E+03  0.00000000000E+00 0. -1.
<scales pt_clust_5="13000.00000" pt_clust_6="13000.00000" pt_clust_7="13000.00000" pt_clust_8="13000.00000" pt_clust_9="13000.00000"></scales>
<clustering>
<clus scale="   89.348">  7  8 -1 -1</clus>
<clus scale="   91.195">  5  6 -1 -1</clus>
<clus scale="  118.920">  7  9 -1 -1</clus>
<clus scale="  313.630">  2  5  1 -1</clus>
<clus scale="  572.682">  1  5  2 -1</clus>
</clustering>
</event>
<event>
 9    1  0.6399313E-006  0.2125085E+03  0.7546771E-02  0.1161021E+00
         21   -1    0    0  501  502  0.00000000000E+00  0.00000000000E+00  0.22221315351E+03  0.22221315351E+03  0.00000000000E+00 0.  1.
         -3   -1    0    0    0  501 -0.00000000000E+00 -0.00000000000E+00 -0.46329490202E+03  0.46329490202E+03  0.00000000000E+00 0.  1.
         23    2    1    2    0    0  0.52602283875E+02  0.71998733226E+02 -0.40012118410E+03  0.42007745831E+03  0.91745796403E+02 0.  0.
         23    2    1    2    0    0 -0.97264464884E+02 -0.22471666630E+02  0.48180286706E+02  0.13605752573E+03  0.78898405246E+02 0.  0.
        -11    1    3    3    0    0  0.17392769489E+02  0.77353655490E+02 -0.34822067643E+03  0.35713265874E+03  0.00000000000E+00 0.  1.
         11    1    3    3    0    0  0.35209514386E+02 -0.53549222641E+01 -0.51900507672E+02  0.62944799566E+02  0.00000000000E+00 0. -1.
        -13    1    4    4    0    0  0.18764692941E+01 -0.23838407377E+02 -0.36308456418E+01  0.24186232517E+02  0.00000000000E+00 0. -1.
         13    1    4    4    0    0 -0.99140934178E+02  0.13667407472E+01  0.51811132348E+02  0.11187129321E+03  0.00000000000E+00 0.  1.
         -3    1    1    2    0  502  0.44662181009E+02 -0.49527066596E+02  0.11085914888E+03  0.12937307150E+03  0.00000000000E+00 0.  1.
<scales pt_clust_5="13000.00000" pt_clust_6="13000.00000" pt_clust_7="13000.00000" pt_clust_8="13000.00000" pt_clust_9="13000.00000"></scales>
<clustering>
<clus scale="   78.898">  7  8 -1 -1</clus>
<clus scale="   66.691">  7  9 -1 -1</clus>
<clus scale="   91.746">  5  6 -1 -1</clus>
<clus scale="  127.938">  2  5  1 -1</clus>
<clus scale="  212.508">  1  5  2 -1</clus>
</clustering>
</event>
<event>
 9    1  0.6399313E-006  0.1749212E+03  0.7546771E-02  0.1198320E+00
          1   -1    0    0  502    0 -0.00000000000E+00  0.00000000000E+00  0.73281199932E+03  0.73281199932E+03  0.00000000000E+00 0. -1.
         21   -1    0    0  501  502  0.00000000000E+00 -0.00000000000E+00 -0.35776661074E+02  0.35776661074E+02  0.00000000000E+00 0.  1.
         23    2    1    2    0    0 -0.11127849613E+02 -0.35018859042E+02  0.47855074837E+03  0.48870840209E+03  0.92059404655E+02 0.  0.
         23    2    1    2    0    0  0.15017448182E+02 -0.25381444827E+02  0.66295946232E+02  0.11609775332E+03  0.90629985915E+02 0.  0.
        -11    1    4    4    0    0  0.35640160019E+02  0.60945121473E+01  0.69488130675E+02  0.78332396804E+02  0.00000000000E+00 0. -1.
         11    1    4    4    0    0 -0.20622711837E+02 -0.31475956975E+02 -0.31921844426E+01  0.37765356512E+02  0.00000000000E+00 0.  1.
        -13    1    3    3    0    0 -0.26285739769E+02  0.25478186289E+02  0.16432131077E+03  0.16834955083E+03  0.00000000000E+00 0.  1.
         13    1    3    3    0    0  0.15157890157E+02 -0.60497045331E+02  0.31422943761E+03  0.32035885127E+03  0.00000000000E+00 0. -1.
          1    1    1    2  501    0 -0.38895985695E+01  0.60400303869E+02  0.15218864364E+03  0.16378250498E+03  0.00000000000E+00 0. -1.
<scales pt_clust_5="13000.00000" pt_clust_6="13000.00000" pt_clust_7="13000.00000" pt_clust_8="13000.00000" pt_clust_9="13000.00000"></scales>
<clustering>
<clus scale="   90.630">  5  6 -1 -1</clus>
<clus scale="   60.525">  5  9 -1 -1</clus>
<clus scale="   92.059">  7  8 -1 -1</clus>
<clus scale="   99.122">  1  7  2 -1</clus>
<clus scale="  174.921">  2  5  1 -1</clus>
</clustering>
</event>
<event>
 9    1  0.6399313E-006  0.4700759E+03  0.7546771E-02  0.1071356E+00
         -2   -1    0    0    0  501 -0.00000000000E+00  0.00000000000E+00  0.20967053528E+03  0.20967053528E+03  0.00000000000E+00 0.  1.
         21   -1    0    0  501  502  0.00000000000E+00 -0.00000000000E+00 -0.42044144570E+03  0.42044144570E+03  0.00000000000E+00 0. -1.
         23    2    1    2    0    0 -0.97087465417E+01  0.69119403088E+02  0.34178565993E+01  0.11353847255E+03  0.89484922545E+02 0.  0.
         23    2    1    2    0    0 -0.16910519202E+03 -0.98206730351E+02 -0.25177744341E+03  0.33155079137E+03  0.91065462140E+02 0.  0.
        -11    1    4    4    0    0  0.50546565800E+00 -0.29155677094E+02 -0.16842654129E+02  0.33674678921E+02  0.00000000000E+00 0.  1.
         11    1    4    4    0    0 -0.16961065768E+03 -0.69051053257E+02 -0.23493478928E+03  0.29787611245E+03  0.00000000000E+00 0. -1.
        -13    1    3    3    0    0 -0.35202786137E+02  0.89269948649E+01 -0.23050308183E+02  0.43014463806E+02  0.00000000000E+00 0.  1.
         13    1    3    3    0    0  0.25494039595E+02  0.60192408223E+02  0.26468164783E+02  0.70524008746E+02  0.00000000000E+00 0. -1.
         -2    1    1    2    0  502  0.17881393856E+03  0.29087327263E+02  0.37588676392E+02  0.18502271705E+03  0.00000000000E+00 0.  1.
<scales pt_clust_5="13000.00000" pt_clust_6="13000.00000" pt_clust_7="13000.00000" pt_clust_8="13000.00000" pt_clust_9="13000.00000"></scales>
<clustering>
<clus scale="   89.485">  7  8 -1 -1</clus>
<clus scale="   91.065">  5  6 -1 -1</clus>
<clus scale="  113.487">  1  7  2 -1</clus>
<clus scale="  189.380">  5  9 -1 -1</clus>
<clus scale="  470.076">  2  5  1 -1</clus>
</clustering>
</event>
<event>
 9    1  0.6399313E-006  0.2466203E+03  0.7546771E-02  0.1146250E+00
         -1   -1    0    0    0  501 -0.00000000000E+00  0.00000000000E+00  0.55100959032E+03  0.55100959032E+03  0.00000000000E+00 0.  1.
         21   -1    0    0  501  502  0.00000000000E+00 -0.00000000000E+00 -0.23050420914E+03  0.23050420914E+03  0.00000000000E+00 0.  1.
         23    2    1    2    0    0 -0.10096033912E+02 -0.70879220132E+02  0.47604021467E+03  0.48994452692E+03  0.91134843653E+02 0.  0.
         23    2    1    2    0    0 -0.14719745954E+02  0.63573865622E+02  0.22075184057E+02  0.11208526360E+03  0.88416544007E+02 0.  0.
        -11    1    3    3    0    0  0.32595409468E+02 -0.69695137224E+01  0.82676414062E+02  0.89142718615E+02  0.00000000000E+00 0. -1.
         11    1    3    3    0    0 -0.42691443379E+02 -0.63909706409E+02  0.39336380061E+03  0.40080180830E+03  0.00000000000E+00 0.  1.
        -13    1    4    4    0    0 -0.26435148153E+02  0.82676748269E+02  0.12418486647E+02  0.87683981278E+02  0.00000000000E+00 0. -1.
         13    1    4    4    0    0  0.11715402199E+02 -0.19102882647E+02  0.96566974100E+01  0.24401282322E+02  0.00000000000E+00 0.  1.
         -1    1    1    2    0  502  0.24815779865E+02  0.73053545097E+01 -0.17761001754E+03  0.17948400894E+03  0.00000000000E+00 0.  1.
<scales pt_clust_5="13000.00000" pt_clust_6="13000.00000" pt_clust_7="13000.00000" pt_clust_8="13000.00000" pt_clust_9="13000.00000"></scales>
<clustering>
<clus scale="   88.417">  7  8 -1 -1</clus>
<clus scale="   25.869">  7  9 -1 -1</clus>
<clus scale="   91.135">  5  6 -1 -1</clus>
<clus scale="  115.894">  1  5  2 -1</clus>
<clus scale="  246.620">  2  5  1 -1</clus>
</clustering>
</event>
<event>
 9    1  0.6399313E-006  0.9277923E+03  0.7546771E-02  0.9606706E-01
         -1   -1    0    0    0  501 -0.00000000000E+00  0.00000000000E+00  0.35516572470E+03  0.35516572470E+03  0.00000000000E+00 0.  1.
         21   -1    0    0  501  502  0.00000000000E+00 -0.00000000000E+00 -0.18690797807E+04  0.18690797807E+04  0.00000000000E+00 0.  1.
         23    2    1    2    0    0 -0.16222784618E+03  0.39520748633E+03 -0.11455321655E+04  0.12259951961E+04  0.91178107132E+02 0.  0.
         23    2    1    2    0    0 -0.12574756713E+03 -0.20494044013E+03  0.20263552645E+03  0.33102300325E+03  0.10345065231E+03 0.  0.
        -11    1    4    4    0    0 -0.11155246399E+03 -0.83857716702E+02  0.11584657612E+03  0.18137391784E+03  0.00000000000E+00 0.  1.
         11    1    4    4    0    0 -0.14195103137E+02 -0.12108272343E+03  0.86788950328E+02  0.14964908542E+03  0.00000000000E+00 0. -1.
        -13    1    3    3    0    0 -0.14012101390E+03  0.25120378068E+03 -0.83062082760E+03  0.87901547040E+03  0.00000000000E+00 0. -1.
         13    1    3    3    0    0 -0.22106832277E+02  0.14400370564E+03 -0.31491133792E+03  0.34697972566E+03  0.00000000000E+00 0.  1.
         -1    1    1    2    0  502  0.28797541331E+03 -0.19026704619E+03 -0.57101741694E+03  0.66722730608E+03  0.00000000000E+00 0.  1.
<scales pt_clust_5="13000.00000" pt_clust_6="13000.00000" pt_clust_7="13000.00000" pt_clust_8="13000.00000" pt_clust_9="13000.00000"></scales>
<clustering>
<clus scale="   91.178">  7  8 -1 -1</clus>
<clus scale="  103.451">  5  6 -1 -1</clus>
<clus scale="  345.154">  5  9 -1 -1</clus>
<clus scale="  436.830">  1  7  2 -1</clus>
<clus scale="  927.792">  2  5  1 -1</clus>
</clustering>
</event>
<event>
 9    1  0.7174359E-006  0.5395822E+03  0.7546771E-02  0.1022400E+00
          1   -1    0    0  502    0 -0.00000000000E+00  0.00000000000E+00  0.62527028618E+03  0.62527028618E+03  0.00000000000E+00 0. -1.
         21   -1    0    0  501  502  0.00000000000E+00 -0.00000000000E+00 -0.29283031796E+03  0.29283031796E+03  0.00000000000E+00 0. -1.
         23    2    1    2    0    0  0.22193130341E+03 -0.19035628192E+03  0.53871396149E+02  0.31085324596E+03  0.90766710301E+02 0.  0.
         23    2    1    2    0    0  0.86798976263E+02  0.65423409016E+01  0.20237134047E+03  0.23994915698E+03  0.95102965193E+02 0.  0.
        -11    1    3    3    0    0  0.30741408843E+01 -0.35663924681E+02  0.19176210783E+02  0.40609025177E+02  0.00000000000E+00 0.  1.
         11    1    3    3    0    0  0.21885716253E+03 -0.15469235724E+03  0.34695185366E+02  0.27024422078E+03  0.00000000000E+00 0. -1.
        -13    1    4    4    0    0  0.74796044564E+02 -0.36189200238E+02  0.11411946310E+03  0.14116429561E+03  0.00000000000E+00 0. -1.
         13    1    4    4    0    0  0.12002931699E+02  0.42731541139E+02  0.88251877371E+02  0.98784861376E+02  0.00000000000E+00 0.  1.
          1    1    1    2  501    0 -0.30873027968E+03  0.18381394102E+03  0.76197231603E+02  0.36729820120E+03  0.00000000000E+00 0. -1.
<scales pt_clust_5="13000.00000" pt_clust_6="13000.00000" pt_clust_7="13000.00000" pt_clust_8="13000.00000" pt_clust_9="13000.00000"></scales>
<clustering>
<clus scale="   90.767">  5  6 -1 -1</clus>
<clus scale="   95.103">  7  8 -1 -1</clus>
<clus scale="  306.150">  1  5  2 -1</clus>
<clus scale="  216.533">  7  9 -1 -1</clus>
<clus scale="  539.582">  2  5  1 -1</clus>
</clustering>
</event>
<event>
 9    1  0.6399313E-006  0.1941181E+03  0.7546771E-02  0.1179253E+00
         21   -1    0    0  501  502  0.00000000000E+00  0.00000000000E+00  0.31520327044E+02  0.31520327044E+02  0.00000000000E+00 0. -1.
          2   -1    0    0  502    0 -0.00000000000E+00 -0.00000000000E+00 -0.10669447133E+04  0.10669447133E+04  0.00000000000E+00 0. -1.
         23    2    1    2    0    0  0.49925110483E+02 -0.29703970704E+02 -0.12218889630E+03  0.16482651008E+03  0.94142495781E+02 0.  0.
         23    2    1    2    0    0  0.38662634916E+01  0.76789421368E+02 -0.66710512156E+03  0.67733654076E+03  0.88566263409E+02 0.  0.
        -13    1    3    3    0    0  0.71917724364E+02 -0.15465849005E+02 -0.52497766856E+02  0.90373486643E+02  0.00000000000E+00 0. -1.
         13    1    3    3    0    0 -0.21992613881E+02 -0.14238121698E+02 -0.69691129446E+02  0.74453023433E+02  0.00000000000E+00 0.  1.
        -13    1    4    4    0    0 -0.41508672311E+02  0.48309259024E+02 -0.36839666095E+03  0.37386207909E+03  0.00000000000E+00 0. -1.
         13    1    4    4    0    0  0.45374935803E+02  0.28480162344E+02 -0.29870846061E+03  0.30347446167E+03  0.00000000000E+00 0.  1.
          2    1    1    2  501    0 -0.53791373975E+02 -0.47085450664E+02 -0.24613036839E+03  0.25630198950E+03  0.00000000000E+00 0. -1.
<scales pt_clust_5="13000.00000" pt_clust_6="13000.00000" pt_clust_7="13000.00000" pt_clust_8="13000.00000" pt_clust_9="13000.00000"></scales>
<clustering>
<clus scale="   88.566">  7  8 -1 -1</clus>
<clus scale="   71.488">  7  9 -1 -1</clus>
<clus scale="   94.142">  5  6 -1 -1</clus>
<clus scale="  110.624">  2  5  1 -1</clus>
<clus scale="  194.118">  1  5  2 -1</clus>
</clustering>
</event>
<event>
 9    1  0.6399313E-006  0.1607532E+03  0.7546771E-02  0.1211761E+00
          1   -1    0    0  502    0 -0.00000000000E+00  0.00000000000E+00  0.40847771069E+02  0.40847771069E+02  0.00000000000E+00 0. -1.
         21   -1    0    0  501  502  0.00000000000E+00 -0.00000000000E+00 -0.69350442453E+03  0.69350442453E+03  0.00000000000E+00 0. -1.
         23    2    1    2    0    0  0.27644299022E+02 -0.57731226965E+00 -0.44780797564E+02  0.10557987444E+03  0.91527315586E+02 0.  0.
         23    2    1    2    0    0 -0.67064860877E+02 -0.12683929022E+01 -0.35028533014E+03  0.36817633830E+03  0.91404043595E+02 0.  0.
        -11    1    3    3    0    0  0.18574443368E+02 -0.38361585224E+02  0.44590690028E+01  0.42854456754E+02  0.00000000000E+00 0. -1.
         11    1    3    3    0    0  0.90698556547E+01  0.37784272955E+02 -0.49239866567E+02  0.62725417686E+02  0.00000000000E+00 0.  1.
        -13    1    4    4    0    0 -0.35165440591E+02  0.44340817809E+02 -0.20244410493E+03  0.21020545178E+03  0.00000000000E+00 0. -1.
         13    1    4    4    0    0 -0.31899420286E+02 -0.45609210711E+02 -0.14784122521E+03  0.15797088652E+03  0.00000000000E+00 0.  1.
          1    1    1    2  501    0  0.39420561855E+02  0.18457051719E+01 -0.25759052575E+03  0.26059598286E+03  0.00000000000E+00 0. -1.
<scales pt_clust_5="13000.00000" pt_clust_6="13000.00000" pt_clust_7="13000.00000" pt_clust_8="13000.00000" pt_clust_9="13000.00000"></scales>
<clustering>
<clus scale="   91.404">  7  8 -1 -1</clus>
<clus scale="   39.464">  7  9 -1 -1</clus>
<clus scale="   91.527">  5  6 -1 -1</clus>
<clus scale="   95.613">  1  5  2 -1</clus>
<clus scale="  160.753">  2  5  1 -1</clus>
</clustering>
</event>
<event>
 9    1  0.6399313E-006  0.2409431E+03  0.7546771E-02  0.1147153E+00
         21   -1    0    0  501  502  0.00000000000E+00  0.00000000000E+00  0.34494861926E+03  0.34494861926E+03  0.00000000000E+00 0.  1.
         -2   -1    0    0    0  501 -0.00000000000E+00 -0.00000000000E+00 -0.25092741848E+03  0.25092741848E+03  0.00000000000E+00 0.  1.
         23    2    1    2    0    0  0.49067318308E+01  0.82500929972E+02 -0.18864222186E+03  0.22445686188E+03  0.89244134318E+02 0.  0.
         23    2    1    2    0    0  0.37056128519E+02 -0.84414661254E+02  0.58238045331E+02  0.14309639120E+03  0.92660215605E+02 0.  0.
        -11    1    4    4    0    0  0.61745601499E+01 -0.87092970890E+02  0.67923933764E+02  0.11062084591E+03  0.00000000000E+00 0. -1.
         11    1    4    4    0    0  0.30881568369E+02  0.26783096366E+01 -0.96858884331E+01  0.32475545294E+02  0.00000000000E+00 0.  1.
        -13    1    3    3    0    0  0.33749474486E+02 -0.21395298853E+00 -0.45775626815E+02  0.56872496115E+02  0.00000000000E+00 0.  1.
         13    1    3    3    0    0 -0.28842742655E+02  0.82714882960E+02 -0.14286659505E+03  0.16758436576E+03  0.00000000000E+00 0. -1.
         -2    1    1    2    0  502 -0.41962860349E+02  0.19137312819E+01  0.22442537731E+03  0.22832278466E+03  0.00000000000E+00 0.  1.
<scales pt_clust_5="13000.00000" pt_clust_6="13000.00000" pt_clust_7="13000.00000" pt_clust_8="13000.00000" pt_clust_9="13000.00000"></scales>
<clustering>
<clus scale="   89.244">  7  8 -1 -1</clus>
<clus scale="   92.660">  5  6 -1 -1</clus>
<clus scale="   42.006">  5  9 -1 -1</clus>
<clus scale="  121.635">  2  7  1 -1</clus>
<clus scale="  240.943">  1  5  2 -1</clus>
</clustering>
</event>
<event>
 9    1  0.6399313E-006  0.5970730E+03  0.7546771E-02  0.1033898E+00
         21   -1    0    0  501  502  0.00000000000E+00  0.00000000000E+00  0.52554243798E+03  0.52554243798E+03  0.00000000000E+00 0. -1.
          4   -1    0    0  502    0 -0.00000000000E+00 -0.00000000000E+00 -0.27611747446E+03  0.27611747446E+03  0.00000000000E+00 0. -1.
         23    2    1    2    0    0  0.12731577522E+03  0.24205193006E+02  0.18552992555E+02  0.16150522668E+03  0.94575508050E+02 0.  0.
         23    2    1    2    0    0  0.88701487181E+02 -0.99770679799E+02 -0.13292943133E+03  0.21035815163E+03  0.93585126317E+02 0.  0.
        -11    1    4    4    0    0  0.71815705005E+02 -0.11025708930E+02 -0.56930754483E+02  0.92304780747E+02  0.00000000000E+00 0.  1.
         11    1    4    4    0    0  0.16885782176E+02 -0.88744970869E+02 -0.75998676842E+02  0.11805337088E+03  0.00000000000E+00 0. -1.
        -13    1    3    3    0    0  0.14490530700E+02  0.28807515479E+02  0.34776917878E+02  0.47426600607E+02  0.00000000000E+00 0.  1.
         13    1    3    3    0    0  0.11282524452E+03 -0.46023224727E+01 -0.16223925323E+02  0.11407862607E+03  0.00000000000E+00 0. -1.
          4    1    1    2  501    0 -0.21601726240E+03  0.75565486793E+02  0.36380140229E+03  0.42979653414E+03  0.00000000000E+00 0. -1.
<scales pt_clust_5="13000.00000" pt_clust_6="13000.00000" pt_clust_7="13000.00000" pt_clust_8="13000.00000" pt_clust_9="13000.00000"></scales>
<clustering>
<clus scale="   93.585">  5  6 -1 -1</clus>
<clus scale="   94.576">  7  8 -1 -1</clus>
<clus scale="  160.436">  2  7  1 -1</clus>
<clus scale="  211.023">  5  9 -1 -1</clus>
<clus scale="  597.073">  1  5  2 -1</clus>
</clustering>
</event>
<event>
 9    1  0.6399313E-006  0.5356148E+03  0.7546771E-02  0.1058287E+00
          2   -1    0    0  502    0 -0.00000000000E+00  0.00000000000E+00  0.51872945905E+03  0.51872945905E+03  0.00000000000E+00 0. -1.
         21   -1    0    0  501  502  0.00000000000E+00 -0.00000000000E+00 -0.47545731685E+03  0.47545731685E+03  0.00000000000E+00 0. -1.
         23    2    1    2    0    0  0.33579879445E+02 -0.49731607743E+02  0.35688088488E+03  0.37351486474E+03  0.92458353180E+02 0.  0.
         23    2    1    2    0    0  0.48216101686E+02  0.27583824421E+03 -0.18616897221E+03  0.34854016240E+03  0.91705120698E+02 0.  0.
        -11    1    4    4    0    0  0.68961484516E+02  0.25545057288E+03 -0.17574170470E+03  0.31764103687E+03  0.00000000000E+00 0. -1.
         11    1    4    4    0    0 -0.20745382830E+02  0.20387671326E+02 -0.10427267512E+02  0.30899125532E+02  0.00000000000E+00 0.  1.
        -13    1    3    3    0    0 -0.81705185385E+01 -0.56199295636E+02  0.28085086775E+03  0.28653503820E+03  0.00000000000E+00 0.  1.
         13    1    3    3    0    0  0.41750397983E+02  0.64676878935E+01  0.76030017137E+02  0.86979826536E+02  0.00000000000E+00 0. -1.
          2    1    1    2  501    0 -0.81795981131E+02 -0.22610663646E+03 -0.12743977048E+03  0.27213174876E+03  0.00000000000E+00 0. -1.
<scales pt_clust_5="13000.00000" pt_clust_6="13000.00000" pt_clust_7="13000.00000" pt_clust_8="13000.00000" pt_clust_9="13000.00000"></scales>
<clustering>
<clus scale="   91.705">  5  6 -1 -1</clus>
<clus scale="   92.458">  7  8 -1 -1</clus>
<clus scale="  110.224">  1  7  2 -1</clus>
<clus scale="  258.114">  5  9 -1 -1</clus>
<clus scale="  535.615">  2  5  1 -1</clus>
</clustering>
</event>
<event>
 9    1  0.6399313E-006  0.2746417E+03  0.7546771E-02  0.1108278E+00
         -3   -1    0    0    0  501 -0.00000000000E+00  0.00000000000E+00  0.11308911303E+03  0.11308911303E+03  0.00000000000E+00 0.  1.
         21   -1    0    0  501  502  0.00000000000E+00 -0.00000000000E+00 -0.52917718525E+03  0.52917718525E+03  0.00000000000E+00 0.  1.
         23    2    1    2    0    0 -0.38459815616E+02 -0.19040957921E+03 -0.19419423828E+03  0.28918708963E+03  0.90458860035E+02 0.  0.
         23    2    1    2    0    0  0.34721097498E+02  0.75834824359E+02 -0.25222038494E+02  0.12543662127E+03  0.90231477501E+02 0.  0.
        -13    1    3    3    0    0  0.26586786536E+01 -0.13950523167E+03 -0.16878234335E+03  0.21898917248E+03  0.00000000000E+00 0.  1.
         13    1    3    3    0    0 -0.41118494269E+02 -0.50904347531E+02 -0.25411894927E+02  0.70197917151E+02  0.00000000000E+00 0. -1.
        -13    1    4    4    0    0 -0.23541553935E+02 -0.37869844923E+01 -0.11044856181E+01  0.23869769620E+02  0.00000000000E+00 0. -1.
         13    1    4    4    0    0  0.58262651433E+02  0.79621808851E+02 -0.24117552876E+02  0.10156685165E+03  0.00000000000E+00 0.  1.
         -3    1    1    2    0  502  0.37387181180E+01  0.11457475485E+03 -0.19667179545E+03  0.22764258737E+03  0.00000000000E+00 0.  1.
<scales pt_clust_5="13000.00000" pt_clust_6="13000.00000" pt_clust_7="13000.00000" pt_clust_8="13000.00000" pt_clust_9="13000.00000"></scales>
<clustering>
<clus scale="   90.231">  7  8 -1 -1</clus>
<clus scale="   90.459">  5  6 -1 -1</clus>
<clus scale="  114.636">  7  9 -1 -1</clus>
<clus scale="  214.284">  1  5  2 -1</clus>
<clus scale="  274.642">  2  5  1 -1</clus>
</clustering>
</event>
<event>
 9    1  0.6399313E-006  0.2314080E+03  0.7546771E-02  0.1144817E+00
         21   -1    0    0  501  502  0.00000000000E+00  0.00000000000E+00  0.34537514060E+03  0.34537514060E+03  0.00000000000E+00 0. -1.
          1   -1    0    0  502    0 -0.00000000000E+00 -0.00000000000E+00 -0.10279522932E+03  0.10279522932E+03  0.00000000000E+00 0. -1.
         23    2    1    2    0    0 -0.71118688608E+00  0.11384804257E+03  0.10172303185E+03  0.17726390226E+03  0.90072377859E+02 0.  0.
         23    2    1    2    0    0 -0.48027407186E+02 -0.12465729085E+02  0.16869472938E+02  0.10349469684E+03  0.89244310264E+02 0.  0.
        -11    1    3    3    0    0 -0.24686331688E+02  0.52262001424E+02  0.22560233254E+01  0.57843075699E+02  0.00000000000E+00 0. -1.
         11    1    3    3    0    0  0.23975144802E+02  0.61586041142E+02  0.99467008527E+02  0.11942082656E+03  0.00000000000E+00 0.  1.
        -13    1    4    4    0    0  0.19999383419E+02 -0.23579867234E+02  0.15419717959E+02  0.34550733391E+02  0.00000000000E+00 0.  1.
         13    1    4    4    0    0 -0.68026790605E+02  0.11114138149E+02  0.14497549783E+01  0.68943963451E+02  0.00000000000E+00 0. -1.
          1    1    1    2  501    0  0.48738594072E+02 -0.10138231348E+03  0.12398740650E+03  0.16741177082E+03  0.00000000000E+00 0. -1.
<scales pt_clust_5="13000.00000" pt_clust_6="13000.00000" pt_clust_7="13000.00000" pt_clust_8="13000.00000" pt_clust_9="13000.00000"></scales>
<clustering>
<clus scale="   89.244">  7  8 -1 -1</clus>
<clus scale="   90.072">  5  6 -1 -1</clus>
<clus scale="  112.489">  7  9 -1 -1</clus>
<clus scale="  145.172">  2  5  1 -1</clus>
<clus scale="  231.408">  1  5  2 -1</clus>
</clustering>
</event>
<event>
 9    1  0.6399313E-006  0.2712266E+03  0.7546771E-02  0.1134417E+00
          2   -1    0    0  502    0 -0.00000000000E+00  0.00000000000E+00  0.29075711229E+03  0.29075711229E+03  0.00000000000E+00 0. -1.
         21   -1    0    0  501  502  0.00000000000E+00 -0.00000000000E+00 -0.29142196264E+03  0.29142196264E+03  0.00000000000E+00 0.  1.
         23    2    1    2    0    0 -0.68621155253E+02  0.28379560939E+02  0.20925792621E+03  0.23920464067E+03  0.88970320953E+02 0.  0.
         23    2    1    2    0    0  0.15228205812E+02 -0.12490565198E+03 -0.84236419058E+02  0.17574658441E+03  0.89206319771E+02 0.  0.
        -13    1    4    4    0    0  0.16351365286E+02 -0.93224286101E+02 -0.10221218194E+03  0.13930349889E+03  0.00000000000E+00 0.  1.
         13    1    4    4    0    0 -0.11231594740E+01 -0.31681365876E+02  0.17975762881E+02  0.36443085519E+02  0.00000000000E+00 0. -1.
        -13    1    3    3    0    0  0.16453631622E+02  0.23949067704E+02  0.37119191969E+02  0.47139306845E+02  0.00000000000E+00 0.  1.
         13    1    3    3    0    0 -0.85074786875E+02  0.44304932358E+01  0.17213873424E+03  0.19206533383E+03  0.00000000000E+00 0. -1.
          2    1    1    2  501    0  0.53392949441E+02  0.96526091037E+02 -0.12568635751E+03  0.16722784985E+03  0.00000000000E+00 0. -1.
<scales pt_clust_5="13000.00000" pt_clust_6="13000.00000" pt_clust_7="13000.00000" pt_clust_8="13000.00000" pt_clust_9="13000.00000"></scales>
<clustering>
<clus scale="   88.970">  7  8 -1 -1</clus>
<clus scale="   89.206">  5  6 -1 -1</clus>
<clus scale="  110.309">  5  9 -1 -1</clus>
<clus scale="  115.888">  1  7  2 -1</clus>
<clus scale="  271.227">  2  5  1 -1</clus>
</clustering>
</event>
<event>
 9    1  0.6399313E-006  0.2588666E+03  0.7546771E-02  0.1150355E+00
          2   -1    0    0  502    0 -0.00000000000E+00  0.00000000000E+00  0.25913028715E+03  0.25913028715E+03  0.00000000000E+00 0. -1.
         21   -1    0    0  501  502  0.00000000000E+00 -0.00000000000E+00 -0.25413846177E+03  0.25413846177E+03  0.00000000000E+00 0. -1.
         23    2    1    2    0    0  0.15194557530E+02 -0.43217014862E+01  0.17941145984E+03  0.20112438940E+03  0.89515341755E+02 0.  0.
         23    2    1    2    0    0  0.23294228475E+02 -0.13982741884E+02  0.33547410910E+02  0.99855096361E+02  0.90041508981E+02 0.  0.
        -13    1    3    3    0    0  0.37404305871E+01  0.24474694520E+02  0.66929249520E+01  0.25647548367E+02  0.00000000000E+00 0.  1.
         13    1    3    3    0    0  0.11454126943E+02 -0.28796396007E+02  0.17271853488E+03  0.17547684103E+03  0.00000000000E+00 0. -1.
        -13    1    4    4    0    0  0.42053661578E+02 -0.38742471856E+02  0.37737569335E+02  0.68509953415E+02  0.00000000000E+00 0. -1.
         13    1    4    4    0    0 -0.18759433103E+02  0.24759729973E+02 -0.41901584257E+01  0.31345142946E+02  0.00000000000E+00 0.  1.
          2    1    1    2  501    0 -0.38488786005E+02  0.18304443370E+02 -0.20796704536E+03  0.21228926316E+03  0.00000000000E+00 0. -1.
<scales pt_clust_5="13000.00000" pt_clust_6="13000.00000" pt_clust_7="13000.00000" pt_clust_8="13000.00000" pt_clust_9="13000.00000"></scales>
<clustering>
<clus scale="   89.515">  5  6 -1 -1</clus>
<clus scale="   90.042">  7  8 -1 -1</clus>
<clus scale="   42.620">  7  9 -1 -1</clus>
<clus scale="   90.899">  1  5  2 -1</clus>
<clus scale="  258.867">  2  5  1 -1</clus>
</clustering>
</event>
<event>
 9    1  0.6399313E-006  0.8980341E+03  0.7546771E-02  0.9882149E-01
         21   -1    0    0  501  502  0.00000000000E+00  0.00000000000E+00  0.19588866087E+03  0.19588866087E+03  0.00000000000E+00 0. -1.
          2   -1    0    0  502    0 -0.00000000000E+00 -0.00000000000E+00 -0.19131417253E+04  0.19131417253E+04  0.00000000000E+00 0. -1.
         23    2    1    2    0    0  0.15100746637E+03 -0.77927839951E+02 -0.80938050385E+03  0.83204256332E+03  0.91225128235E+02 0.  0.
         23    2    1    2    0    0 -0.35956815751E+03 -0.21382379602E+03 -0.79268224257E+03  0.90031105380E+03  0.84882155198E+02 0.  0.
        -11    1    4    4    0    0 -0.63524831129E+02 -0.39111069276E+01 -0.13089558806E+03  0.14554846582E+03  0.00000000000E+00 0.  1.
         11    1    4    4    0    0 -0.29604332638E+03 -0.20991268909E+03 -0.66178665451E+03  0.75476258798E+03  0.00000000000E+00 0. -1.
        -13    1    3    3    0    0  0.49258266555E+02 -0.62671660861E+02 -0.22568817705E+03  0.23935176448E+03  0.00000000000E+00 0.  1.
         13    1    3    3    0    0  0.10174919982E+03 -0.15256179091E+02 -0.58369232680E+03  0.59269079884E+03  0.00000000000E+00 0. -1.
          2    1    1    2  501    0  0.20856069114E+03  0.29175163597E+03 -0.11519031801E+03  0.37667676905E+03  0.00000000000E+00 0. -1.
<scales pt_clust_5="13000.00000" pt_clust_6="13000.00000" pt_clust_7="13000.00000" pt_clust_8="13000.00000" pt_clust_9="13000.00000"></scales>
<clustering>
<clus scale="   84.882">  5  6 -1 -1</clus>
<clus scale="   91.225">  7  8 -1 -1</clus>
<clus scale="  192.868">  2  7  1 -1</clus>
<clus scale="  366.093">  5  9 -1 -1</clus>
<clus scale="  898.034">  1  5  2 -1</clus>
</clustering>
</event>
<event>
 9    1  0.6399313E-006  0.1624221E+03  0.7546771E-02  0.1207255E+00
         21   -1    0    0  501  502  0.00000000000E+00  0.00000000000E+00  0.39764442844E+03  0.39764442844E+03  0.00000000000E+00 0.  1.
         -4   -1    0    0    0  501 -0.00000000000E+00 -0.00000000000E+00 -0.84011949635E+02  0.84011949635E+02  0.00000000000E+00 0.  1.
         23    2    1    2    0    0 -0.39156626847E+01  0.42002471350E+02 -0.25877449079E+02  0.10529495791E+03  0.92940011712E+02 0.  0.
         23    2    1    2    0    0 -0.49816335248E+02 -0.22613706636E+02  0.17784442616E+03  0.20490067758E+03  0.85805598722E+02 0.  0.
        -11    1    3    3    0    0 -0.33400990241E+02  0.18423963115E+02 -0.48175123802E+02  0.61448442774E+02  0.00000000000E+00 0.  1.
         11    1    3    3    0    0  0.29485327557E+02  0.23578508234E+02  0.22297674723E+02  0.43846515138E+02  0.00000000000E+00 0. -1.
        -11    1    4    4    0    0 -0.69549741097E+02 -0.35601608473E+02  0.13557084623E+03  0.15647394467E+03  0.00000000000E+00 0.  1.
         11    1    4    4    0    0  0.19733405850E+02  0.12987901837E+02  0.42273579932E+02  0.48426732915E+02  0.00000000000E+00 0. -1.
         -4    1    1    2    0  502  0.53731997932E+02 -0.19388764713E+02  0.16166550173E+03  0.17146074258E+03  0.00000000000E+00 0.  1.
<scales pt_clust_5="13000.00000" pt_clust_6="13000.00000" pt_clust_7="13000.00000" pt_clust_8="13000.00000" pt_clust_9="13000.00000"></scales>
<clustering>
<clus scale="   85.806">  7  8 -1 -1</clus>
<clus scale="   57.123">  7  9 -1 -1</clus>
<clus scale="   92.940">  5  6 -1 -1</clus>
<clus scale="  102.066">  2  5  1 -1</clus>
<clus scale="  162.422">  1  5  2 -1</clus>
</clustering>
</event>
<event>
 9    1  0.6399313E-006  0.2330353E+03  0.7546771E-02  0.1156263E+00
         21   -1    0    0  501  502  0.00000000000E+00  0.00000000000E+00  0.20159062321E+03  0.20159062321E+03  0.00000000000E+00 0. -1.
          2   -1    0    0  502    0 -0.00000000000E+00 -0.00000000000E+00 -0.19155336656E+03  0.19155336656E+03  0.00000000000E+00 0. -1.
         23    2    1    2    0    0 -0.62633055230E+02  0.14560517104E+02  0.95952426769E+02  0.14477557699E+03  0.87282250339E+02 0.  0.
         23    2    1    2    0    0 -0.91751036632E-01  0.38828559059E+01 -0.13559042567E+03  0.16625757096E+03  0.96133924184E+02 0.  0.
        -11    1    3    3    0    0 -0.28748169815E+02  0.32278485571E+02  0.19213614920E+01  0.43267187666E+02  0.00000000000E+00 0.  1.
         11    1    3    3    0    0 -0.33884885414E+02 -0.17717968467E+02  0.94031065277E+02  0.10150838932E+03  0.00000000000E+00 0. -1.
        -11    1    4    4    0    0 -0.36722177507E+02 -0.24574969304E+02 -0.94372747289E+02  0.10420490808E+03  0.00000000000E+00 0. -1.
         11    1    4    4    0    0  0.36630426471E+02  0.28457825209E+02 -0.41217678384E+02  0.62052662879E+02  0.00000000000E+00 0.  1.
          2    1    1    2  501    0  0.62724806266E+02 -0.18443373010E+02  0.49675255555E+02  0.82110841815E+02  0.00000000000E+00 0. -1.
<scales pt_clust_5="13000.00000" pt_clust_6="13000.00000" pt_clust_7="13000.00000" pt_clust_8="13000.00000" pt_clust_9="13000.00000"></scales>
<clustering>
<clus scale="   87.282">  5  6 -1 -1</clus>
<clus scale="   96.134">  7  8 -1 -1</clus>
<clus scale="   65.380">  7  9 -1 -1</clus>
<clus scale="  108.412">  2  5  1 -1</clus>
<clus scale="  233.035">  1  5  2 -1</clus>
</clustering>
</event>
<event>
 9    1  0.6399313E-006  0.3807722E+03  0.7546771E-02  0.1089774E+00
         -1   -1    0    0    0  501 -0.00000000000E+00  0.00000000000E+00  0.10656678762E+03  0.10656678762E+03  0.00000000000E+00 0.  1.
         21   -1    0    0  501  502  0.00000000000E+00 -0.00000000000E+00 -0.62609097795E+03  0.62609097795E+03  0.00000000000E+00 0. -1.
         23    2    1    2    0    0 -0.41025975454E+02  0.82288054334E+02 -0.18280192083E+03  0.22435728801E+03  0.92006499102E+02 0.  0.
         23    2    1    2    0    0  0.14231241287E+03 -0.13426057602E+03 -0.32315337188E+03  0.39365231840E+03  0.11070375283E+03 0.  0.
        -11    1    3    3    0    0 -0.24083451716E+02 -0.68223214224E+00 -0.11023025674E+03  0.11283256440E+03  0.00000000000E+00 0. -1.
         11    1    3    3    0    0 -0.16942523738E+02  0.82970286476E+02 -0.72571664088E+02  0.11152472361E+03  0.00000000000E+00 0.  1.
        -13    1    4    4    0    0  0.35911262858E+02 -0.14117286332E+02 -0.71659454106E+01  0.39246239909E+02  0.00000000000E+00 0.  1.
         13    1    4    4    0    0  0.10640115002E+03 -0.12014328968E+03 -0.31598742647E+03  0.35440607849E+03  0.00000000000E+00 0. -1.
         -1    1    1    2    0  502 -0.10128643742E+03  0.51972521682E+02 -0.13568897615E+02  0.11464815915E+03  0.00000000000E+00 0.  1.
<scales pt_clust_5="13000.00000" pt_clust_6="13000.00000" pt_clust_7="13000.00000" pt_clust_8="13000.00000" pt_clust_9="13000.00000"></scales>
<clustering>
<clus scale="   92.006">  5  6 -1 -1</clus>
<clus scale="  110.704">  7  8 -1 -1</clus>
<clus scale="  113.842">  7  9 -1 -1</clus>
<clus scale="  130.076">  1  5  2 -1</clus>
<clus scale="  380.772">  2  5  1 -1</clus>
</clustering>
</event>
<event>
 9    1  0.6399313E-006  0.6871007E+03  0.7546771E-02  0.9765175E-01
          1   -1    0    0  502    0 -0.00000000000E+00  0.00000000000E+00  0.15174441798E+04  0.15174441798E+04  0.00000000000E+00 0. -1.
         21   -1    0    0  501  502  0.00000000000E+00 -0.00000000000E+00 -0.29539906060E+03  0.29539906060E+03  0.00000000000E+00 0. -1.
         23    2    1    2    0    0 -0.44072957987E+03 -0.44246538700E+03  0.42679445353E+03  0.76187653921E+03  0.91017438867E+02 0.  0.
         23    2    1    2    0    0  0.65266054273E+02  0.15585510778E+03  0.36294553884E+03  0.41064956578E+03  0.91395455321E+02 0.  0.
        -13    1    3    3    0    0 -0.41744401943E+02 -0.26289110088E+02  0.63557933937E+02  0.80456965946E+02  0.00000000000E+00 0.  1.
         13    1    3    3    0    0 -0.39898517792E+03 -0.41617627691E+03  0.36323651959E+03  0.68141957327E+03  0.00000000000E+00 0. -1.
        -13    1    4    4    0    0  0.81205244303E+02  0.78068192950E+02  0.20803761920E+03  0.23657680667E+03  0.00000000000E+00 0. -1.
         13    1    4    4    0    0 -0.15939190030E+02  0.77786914832E+02  0.15490791964E+03  0.17407275911E+03  0.00000000000E+00 0.  1.
          1    1    1    2  501    0  0.37546352560E+03  0.28661027922E+03  0.43230512683E+03  0.64031713540E+03  0.00000000000E+00 0. -1.
<scales pt_clust_5="13000.00000" pt_clust_6="13000.00000" pt_clust_7="13000.00000" pt_clust_8="13000.00000" pt_clust_9="13000.00000"></scales>
<clustering>
<clus scale="   91.017">  5  6 -1 -1</clus>
<clus scale="   91.395">  7  8 -1 -1</clus>
<clus scale="  472.354">  7  9 -1 -1</clus>
<clus scale="  631.112">  1  5  2 -1</clus>
<clus scale="  687.101">  2  5  1 -1</clus>
</clustering>
</event>
<event>
 9    1  0.6399313E-006  0.2868334E+03  0.7546771E-02  0.1117877E+00
          1   -1    0    0  502    0 -0.00000000000E+00  0.00000000000E+00  0.57580385766E+03  0.57580385766E+03  0.00000000000E+00 0. -1.
         21   -1    0    0  501  502  0.00000000000E+00 -0.00000000000E+00 -0.91182302463E+02  0.91182302463E+02  0.00000000000E+00 0. -1.
         23    2    1    2    0    0 -0.33616869950E+02  0.10837253618E+03  0.71163746964E+02  0.16377569427E+03  0.94252313533E+02 0.  0.
         23    2    1    2    0    0  0.71609357667E+01  0.78956363337E+01  0.36135667776E+03  0.37308463371E+03  0.92194768164E+02 0.  0.
        -11    1    3    3    0    0  0.32492398916E+02  0.44687958955E+02  0.33059338459E+02  0.64387029146E+02  0.00000000000E+00 0.  1.
         11    1    3    3    0    0 -0.66109268867E+02  0.63684577229E+02  0.38104408505E+02  0.99388665121E+02  0.00000000000E+00 0. -1.
        -11    1    4    4    0    0  0.67608550775E+01  0.47562228076E+02  0.25681820227E+03  0.26127277646E+03  0.00000000000E+00 0.  1.
         11    1    4    4    0    0  0.40008068919E+00 -0.39666591742E+02  0.10453847549E+03  0.11181185725E+03  0.00000000000E+00 0. -1.
          1    1    1    2  501    0  0.26455934184E+02 -0.11626817252E+03  0.52101130471E+02  0.13012583214E+03  0.00000000000E+00 0. -1.
<scales pt_clust_5="13000.00000" pt_clust_6="13000.00000" pt_clust_7="13000.00000" pt_clust_8="13000.00000" pt_clust_9="13000.00000"></scales>
<clustering>
<clus scale="   92.195">  7  8 -1 -1</clus>
<clus scale="   94.252">  5  6 -1 -1</clus>
<clus scale="  119.240">  7  9 -1 -1</clus>
<clus scale="  147.507">  1  5  2 -1</clus>
<clus scale="  286.833">  2  5  1 -1</clus>
</clustering>
</event>
<event>
 9    1  0.6399313E-006  0.2163412E+03  0.7546771E-02  0.1171144E+00
         21   -1    0    0  501  502  0.00000000000E+00  0.00000000000E+00  0.17510713149E+02  0.17510713149E+02  0.00000000000E+00 0.  1.
          1   -1    0    0  502    0 -0.00000000000E+00 -0.00000000000E+00 -0.14144025696E+04  0.14144025696E+04  0.00000000000E+00 0. -1.
         23    2    1    2    0    0  0.68687467315E+00 -0.67523326910E+00 -0.35246470242E+03  0.36531513879E+03  0.96035704008E+02 0.  0.
         23    2    1    2    0    0  0.81379644777E+02 -0.40771754004E+02 -0.56839430261E+03  0.58176823357E+03  0.84244951448E+02 0.  0.
        -11    1    3    3    0    0  0.38699520287E+02  0.28085771747E+02 -0.15687242101E+03  0.16399823145E+03  0.00000000000E+00 0.  1.
         11    1    3    3    0    0 -0.38012645614E+02 -0.28761005016E+02 -0.19559228141E+03  0.20131690735E+03  0.00000000000E+00 0. -1.
        -11    1    4    4    0    0  0.75589829438E+02 -0.64064405816E+02 -0.42653928719E+03  0.43789705859E+03  0.00000000000E+00 0.  1.
         11    1    4    4    0    0  0.57898153389E+01  0.23292651812E+02 -0.14185501542E+03  0.14387117498E+03  0.00000000000E+00 0. -1.
          1    1    1    2  501    0 -0.82066519450E+02  0.41446987273E+02 -0.47603285140E+03  0.48482991036E+03  0.00000000000E+00 0. -1.
<scales pt_clust_5="13000.00000" pt_clust_6="13000.00000" pt_clust_7="13000.00000" pt_clust_8="13000.00000" pt_clust_9="13000.00000"></scales>
<clustering>
<clus scale="   84.245">  7  8 -1 -1</clus>
<clus scale="   91.939">  7  9 -1 -1</clus>
<clus scale="   96.036">  5  6 -1 -1</clus>
<clus scale="   96.041">  2  5  1 -1</clus>
<clus scale="  216.341">  1  5  2 -1</clus>
</clustering>
</event>
<event>
 9    1  0.6399313E-006  0.2568022E+03  0.7546771E-02  0.1120162E+00
          2   -1    0    0  502    0 -0.00000000000E+00  0.00000000000E+00  0.49204440061E+03  0.49204440061E+03  0.00000000000E+00 0. -1.
         21   -1    0    0  501  502  0.00000000000E+00 -0.00000000000E+00 -0.10366049073E+03  0.10366049073E+03  0.00000000000E+00 0.  1.
         23    2    1    2    0    0 -0.17015689594E+03  0.13587661734E+02  0.14997981554E+03  0.24529955508E+03  0.92411757188E+02 0.  0.
         23    2    1    2    0    0  0.52262314446E+02 -0.68041106095E+01  0.19942477726E+03  0.22604884840E+03  0.92467262556E+02 0.  0.
        -11    1    3    3    0    0 -0.27666834774E+02  0.60100571924E+01 -0.10827238236E+02  0.30311773648E+02  0.00000000000E+00 0.  1.
         11    1    3    3    0    0 -0.14249006117E+03  0.75776045420E+01  0.16080705378E+03  0.21498778144E+03  0.00000000000E+00 0. -1.
        -13    1    4    4    0    0  0.54106050505E+02  0.33571074521E+02  0.14402392876E+03  0.15747181907E+03  0.00000000000E+00 0. -1.
         13    1    4    4    0    0 -0.18437360589E+01 -0.40375185131E+02  0.55400848501E+02  0.68577029329E+02  0.00000000000E+00 0.  1.
          2    1    1    2  501    0  0.11789458150E+03 -0.67835511249E+01  0.38979317092E+02  0.12435648786E+03  0.00000000000E+00 0. -1.
<scales pt_clust_5="13000.00000" pt_clust_6="13000.00000" pt_clust_7="13000.00000" pt_clust_8="13000.00000" pt_clust_9="13000.00000"></scales>
<clustering>
<clus scale="   92.412">  5  6 -1 -1</clus>
<clus scale="   92.467">  7  8 -1 -1</clus>
<clus scale="  118.090">  7  9 -1 -1</clus>
<clus scale="  194.108">  1  5  2 -1</clus>
<clus scale="  256.802">  2  5  1 -1</clus>
</clustering>
</event>
<event>
 9    1  0.6399313E-006  0.2745183E+03  0.7546771E-02  0.1140466E+00
         21   -1    0    0  501  502  0.00000000000E+00  0.00000000000E+00  0.30003546334E+03  0.30003546334E+03  0.00000000000E+00 0. -1.
          2   -1    0    0  502    0 -0.00000000000E+00 -0.00000000000E+00 -0.13562166912E+03  0.13562166912E+03  0.00000000000E+00 0. -1.
         23    2    1    2    0    0  0.31086820876E+02 -0.12355418600E+02 -0.27895420931E+02  0.10048086733E+03  0.90549452730E+02 0.  0.
         23    2    1    2    0    0  0.82623870354E+02 -0.31601627467E+02  0.29135094907E+02  0.13148989662E+03  0.92819030094E+02 0.  0.
        -11    1    3    3    0    0  0.43846467782E+02  0.24358435687E+02  0.38367146459E+01  0.50304736411E+02  0.00000000000E+00 0.  1.
         11    1    3    3    0    0 -0.12759646906E+02 -0.36713854287E+02 -0.31732135577E+02  0.50176130920E+02  0.00000000000E+00 0. -1.
        -13    1    4    4    0    0  0.60576026263E+02 -0.63748950131E+02  0.11441739226E+02  0.88680871653E+02  0.00000000000E+00 0. -1.
         13    1    4    4    0    0  0.22047844091E+02  0.32147322664E+02  0.17693355681E+02  0.42809024969E+02  0.00000000000E+00 0.  1.
          2    1    1    2  501    0 -0.11371069123E+03  0.43957046067E+02  0.16317412024E+03  0.20368636851E+03  0.00000000000E+00 0. -1.
<scales pt_clust_5="13000.00000" pt_clust_6="13000.00000" pt_clust_7="13000.00000" pt_clust_8="13000.00000" pt_clust_9="13000.00000"></scales>
<clustering>
<clus scale="   90.549">  5  6 -1 -1</clus>
<clus scale="   92.819">  7  8 -1 -1</clus>
<clus scale="   96.531">  2  5  1 -1</clus>
<clus scale="  112.426">  7  9 -1 -1</clus>
<clus scale="  274.518">  1  5  2 -1</clus>
</clustering>
</event>
<event>
 9    1  0.6399313E-006  0.2196835E+03  0.7546771E-02  0.1165161E+00
         21   -1    0    0  501  502  0.00000000000E+00  0.00000000000E+00  0.25120591381E+03  0.25120591381E+03  0.00000000000E+00 0. -1.
         -3   -1    0    0    0  501 -0.00000000000E+00 -0.00000000000E+00 -0.20821659218E+03  0.20821659218E+03  0.00000000000E+00 0.  1.
         23    2    1    2    0    0  0.31614337119E+02 -0.41313667465E+02 -0.13887049101E+03  0.17423165897E+03  0.91462409120E+02 0.  0.
         23    2    1    2    0    0 -0.46223949803E+01  0.33485253219E+02  0.22030447930E+03  0.23756898855E+03  0.82233399554E+02 0.  0.
        -11    1    4    4    0    0 -0.14376045135E+02 -0.21412796083E+02  0.31543926568E+02  0.40745525069E+02  0.00000000000E+00 0.  1.
         11    1    4    4    0    0  0.97536501551E+01  0.54898049302E+02  0.18876055273E+03  0.19682346348E+03  0.00000000000E+00 0. -1.
        -13    1    3    3    0    0 -0.24255003584E+02 -0.28409872178E+02 -0.20277974576E+02  0.42504379645E+02  0.00000000000E+00 0. -1.
         13    1    3    3    0    0  0.55869340704E+02 -0.12903795286E+02 -0.11859251643E+03  0.13172727932E+03  0.00000000000E+00 0.  1.
         -3    1    1    2    0  502 -0.26991942139E+02  0.78284142455E+01 -0.38444666661E+02  0.47621858476E+02  0.00000000000E+00 0.  1.
<scales pt_clust_5="13000.00000" pt_clust_6="13000.00000" pt_clust_7="13000.00000" pt_clust_8="13000.00000" pt_clust_9="13000.00000"></scales>
<clustering>
<clus scale="   82.233">  5  6 -1 -1</clus>
<clus scale="   28.104">  5  9 -1 -1</clus>
<clus scale="   91.462">  7  8 -1 -1</clus>
<clus scale="  105.222">  2  7  1 -1</clus>
<clus scale="  219.683">  1  5  2 -1</clus>
</clustering>
</event>
<event>
 9    1  0.6399313E-006  0.2174636E+03  0.7546771E-02  0.1157096E+00
         21   -1    0    0  501  502  0.00000000000E+00  0.00000000000E+00  0.50064561314E+02  0.50064561314E+02  0.00000000000E+00 0. -1.
          1   -1    0    0  502    0 -0.00000000000E+00 -0.00000000000E+00 -0.61030327925E+03  0.61030327925E+03  0.00000000000E+00 0. -1.
         23    2    1    2    0    0 -0.69162559872E+02 -0.57636358610E+02 -0.23853963075E+03  0.27206291143E+03  0.94929778363E+02 0.  0.
         23    2    1    2    0    0  0.29505783100E+02 -0.94875359413E+01 -0.28697817935E+03  0.30295963866E+03  0.92018816881E+02 0.  0.
        -11    1    3    3    0    0  0.24073631002E+02 -0.10145567271E+02 -0.44087871253E+02  0.51246586584E+02  0.00000000000E+00 0.  1.
         11    1    3    3    0    0 -0.93236190874E+02 -0.47490791339E+02 -0.19445175949E+03  0.22081632485E+03  0.00000000000E+00 0. -1.
        -13    1    4    4    0    0  0.59154888957E+02 -0.24137056551E+02 -0.19661528363E+03  0.20673526101E+03  0.00000000000E+00 0.  1.
         13    1    4    4    0    0 -0.29649105857E+02  0.14649520610E+02 -0.90362895718E+02  0.96224377653E+02  0.00000000000E+00 0. -1.
          1    1    1    2  501    0  0.39656776771E+02  0.67123894552E+02 -0.34720907839E+02  0.85345290467E+02  0.00000000000E+00 0. -1.
<scales pt_clust_5="13000.00000" pt_clust_6="13000.00000" pt_clust_7="13000.00000" pt_clust_8="13000.00000" pt_clust_9="13000.00000"></scales>
<clustering>
<clus scale="   92.019">  7  8 -1 -1</clus>
<clus scale="   77.963">  7  9 -1 -1</clus>
<clus scale="   94.930">  5  6 -1 -1</clus>
<clus scale="  130.832">  2  5  1 -1</clus>
<clus scale="  217.464">  1  5  2 -1</clus>
</clustering>
</event>
<event>
 9    1  0.6399313E-006  0.2049269E+03  0.7546771E-02  0.1166630E+00
         21   -1    0    0  501  502  0.00000000000E+00  0.00000000000E+00  0.22475708659E+03  0.22475708659E+03  0.00000000000E+00 0. -1.
          1   -1    0    0  502    0 -0.00000000000E+00 -0.00000000000E+00 -0.37523824931E+03  0.37523824931E+03  0.00000000000E+00 0. -1.
         23    2    1    2    0    0 -0.82242147683E+02  0.20916239585E+02 -0.31383414490E+03  0.33792810031E+03  0.92207757504E+02 0.  0.
         23    2    1    2    0    0  0.35555211168E+02  0.85088465091E+01  0.77773451481E+01  0.96993662374E+02  0.89502569421E+02 0.  0.
        -13    1    3    3    0    0 -0.51820881115E+02 -0.31509329036E+02 -0.19958265032E+03  0.20859404557E+03  0.00000000000E+00 0.  1.
         13    1    3    3    0    0 -0.30421266568E+02  0.52425568620E+02 -0.11425149457E+03  0.12933405475E+03  0.00000000000E+00 0. -1.
        -13    1    4    4    0    0  0.59256925690E+02 -0.17028746625E+02  0.20876950844E+01  0.61690517299E+02  0.00000000000E+00 0.  1.
         13    1    4    4    0    0 -0.23701714521E+02  0.25537593134E+02  0.56896500637E+01  0.35303145075E+02  0.00000000000E+00 0. -1.
          1    1    1    2  501    0  0.46686936514E+02 -0.29425086094E+02  0.15557563703E+03  0.16507357321E+03  0.00000000000E+00 0. -1.
<scales pt_clust_5="13000.00000" pt_clust_6="13000.00000" pt_clust_7="13000.00000" pt_clust_8="13000.00000" pt_clust_9="13000.00000"></scales>
<clustering>
<clus scale="   89.503">  7  8 -1 -1</clus>
<clus scale="   55.186">  7  9 -1 -1</clus>
<clus scale="   92.208">  5  6 -1 -1</clus>
<clus scale="  125.314">  2  5  1 -1</clus>
<clus scale="  204.927">  1  5  2 -1</clus>
</clustering>
</event>
<event>
 9    1  0.6399313E-006  0.1995227E+03  0.7546771E-02  0.1174169E+00
          2   -1    0    0  502    0 -0.00000000000E+00  0.00000000000E+00  0.11149149494E+03  0.11149149494E+03  0.00000000000E+00 0. -1.
         21   -1    0    0  501  502  0.00000000000E+00 -0.00000000000E+00 -0.23089063142E+03  0.23089063142E+03  0.00000000000E+00 0.  1.
         23    2    1    2    0    0 -0.72073386794E+02  0.32152885608E+00 -0.97053365677E+01  0.11469363269E+03  0.88689116344E+02 0.  0.
         23    2    1    2    0    0  0.21662323496E+02 -0.22287394711E+02  0.12134830289E+02  0.94024774937E+02  0.87905744827E+02 0.  0.
        -11    1    3    3    0    0 -0.39284807290E+02 -0.36893737915E+02 -0.29325478549E+02  0.61354931940E+02  0.00000000000E+00 0.  1.
         11    1    3    3    0    0 -0.32788579504E+02  0.37215266772E+02  0.19620141982E+02  0.53338700754E+02  0.00000000000E+00 0. -1.
        -11    1    4    4    0    0 -0.10225496488E+02 -0.47954167042E+02 -0.57222596842E+01  0.49365039968E+02  0.00000000000E+00 0.  1.
         11    1    4    4    0    0  0.31887819984E+02  0.25666772331E+02  0.17857089973E+02  0.44659734969E+02  0.00000000000E+00 0. -1.
          2    1    1    2  501    0  0.50411063298E+02  0.21965865855E+02 -0.12182863020E+03  0.13366371872E+03  0.00000000000E+00 0. -1.
<scales pt_clust_5="13000.00000" pt_clust_6="13000.00000" pt_clust_7="13000.00000" pt_clust_8="13000.00000" pt_clust_9="13000.00000"></scales>
<clustering>
<clus scale="   87.906">  7  8 -1 -1</clus>
<clus scale="   54.989">  7  9 -1 -1</clus>
<clus scale="   88.689">  5  6 -1 -1</clus>
<clus scale="  114.282">  1  5  2 -1</clus>
<clus scale="  199.523">  2  5  1 -1</clus>
</clustering>
</event>
<event>
 9    1  0.6399313E-006  0.3374132E+03  0.7546771E-02  0.1072009E+00
         -1   -1    0    0    0  501 -0.00000000000E+00  0.00000000000E+00  0.53669692021E+03  0.53669692021E+03  0.00000000000E+00 0.  1.
         21   -1    0    0  501  502  0.00000000000E+00 -0.00000000000E+00 -0.19012717551E+03  0.19012717551E+03  0.00000000000E+00 0.  1.
         23    2    1    2    0    0 -0.28408966571E+03  0.41771508399E+02  0.16027689497E+03  0.34139879225E+03  0.91720527757E+02 0.  0.
         23    2    1    2    0    0  0.11484963948E+03  0.11523561182E+02  0.13534091110E+03  0.20082126514E+03  0.93213658673E+02 0.  0.
        -11    1    4    4    0    0  0.76095332147E+01 -0.31477353441E+02  0.23453168699E+02  0.39984745809E+02  0.00000000000E+00 0. -1.
         11    1    4    4    0    0  0.10724010627E+03  0.43000914623E+02  0.11188774240E+03  0.16083651933E+03  0.00000000000E+00 0.  1.
        -13    1    3    3    0    0 -0.24486295642E+03  0.18314778065E+01  0.13854777304E+03  0.28134801785E+03  0.00000000000E+00 0.  1.
         13    1    3    3    0    0 -0.39226709293E+02  0.39940030593E+02  0.21729121923E+02  0.60050774393E+02  0.00000000000E+00 0. -1.
         -1    1    1    2    0  502  0.16924002623E+03 -0.53295069582E+02  0.50951938628E+02  0.18460403833E+03  0.00000000000E+00 0.  1.
<scales pt_clust_5="13000.00000" pt_clust_6="13000.00000" pt_clust_7="13000.00000" pt_clust_8="13000.00000" pt_clust_9="13000.00000"></scales>
<clustering>
<clus scale="   91.721">  7  8 -1 -1</clus>
<clus scale="   93.214">  5  6 -1 -1</clus>
<clus scale="  177.433">  5  9 -1 -1</clus>
<clus scale="  301.437">  1  7  2 -1</clus>
<clus scale="  337.413">  2  5  1 -1</clus>
</clustering>
</event>
<event>
 9    1  0.6399313E-006  0.3374421E+03  0.7546771E-02  0.1078719E+00
          2   -1    0    0  502    0 -0.00000000000E+00  0.00000000000E+00  0.15418747559E+04  0.15418747559E+04  0.00000000000E+00 0. -1.
         21   -1    0    0  501  502  0.00000000000E+00 -0.00000000000E+00 -0.85064707826E+02  0.85064707826E+02  0.00000000000E+00 0. -1.
         23    2    1    2    0    0  0.52189529555E+02 -0.22787681915E+03  0.11286180945E+04  0.11562196526E+04  0.91725079278E+02 0.  0.
         23    2    1    2    0    0 -0.50719218526E+01  0.16569052311E+02  0.20091929810E+02  0.94160830433E+02  0.90345550298E+02 0.  0.
        -11    1    3    3    0    0  0.71998642160E+02 -0.11003158756E+03  0.61016609955E+03  0.62417419346E+03  0.00000000000E+00 0. -1.
         11    1    3    3    0    0 -0.19809112605E+02 -0.11784523158E+03  0.51845199493E+03  0.53204545914E+03  0.00000000000E+00 0.  1.
        -13    1    4    4    0    0 -0.28014006770E+02  0.10881583026E+02 -0.27682076256E+02  0.40859402471E+02  0.00000000000E+00 0. -1.
         13    1    4    4    0    0  0.22942084918E+02  0.56874692852E+01  0.47774006066E+02  0.53301427962E+02  0.00000000000E+00 0.  1.
          2    1    1    2  501    0 -0.47117607702E+02  0.21130776684E+03  0.30810002376E+03  0.37655898067E+03  0.00000000000E+00 0. -1.
<scales pt_clust_5="13000.00000" pt_clust_6="13000.00000" pt_clust_7="13000.00000" pt_clust_8="13000.00000" pt_clust_9="13000.00000"></scales>
<clustering>
<clus scale="   90.346">  7  8 -1 -1</clus>
<clus scale="   91.725">  5  6 -1 -1</clus>
<clus scale="  216.497">  7  9 -1 -1</clus>
<clus scale="  251.128">  1  5  2 -1</clus>
<clus scale="  337.442">  2  5  1 -1</clus>
</clustering>
</event>
<event>
 9    1  0.6399313E-006  0.1836626E+03  0.7546771E-02  0.1181713E+00
          1   -1    0    0  502    0 -0.00000000000E+00  0.00000000000E+00  0.91096248664E+03  0.91096248664E+03  0.00000000000E+00 0. -1.
         21   -1    0    0  501  502  0.00000000000E+00 -0.00000000000E+00 -0.28306671450E+02  0.28306671450E+02  0.00000000000E+00 0.  1.
         23    2    1    2    0    0  0.16718794832E+02  0.78168528374E+02  0.49665649127E+03  0.51180284709E+03  0.94258405650E+02 0.  0.
         23    2    1    2    0    0 -0.26562140406E+02 -0.21444560948E+02  0.34622514339E+03  0.35749142001E+03  0.82236542786E+02 0.  0.
        -11    1    3    3    0    0  0.52159887745E+02  0.21530052370E+02  0.20839363763E+03  0.21589836787E+03  0.00000000000E+00 0. -1.
         11    1    3    3    0    0 -0.35441092912E+02  0.56638476004E+02  0.28826285364E+03  0.29590447921E+03  0.00000000000E+00 0.  1.
        -13    1    4    4    0    0 -0.89226255828E+01 -0.48123228599E+02  0.27626931783E+03  0.28057119301E+03  0.00000000000E+00 0. -1.
         13    1    4    4    0    0 -0.17639514823E+02  0.26678667651E+02  0.69955825565E+02  0.76920226997E+02  0.00000000000E+00 0.  1.
          1    1    1    2  501    0  0.98433455739E+01 -0.56723967426E+02  0.39774180532E+02  0.69974890994E+02  0.00000000000E+00 0. -1.
<scales pt_clust_5="13000.00000" pt_clust_6="13000.00000" pt_clust_7="13000.00000" pt_clust_8="13000.00000" pt_clust_9="13000.00000"></scales>
<clustering>
<clus scale="   82.237">  7  8 -1 -1</clus>
<clus scale="   57.572">  7  9 -1 -1</clus>
<clus scale="   94.258">  5  6 -1 -1</clus>
<clus scale="  123.590">  1  5  2 -1</clus>
<clus scale="  183.663">  2  5  1 -1</clus>
</clustering>
</event>
<event>
 9    1  0.6399313E-006  0.1498930E+03  0.7546771E-02  0.1219564E+00
          3   -1    0    0  502    0 -0.00000000000E+00  0.00000000000E+00  0.29785463630E+03  0.29785463630E+03  0.00000000000E+00 0. -1.
         21   -1    0    0  501  502  0.00000000000E+00 -0.00000000000E+00 -0.25283591539E+03  0.25283591539E+03  0.00000000000E+00 0.  1.
         23    2    1    2    0    0 -0.28862719443E+02  0.31808622507E+02  0.26571367118E+03  0.28390565552E+03  0.90298511292E+02 0.  0.
         23    2    1    2    0    0 -0.21313861932E+02 -0.20478331314E+02 -0.16045375534E+03  0.18756957957E+03  0.92538083053E+02 0.  0.
        -11    1    4    4    0    0 -0.49057795931E+01 -0.42023194092E+02 -0.24386664870E+02  0.48833645559E+02  0.00000000000E+00 0. -1.
         11    1    4    4    0    0 -0.16408082339E+02  0.21544862778E+02 -0.13606709047E+03  0.13873593401E+03  0.00000000000E+00 0.  1.
        -13    1    3    3    0    0  0.26691015767E+02 -0.52943624303E+01  0.12778918247E+03  0.13065418383E+03  0.00000000000E+00 0.  1.
         13    1    3    3    0    0 -0.55553735210E+02  0.37102984937E+02  0.13792448871E+03  0.15325147168E+03  0.00000000000E+00 0. -1.
          3    1    1    2  501    0  0.50176581375E+02 -0.11330291192E+02 -0.60241194935E+02  0.79215316601E+02  0.00000000000E+00 0. -1.
<scales pt_clust_5="13000.00000" pt_clust_6="13000.00000" pt_clust_7="13000.00000" pt_clust_8="13000.00000" pt_clust_9="13000.00000"></scales>
<clustering>
<clus scale="   90.299">  7  8 -1 -1</clus>
<clus scale="   92.538">  5  6 -1 -1</clus>
<clus scale="   51.440">  5  9 -1 -1</clus>
<clus scale="   99.993">  1  7  2 -1</clus>
<clus scale="  149.893">  2  5  1 -1</clus>
</clustering>
</event>
<event>
 9    1  0.6399313E-006  0.3069343E+03  0.7546771E-02  0.1093005E+00
         21   -1    0    0  501  502  0.00000000000E+00  0.00000000000E+00  0.21284425354E+03  0.21284425354E+03  0.00000000000E+00 0. -1.
          2   -1    0    0  502    0 -0.00000000000E+00 -0.00000000000E+00 -0.36248666109E+03  0.36248666109E+03  0.00000000000E+00 0. -1.
         23    2    1    2    0    0 -0.15408419630E+03 -0.14123417576E+03 -0.14128865517E+03  0.26828291957E+03  0.91237102655E+02 0.  0.
         23    2    1    2    0    0  0.23062017093E+02 -0.66135495634E+01 -0.45801350101E+02  0.10598063345E+03  0.92512352289E+02 0.  0.
        -11    1    4    4    0    0  0.82555920373E+01 -0.49509513268E+02 -0.23973914305E+02  0.55624592322E+02  0.00000000000E+00 0. -1.
         11    1    4    4    0    0  0.14806425056E+02  0.42895963704E+02 -0.21827435795E+02  0.50356041132E+02  0.00000000000E+00 0.  1.
        -11    1    3    3    0    0 -0.14602014610E+03 -0.11362731014E+03 -0.15004892682E+03  0.23821781863E+03  0.00000000000E+00 0. -1.
         11    1    3    3    0    0 -0.80640502062E+01 -0.27606865616E+02  0.87602716475E+01  0.30065100935E+02  0.00000000000E+00 0.  1.
          2    1    1    2  501    0  0.13102217921E+03  0.14784772532E+03  0.37447597719E+02  0.20106736160E+03  0.00000000000E+00 0. -1.
<scales pt_clust_5="13000.00000" pt_clust_6="13000.00000" pt_clust_7="13000.00000" pt_clust_8="13000.00000" pt_clust_9="13000.00000"></scales>
<clustering>
<clus scale="   91.237">  7  8 -1 -1</clus>
<clus scale="   92.512">  5  6 -1 -1</clus>
<clus scale="  197.549">  5  9 -1 -1</clus>
<clus scale="  228.064">  2  7  1 -1</clus>
<clus scale="  306.934">  1  5  2 -1</clus>
</clustering>
</event>
<event>
 9    1  0.6399313E-006  0.3234486E+03  0.7546771E-02  0.1112027E+00
         -1   -1    0    0    0  501 -0.00000000000E+00  0.00000000000E+00  0.44182548787E+03  0.44182548787E+03  0.00000000000E+00 0.  1.
         21   -1    0    0  501  502  0.00000000000E+00 -0.00000000000E+00 -0.11113550353E+03  0.11113550353E+03  0.00000000000E+00 0.  1.
         23    2    1    2    0    0 -0.58148117649E+02 -0.42785307108E+02  0.10085283068E+03  0.15616868314E+03  0.94897724133E+02 0.  0.
         23    2    1    2    0    0  0.10337791171E+02 -0.53647748877E+02  0.26325568106E+03  0.28408933768E+03  0.91751007017E+02 0.  0.
        -11    1    4    4    0    0 -0.46735945991E+01 -0.72281470814E+02  0.13104311116E+03  0.14972892337E+03  0.00000000000E+00 0.  1.
         11    1    4    4    0    0  0.15011385770E+02  0.18633721938E+02  0.13221256990E+03  0.13436041432E+03  0.00000000000E+00 0. -1.
        -13    1    3    3    0    0 -0.26434581614E+02  0.24938342564E+02  0.84757878935E+01  0.37316846268E+02  0.00000000000E+00 0. -1.
         13    1    3    3    0    0 -0.31713536035E+02 -0.67723649672E+02  0.92377042787E+02  0.11885183687E+03  0.00000000000E+00 0.  1.
         -1    1    1    2    0  502  0.47810326478E+02  0.96433055985E+02 -0.33418527402E+02  0.11270297058E+03  0.00000000000E+00 0.  1.
<scales pt_clust_5="13000.00000" pt_clust_6="13000.00000" pt_clust_7="13000.00000" pt_clust_8="13000.00000" pt_clust_9="13000.00000"></scales>
<clustering>
<clus scale="   91.751">  5  6 -1 -1</clus>
<clus scale="   94.898">  7  8 -1 -1</clus>
<clus scale="  107.634">  5  9 -1 -1</clus>
<clus scale="  119.237">  1  7  2 -1</clus>
<clus scale="  323.449">  2  5  1 -1</clus>
</clustering>
</event>
<event>
 9    1  0.6399313E-006  0.3784902E+03  0.7546771E-02  0.1102815E+00
         -2   -1    0    0    0  501 -0.00000000000E+00  0.00000000000E+00  0.20209283354E+03  0.20209283354E+03  0.00000000000E+00 0.  1.
         21   -1    0    0  501  502  0.00000000000E+00 -0.00000000000E+00 -0.28681351180E+03  0.28681351180E+03  0.00000000000E+00 0.  1.
         23    2    1    2    0    0  0.56384715647E+01  0.25558529418E+02 -0.55397395901E+02  0.10928193806E+03  0.90491103019E+02 0.  0.
         23    2    1    2    0    0 -0.98864485398E+02 -0.15722785892E+02  0.13475170600E+03  0.19065765541E+03  0.90393179094E+02 0.  0.
        -11    1    4    4    0    0 -0.65024291794E+02 -0.53411408187E+02  0.87257418921E+02  0.12122208629E+03  0.00000000000E+00 0. -1.
         11    1    4    4    0    0 -0.33840193603E+02  0.37688622295E+02  0.47494287081E+02  0.69435569119E+02  0.00000000000E+00 0.  1.
        -13    1    3    3    0    0  0.15921876961E+02  0.57779154087E+02 -0.40440200641E+02  0.72300391706E+02  0.00000000000E+00 0. -1.
         13    1    3    3    0    0 -0.10283405396E+02 -0.32220624669E+02 -0.14957195259E+02  0.36981546352E+02  0.00000000000E+00 0.  1.
         -2    1    1    2    0  502  0.93226013833E+02 -0.98357435259E+01 -0.16407498836E+03  0.18896675187E+03  0.00000000000E+00 0.  1.
<scales pt_clust_5="13000.00000" pt_clust_6="13000.00000" pt_clust_7="13000.00000" pt_clust_8="13000.00000" pt_clust_9="13000.00000"></scales>
<clustering>
<clus scale="   90.393">  5  6 -1 -1</clus>
<clus scale="   90.491">  7  8 -1 -1</clus>
<clus scale="   93.743">  5  9 -1 -1</clus>
<clus scale="   94.200">  1  7  2 -1</clus>
<clus scale="  378.490">  2  5  1 -1</clus>
</clustering>
</event>
<event>
 9    1  0.6399313E-006  0.1209225E+03  0.7546771E-02  0.1250543E+00
         21   -1    0    0  501  502  0.00000000000E+00  0.00000000000E+00  0.25521945942E+02  0.25521945942E+02  0.00000000000E+00 0.  1.
          2   -1    0    0  502    0 -0.00000000000E+00 -0.00000000000E+00 -0.48267630723E+03  0.48267630723E+03  0.00000000000E+00 0. -1.
         23    2    1    2    0    0  0.36461941845E+02  0.16796446660E+02 -0.20160522091E+03  0.22548354893E+03  0.92663757286E+02 0.  0.
         23    2    1    2    0    0 -0.10286283599E+02 -0.25735809608E+02 -0.18676785719E+03  0.20858008203E+03  0.88630009665E+02 0.  0.
        -11    1    4    4    0    0 -0.48025888804E+02 -0.18324230527E+02 -0.79945664194E+02  0.95045108466E+02  0.00000000000E+00 0.  1.
         11    1    4    4    0    0  0.37739605204E+02 -0.74115790804E+01 -0.10682219300E+03  0.11353497357E+03  0.00000000000E+00 0. -1.
        -13    1    3    3    0    0  0.56847296117E+02  0.22785127776E+02 -0.19313140730E+03  0.20260927326E+03  0.00000000000E+00 0. -1.
         13    1    3    3    0    0 -0.20385354273E+02 -0.59886811163E+01 -0.84738136111E+01  0.22874275670E+02  0.00000000000E+00 0.  1.
          2    1    1    2  501    0 -0.26175658245E+02  0.89393629477E+01 -0.68781283183E+02  0.74134622214E+02  0.00000000000E+00 0. -1.
<scales pt_clust_5="13000.00000" pt_clust_6="13000.00000" pt_clust_7="13000.00000" pt_clust_8="13000.00000" pt_clust_9="13000.00000"></scales>
<clustering>
<clus scale="   88.630">  5  6 -1 -1</clus>
<clus scale="   27.660">  5  9 -1 -1</clus>
<clus scale="   92.664">  7  8 -1 -1</clus>
<clus scale="  100.986">  2  7  1 -1</clus>
<clus scale="  120.922">  1  5  2 -1</clus>
</clustering>
</event>
<event>
 9    1  0.6399313E-006  0.1579395E+03  0.7546771E-02  0.1216777E+00
         21   -1    0    0  501  502  0.00000000000E+00  0.00000000000E+00  0.34017922767E+03  0.34017922767E+03  0.00000000000E+00 0.  1.
         -1   -1    0    0    0  501 -0.00000000000E+00 -0.00000000000E+00 -0.45450775946E+02  0.45450775946E+02  0.00000000000E+00 0.  1.
         23    2    1    2    0    0 -0.14292049809E+02 -0.15592999755E+02  0.10212047898E+03  0.13654626509E+03  0.88141284058E+02 0.  0.
         23    2    1    2    0    0  0.40807770882E+02 -0.65000021052E+01  0.16430763886E+03  0.20445086842E+03  0.11443615347E+03 0.  0.
        -11    1    4    4    0    0 -0.98679252256E+01  0.31266074400E+02  0.51296551476E+01  0.33185188240E+02  0.00000000000E+00 0. -1.
         11    1    4    4    0    0  0.50675696107E+02 -0.37766076505E+02  0.15917798371E+03  0.17126568018E+03  0.00000000000E+00 0.  1.
        -11    1    3    3    0    0 -0.31424201371E+02 -0.36327367411E+02  0.23541703997E+02  0.53491773965E+02  0.00000000000E+00 0.  1.
         11    1    3    3    0    0  0.17132151563E+02  0.20734367657E+02  0.78578774978E+02  0.83054491127E+02  0.00000000000E+00 0. -1.
         -1    1    1    2    0  502 -0.26515721073E+02  0.22093001860E+02  0.28300333894E+02  0.44632870104E+02  0.00000000000E+00 0.  1.
<scales pt_clust_5="13000.00000" pt_clust_6="13000.00000" pt_clust_7="13000.00000" pt_clust_8="13000.00000" pt_clust_9="13000.00000"></scales>
<clustering>
<clus scale="   88.141">  7  8 -1 -1</clus>
<clus scale="   90.644">  2  7  1 -1</clus>
<clus scale="  114.436">  5  6 -1 -1</clus>
<clus scale="   35.335">  5  9 -1 -1</clus>
<clus scale="  157.939">  1  5  2 -1</clus>
</clustering>
</event>
<event>
 9    1  0.6845015E-006  0.6911482E+03  0.7546771E-02  0.1026803E+00
         21   -1    0    0  501  502  0.00000000000E+00  0.00000000000E+00  0.63057227338E+03  0.63057227338E+03  0.00000000000E+00 0.  1.
         -1   -1    0    0    0  501 -0.00000000000E+00 -0.00000000000E+00 -0.26669990872E+03  0.26669990872E+03  0.00000000000E+00 0.  1.
         23    2    1    2    0    0 -0.63225378714E+01  0.77024828778E+02  0.76017240747E+02  0.14857573634E+03  0.10160378834E+03 0.  0.
         23    2    1    2    0    0  0.13213572139E+03 -0.12591190712E+03 -0.17369747816E+03  0.26781214776E+03  0.90768250750E+02 0.  0.
        -11    1    4    4    0    0  0.83626136778E+02 -0.99085417979E+02 -0.63313077735E+02  0.14429066713E+03  0.00000000000E+00 0.  1.
         11    1    4    4    0    0  0.48509584615E+02 -0.26826489145E+02 -0.11038440043E+03  0.12352148063E+03  0.00000000000E+00 0. -1.
        -13    1    3    3    0    0 -0.53736689764E+02  0.37892000557E+02  0.45337695626E+02  0.79868280172E+02  0.00000000000E+00 0. -1.
         13    1    3    3    0    0  0.47414151892E+02  0.39132828221E+02  0.30679545122E+02  0.68707456168E+02  0.00000000000E+00 0.  1.
         -1    1    1    2    0  502 -0.12581318352E+03  0.48887078346E+02  0.46155260208E+03  0.48088429800E+03  0.00000000000E+00 0.  1.
<scales pt_clust_5="13000.00000" pt_clust_6="13000.00000" pt_clust_7="13000.00000" pt_clust_8="13000.00000" pt_clust_9="13000.00000"></scales>
<clustering>
<clus scale="   90.768">  5  6 -1 -1</clus>
<clus scale="  101.604">  7  8 -1 -1</clus>
<clus scale="  127.656">  2  7  1 -1</clus>
<clus scale="  136.426">  5  9 -1 -1</clus>
<clus scale="  691.148">  1  5  2 -1</clus>
</clustering>
</event>
<event>
 9    1  0.6399313E-006  0.2314271E+03  0.7546771E-02  0.1150636E+00
          2   -1    0    0  502    0 -0.00000000000E+00  0.00000000000E+00  0.34789168891E+03  0.34789168891E+03  0.00000000000E+00 0. -1.
         21   -1    0    0  501  502  0.00000000000E+00 -0.00000000000E+00 -0.11884233902E+03  0.11884233902E+03  0.00000000000E+00 0. -1.
         23    2    1    2    0    0  0.85243648534E+02 -0.17361436881E+02 -0.18654665010E+02  0.12774172450E+03  0.91662710770E+02 0.  0.
         23    2    1    2    0    0 -0.64413201429E+02 -0.31035821124E+02  0.26036843922E+03  0.28480199292E+03  0.90598942163E+02 0.  0.
        -11    1    3    3    0    0  0.63255911358E+02 -0.53959287916E+02 -0.17853619635E+02  0.85039207476E+02  0.00000000000E+00 0. -1.
         11    1    3    3    0    0  0.21987737176E+02  0.36597851035E+02 -0.80104537494E+00  0.42702517024E+02  0.00000000000E+00 0.  1.
        -13    1    4    4    0    0 -0.32537413613E+02  0.35347432463E+01  0.16900934067E+02  0.36835027715E+02  0.00000000000E+00 0.  1.
         13    1    4    4    0    0 -0.31875787815E+02 -0.34570564370E+02  0.24346750515E+03  0.24796696521E+03  0.00000000000E+00 0. -1.
          2    1    1    2  501    0 -0.20830447106E+02  0.48397258005E+02 -0.12664424319E+02  0.54190310503E+02  0.00000000000E+00 0. -1.
<scales pt_clust_5="13000.00000" pt_clust_6="13000.00000" pt_clust_7="13000.00000" pt_clust_8="13000.00000" pt_clust_9="13000.00000"></scales>
<clustering>
<clus scale="   90.599">  7  8 -1 -1</clus>
<clus scale="   52.690">  7  9 -1 -1</clus>
<clus scale="   91.663">  5  6 -1 -1</clus>
<clus scale="  126.372">  1  5  2 -1</clus>
<clus scale="  231.427">  2  5  1 -1</clus>
</clustering>
</event>
<event>
 9    1  0.6399313E-006  0.2676150E+03  0.7546771E-02  0.1128748E+00
          3   -1    0    0  502    0 -0.00000000000E+00  0.00000000000E+00  0.51330374563E+03  0.51330374563E+03  0.00000000000E+00 0. -1.
         21   -1    0    0  501  502  0.00000000000E+00 -0.00000000000E+00 -0.80498187063E+02  0.80498187063E+02  0.00000000000E+00 0. -1.
         23    2    1    2    0    0 -0.64884770331E+02 -0.84032204837E+02  0.15894757960E+03  0.21089724031E+03  0.89117159064E+02 0.  0.
         23    2    1    2    0    0  0.32089616406E+01  0.35703189593E+02  0.28673964603E+03  0.30349728443E+03  0.92768323618E+02 0.  0.
        -13    1    4    4    0    0  0.15640388111E+02  0.65294982316E+02  0.18446169642E+03  0.19630123256E+03  0.00000000000E+00 0.  1.
         13    1    4    4    0    0 -0.12431426471E+02 -0.29591792724E+02  0.10227794961E+03  0.10719605187E+03  0.00000000000E+00 0. -1.
        -13    1    3    3    0    0 -0.17226507805E+02  0.10549750911E+02  0.36952463340E+00  0.20203622544E+02  0.00000000000E+00 0.  1.
         13    1    3    3    0    0 -0.47658262526E+02 -0.94581955748E+02  0.15857805497E+03  0.19069361777E+03  0.00000000000E+00 0. -1.
          3    1    1    2  501    0  0.61675808691E+02  0.48329015244E+02 -0.12881667061E+02  0.79407407957E+02  0.00000000000E+00 0. -1.
<scales pt_clust_5="13000.00000" pt_clust_6="13000.00000" pt_clust_7="13000.00000" pt_clust_8="13000.00000" pt_clust_9="13000.00000"></scales>
<clustering>
<clus scale="   89.117">  7  8 -1 -1</clus>
<clus scale="   92.768">  5  6 -1 -1</clus>
<clus scale="   78.356">  5  9 -1 -1</clus>
<clus scale="  138.612">  1  7  2 -1</clus>
<clus scale="  267.615">  2  5  1 -1</clus>
</clustering>
</event>
<event>
 9    1  0.6399313E-006  0.6614176E+03  0.7546771E-02  0.1043035E+00
         21   -1    0    0  501  502  0.00000000000E+00  0.00000000000E+00  0.22599935639E+03  0.22599935639E+03  0.00000000000E+00 0. -1.
          1   -1    0    0  502    0 -0.00000000000E+00 -0.00000000000E+00 -0.98631775894E+03  0.98631775894E+03  0.00000000000E+00 0. -1.
         23    2    1    2    0    0  0.12278279235E+02  0.18835867233E+01 -0.48921214926E+03  0.49749414945E+03  0.89541039296E+02 0.  0.
         23    2    1    2    0    0 -0.91471756110E+02 -0.17639548688E+03 -0.41901619552E+03  0.47274165499E+03  0.91802234718E+02 0.  0.
        -11    1    4    4    0    0 -0.44673799487E+02 -0.98895814438E+02 -0.32314669006E+03  0.34088108450E+03  0.00000000000E+00 0. -1.
         11    1    4    4    0    0 -0.46797956623E+02 -0.77499672443E+02 -0.95869505453E+02  0.13186057049E+03  0.00000000000E+00 0.  1.
        -13    1    3    3    0    0  0.48936416332E+02  0.14964021672E+02 -0.29782165979E+03  0.30218609470E+03  0.00000000000E+00 0. -1.
         13    1    3    3    0    0 -0.36658137096E+02 -0.13080434948E+02 -0.19139048946E+03  0.19530805475E+03  0.00000000000E+00 0.  1.
          1    1    1    2  501    0  0.79193476875E+02  0.17451190016E+03  0.14790994222E+03  0.24208131090E+03  0.00000000000E+00 0. -1.
<scales pt_clust_5="13000.00000" pt_clust_6="13000.00000" pt_clust_7="13000.00000" pt_clust_8="13000.00000" pt_clust_9="13000.00000"></scales>
<clustering>
<clus scale="   89.541">  7  8 -1 -1</clus>
<clus scale="   90.399">  2  7  1 -1</clus>
<clus scale="   91.802">  5  6 -1 -1</clus>
<clus scale="  192.291">  5  9 -1 -1</clus>
<clus scale="  661.418">  1  5  2 -1</clus>
</clustering>
</event>
<event>
 9    1  0.6399313E-006  0.2325397E+03  0.7546771E-02  0.1160977E+00
         21   -1    0    0  501  502  0.00000000000E+00  0.00000000000E+00  0.18206036647E+03  0.18206036647E+03  0.00000000000E+00 0. -1.
          2   -1    0    0  502    0 -0.00000000000E+00 -0.00000000000E+00 -0.24442549811E+03  0.24442549811E+03  0.00000000000E+00 0. -1.
         23    2    1    2    0    0  0.18743536041E-01  0.34352836986E+02 -0.14911320428E+03  0.17829252508E+03  0.91506060182E+02 0.  0.
         23    2    1    2    0    0  0.24707961184E+02  0.30239825706E+02 -0.33717489102E+02  0.10928483160E+03  0.96339892780E+02 0.  0.
        -11    1    4    4    0    0 -0.17537744635E+02 -0.26206081975E+02 -0.20336605569E+02  0.37522110088E+02  0.00000000000E+00 0.  1.
         11    1    4    4    0    0  0.42245705819E+02  0.56445907681E+02 -0.13380883533E+02  0.71762721508E+02  0.00000000000E+00 0. -1.
        -13    1    3    3    0    0 -0.41301747172E+02  0.29428907088E+02 -0.51980568016E+02  0.72621445476E+02  0.00000000000E+00 0.  1.
         13    1    3    3    0    0  0.41320490708E+02  0.49239298978E+01 -0.97132636263E+02  0.10567107961E+03  0.00000000000E+00 0. -1.
          2    1    1    2  501    0 -0.24726704720E+02 -0.64592662692E+02  0.12046556175E+03  0.13890850790E+03  0.00000000000E+00 0. -1.
<scales pt_clust_5="13000.00000" pt_clust_6="13000.00000" pt_clust_7="13000.00000" pt_clust_8="13000.00000" pt_clust_9="13000.00000"></scales>
<clustering>
<clus scale="   91.506">  7  8 -1 -1</clus>
<clus scale="   96.340">  5  6 -1 -1</clus>
<clus scale="   69.164">  5  9 -1 -1</clus>
<clus scale="   97.742">  2  7  1 -1</clus>
<clus scale="  232.540">  1  5  2 -1</clus>
</clustering>
</event>
<event>
 9    1  0.6399313E-006  0.1883344E+03  0.7546771E-02  0.1183879E+00
         21   -1    0    0  501  502  0.00000000000E+00  0.00000000000E+00  0.27951373948E+03  0.27951373948E+03  0.00000000000E+00 0. -1.
          2   -1    0    0  502    0 -0.00000000000E+00 -0.00000000000E+00 -0.19469293897E+03  0.19469293897E+03  0.00000000000E+00 0. -1.
         23    2    1    2    0    0 -0.50517967408E+02 -0.96594722256E+01 -0.14216448637E+03  0.17926234808E+03  0.96326931951E+02 0.  0.
         23    2    1    2    0    0  0.29085133688E+01 -0.41837204199E+01  0.43587062041E+02  0.10496221813E+03  0.95348163542E+02 0.  0.
        -11    1    3    3    0    0  0.39282293651E+01 -0.43841495539E+02 -0.69244037340E+02  0.82050255479E+02  0.00000000000E+00 0. -1.
         11    1    3    3    0    0 -0.54446196773E+02  0.34182023314E+02 -0.72920449034E+02  0.97212092603E+02  0.00000000000E+00 0.  1.
        -13    1    4    4    0    0 -0.25553025498E+02  0.34448373169E+02  0.36772122875E+02  0.56496341004E+02  0.00000000000E+00 0.  1.
         13    1    4    4    0    0  0.28461538867E+02 -0.38632093589E+02  0.68149391659E+01  0.48465877126E+02  0.00000000000E+00 0. -1.
          2    1    1    2  501    0  0.47609454039E+02  0.13843192646E+02  0.18339822484E+03  0.18998211224E+03  0.00000000000E+00 0. -1.
<scales pt_clust_5="13000.00000" pt_clust_6="13000.00000" pt_clust_7="13000.00000" pt_clust_8="13000.00000" pt_clust_9="13000.00000"></scales>
<clustering>
<clus scale="   95.348">  7  8 -1 -1</clus>
<clus scale="   49.581">  7  9 -1 -1</clus>
<clus scale="   96.327">  5  6 -1 -1</clus>
<clus scale="  109.198">  2  5  1 -1</clus>
<clus scale="  188.334">  1  5  2 -1</clus>
</clustering>
</event>
<event>
 9    1  0.6399313E-006  0.2509071E+03  0.7546771E-02  0.1129810E+00
         21   -1    0    0  501  502  0.00000000000E+00  0.00000000000E+00  0.17360454556E+03  0.17360454556E+03  0.00000000000E+00 0.  1.
          1   -1    0    0  502    0 -0.00000000000E+00 -0.00000000000E+00 -0.39354729331E+03  0.39354729331E+03  0.00000000000E+00 0. -1.
         23    2    1    2    0    0  0.11363807191E+03 -0.73334648415E+02 -0.26564732130E+03  0.31211599197E+03  0.92500330176E+02 0.  0.
         23    2    1    2    0    0 -0.14882456814E+02  0.86878507569E+02 -0.24358985810E+02  0.13319574684E+03  0.96842057948E+02 0.  0.
        -11    1    3    3    0    0  0.39651592379E+02 -0.79579754647E+02 -0.15893424265E+03  0.18211337022E+03  0.00000000000E+00 0.  1.
         11    1    3    3    0    0  0.73986479530E+02  0.62451062321E+01 -0.10671307866E+03  0.13000262175E+03  0.00000000000E+00 0. -1.
        -11    1    4    4    0    0  0.22743493488E+02 -0.94065692851E+01 -0.16271014421E+02  0.29504168384E+02  0.00000000000E+00 0. -1.
         11    1    4    4    0    0 -0.37625950302E+02  0.96285076854E+02 -0.80879713890E+01  0.10369157845E+03  0.00000000000E+00 0.  1.
          1    1    1    2  501    0 -0.98755615094E+02 -0.13543859154E+02  0.70063559354E+02  0.12184010006E+03  0.00000000000E+00 0. -1.
<scales pt_clust_5="13000.00000" pt_clust_6="13000.00000" pt_clust_7="13000.00000" pt_clust_8="13000.00000" pt_clust_9="13000.00000"></scales>
<clustering>
<clus scale="   92.500">  5  6 -1 -1</clus>
<clus scale="   96.842">  7  8 -1 -1</clus>
<clus scale="   99.680">  7  9 -1 -1</clus>
<clus scale="  163.853">  2  5  1 -1</clus>
<clus scale="  250.907">  1  5  2 -1</clus>
</clustering>
</event>
<event>
 9    1  0.6399313E-006  0.1449118E+03  0.7546771E-02  0.1225693E+00
         21   -1    0    0  501  502  0.00000000000E+00  0.00000000000E+00  0.25459539556E+03  0.25459539556E+03  0.00000000000E+00 0.  1.
          2   -1    0    0  502    0 -0.00000000000E+00 -0.00000000000E+00 -0.66070020554E+02  0.66070020554E+02  0.00000000000E+00 0. -1.
         23    2    1    2    0    0  0.28388524684E+02 -0.49477492491E+01  0.21802068270E+02  0.99767073064E+02  0.92993280029E+02 0.  0.
         23    2    1    2    0    0 -0.39623327302E+02  0.34767319936E+02  0.92672193341E+02  0.14028199867E+03  0.91170878743E+02 0.  0.
        -11    1    4    4    0    0 -0.36486864662E+02  0.58726423262E+01  0.10300614089E+03  0.10943511449E+03  0.00000000000E+00 0.  1.
         11    1    4    4    0    0 -0.31364626401E+01  0.28894677609E+02 -0.10333947552E+02  0.30846884187E+02  0.00000000000E+00 0. -1.
        -13    1    3    3    0    0  0.57228465337E+02 -0.21595953712E+01 -0.84369292943E+01  0.57887329122E+02  0.00000000000E+00 0. -1.
         13    1    3    3    0    0 -0.28839940653E+02 -0.27881538779E+01  0.30238997565E+02  0.41879743942E+02  0.00000000000E+00 0.  1.
          2    1    1    2  501    0  0.11234802618E+02 -0.29819570686E+02  0.74051113394E+02  0.80616344377E+02  0.00000000000E+00 0. -1.
<scales pt_clust_5="13000.00000" pt_clust_6="13000.00000" pt_clust_7="13000.00000" pt_clust_8="13000.00000" pt_clust_9="13000.00000"></scales>
<clustering>
<clus scale="   91.171">  5  6 -1 -1</clus>
<clus scale="   31.866">  5  9 -1 -1</clus>
<clus scale="   92.993">  7  8 -1 -1</clus>
<clus scale="   97.356">  2  7  1 -1</clus>
<clus scale="  144.912">  1  5  2 -1</clus>
</clustering>
</event>
<event>
 9    1  0.6399313E-006  0.4436325E+03  0.7546771E-02  0.1080911E+00
          1   -1    0    0  502    0 -0.00000000000E+00  0.00000000000E+00  0.27710211688E+03  0.27710211688E+03  0.00000000000E+00 0. -1.
         21   -1    0    0  501  502  0.00000000000E+00 -0.00000000000E+00 -0.58726260318E+03  0.58726260318E+03  0.00000000000E+00 0.  1.
         23    2    1    2    0    0 -0.30647352295E+02  0.44076397837E+02  0.17705813934E+03  0.20543243397E+03  0.89279959529E+02 0.  0.
         23    2    1    2    0    0  0.21554143134E+03  0.16705848972E+02 -0.34748887232E+03  0.41933949414E+03  0.91432493941E+02 0.  0.
        -13    1    3    3    0    0 -0.31566486206E+02 -0.13537998168E+02  0.11809751314E+03  0.12299082509E+03  0.00000000000E+00 0. -1.
         13    1    3    3    0    0  0.91913391140E+00  0.57614396005E+02  0.58960626199E+02  0.82441608888E+02  0.00000000000E+00 0.  1.
        -13    1    4    4    0    0  0.19327368436E+03  0.39395825164E+02 -0.26070354457E+03  0.32691449381E+03  0.00000000000E+00 0.  1.
         13    1    4    4    0    0  0.22267746972E+02 -0.22689976191E+02 -0.86785327744E+02  0.92425000332E+02  0.00000000000E+00 0. -1.
          1    1    1    2  501    0 -0.18489407904E+03 -0.60782246809E+02 -0.13972975332E+03  0.23959279195E+03  0.00000000000E+00 0. -1.
<scales pt_clust_5="13000.00000" pt_clust_6="13000.00000" pt_clust_7="13000.00000" pt_clust_8="13000.00000" pt_clust_9="13000.00000"></scales>
<clustering>
<clus scale="   89.280">  5  6 -1 -1</clus>
<clus scale="   91.432">  7  8 -1 -1</clus>
<clus scale="  104.177">  1  5  2 -1</clus>
<clus scale="  205.742">  7  9 -1 -1</clus>
<clus scale="  443.632">  2  5  1 -1</clus>
</clustering>
</event>
<event>
 9    1  0.6399313E-006  0.2168039E+03  0.7546771E-02  0.1156791E+00
         -4   -1    0    0    0  501 -0.00000000000E+00  0.00000000000E+00  0.93838272766E+02  0.93838272766E+02  0.00000000000E+00 0.  1.
         21   -1    0    0  501  502  0.00000000000E+00 -0.00000000000E+00 -0.51227645333E+03  0.51227645333E+03  0.00000000000E+00 0.  1.
         23    2    1    2    0    0  0.16196641351E+02  0.98270491807E+02  0.20874688839E+01  0.13299131474E+03  0.88107386294E+02 0.  0.
         23    2    1    2    0    0 -0.48046018810E+01  0.16124021919E+02 -0.12274477547E+03  0.15392232701E+03  0.91338571082E+02 0.  0.
        -11    1    4    4    0    0 -0.41823548635E+02 -0.26571021992E+01 -0.95442357033E+02  0.10423777112E+03  0.00000000000E+00 0. -1.
         11    1    4    4    0    0  0.37018946754E+02  0.18781124118E+02 -0.27302418433E+02  0.49684555892E+02  0.00000000000E+00 0.  1.
        -13    1    3    3    0    0 -0.86010750367E+01  0.56134296565E+02  0.41380973357E+02  0.70266796559E+02  0.00000000000E+00 0.  1.
         13    1    3    3    0    0  0.24797716388E+02  0.42136195242E+02 -0.39293504474E+02  0.62724518183E+02  0.00000000000E+00 0. -1.
         -4    1    1    2    0  502 -0.11392039470E+02 -0.11439451373E+03 -0.29778087399E+03  0.31920108434E+03  0.00000000000E+00 0.  1.
<scales pt_clust_5="13000.00000" pt_clust_6="13000.00000" pt_clust_7="13000.00000" pt_clust_8="13000.00000" pt_clust_9="13000.00000"></scales>
<clustering>
<clus scale="   88.107">  7  8 -1 -1</clus>
<clus scale="   91.339">  5  6 -1 -1</clus>
<clus scale="  114.960">  5  9 -1 -1</clus>
<clus scale="  132.975">  1  7  2 -1</clus>
<clus scale="  216.804">  2  5  1 -1</clus>
</clustering>
</event>
<event>
 9    1  0.6399313E-006  0.2304740E+03  0.7546771E-02  0.1161482E+00
         21   -1    0    0  501  502  0.00000000000E+00  0.00000000000E+00  0.17717747347E+03  0.17717747347E+03  0.00000000000E+00 0. -1.
         -3   -1    0    0    0  501 -0.00000000000E+00 -0.00000000000E+00 -0.15408432304E+03  0.15408432304E+03  0.00000000000E+00 0.  1.
         23    2    1    2    0    0  0.41604920364E+02 -0.35695438101E+01  0.17272157990E+02  0.10071424941E+03  0.90007341653E+02 0.  0.
         23    2    1    2    0    0 -0.15191172581E+01 -0.25579835273E+01 -0.88408859788E+02  0.12796254208E+03  0.92463153149E+02 0.  0.
        -11    1    4    4    0    0 -0.11137651955E+02 -0.42192336672E+02 -0.71599807819E+02  0.83849705095E+02  0.00000000000E+00 0. -1.
         11    1    4    4    0    0  0.96185346964E+01  0.39634353145E+02 -0.16809051969E+02  0.44112836987E+02  0.00000000000E+00 0.  1.
        -13    1    3    3    0    0  0.22441774322E+02  0.42663455732E+02  0.14575139252E+01  0.48227876135E+02  0.00000000000E+00 0.  1.
         13    1    3    3    0    0  0.19163146042E+02 -0.46232999542E+02  0.15814644065E+02  0.52486373277E+02  0.00000000000E+00 0. -1.
         -3    1    1    2    0  502 -0.40085803106E+02  0.61275273374E+01  0.94229852235E+02  0.10258500502E+03  0.00000000000E+00 0.  1.
<scales pt_clust_5="13000.00000" pt_clust_6="13000.00000" pt_clust_7="13000.00000" pt_clust_8="13000.00000" pt_clust_9="13000.00000"></scales>
<clustering>
<clus scale="   90.007">  7  8 -1 -1</clus>
<clus scale="   92.463">  5  6 -1 -1</clus>
<clus scale="   40.551">  5  9 -1 -1</clus>
<clus scale="   99.222">  2  7  1 -1</clus>
<clus scale="  230.474">  1  5  2 -1</clus>
</clustering>
</event>
<event>
 9    1  0.6399313E-006  0.4995181E+03  0.7546771E-02  0.1053234E+00
         21   -1    0    0  501  502  0.00000000000E+00  0.00000000000E+00  0.10093978738E+03  0.10093978738E+03  0.00000000000E+00 0.  1.
          2   -1    0    0  502    0 -0.00000000000E+00 -0.00000000000E+00 -0.11015994624E+04  0.11015994624E+04  0.00000000000E+00 0. -1.
         23    2    1    2    0    0  0.92623641822E+02 -0.91644723911E+02 -0.33926180819E+03  0.37370543412E+03  0.87059075062E+02 0.  0.
         23    2    1    2    0    0 -0.23247589401E+03  0.18943281242E+03 -0.37542369964E+03  0.49581371567E+03  0.12230476146E+03 0.  0.
        -13    1    3    3    0    0  0.57270180687E+02 -0.27482493348E+01 -0.89965648355E+02  0.10668291501E+03  0.00000000000E+00 0.  1.
         13    1    3    3    0    0  0.35353461135E+02 -0.88896474576E+02 -0.24929615983E+03  0.26702251911E+03  0.00000000000E+00 0. -1.
        -13    1    4    4    0    0 -0.16384329516E+03  0.15832591983E+03 -0.34733577565E+03  0.41539603188E+03  0.00000000000E+00 0.  1.
         13    1    4    4    0    0 -0.68632598849E+02  0.31106892592E+02 -0.28087923995E+02  0.80417683788E+02  0.00000000000E+00 0. -1.
          2    1    1    2  501    0  0.13985225219E+03 -0.97788088510E+02 -0.28597416724E+03  0.33302010003E+03  0.00000000000E+00 0. -1.
<scales pt_clust_5="13000.00000" pt_clust_6="13000.00000" pt_clust_7="13000.00000" pt_clust_8="13000.00000" pt_clust_9="13000.00000"></scales>
<clustering>
<clus scale="   87.059">  5  6 -1 -1</clus>
<clus scale="  122.305">  7  8 -1 -1</clus>
<clus scale="  156.707">  2  5  1 -1</clus>
<clus scale="  224.179">  7  9 -1 -1</clus>
<clus scale="  499.518">  1  5  2 -1</clus>
</clustering>
</event>
<event>
 9    1  0.6399313E-006  0.1541147E+03  0.7546771E-02  0.1218398E+00
         -1   -1    0    0    0  501 -0.00000000000E+00  0.00000000000E+00  0.19439494408E+03  0.19439494408E+03  0.00000000000E+00 0.  1.
         21   -1    0    0  501  502  0.00000000000E+00 -0.00000000000E+00 -0.79398824032E+02  0.79398824032E+02  0.00000000000E+00 0.  1.
         23    2    1    2    0    0 -0.24148857196E+02  0.16694411394E+01  0.40374281727E+02  0.10256362662E+03  0.91122228592E+02 0.  0.
         23    2    1    2    0    0 -0.87498425716E+01  0.18754971997E+02 -0.10929794189E+02  0.77322937700E+02  0.73695777178E+02 0.  0.
        -11    1    4    4    0    0 -0.36109019861E+02  0.20191868686E+02 -0.23056526262E+02  0.47362181956E+02  0.00000000000E+00 0.  1.
         11    1    4    4    0    0  0.27359177289E+02 -0.14368966897E+01  0.12126732072E+02  0.29960755744E+02  0.00000000000E+00 0. -1.
        -13    1    3    3    0    0  0.26640526491E+02  0.49304444798E+01 -0.11913377504E+02  0.29596545374E+02  0.00000000000E+00 0.  1.
         13    1    3    3    0    0 -0.50789383687E+02 -0.32610033405E+01  0.52287659231E+02  0.72967081249E+02  0.00000000000E+00 0. -1.
         -1    1    1    2    0  502  0.32898699767E+02 -0.20424413136E+02  0.85551632509E+02  0.93907203788E+02  0.00000000000E+00 0.  1.
<scales pt_clust_5="13000.00000" pt_clust_6="13000.00000" pt_clust_7="13000.00000" pt_clust_8="13000.00000" pt_clust_9="13000.00000"></scales>
<clustering>
<clus scale="   73.696">  5  6 -1 -1</clus>
<clus scale="   38.723">  5  9 -1 -1</clus>
<clus scale="   91.122">  7  8 -1 -1</clus>
<clus scale="   94.283">  1  7  2 -1</clus>
<clus scale="  154.115">  2  5  1 -1</clus>
</clustering>
</event>
<event>
 9    1  0.6399313E-006  0.3466870E+03  0.7546771E-02  0.1098597E+00
          1   -1    0    0  502    0 -0.00000000000E+00  0.00000000000E+00  0.65875438294E+03  0.65875438294E+03  0.00000000000E+00 0. -1.
         21   -1    0    0  501  502  0.00000000000E+00 -0.00000000000E+00 -0.88688176264E+02  0.88688176264E+02  0.00000000000E+00 0. -1.
         23    2    1    2    0    0  0.77631958515E+02  0.65947073917E+02  0.16086264620E+03  0.21112231741E+03  0.91214606425E+02 0.  0.
         23    2    1    2    0    0  0.67017510954E+02  0.10420112552E+02  0.34036504392E+03  0.35885430831E+03  0.91258566422E+02 0.  0.
        -11    1    3    3    0    0  0.19540337577E+02  0.59513152481E+02  0.13162674572E+03  0.14577119159E+03  0.00000000000E+00 0.  1.
         11    1    3    3    0    0  0.58091620938E+02  0.64339214359E+01  0.29235900480E+02  0.65351125814E+02  0.00000000000E+00 0. -1.
        -13    1    4    4    0    0  0.88715702451E+02  0.17567230266E+02  0.28334543642E+03  0.29742851205E+03  0.00000000000E+00 0. -1.
         13    1    4    4    0    0 -0.21698191497E+02 -0.71471177144E+01  0.57019607501E+02  0.61425796254E+02  0.00000000000E+00 0.  1.
          1    1    1    2  501    0 -0.14464946947E+03 -0.76367186468E+02  0.68838516552E+02  0.17746593349E+03  0.00000000000E+00 0. -1.
<scales pt_clust_5="13000.00000" pt_clust_6="13000.00000" pt_clust_7="13000.00000" pt_clust_8="13000.00000" pt_clust_9="13000.00000"></scales>
<clustering>
<clus scale="   91.215">  5  6 -1 -1</clus>
<clus scale="   91.259">  7  8 -1 -1</clus>
<clus scale="  136.733">  1  5  2 -1</clus>
<clus scale="  137.787">  7  9 -1 -1</clus>
<clus scale="  346.687">  2  5  1 -1</clus>
</clustering>
</event>
<event>
 9    1  0.6399313E-006  0.1372401E+03  0.7546771E-02  0.1235144E+00
         21   -1    0    0  501  502  0.00000000000E+00  0.00000000000E+00  0.25156275360E+02  0.25156275360E+02  0.00000000000E+00 0. -1.
          1   -1    0    0  502    0 -0.00000000000E+00 -0.00000000000E+00 -0.53358208668E+03  0.53358208668E+03  0.00000000000E+00 0. -1.
         23    2    1    2    0    0 -0.20570637883E+02  0.13415689504E+01 -0.19662733264E+03  0.21807264943E+03  0.92024026965E+02 0.  0.
         23    2    1    2    0    0  0.47455608483E+02  0.16844242190E+02 -0.23896816074E+03  0.26093002058E+03  0.91885420631E+02 0.  0.
        -11    1    3    3    0    0  0.12688752701E+01 -0.28327797090E+02 -0.17066079110E+03  0.17300051951E+03  0.00000000000E+00 0.  1.
         11    1    3    3    0    0 -0.21839513153E+02  0.29669366040E+02 -0.25966541541E+02  0.45072129921E+02  0.00000000000E+00 0. -1.
        -11    1    4    4    0    0 -0.12791663097E+02  0.33807445903E+02 -0.48816395432E+02  0.60742164155E+02  0.00000000000E+00 0.  1.
         11    1    4    4    0    0  0.60247271580E+02 -0.16963203713E+02 -0.19015176530E+03  0.20018785643E+03  0.00000000000E+00 0. -1.
          1    1    1    2  501    0 -0.26884970600E+02 -0.18185811140E+02 -0.72830317946E+02  0.79735692028E+02  0.00000000000E+00 0. -1.
<scales pt_clust_5="13000.00000" pt_clust_6="13000.00000" pt_clust_7="13000.00000" pt_clust_8="13000.00000" pt_clust_9="13000.00000"></scales>
<clustering>
<clus scale="   91.885">  7  8 -1 -1</clus>
<clus scale="   32.458">  7  9 -1 -1</clus>
<clus scale="   92.024">  5  6 -1 -1</clus>
<clus scale="   94.305">  2  5  1 -1</clus>
<clus scale="  137.240">  1  5  2 -1</clus>
</clustering>
</event>
<event>
 9    1  0.6399313E-006  0.1755482E+03  0.7546771E-02  0.1195695E+00
         21   -1    0    0  501  502  0.00000000000E+00  0.00000000000E+00  0.96912400667E+03  0.96912400667E+03  0.00000000000E+00 0. -1.
          3   -1    0    0  502    0 -0.00000000000E+00 -0.00000000000E+00 -0.21944464288E+02  0.21944464288E+02  0.00000000000E+00 0. -1.
         23    2    1    2    0    0  0.46270789903E+02 -0.21114699071E+02  0.22421073969E+03  0.24709195731E+03  0.90538185636E+02 0.  0.
         23    2    1    2    0    0  0.12964652189E+02  0.42052787886E+02  0.35623150960E+03  0.37189657156E+03  0.97312138658E+02 0.  0.
        -11    1    4    4    0    0  0.16840865118E+02 -0.30081350629E+02  0.12219801742E+03  0.12696794026E+03  0.00000000000E+00 0. -1.
         11    1    4    4    0    0 -0.38762129285E+01  0.72134138515E+02  0.23403349219E+03  0.24492863130E+03  0.00000000000E+00 0.  1.
        -13    1    3    3    0    0  0.24748015492E+02 -0.49332246778E+02  0.71565915834E+02  0.90375965567E+02  0.00000000000E+00 0. -1.
         13    1    3    3    0    0  0.21522774411E+02  0.28217547707E+02  0.15264482386E+03  0.15671599174E+03  0.00000000000E+00 0.  1.
          3    1    1    2  501    0 -0.59235442092E+02 -0.20938088815E+02  0.36673729308E+03  0.37207994209E+03  0.00000000000E+00 0. -1.
<scales pt_clust_5="13000.00000" pt_clust_6="13000.00000" pt_clust_7="13000.00000" pt_clust_8="13000.00000" pt_clust_9="13000.00000"></scales>
<clustering>
<clus scale="   90.538">  7  8 -1 -1</clus>
<clus scale="   97.312">  5  6 -1 -1</clus>
<clus scale="   62.827">  5  9 -1 -1</clus>
<clus scale="  103.846">  2  7  1 -1</clus>
<clus scale="  175.548">  1  5  2 -1</clus>
</clustering>
</event>
<event>
 9    1  0.6399313E-006  0.1626720E+03  0.7546771E-02  0.1207073E+00
         21   -1    0    0  501  502  0.00000000000E+00  0.00000000000E+00  0.25305391951E+02  0.25305391951E+02  0.00000000000E+00 0. -1.
          1   -1    0    0  502    0 -0.00000000000E+00 -0.00000000000E+00 -0.75164012650E+03  0.75164012650E+03  0.00000000000E+00 0.  1.
         23    2    1    2    0    0 -0.27294415962E+02 -0.36250086977E+02 -0.17978157704E+03  0.20669774500E+03  0.91342697557E+02 0.  0.
         23    2    1    2    0    0  0.54387796406E+02 -0.90538890371E+01 -0.32098106280E+03  0.33858148022E+03  0.92566574792E+02 0.  0.
        -13    1    3    3    0    0  0.82310430096E+01 -0.27383592102E+02 -0.61504174318E+01  0.29247885735E+02  0.00000000000E+00 0. -1.
         13    1    3    3    0    0 -0.35525458972E+02 -0.88664948750E+01 -0.17363115960E+03  0.17744985926E+03  0.00000000000E+00 0.  1.
        -13    1    4    4    0    0 -0.13965513430E+02 -0.25000763075E+02 -0.41499355767E+02  0.50420930662E+02  0.00000000000E+00 0.  1.
         13    1    4    4    0    0  0.68353309836E+02  0.15946874038E+02 -0.27948170703E+03  0.28816054956E+03  0.00000000000E+00 0. -1.
          1    1    1    2  501    0 -0.27093380444E+02  0.45303976014E+02 -0.22557209471E+03  0.23166629323E+03  0.00000000000E+00 0.  1.
<scales pt_clust_5="13000.00000" pt_clust_6="13000.00000" pt_clust_7="13000.00000" pt_clust_8="13000.00000" pt_clust_9="13000.00000"></scales>
<clustering>
<clus scale="   91.343">  5  6 -1 -1</clus>
<clus scale="   92.567">  7  8 -1 -1</clus>
<clus scale="   52.787">  7  9 -1 -1</clus>
<clus scale="  101.993">  2  5  1 -1</clus>
<clus scale="  162.672">  1  5  2 -1</clus>
</clustering>
</event>
<event>
 9    1  0.6399313E-006  0.2115519E+03  0.7546771E-02  0.1149108E+00
          2   -1    0    0  502    0 -0.00000000000E+00  0.00000000000E+00  0.10250375600E+04  0.10250375600E+04  0.00000000000E+00 0. -1.
         21   -1    0    0  501  502  0.00000000000E+00 -0.00000000000E+00 -0.36563886533E+02  0.36563886533E+02  0.00000000000E+00 0. -1.
         23    2    1    2    0    0  0.92927047362E+01 -0.14541117165E+03  0.52032476363E+03  0.54787233234E+03  0.90528833536E+02 0.  0.
         23    2    1    2    0    0 -0.49120690105E+02  0.51061508890E+02  0.26058631947E+03  0.28227640585E+03  0.82186492284E+02 0.  0.
        -13    1    4    4    0    0 -0.54249956465E+02  0.25075533014E+02  0.24356766986E+03  0.25079284267E+03  0.00000000000E+00 0. -1.
         13    1    4    4    0    0  0.51292663593E+01  0.25985975876E+02  0.17018649609E+02  0.31483563174E+02  0.00000000000E+00 0.  1.
        -13    1    3    3    0    0  0.36237340266E+02 -0.28508508158E+02  0.89798431474E+02  0.10094373761E+03  0.00000000000E+00 0.  1.
         13    1    3    3    0    0 -0.26944635530E+02 -0.11690266349E+03  0.43052633215E+03  0.44692859473E+03  0.00000000000E+00 0. -1.
          2    1    1    2  501    0  0.39827985369E+02  0.94349662763E+02  0.20756259040E+03  0.23145270838E+03  0.00000000000E+00 0. -1.
<scales pt_clust_5="13000.00000" pt_clust_6="13000.00000" pt_clust_7="13000.00000" pt_clust_8="13000.00000" pt_clust_9="13000.00000"></scales>
<clustering>
<clus scale="   82.186">  5  6 -1 -1</clus>
<clus scale="   90.529">  7  8 -1 -1</clus>
<clus scale="  102.412">  5  9 -1 -1</clus>
<clus scale="  171.541">  1  7  2 -1</clus>
<clus scale="  211.552">  2  5  1 -1</clus>
</clustering>
</event>
<event>
 9    1  0.6399313E-006  0.1617906E+03  0.7546771E-02  0.1206384E+00
         21   -1    0    0  501  502  0.00000000000E+00  0.00000000000E+00  0.72632863158E+02  0.72632863158E+02  0.00000000000E+00 0. -1.
          1   -1    0    0  502    0 -0.00000000000E+00 -0.00000000000E+00 -0.59776447981E+03  0.59776447981E+03  0.00000000000E+00 0. -1.
         23    2    1    2    0    0 -0.53218041124E+02  0.12894546611E+01 -0.49470588027E+03  0.50577077182E+03  0.90754300526E+02 0.  0.
         23    2    1    2    0    0  0.16647713430E+02 -0.22147075040E+02 -0.60670093039E+02  0.11278884064E+03  0.90955060812E+02 0.  0.
        -11    1    3    3    0    0  0.20611433433E+02  0.91829863437E+01 -0.49300940642E+02  0.54219380064E+02  0.00000000000E+00 0.  1.
         11    1    3    3    0    0 -0.73829474557E+02 -0.78935316825E+01 -0.44540493963E+03  0.45155139176E+03  0.00000000000E+00 0. -1.
        -11    1    4    4    0    0 -0.98296636498E+01 -0.53295197388E+02 -0.33942665780E+02  0.63946109439E+02  0.00000000000E+00 0. -1.
         11    1    4    4    0    0  0.26477377080E+02  0.31148122348E+02 -0.26727427259E+02  0.48842731197E+02  0.00000000000E+00 0.  1.
          1    1    1    2  501    0  0.36570327693E+02  0.20857620379E+02  0.30244356652E+02  0.51837730513E+02  0.00000000000E+00 0. -1.
<scales pt_clust_5="13000.00000" pt_clust_6="13000.00000" pt_clust_7="13000.00000" pt_clust_8="13000.00000" pt_clust_9="13000.00000"></scales>
<clustering>
<clus scale="   90.754">  5  6 -1 -1</clus>
<clus scale="   90.955">  7  8 -1 -1</clus>
<clus scale="   42.100">  7  9 -1 -1</clus>
<clus scale="  105.215">  2  5  1 -1</clus>
<clus scale="  161.791">  1  5  2 -1</clus>
</clustering>
</event>
<event>
 9    1  0.6399313E-006  0.2538394E+03  0.7546771E-02  0.1143548E+00
         21   -1    0    0  501  502  0.00000000000E+00  0.00000000000E+00  0.29305884522E+03  0.29305884522E+03  0.00000000000E+00 0.  1.
         -2   -1    0    0    0  501 -0.00000000000E+00 -0.00000000000E+00 -0.15537729722E+03  0.15537729722E+03  0.00000000000E+00 0.  1.
         23    2    1    2    0    0  0.13095946446E+01 -0.68525746622E+02  0.15722979326E+03  0.19384517943E+03  0.90317510550E+02 0.  0.
         23    2    1    2    0    0 -0.83183368413E+02 -0.55927435244E+01 -0.57613446263E+02  0.13777561752E+03  0.93338416703E+02 0.  0.
        -11    1    4    4    0    0 -0.72342949230E+00 -0.34928130606E+02 -0.29860871596E+02  0.45958343207E+02  0.00000000000E+00 0.  1.
         11    1    4    4    0    0 -0.82459938921E+02  0.29335387082E+02 -0.27752574667E+02  0.91817274315E+02  0.00000000000E+00 0. -1.
        -11    1    3    3    0    0 -0.32227729116E+02 -0.46205243860E+02  0.37895263679E+02  0.67894050501E+02  0.00000000000E+00 0.  1.
         11    1    3    3    0    0  0.33537323761E+02 -0.22320502762E+02  0.11933452958E+03  0.12595112893E+03  0.00000000000E+00 0. -1.
         -2    1    1    2    0  502  0.81873773768E+02  0.74118490146E+02  0.38065201011E+02  0.11681534548E+03  0.00000000000E+00 0.  1.
<scales pt_clust_5="13000.00000" pt_clust_6="13000.00000" pt_clust_7="13000.00000" pt_clust_8="13000.00000" pt_clust_9="13000.00000"></scales>
<clustering>
<clus scale="   90.318">  7  8 -1 -1</clus>
<clus scale="   93.338">  5  6 -1 -1</clus>
<clus scale="  110.439">  5  9 -1 -1</clus>
<clus scale="  113.379">  2  7  1 -1</clus>
<clus scale="  253.839">  1  5  2 -1</clus>
</clustering>
</event>
<event>
 9    1  0.6399313E-006  0.3579759E+03  0.7546771E-02  0.1109737E+00
         21   -1    0    0  501  502  0.00000000000E+00  0.00000000000E+00  0.22110404790E+03  0.22110404790E+03  0.00000000000E+00 0. -1.
          1   -1    0    0  502    0 -0.00000000000E+00 -0.00000000000E+00 -0.28272555640E+03  0.28272555640E+03  0.00000000000E+00 0. -1.
         23    2    1    2    0    0  0.20919660268E+02  0.76116928213E+01 -0.10821246495E+03  0.14283450743E+03  0.90532805591E+02 0.  0.
         23    2    1    2    0    0 -0.29230096767E+02 -0.43147784840E+02 -0.13605042852E+03  0.17474324400E+03  0.96484984990E+02 0.  0.
        -13    1    4    4    0    0 -0.77585275119E+01  0.29277833155E+02 -0.20082147162E+02  0.36341146075E+02  0.00000000000E+00 0.  1.
         13    1    4    4    0    0 -0.21471569255E+02 -0.72425617995E+02 -0.11596828136E+03  0.13840209792E+03  0.00000000000E+00 0. -1.
        -13    1    3    3    0    0 -0.32288035046E+02 -0.14397898546E+02 -0.35718992735E+02  0.50255976079E+02  0.00000000000E+00 0. -1.
         13    1    3    3    0    0  0.53207695314E+02  0.22009591367E+02 -0.72493472218E+02  0.92578531350E+02  0.00000000000E+00 0.  1.
          1    1    1    2  501    0  0.83104364993E+01  0.35536092019E+02  0.18264138497E+03  0.18625185286E+03  0.00000000000E+00 0. -1.
<scales pt_clust_5="13000.00000" pt_clust_6="13000.00000" pt_clust_7="13000.00000" pt_clust_8="13000.00000" pt_clust_9="13000.00000"></scales>
<clustering>
<clus scale="   90.533">  7  8 -1 -1</clus>
<clus scale="   93.230">  2  7  1 -1</clus>
<clus scale="   96.485">  5  6 -1 -1</clus>
<clus scale="   36.635">  5  9 -1 -1</clus>
<clus scale="  357.976">  1  5  2 -1</clus>
</clustering>
</event>
<event>
 9    1  0.6399313E-006  0.1459442E+03  0.7546771E-02  0.1227521E+00
         21   -1    0    0  501  502  0.00000000000E+00  0.00000000000E+00  0.31962708946E+03  0.31962708946E+03  0.00000000000E+00 0.  1.
          2   -1    0    0  502    0 -0.00000000000E+00 -0.00000000000E+00 -0.75572889713E+02  0.75572889713E+02  0.00000000000E+00 0. -1.
         23    2    1    2    0    0  0.32437593014E+01  0.66944096057E+01 -0.19620991865E+02  0.93829242952E+02  0.91452755108E+02 0.  0.
         23    2    1    2    0    0  0.28313875888E+01 -0.45468147955E+02  0.15408707115E+03  0.18496684306E+03  0.91621713059E+02 0.  0.
        -11    1    4    4    0    0  0.14206366256E+02 -0.70950501171E+02  0.93218940633E+02  0.11800663266E+03  0.00000000000E+00 0.  1.
         11    1    4    4    0    0 -0.11374978667E+02  0.25482353216E+02  0.60868130514E+02  0.66960210404E+02  0.00000000000E+00 0. -1.
        -13    1    3    3    0    0 -0.93471120231E+01 -0.30452602677E+02  0.20372432698E+02  0.37812240439E+02  0.00000000000E+00 0.  1.
         13    1    3    3    0    0  0.12590871324E+02  0.37147012283E+02 -0.39993424563E+02  0.56017002513E+02  0.00000000000E+00 0. -1.
          2    1    1    2  501    0 -0.60751468901E+01  0.38773738349E+02  0.10958812047E+03  0.11640389316E+03  0.00000000000E+00 0. -1.
<scales pt_clust_5="13000.00000" pt_clust_6="13000.00000" pt_clust_7="13000.00000" pt_clust_8="13000.00000" pt_clust_9="13000.00000"></scales>
<clustering>
<clus scale="   91.453">  7  8 -1 -1</clus>
<clus scale="   91.622">  5  6 -1 -1</clus>
<clus scale="   39.247">  5  9 -1 -1</clus>
<clus scale="   91.755">  2  7  1 -1</clus>
<clus scale="  145.944">  1  5  2 -1</clus>
</clustering>
</event>
<event>
 9    1  0.6399313E-006  0.2460307E+03  0.7546771E-02  0.1138785E+00
         21   -1    0    0  501  502  0.00000000000E+00  0.00000000000E+00  0.10668754932E+03  0.10668754932E+03  0.00000000000E+00 0. -1.
          1   -1    0    0  502    0 -0.00000000000E+00 -0.00000000000E+00 -0.42077300841E+03  0.42077300841E+03  0.00000000000E+00 0. -1.
         23    2    1    2    0    0 -0.66682085004E+02  0.81346542158E+02 -0.15400127198E+02  0.14049283359E+03  0.91854841956E+02 0.  0.
         23    2    1    2    0    0  0.86986998275E+02 -0.33201349614E+02 -0.30532081399E+03  0.33429630219E+03  0.99318430885E+02 0.  0.
        -11    1    4    4    0    0  0.56098885206E+02  0.29023005670E+02 -0.10812143026E+03  0.12521846294E+03  0.00000000000E+00 0.  1.
         11    1    4    4    0    0  0.30888113069E+02 -0.62224355284E+02 -0.19719938374E+03  0.20907783925E+03  0.00000000000E+00 0. -1.
        -11    1    3    3    0    0 -0.32400705473E+02 -0.15117680288E+02  0.50105305179E+01  0.36103398573E+02  0.00000000000E+00 0.  1.
         11    1    3    3    0    0 -0.34281379531E+02  0.96464222446E+02 -0.20410657716E+02  0.10438943502E+03  0.00000000000E+00 0. -1.
          1    1    1    2  501    0 -0.20304913271E+02 -0.48145192544E+02  0.66354820969E+01  0.52671421955E+02  0.00000000000E+00 0. -1.
<scales pt_clust_5="13000.00000" pt_clust_6="13000.00000" pt_clust_7="13000.00000" pt_clust_8="13000.00000" pt_clust_9="13000.00000"></scales>
<clustering>
<clus scale="   91.855">  7  8 -1 -1</clus>
<clus scale="   99.318">  5  6 -1 -1</clus>
<clus scale="   52.252">  5  9 -1 -1</clus>
<clus scale="  139.646">  2  7  1 -1</clus>
<clus scale="  246.031">  1  5  2 -1</clus>
</clustering>
</event>
<event>
 9    1  0.6399313E-006  0.1814795E+03  0.7546771E-02  0.1184906E+00
          2   -1    0    0  502    0 -0.00000000000E+00  0.00000000000E+00  0.89848132136E+03  0.89848132136E+03  0.00000000000E+00 0. -1.
         21   -1    0    0  501  502  0.00000000000E+00 -0.00000000000E+00 -0.25495685080E+02  0.25495685080E+02  0.00000000000E+00 0. -1.
         23    2    1    2    0    0 -0.30695904821E+02  0.71166164585E+02  0.39852908824E+03  0.41599687852E+03  0.90670321535E+02 0.  0.
         23    2    1    2    0    0  0.54647179581E+02 -0.49970794415E+00  0.27262148073E+03  0.29279461249E+03  0.91758647570E+02 0.  0.
        -13    1    4    4    0    0 -0.18584418348E+02  0.23219993085E+02  0.81190822911E+02  0.86466747418E+02  0.00000000000E+00 0.  1.
         13    1    4    4    0    0  0.73231597929E+02 -0.23719701029E+02  0.19143065782E+03  0.20632786507E+03  0.00000000000E+00 0. -1.
        -13    1    3    3    0    0 -0.47677579549E+02  0.54576033011E+02  0.37714882719E+03  0.38404808660E+03  0.00000000000E+00 0. -1.
         13    1    3    3    0    0  0.16981674728E+02  0.16590131574E+02  0.21380261046E+02  0.31948791912E+02  0.00000000000E+00 0.  1.
          2    1    1    2  501    0 -0.23951274760E+02 -0.70666456641E+02  0.20183506731E+03  0.21518551544E+03  0.00000000000E+00 0. -1.
<scales pt_clust_5="13000.00000" pt_clust_6="13000.00000" pt_clust_7="13000.00000" pt_clust_8="13000.00000" pt_clust_9="13000.00000"></scales>
<clustering>
<clus scale="   90.670">  7  8 -1 -1</clus>
<clus scale="   91.759">  5  6 -1 -1</clus>
<clus scale="   74.615">  5  9 -1 -1</clus>
<clus scale="  119.281">  1  7  2 -1</clus>
<clus scale="  181.479">  2  5  1 -1</clus>
</clustering>
</event>
<event>
 9    1  0.6399313E-006  0.2168194E+03  0.7546771E-02  0.1166052E+00
         21   -1    0    0  501  502  0.00000000000E+00  0.00000000000E+00  0.45162203735E+03  0.45162203735E+03  0.00000000000E+00 0. -1.
          3   -1    0    0  502    0 -0.00000000000E+00 -0.00000000000E+00 -0.59928326834E+02  0.59928326834E+02  0.00000000000E+00 0. -1.
         23    2    1    2    0    0  0.56163681143E+01 -0.55719539328E+02  0.17343243786E+03  0.20390016100E+03  0.91434427315E+02 0.  0.
         23    2    1    2    0    0 -0.14031847338E+02 -0.46822526765E+01  0.88540561203E+01  0.89543396542E+02  0.87868136003E+02 0.  0.
        -13    1    4    4    0    0  0.25618264705E+02  0.27744405440E+02  0.60578442281E+01  0.38245849402E+02  0.00000000000E+00 0.  1.
         13    1    4    4    0    0 -0.39650112044E+02 -0.32426658117E+02  0.27962118922E+01  0.51297547141E+02  0.00000000000E+00 0. -1.
        -13    1    3    3    0    0  0.29248450124E+02 -0.67176715388E+02  0.15608274869E+03  0.17242391761E+03  0.00000000000E+00 0. -1.
         13    1    3    3    0    0 -0.23632082010E+02  0.11457176060E+02  0.17349689167E+02  0.31476243384E+02  0.00000000000E+00 0.  1.
          3    1    1    2  501    0  0.84154792241E+01  0.60401792005E+02  0.20940721654E+03  0.21810680665E+03  0.00000000000E+00 0. -1.
<scales pt_clust_5="13000.00000" pt_clust_6="13000.00000" pt_clust_7="13000.00000" pt_clust_8="13000.00000" pt_clust_9="13000.00000"></scales>
<clustering>
<clus scale="   87.868">  5  6 -1 -1</clus>
<clus scale="   60.985">  5  9 -1 -1</clus>
<clus scale="   91.434">  7  8 -1 -1</clus>
<clus scale="  107.222">  2  7  1 -1</clus>
<clus scale="  216.819">  1  5  2 -1</clus>
</clustering>
</event>
<event>
 9    1  0.6399313E-006  0.5006658E+03  0.7546771E-02  0.1030967E+00
          4   -1    0    0  502    0 -0.00000000000E+00  0.00000000000E+00  0.88439868950E+03  0.88439868950E+03  0.00000000000E+00 0. -1.
         21   -1    0    0  501  502  0.00000000000E+00 -0.00000000000E+00 -0.18349398910E+03  0.18349398910E+03  0.00000000000E+00 0. -1.
         23    2    1    2    0    0  0.27922804740E+03 -0.43230452668E+02  0.33664317658E+03  0.44873788320E+03  0.90553216348E+02 0.  0.
         23    2    1    2    0    0  0.36356645011E+02 -0.78477665330E+02  0.21787969056E+03  0.25059787282E+03  0.88584336711E+02 0.  0.
        -13    1    4    4    0    0  0.44095553003E+02 -0.20611946968E+02  0.16429445232E+03  0.17135325271E+03  0.00000000000E+00 0. -1.
         13    1    4    4    0    0 -0.77389079916E+01 -0.57865718362E+02  0.53585238245E+02  0.79244620109E+02  0.00000000000E+00 0.  1.
        -13    1    3    3    0    0  0.26180905283E+03 -0.63854088146E+02  0.31088227584E+03  0.41142327857E+03  0.00000000000E+00 0. -1.
         13    1    3    3    0    0  0.17418994575E+02  0.20623635478E+02  0.25760900741E+02  0.37314604638E+02  0.00000000000E+00 0.  1.
          4    1    1    2  501    0 -0.31558469241E+03  0.12170811800E+03  0.14638183326E+03  0.36855692258E+03  0.00000000000E+00 0. -1.
<scales pt_clust_5="13000.00000" pt_clust_6="13000.00000" pt_clust_7="13000.00000" pt_clust_8="13000.00000" pt_clust_9="13000.00000"></scales>
<clustering>
<clus scale="   88.584">  5  6 -1 -1</clus>
<clus scale="   90.553">  7  8 -1 -1</clus>
<clus scale="  296.710">  1  7  2 -1</clus>
<clus scale="  196.222">  5  9 -1 -1</clus>
<clus scale="  500.666">  2  5  1 -1</clus>
</clustering>
</event>
<event>
 9    1  0.6399313E-006  0.1664518E+03  0.7546771E-02  0.1202747E+00
          4   -1    0    0  502    0 -0.00000000000E+00  0.00000000000E+00  0.32026393094E+03  0.32026393094E+03  0.00000000000E+00 0. -1.
         21   -1    0    0  501  502  0.00000000000E+00 -0.00000000000E+00 -0.15228542833E+03  0.15228542833E+03  0.00000000000E+00 0. -1.
         23    2    1    2    0    0  0.24761863665E+02  0.45583850260E+02  0.26151257883E+03  0.28161792870E+03  0.90712686994E+02 0.  0.
         23    2    1    2    0    0  0.59847527878E+01  0.19964590410E+02 -0.61713717251E+02  0.11184611118E+03  0.90920666264E+02 0.  0.
        -11    1    4    4    0    0  0.38540399401E+02  0.37834144481E+02 -0.24611566275E+02  0.59350771428E+02  0.00000000000E+00 0. -1.
         11    1    4    4    0    0 -0.32555646613E+02 -0.17869554071E+02 -0.37102150976E+02  0.52495339757E+02  0.00000000000E+00 0.  1.
        -13    1    3    3    0    0  0.38409865734E+02 -0.13943033905E+02  0.75672494993E+02  0.86000305108E+02  0.00000000000E+00 0.  1.
         13    1    3    3    0    0 -0.13648002069E+02  0.59526884165E+02  0.18584008383E+03  0.19561762359E+03  0.00000000000E+00 0. -1.
          4    1    1    2  501    0 -0.30746616453E+02 -0.65548440670E+02 -0.31820358971E+02  0.79085319388E+02  0.00000000000E+00 0. -1.
<scales pt_clust_5="13000.00000" pt_clust_6="13000.00000" pt_clust_7="13000.00000" pt_clust_8="13000.00000" pt_clust_9="13000.00000"></scales>
<clustering>
<clus scale="   90.713">  7  8 -1 -1</clus>
<clus scale="   90.921">  5  6 -1 -1</clus>
<clus scale="   72.401">  5  9 -1 -1</clus>
<clus scale="  104.498">  1  7  2 -1</clus>
<clus scale="  166.452">  2  5  1 -1</clus>
</clustering>
</event>
<event>
 9    1  0.6399313E-006  0.1538756E+03  0.7546771E-02  0.1217281E+00
         21   -1    0    0  501  502  0.00000000000E+00  0.00000000000E+00  0.56074322947E+02  0.56074322947E+02  0.00000000000E+00 0.  1.
          2   -1    0    0  502    0 -0.00000000000E+00 -0.00000000000E+00 -0.28115939852E+03  0.28115939852E+03  0.00000000000E+00 0. -1.
         23    2    1    2    0    0  0.20238040705E+02 -0.14647493554E+02 -0.79469836060E+02  0.12538117251E+03  0.93706222945E+02 0.  0.
         23    2    1    2    0    0 -0.43626349344E+02  0.43373620475E+02 -0.79906337246E+02  0.13642136716E+03  0.91876206804E+02 0.  0.
        -11    1    3    3    0    0 -0.15974774830E+02 -0.43922281229E+02 -0.56899660248E+02  0.73633766409E+02  0.00000000000E+00 0. -1.
         11    1    3    3    0    0  0.36212815535E+02  0.29274787675E+02 -0.22570175813E+02  0.51747406105E+02  0.00000000000E+00 0.  1.
        -13    1    4    4    0    0 -0.57560515161E+02  0.67289505986E+01 -0.13814033768E+02  0.59576163108E+02  0.00000000000E+00 0. -1.
         13    1    4    4    0    0  0.13934165817E+02  0.36644669876E+02 -0.66092303479E+02  0.76845204056E+02  0.00000000000E+00 0.  1.
          2    1    1    2  501    0  0.23388308639E+02 -0.28726126921E+02 -0.65708902267E+02  0.75431181789E+02  0.00000000000E+00 0. -1.
<scales pt_clust_5="13000.00000" pt_clust_6="13000.00000" pt_clust_7="13000.00000" pt_clust_8="13000.00000" pt_clust_9="13000.00000"></scales>
<clustering>
<clus scale="   91.876">  7  8 -1 -1</clus>
<clus scale="   37.043">  7  9 -1 -1</clus>
<clus scale="   93.706">  5  6 -1 -1</clus>
<clus scale="   96.979">  2  5  1 -1</clus>
<clus scale="  153.876">  1  5  2 -1</clus>
</clustering>
</event>
<event>
 9    1  0.6399313E-006  0.4533943E+03  0.7546771E-02  0.1054693E+00
          1   -1    0    0  502    0 -0.00000000000E+00  0.00000000000E+00  0.38740350378E+03  0.38740350378E+03  0.00000000000E+00 0. -1.
         21   -1    0    0  501  502  0.00000000000E+00 -0.00000000000E+00 -0.34210945559E+03  0.34210945559E+03  0.00000000000E+00 0. -1.
         23    2    1    2    0    0 -0.15817943417E+03  0.81473475127E+02  0.16552206646E+03  0.26044878956E+03  0.93687549617E+02 0.  0.
         23    2    1    2    0    0  0.19489483091E+03 -0.70679512616E+01  0.98086996890E+02  0.23551407200E+03  0.88384773030E+02 0.  0.
        -13    1    4    4    0    0  0.11825600965E+03 -0.43121973767E+02  0.37370474865E+02  0.13130323999E+03  0.00000000000E+00 0.  1.
         13    1    4    4    0    0  0.76638821260E+02  0.36054022506E+02  0.60716522025E+02  0.10421083202E+03  0.00000000000E+00 0. -1.
        -13    1    3    3    0    0 -0.44111570049E+02 -0.13830751961E+02  0.14264105196E+02  0.48379592898E+02  0.00000000000E+00 0.  1.
         13    1    3    3    0    0 -0.11406786412E+03  0.95304227087E+02  0.15125796127E+03  0.21206919666E+03  0.00000000000E+00 0. -1.
          1    1    1    2  501    0 -0.36715396737E+02 -0.74405523865E+02 -0.21831501516E+03  0.23355009780E+03  0.00000000000E+00 0. -1.
<scales pt_clust_5="13000.00000" pt_clust_6="13000.00000" pt_clust_7="13000.00000" pt_clust_8="13000.00000" pt_clust_9="13000.00000"></scales>
<clustering>
<clus scale="   88.385">  5  6 -1 -1</clus>
<clus scale="   82.971">  5  9 -1 -1</clus>
<clus scale="   93.688">  7  8 -1 -1</clus>
<clus scale="  201.087">  1  7  2 -1</clus>
<clus scale="  453.394">  2  5  1 -1</clus>
</clustering>
</event>
<event>
 9    1  0.6399313E-006  0.3076413E+03  0.7546771E-02  0.1110924E+00
          1   -1    0    0  502    0 -0.00000000000E+00  0.00000000000E+00  0.82677386329E+03  0.82677386329E+03  0.00000000000E+00 0. -1.
         21   -1    0    0  501  502  0.00000000000E+00 -0.00000000000E+00 -0.68776224355E+02  0.68776224355E+02  0.00000000000E+00 0. -1.
         23    2    1    2    0    0  0.78607735578E+02  0.77532805787E+02  0.39387219549E+03  0.41886308057E+03  0.90113605069E+02 0.  0.
         23    2    1    2    0    0 -0.11311431196E+03 -0.15658522260E+03  0.29693300555E+03  0.36734894358E+03  0.97274133542E+02 0.  0.
        -11    1    3    3    0    0  0.65195889737E+02  0.26808421390E+02  0.11339094770E+03  0.13351667505E+03  0.00000000000E+00 0.  1.
         11    1    3    3    0    0  0.13411845840E+02  0.50724384397E+02  0.28048124779E+03  0.28534640552E+03  0.00000000000E+00 0. -1.
        -13    1    4    4    0    0 -0.12113986060E+03 -0.10034331585E+03  0.19380314234E+03  0.24960629969E+03  0.00000000000E+00 0. -1.
         13    1    4    4    0    0  0.80255486341E+01 -0.56241906753E+02  0.10312986321E+03  0.11774264389E+03  0.00000000000E+00 0.  1.
          1    1    1    2  501    0  0.34506576384E+02  0.79052416815E+02  0.67192437890E+02  0.10933806349E+03  0.00000000000E+00 0. -1.
<scales pt_clust_5="13000.00000" pt_clust_6="13000.00000" pt_clust_7="13000.00000" pt_clust_8="13000.00000" pt_clust_9="13000.00000"></scales>
<clustering>
<clus scale="   90.114">  5  6 -1 -1</clus>
<clus scale="   97.274">  7  8 -1 -1</clus>
<clus scale="   86.255">  7  9 -1 -1</clus>
<clus scale="  142.517">  1  5  2 -1</clus>
<clus scale="  307.641">  2  5  1 -1</clus>
</clustering>
</event>
<event>
 9    1  0.6399313E-006  0.3136003E+03  0.7546771E-02  0.1111397E+00
          1   -1    0    0  502    0 -0.00000000000E+00  0.00000000000E+00  0.40469648875E+03  0.40469648875E+03  0.00000000000E+00 0. -1.
         21   -1    0    0  501  502  0.00000000000E+00 -0.00000000000E+00 -0.13034355546E+03  0.13034355546E+03  0.00000000000E+00 0. -1.
         23    2    1    2    0    0  0.22959857433E+02 -0.94419358556E+02  0.14240586804E+03  0.19481195021E+03  0.90719867567E+02 0.  0.
         23    2    1    2    0    0  0.97920827101E+02 -0.28530530939E+02  0.25191916610E+02  0.13743392005E+03  0.88605700399E+02 0.  0.
        -13    1    4    4    0    0  0.31807327230E+02 -0.21034796325E+01 -0.32701693346E+02  0.45667619160E+02  0.00000000000E+00 0.  1.
         13    1    4    4    0    0  0.66113499871E+02 -0.26427051307E+02  0.57893609957E+02  0.91766300894E+02  0.00000000000E+00 0. -1.
        -13    1    3    3    0    0 -0.27398080583E+02 -0.66786839080E+02  0.57444708723E+02  0.92255250551E+02  0.00000000000E+00 0. -1.
         13    1    3    3    0    0  0.50357938017E+02 -0.27632519476E+02  0.84961159312E+02  0.10255669966E+03  0.00000000000E+00 0.  1.
          1    1    1    2  501    0 -0.12088068453E+03  0.12294988950E+03  0.10675514865E+03  0.20279417394E+03  0.00000000000E+00 0. -1.
<scales pt_clust_5="13000.00000" pt_clust_6="13000.00000" pt_clust_7="13000.00000" pt_clust_8="13000.00000" pt_clust_9="13000.00000"></scales>
<clustering>
<clus scale="   88.606">  5  6 -1 -1</clus>
<clus scale="   90.720">  7  8 -1 -1</clus>
<clus scale="  132.937">  1  7  2 -1</clus>
<clus scale="  122.175">  5  9 -1 -1</clus>
<clus scale="  313.600">  2  5  1 -1</clus>
</clustering>
</event>
<event>
 9    1  0.6399313E-006  0.1731696E+03  0.7546771E-02  0.1200382E+00
         21   -1    0    0  501  502  0.00000000000E+00  0.00000000000E+00  0.14597269841E+03  0.14597269841E+03  0.00000000000E+00 0.  1.
         -4   -1    0    0    0  501 -0.00000000000E+00 -0.00000000000E+00 -0.12564612412E+03  0.12564612412E+03  0.00000000000E+00 0.  1.
         23    2    1    2    0    0  0.20045212396E+02 -0.37996845809E+02  0.82037389189E+01  0.98025453401E+02  0.87727517637E+02 0.  0.
         23    2    1    2    0    0 -0.70685649416E+02  0.28117028770E+02 -0.83275422457E+01  0.11809307552E+03  0.89942193576E+02 0.  0.
        -13    1    3    3    0    0  0.18290240935E+02  0.26968410929E+02  0.49053005306E+01  0.32952846232E+02  0.00000000000E+00 0.  1.
         13    1    3    3    0    0  0.17549714608E+01 -0.64965256738E+02  0.32984383883E+01  0.65072607169E+02  0.00000000000E+00 0. -1.
        -13    1    4    4    0    0 -0.73310446133E+02 -0.13562661388E+02  0.36604893176E+01  0.74644266211E+02  0.00000000000E+00 0.  1.
         13    1    4    4    0    0  0.26247967166E+01  0.41679690158E+02 -0.11988031563E+02  0.43448809308E+02  0.00000000000E+00 0. -1.
         -4    1    1    2    0  502  0.50640437020E+02  0.98798170392E+01  0.20450377612E+02  0.55500293610E+02  0.00000000000E+00 0.  1.
<scales pt_clust_5="13000.00000" pt_clust_6="13000.00000" pt_clust_7="13000.00000" pt_clust_8="13000.00000" pt_clust_9="13000.00000"></scales>
<clustering>
<clus scale="   87.728">  5  6 -1 -1</clus>
<clus scale="   89.942">  7  8 -1 -1</clus>
<clus scale="   51.595">  7  9 -1 -1</clus>
<clus scale="   97.682">  2  5  1 -1</clus>
<clus scale="  173.170">  1  5  2 -1</clus>
</clustering>
</event>
<event>
 9    1  0.6399313E-006  0.5677824E+03  0.7546771E-02  0.1002155E+00
          3   -1    0    0  502    0 -0.00000000000E+00  0.00000000000E+00  0.19414746484E+03  0.19414746484E+03  0.00000000000E+00 0. -1.
         21   -1    0    0  501  502  0.00000000000E+00 -0.00000000000E+00 -0.19366343612E+04  0.19366343612E+04  0.00000000000E+00 0. -1.
         23    2    1    2    0    0  0.60232940169E+01 -0.47989683499E+03 -0.28487133739E+03  0.56648646399E+03  0.97046291577E+02 0.  0.
         23    2    1    2    0    0 -0.31082200031E+02  0.23396403644E+02 -0.16344709128E+03  0.19174568521E+03  0.92401089213E+02 0.  0.
        -11    1    3    3    0    0  0.22309782363E+02 -0.21945436487E+02 -0.15289822448E+02  0.34829689091E+02  0.00000000000E+00 0.  1.
         11    1    3    3    0    0 -0.16286488346E+02 -0.45795139851E+03 -0.26958151494E+03  0.53165677490E+03  0.00000000000E+00 0. -1.
        -13    1    4    4    0    0  0.23830858588E+02  0.10079869182E+02 -0.91786606911E+01  0.27454715367E+02  0.00000000000E+00 0.  1.
         13    1    4    4    0    0 -0.54913058619E+02  0.13316534462E+02 -0.15426843058E+03  0.16429096984E+03  0.00000000000E+00 0. -1.
          3    1    1    2  501    0  0.25058906014E+02  0.45650043135E+03 -0.12941684677E+04  0.13725496768E+04  0.00000000000E+00 0. -1.
<scales pt_clust_5="13000.00000" pt_clust_6="13000.00000" pt_clust_7="13000.00000" pt_clust_8="13000.00000" pt_clust_9="13000.00000"></scales>
<clustering>
<clus scale="   92.401">  7  8 -1 -1</clus>
<clus scale="   97.046">  5  6 -1 -1</clus>
<clus scale="  457.188">  7  9 -1 -1</clus>
<clus scale="  489.648">  1  5  2 -1</clus>
<clus scale="  567.782">  2  5  1 -1</clus>
</clustering>
</event>
<event>
 9    1  0.6399313E-006  0.2260409E+03  0.7546771E-02  0.1157920E+00
          3   -1    0    0  502    0 -0.00000000000E+00  0.00000000000E+00  0.21120319307E+03  0.21120319307E+03  0.00000000000E+00 0. -1.
         21   -1    0    0  501  502  0.00000000000E+00 -0.00000000000E+00 -0.17818245645E+03  0.17818245645E+03  0.00000000000E+00 0. -1.
         23    2    1    2    0    0  0.67569020376E+02 -0.10373753098E+01  0.10187445040E+03  0.15309065904E+03  0.92150407374E+02 0.  0.
         23    2    1    2    0    0 -0.10294622281E+02 -0.67848255692E+00  0.42094817703E+02  0.11142354666E+03  0.10264888448E+03 0.  0.
        -11    1    3    3    0    0  0.90319594232E+02  0.54481613587E+01  0.83679056538E+02  0.12324567363E+03  0.00000000000E+00 0. -1.
         11    1    3    3    0    0 -0.22750573856E+02 -0.64855366685E+01  0.18195393862E+02  0.29844985415E+02  0.00000000000E+00 0.  1.
        -13    1    4    4    0    0 -0.26073254125E+02  0.45571863384E+02  0.11435762420E+02  0.53734402156E+02  0.00000000000E+00 0.  1.
         13    1    4    4    0    0  0.15778631844E+02 -0.46250345941E+02  0.30659055283E+02  0.57689144501E+02  0.00000000000E+00 0. -1.
          3    1    1    2  501    0 -0.57274398095E+02  0.17158578668E+01 -0.11094853148E+03  0.12487144382E+03  0.00000000000E+00 0. -1.
<scales pt_clust_5="13000.00000" pt_clust_6="13000.00000" pt_clust_7="13000.00000" pt_clust_8="13000.00000" pt_clust_9="13000.00000"></scales>
<clustering>
<clus scale="   92.150">  5  6 -1 -1</clus>
<clus scale="  102.649">  7  8 -1 -1</clus>
<clus scale="   57.300">  7  9 -1 -1</clus>
<clus scale="  114.273">  1  5  2 -1</clus>
<clus scale="  226.041">  2  5  1 -1</clus>
</clustering>
</event>
<event>
 9    1  0.6399313E-006  0.2158727E+03  0.7546771E-02  0.1164196E+00
          2   -1    0    0  502    0 -0.00000000000E+00  0.00000000000E+00  0.70022028940E+03  0.70022028940E+03  0.00000000000E+00 0. -1.
         21   -1    0    0  501  502  0.00000000000E+00 -0.00000000000E+00 -0.42777155299E+02  0.42777155299E+02  0.00000000000E+00 0.  1.
         23    2    1    2    0    0 -0.94452450436E+01 -0.62289367632E+02  0.34559052428E+03  0.36371776722E+03  0.94279508625E+02 0.  0.
         23    2    1    2    0    0  0.55849973202E+02  0.98059369926E+02  0.17660845359E+03  0.23188946866E+03  0.99233664956E+02 0.  0.
        -11    1    4    4    0    0  0.81216448399E+02  0.51334156215E+02  0.10037831588E+03  0.13895003917E+03  0.00000000000E+00 0.  1.
         11    1    4    4    0    0 -0.25366475198E+02  0.46725213711E+02  0.76230137709E+02  0.92939429498E+02  0.00000000000E+00 0. -1.
        -13    1    3    3    0    0  0.17834964608E+02 -0.78025583668E+02  0.27520911345E+03  0.28661146836E+03  0.00000000000E+00 0.  1.
         13    1    3    3    0    0 -0.27280209652E+02  0.15736216036E+02  0.70381410826E+02  0.77106298858E+02  0.00000000000E+00 0. -1.
          2    1    1    2  501    0 -0.46404728158E+02 -0.35770002294E+02  0.13524415623E+03  0.14739020882E+03  0.00000000000E+00 0. -1.
<scales pt_clust_5="13000.00000" pt_clust_6="13000.00000" pt_clust_7="13000.00000" pt_clust_8="13000.00000" pt_clust_9="13000.00000"></scales>
<clustering>
<clus scale="   94.280">  7  8 -1 -1</clus>
<clus scale="   99.234">  5  6 -1 -1</clus>
<clus scale="   58.591">  5  9 -1 -1</clus>
<clus scale="  113.392">  1  7  2 -1</clus>
<clus scale="  215.873">  2  5  1 -1</clus>
</clustering>
</event>
<event>
 9    1  0.6399313E-006  0.2124998E+03  0.7546771E-02  0.1171719E+00
         21   -1    0    0  501  502  0.00000000000E+00  0.00000000000E+00  0.56586802171E+02  0.56586802171E+02  0.00000000000E+00 0.  1.
         -2   -1    0    0    0  501 -0.00000000000E+00 -0.00000000000E+00 -0.50133294849E+03  0.50133294849E+03  0.00000000000E+00 0.  1.
         23    2    1    2    0    0 -0.29217366569E+02  0.28867355040E+02 -0.25162353475E+03  0.27077432185E+03  0.91199514433E+02 0.  0.
         23    2    1    2    0    0 -0.12256909140E+02 -0.75978861551E+01 -0.21372168504E+03  0.23618635034E+03  0.99494088936E+02 0.  0.
        -11    1    3    3    0    0 -0.40243777032E+02  0.56951326724E+02 -0.18148878331E+03  0.19442529073E+03  0.00000000000E+00 0.  1.
         11    1    3    3    0    0  0.11026410464E+02 -0.28083971684E+02 -0.70134751440E+02  0.76349031120E+02  0.00000000000E+00 0. -1.
        -13    1    4    4    0    0  0.34993120214E+02 -0.82696455034E+01 -0.16277174535E+03  0.16669597050E+03  0.00000000000E+00 0. -1.
         13    1    4    4    0    0 -0.47250029354E+02  0.67175934829E+00 -0.50949939694E+02  0.69490379833E+02  0.00000000000E+00 0.  1.
         -2    1    1    2    0  502  0.41474275709E+02 -0.21269468885E+02  0.20599073469E+02  0.50959078485E+02  0.00000000000E+00 0.  1.
<scales pt_clust_5="13000.00000" pt_clust_6="13000.00000" pt_clust_7="13000.00000" pt_clust_8="13000.00000" pt_clust_9="13000.00000"></scales>
<clustering>
<clus scale="   91.200">  5  6 -1 -1</clus>
<clus scale="   99.494">  7  8 -1 -1</clus>
<clus scale="   46.610">  7  9 -1 -1</clus>
<clus scale="  100.022">  2  5  1 -1</clus>
<clus scale="  212.500">  1  5  2 -1</clus>
</clustering>
</event>
<event>
 9    1  0.6399313E-006  0.5115755E+03  0.7546771E-02  0.1060270E+00
         21   -1    0    0  501  502  0.00000000000E+00  0.00000000000E+00  0.11979062012E+03  0.11979062012E+03  0.00000000000E+00 0. -1.
          2   -1    0    0  502    0 -0.00000000000E+00 -0.00000000000E+00 -0.11036229198E+04  0.11036229198E+04  0.00000000000E+00 0. -1.
         23    2    1    2    0    0  0.66758930179E+02  0.35888708242E+02 -0.51761009429E+03  0.53126280790E+03  0.92602414699E+02 0.  0.
         23    2    1    2    0    0 -0.64209518186E+02 -0.24318348590E+03 -0.38631089530E+03  0.46997188104E+03  0.91522626132E+02 0.  0.
        -11    1    4    4    0    0  0.18271837486E+01 -0.13892547268E+03 -0.15767537824E+03  0.21015506290E+03  0.00000000000E+00 0.  1.
         11    1    4    4    0    0 -0.66036701935E+02 -0.10425801322E+03 -0.22863551706E+03  0.25981681813E+03  0.00000000000E+00 0. -1.
        -13    1    3    3    0    0 -0.22632651262E+02 -0.11645987170E+01 -0.11196702402E+03  0.11423750549E+03  0.00000000000E+00 0. -1.
         13    1    3    3    0    0  0.89391581441E+02  0.37053306959E+02 -0.40564307027E+03  0.41702530241E+03  0.00000000000E+00 0.  1.
          2    1    1    2  501    0 -0.25494119930E+01  0.20729477766E+03 -0.79911310094E+02  0.22217885099E+03  0.00000000000E+00 0. -1.
<scales pt_clust_5="13000.00000" pt_clust_6="13000.00000" pt_clust_7="13000.00000" pt_clust_8="13000.00000" pt_clust_9="13000.00000"></scales>
<clustering>
<clus scale="   91.523">  5  6 -1 -1</clus>
<clus scale="   92.602">  7  8 -1 -1</clus>
<clus scale="  119.666">  2  7  1 -1</clus>
<clus scale="  217.163">  5  9 -1 -1</clus>
<clus scale="  511.575">  1  5  2 -1</clus>
</clustering>
</event>
<event>
 9    1  0.6399313E-006  0.7612260E+03  0.7546771E-02  0.1024316E+00
         21   -1    0    0  501  502  0.00000000000E+00  0.00000000000E+00  0.79837580338E+03  0.79837580338E+03  0.00000000000E+00 0. -1.
          1   -1    0    0  502    0 -0.00000000000E+00 -0.00000000000E+00 -0.24973335780E+03  0.24973335780E+03  0.00000000000E+00 0. -1.
         23    2    1    2    0    0  0.48240213410E+02 -0.46392903177E+01 -0.10686342423E+02  0.10348561356E+03  0.90809873337E+02 0.  0.
         23    2    1    2    0    0 -0.11763765163E+03  0.20330721284E+03 -0.85875279280E+02  0.26596808547E+03  0.90509773076E+02 0.  0.
        -11    1    4    4    0    0 -0.29106598497E+01  0.86080332496E+02 -0.15641705133E+02  0.87538326023E+02  0.00000000000E+00 0.  1.
         11    1    4    4    0    0 -0.11472699178E+03  0.11722688035E+03 -0.70233574147E+02  0.17842975945E+03  0.00000000000E+00 0. -1.
        -13    1    3    3    0    0  0.68706893013E+02  0.87295015315E+01  0.11815650847E+02  0.70259881507E+02  0.00000000000E+00 0. -1.
         13    1    3    3    0    0 -0.20466679603E+02 -0.13368791849E+02 -0.22501993270E+02  0.33225732055E+02  0.00000000000E+00 0.  1.
          1    1    1    2  501    0  0.69397438222E+02 -0.19866792252E+03  0.64520406728E+03  0.67865546215E+03  0.00000000000E+00 0. -1.
<scales pt_clust_5="13000.00000" pt_clust_6="13000.00000" pt_clust_7="13000.00000" pt_clust_8="13000.00000" pt_clust_9="13000.00000"></scales>
<clustering>
<clus scale="   90.510">  5  6 -1 -1</clus>
<clus scale="   90.810">  7  8 -1 -1</clus>
<clus scale="  102.932">  2  7  1 -1</clus>
<clus scale="  212.236">  5  9 -1 -1</clus>
<clus scale="  761.226">  1  5  2 -1</clus>
</clustering>
</event>
<event>
 9    1  0.6399313E-006  0.3931112E+03  0.7546771E-02  0.1048880E+00
          2   -1    0    0  502    0 -0.00000000000E+00  0.00000000000E+00  0.20540370231E+03  0.20540370231E+03  0.00000000000E+00 0. -1.
         21   -1    0    0  501  502  0.00000000000E+00 -0.00000000000E+00 -0.85781277022E+03  0.85781277022E+03  0.00000000000E+00 0. -1.
         23    2    1    2    0    0 -0.24633057327E+03  0.25128765031E+03 -0.86359499624E+02  0.37405135356E+03  0.92909727134E+02 0.  0.
         23    2    1    2    0    0  0.77586628759E+02 -0.15974367829E+03 -0.29827702451E+03  0.35968529739E+03  0.94162636402E+02 0.  0.
        -11    1    4    4    0    0  0.56804710643E+02 -0.16669593708E+03 -0.28165522786E+03  0.33218064057E+03  0.00000000000E+00 0. -1.
         11    1    4    4    0    0  0.20781918116E+02  0.69522587931E+01 -0.16621796654E+02  0.27504656822E+02  0.00000000000E+00 0.  1.
        -13    1    3    3    0    0 -0.10326210025E+03  0.16961489860E+03 -0.58146135938E+02  0.20691362521E+03  0.00000000000E+00 0. -1.
         13    1    3    3    0    0 -0.14306847302E+03  0.81672751709E+02 -0.28213363686E+02  0.16713772834E+03  0.00000000000E+00 0.  1.
          2    1    1    2  501    0  0.16874394451E+03 -0.91543972022E+02 -0.26777254377E+03  0.32947982157E+03  0.00000000000E+00 0. -1.
<scales pt_clust_5="13000.00000" pt_clust_6="13000.00000" pt_clust_7="13000.00000" pt_clust_8="13000.00000" pt_clust_9="13000.00000"></scales>
<clustering>
<clus scale="   92.910">  7  8 -1 -1</clus>
<clus scale="   94.163">  5  6 -1 -1</clus>
<clus scale="  191.976">  5  9 -1 -1</clus>
<clus scale="  363.946">  1  7  2 -1</clus>
<clus scale="  393.111">  2  5  1 -1</clus>
</clustering>
</event>
<event>
 9    1  0.6399313E-006  0.1893420E+03  0.7546771E-02  0.1186935E+00
         -3   -1    0    0    0  501 -0.00000000000E+00  0.00000000000E+00  0.11780176158E+03  0.11780176158E+03  0.00000000000E+00 0.  1.
         21   -1    0    0  501  502  0.00000000000E+00 -0.00000000000E+00 -0.18805221264E+03  0.18805221264E+03  0.00000000000E+00 0.  1.
         23    2    1    2    0    0  0.31499593879E+02 -0.25066688523E+02  0.85749657538E+01  0.10075928860E+03  0.91969238948E+02 0.  0.
         23    2    1    2    0    0 -0.71377477045E+02  0.43855143378E+02 -0.96156466632E+02  0.15772785241E+03  0.92811591517E+02 0.  0.
        -11    1    3    3    0    0 -0.92164441590E+01  0.30283751680E+02  0.16466193189E+01  0.31697946526E+02  0.00000000000E+00 0. -1.
         11    1    3    3    0    0  0.40716038038E+02 -0.55350440204E+02  0.69283464348E+01  0.69061342070E+02  0.00000000000E+00 0.  1.
        -13    1    4    4    0    0 -0.91081837526E+02  0.28242558123E+02 -0.91504182498E+02  0.13216110862E+03  0.00000000000E+00 0.  1.
         13    1    4    4    0    0  0.19704360481E+02  0.15612585256E+02 -0.46522841335E+01  0.25566743790E+02  0.00000000000E+00 0. -1.
         -3    1    1    2    0  502  0.39877883166E+02 -0.18788454855E+02  0.17331049819E+02  0.47366833222E+02  0.00000000000E+00 0.  1.
<scales pt_clust_5="13000.00000" pt_clust_6="13000.00000" pt_clust_7="13000.00000" pt_clust_8="13000.00000" pt_clust_9="13000.00000"></scales>
<clustering>
<clus scale="   91.969">  5  6 -1 -1</clus>
<clus scale="   92.812">  7  8 -1 -1</clus>
<clus scale="   44.082">  7  9 -1 -1</clus>
<clus scale="  100.394">  1  5  2 -1</clus>
<clus scale="  189.342">  2  5  1 -1</clus>
</clustering>
</event>
<event>
 9    1  0.6399313E-006  0.3518845E+03  0.7546771E-02  0.1108092E+00
          1   -1    0    0  502    0 -0.00000000000E+00  0.00000000000E+00  0.75440185578E+03  0.75440185578E+03  0.00000000000E+00 0. -1.
         21   -1    0    0  501  502  0.00000000000E+00 -0.00000000000E+00 -0.74938474857E+02  0.74938474857E+02  0.00000000000E+00 0. -1.
         23    2    1    2    0    0  0.19108256614E+01  0.45538072972E+02  0.27388228129E+03  0.29238714160E+03  0.91658983332E+02 0.  0.
         23    2    1    2    0    0 -0.11765232031E+03 -0.13013527982E+02  0.38752769725E+03  0.41538072115E+03  0.91389315463E+02 0.  0.
        -11    1    4    4    0    0 -0.80409494067E+02 -0.51521733873E+02  0.26376033723E+03  0.28051682889E+03  0.00000000000E+00 0.  1.
         11    1    4    4    0    0 -0.37242826242E+02  0.38508205891E+02  0.12376736002E+03  0.13486389226E+03  0.00000000000E+00 0. -1.
        -11    1    3    3    0    0  0.40092477904E+02  0.20138876147E+02  0.68057848373E+02  0.81515960658E+02  0.00000000000E+00 0.  1.
         11    1    3    3    0    0 -0.38181652242E+02  0.25399196825E+02  0.20582443292E+03  0.21087118095E+03  0.00000000000E+00 0. -1.
          1    1    1    2  501    0  0.11574149465E+03 -0.32524544990E+02  0.18053402382E+02  0.12157246789E+03  0.00000000000E+00 0. -1.
<scales pt_clust_5="13000.00000" pt_clust_6="13000.00000" pt_clust_7="13000.00000" pt_clust_8="13000.00000" pt_clust_9="13000.00000"></scales>
<clustering>
<clus scale="   91.389">  5  6 -1 -1</clus>
<clus scale="   91.659">  7  8 -1 -1</clus>
<clus scale="  102.366">  1  7  2 -1</clus>
<clus scale="  118.854">  5  9 -1 -1</clus>
<clus scale="  351.884">  2  5  1 -1</clus>
</clustering>
</event>
<event>
 9    1  0.6399313E-006  0.2223136E+03  0.7546771E-02  0.1136926E+00
         21   -1    0    0  501  502  0.00000000000E+00  0.00000000000E+00  0.11918236678E+03  0.11918236678E+03  0.00000000000E+00 0.  1.
          1   -1    0    0  502    0 -0.00000000000E+00 -0.00000000000E+00 -0.10335513229E+04  0.10335513229E+04  0.00000000000E+00 0. -1.
         23    2    1    2    0    0  0.14224922628E+03  0.10211137365E+03  0.13646030683E+02  0.19846163708E+03  0.92407966296E+02 0.  0.
         23    2    1    2    0    0 -0.91578762865E+02 -0.58065452512E+02 -0.43819044032E+03  0.45986773893E+03  0.87802099851E+02 0.  0.
        -11    1    3    3    0    0  0.75182633917E+02  0.47438802321E+02  0.52899387589E+02  0.10344667039E+03  0.00000000000E+00 0. -1.
         11    1    3    3    0    0  0.67066592358E+02  0.54672571326E+02 -0.39253356906E+02  0.95014966686E+02  0.00000000000E+00 0.  1.
        -13    1    4    4    0    0 -0.68337892229E+02  0.73072707093E+00 -0.15016738441E+03  0.16498740806E+03  0.00000000000E+00 0. -1.
         13    1    4    4    0    0 -0.23240870635E+02 -0.58796179583E+02 -0.28802305591E+03  0.29488033087E+03  0.00000000000E+00 0.  1.
          1    1    1    2  501    0 -0.50670463411E+02 -0.44045921135E+02 -0.48982454648E+03  0.49440431366E+03  0.00000000000E+00 0. -1.
<scales pt_clust_5="13000.00000" pt_clust_6="13000.00000" pt_clust_7="13000.00000" pt_clust_8="13000.00000" pt_clust_9="13000.00000"></scales>
<clustering>
<clus scale="   87.802">  7  8 -1 -1</clus>
<clus scale="   67.138">  7  9 -1 -1</clus>
<clus scale="   92.408">  5  6 -1 -1</clus>
<clus scale="  197.992">  2  5  1 -1</clus>
<clus scale="  222.314">  1  5  2 -1</clus>
</clustering>
</event>
<event>
 9    1  0.6399313E-006  0.3102802E+03  0.7546771E-02  0.1116035E+00
         21   -1    0    0  501  502  0.00000000000E+00  0.00000000000E+00  0.46874710871E+03  0.46874710871E+03  0.00000000000E+00 0.  1.
          3   -1    0    0  502    0 -0.00000000000E+00 -0.00000000000E+00 -0.10722482720E+03  0.10722482720E+03  0.00000000000E+00 0. -1.
         23    2    1    2    0    0 -0.69463168199E+02 -0.41861619989E+02  0.38294425843E+02  0.12792053567E+03  0.91212243862E+02 0.  0.
         23    2    1    2    0    0 -0.51528292539E+02 -0.71121275560E+02  0.67921675651E+02  0.14377305101E+03  0.91345144393E+02 0.  0.
        -11    1    4    4    0    0  0.62962206712E+01 -0.56470691147E+02  0.49535828188E+01  0.57036123081E+02  0.00000000000E+00 0.  1.
         11    1    4    4    0    0 -0.57824513211E+02 -0.14650584414E+02  0.62968092832E+02  0.86736927929E+02  0.00000000000E+00 0. -1.
        -13    1    3    3    0    0 -0.83386177992E+02 -0.68313760875E+01  0.20013698891E+02  0.86025987485E+02  0.00000000000E+00 0.  1.
         13    1    3    3    0    0  0.13923009793E+02 -0.35030243902E+02  0.18280726952E+02  0.41894548183E+02  0.00000000000E+00 0. -1.
          3    1    1    2  501    0  0.12099146074E+03  0.11298289555E+03  0.25530618001E+03  0.30427834923E+03  0.00000000000E+00 0. -1.
<scales pt_clust_5="13000.00000" pt_clust_6="13000.00000" pt_clust_7="13000.00000" pt_clust_8="13000.00000" pt_clust_9="13000.00000"></scales>
<clustering>
<clus scale="   91.212">  7  8 -1 -1</clus>
<clus scale="   91.345">  5  6 -1 -1</clus>
<clus scale="  122.054">  2  7  1 -1</clus>
<clus scale="  134.576">  5  9 -1 -1</clus>
<clus scale="  310.280">  1  5  2 -1</clus>
</clustering>
</event>
<event>
 9    1  0.6399313E-006  0.1659346E+03  0.7546771E-02  0.1208862E+00
         21   -1    0    0  501  502  0.00000000000E+00  0.00000000000E+00  0.49910115901E+03  0.49910115901E+03  0.00000000000E+00 0. -1.
         -1   -1    0    0    0  501 -0.00000000000E+00 -0.00000000000E+00 -0.60357898107E+02  0.60357898107E+02  0.00000000000E+00 0.  1.
         23    2    1    2    0    0 -0.49012074459E+01 -0.10246446696E+02  0.22699430984E+01  0.92508058915E+02  0.91780045861E+02 0.  0.
         23    2    1    2    0    0  0.25811642110E+02 -0.45723305712E+02  0.25455127873E+03  0.27546865498E+03  0.91267545287E+02 0.  0.
        -11    1    3    3    0    0 -0.24568576610E+01  0.32474283873E+02 -0.25614952003E+02  0.41433573690E+02  0.00000000000E+00 0.  1.
         11    1    3    3    0    0 -0.24443497849E+01 -0.42720730569E+02  0.27884895101E+02  0.51074485225E+02  0.00000000000E+00 0. -1.
        -13    1    4    4    0    0 -0.10287054615E+02 -0.58600894403E+02  0.10113963499E+03  0.11734186842E+03  0.00000000000E+00 0. -1.
         13    1    4    4    0    0  0.36098696726E+02  0.12877588691E+02  0.15341164374E+03  0.15812678657E+03  0.00000000000E+00 0.  1.
         -1    1    1    2    0  502 -0.20910434664E+02  0.55969752408E+02  0.18192203908E+03  0.19148234322E+03  0.00000000000E+00 0.  1.
<scales pt_clust_5="13000.00000" pt_clust_6="13000.00000" pt_clust_7="13000.00000" pt_clust_8="13000.00000" pt_clust_9="13000.00000"></scales>
<clustering>
<clus scale="   91.268">  7  8 -1 -1</clus>
<clus scale="   59.748">  7  9 -1 -1</clus>
<clus scale="   91.780">  5  6 -1 -1</clus>
<clus scale="   92.480">  2  5  1 -1</clus>
<clus scale="  165.935">  1  5  2 -1</clus>
</clustering>
</event>
<event>
 9    1  0.6399313E-006  0.2529349E+03  0.7546771E-02  0.1145375E+00
          1   -1    0    0  502    0 -0.00000000000E+00  0.00000000000E+00  0.15366178457E+03  0.15366178457E+03  0.00000000000E+00 0. -1.
         21   -1    0    0  501  502  0.00000000000E+00 -0.00000000000E+00 -0.22713676829E+03  0.22713676829E+03  0.00000000000E+00 0.  1.
         23    2    1    2    0    0  0.45479671569E+02  0.35380180889E+02  0.19304409257E+02  0.11138420246E+03  0.93346786852E+02 0.  0.
         23    2    1    2    0    0 -0.98665643155E+02 -0.10050255925E+03 -0.71371349791E+02  0.18265044056E+03  0.91823963703E+02 0.  0.
        -11    1    4    4    0    0 -0.42341596595E+02 -0.70453588254E+02 -0.84053073882E+02  0.11756461257E+03  0.00000000000E+00 0.  1.
         11    1    4    4    0    0 -0.56324046560E+02 -0.30048970993E+02  0.12681724090E+02  0.65085827985E+02  0.00000000000E+00 0. -1.
        -11    1    3    3    0    0  0.25867238887E+02 -0.27976113413E+02 -0.91978095706E+01  0.39196641058E+02  0.00000000000E+00 0.  1.
         11    1    3    3    0    0  0.19612432682E+02  0.63356294303E+02  0.28502218828E+02  0.72187561405E+02  0.00000000000E+00 0. -1.
          1    1    1    2  501    0  0.53185971586E+02  0.65122378358E+02 -0.21408043189E+02  0.86763909834E+02  0.00000000000E+00 0. -1.
<scales pt_clust_5="13000.00000" pt_clust_6="13000.00000" pt_clust_7="13000.00000" pt_clust_8="13000.00000" pt_clust_9="13000.00000"></scales>
<clustering>
<clus scale="   91.824">  5  6 -1 -1</clus>
<clus scale="   84.081">  5  9 -1 -1</clus>
<clus scale="   93.347">  7  8 -1 -1</clus>
<clus scale="  109.699">  1  7  2 -1</clus>
<clus scale="  252.935">  2  5  1 -1</clus>
</clustering>
</event>
<event>
 9    1  0.6399313E-006  0.1854502E+03  0.7546771E-02  0.1179040E+00
         21   -1    0    0  501  502  0.00000000000E+00  0.00000000000E+00  0.22586611345E+03  0.22586611345E+03  0.00000000000E+00 0.  1.
          2   -1    0    0  502    0 -0.00000000000E+00 -0.00000000000E+00 -0.17495753387E+03  0.17495753387E+03  0.00000000000E+00 0. -1.
         23    2    1    2    0    0  0.82355673784E+02 -0.35311158737E+02 -0.99767321466E+02  0.16187805728E+03  0.90673326066E+02 0.  0.
         23    2    1    2    0    0 -0.60538667661E+02 -0.96646816789E+01  0.14130327238E+03  0.18808643015E+03  0.10794236455E+03 0.  0.
        -11    1    4    4    0    0 -0.79918074818E+02 -0.36735337277E+02  0.82934641882E+02  0.12089060555E+03  0.00000000000E+00 0.  1.
         11    1    4    4    0    0  0.19379407157E+02  0.27070655598E+02  0.58368630498E+02  0.67195824591E+02  0.00000000000E+00 0. -1.
        -13    1    3    3    0    0  0.24021828914E+02  0.27301208422E+02 -0.96936666523E+01  0.37634710293E+02  0.00000000000E+00 0.  1.
         13    1    3    3    0    0  0.58333844870E+02 -0.62612367159E+02 -0.90073654814E+02  0.12424334699E+03  0.00000000000E+00 0. -1.
          2    1    1    2  501    0 -0.21817006123E+02  0.44975840416E+02  0.93726286618E+01  0.50859159896E+02  0.00000000000E+00 0. -1.
<scales pt_clust_5="13000.00000" pt_clust_6="13000.00000" pt_clust_7="13000.00000" pt_clust_8="13000.00000" pt_clust_9="13000.00000"></scales>
<clustering>
<clus scale="   90.673">  7  8 -1 -1</clus>
<clus scale="  107.942">  5  6 -1 -1</clus>
<clus scale="   49.988">  5  9 -1 -1</clus>
<clus scale="  127.479">  2  7  1 -1</clus>
<clus scale="  185.450">  1  5  2 -1</clus>
</clustering>
</event>
<event>
 9    1  0.6399313E-006  0.3522950E+03  0.7546771E-02  0.1073675E+00
         21   -1    0    0  501  502  0.00000000000E+00  0.00000000000E+00  0.21725023854E+03  0.21725023854E+03  0.00000000000E+00 0. -1.
          2   -1    0    0  502    0 -0.00000000000E+00 -0.00000000000E+00 -0.43013926037E+03  0.43013926037E+03  0.00000000000E+00 0. -1.
         23    2    1    2    0    0  0.76193614136E+02  0.22306776240E+03 -0.13411852029E+03  0.28639569814E+03  0.92032738581E+02 0.  0.
         23    2    1    2    0    0 -0.38205091184E+02 -0.85794243965E+02 -0.15197176147E+03  0.20085145410E+03  0.91791116358E+02 0.  0.
        -13    1    4    4    0    0 -0.34081634592E+02 -0.38998670059E+01 -0.95001101477E+02  0.10100483187E+03  0.00000000000E+00 0.  1.
         13    1    4    4    0    0 -0.41234565920E+01 -0.81894376959E+02 -0.56970659988E+02  0.99846622233E+02  0.00000000000E+00 0. -1.
        -13    1    3    3    0    0  0.22789869794E+01  0.25323875022E+02 -0.55639038453E+02  0.61173483044E+02  0.00000000000E+00 0.  1.
         13    1    3    3    0    0  0.73914627157E+02  0.19774388738E+03 -0.78479481840E+02  0.22522221510E+03  0.00000000000E+00 0. -1.
          2    1    1    2  501    0 -0.37988522952E+02 -0.13727351844E+03  0.73201259926E+02  0.16014234667E+03  0.00000000000E+00 0. -1.
<scales pt_clust_5="13000.00000" pt_clust_6="13000.00000" pt_clust_7="13000.00000" pt_clust_8="13000.00000" pt_clust_9="13000.00000"></scales>
<clustering>
<clus scale="   91.791">  5  6 -1 -1</clus>
<clus scale="   92.033">  7  8 -1 -1</clus>
<clus scale="  142.433">  5  9 -1 -1</clus>
<clus scale="  253.051">  2  7  1 -1</clus>
<clus scale="  352.295">  1  5  2 -1</clus>
</clustering>
</event>
<event>
 9    1  0.6399313E-006  0.2218557E+03  0.7546771E-02  0.1164419E+00
         21   -1    0    0  501  502  0.00000000000E+00  0.00000000000E+00  0.11376613459E+03  0.11376613459E+03  0.00000000000E+00 0. -1.
         -1   -1    0    0    0  501 -0.00000000000E+00 -0.00000000000E+00 -0.23348594453E+03  0.23348594453E+03  0.00000000000E+00 0.  1.
         23    2    1    2    0    0 -0.49255242849E+02  0.17317835137E+01 -0.43581004235E+02  0.11269489845E+03  0.91497312439E+02 0.  0.
         23    2    1    2    0    0  0.15298015118E+02 -0.14292391791E+02 -0.13564151020E+03  0.16490494426E+03  0.91415095154E+02 0.  0.
        -11    1    3    3    0    0 -0.14430652675E+02  0.22052189805E+02 -0.62743294202E+02  0.68053389182E+02  0.00000000000E+00 0.  1.
         11    1    3    3    0    0 -0.34824590175E+02 -0.20320406291E+02  0.19162289968E+02  0.44641509265E+02  0.00000000000E+00 0. -1.
        -13    1    4    4    0    0  0.20782962876E+02  0.36848434935E+02 -0.58756106733E+02  0.72401787142E+02  0.00000000000E+00 0.  1.
         13    1    4    4    0    0 -0.54849477586E+01 -0.51140826726E+02 -0.76885403464E+02  0.92503157113E+02  0.00000000000E+00 0. -1.
         -1    1    1    2    0  502  0.33957227732E+02  0.12560608278E+02  0.59502704495E+02  0.69652236416E+02  0.00000000000E+00 0.  1.
<scales pt_clust_5="13000.00000" pt_clust_6="13000.00000" pt_clust_7="13000.00000" pt_clust_8="13000.00000" pt_clust_9="13000.00000"></scales>
<clustering>
<clus scale="   91.415">  7  8 -1 -1</clus>
<clus scale="   36.206">  7  9 -1 -1</clus>
<clus scale="   91.497">  5  6 -1 -1</clus>
<clus scale="  103.927">  2  5  1 -1</clus>
<clus scale="  221.856">  1  5  2 -1</clus>
</clustering>
</event>
<event>
 9    1  0.6399313E-006  0.2375233E+03  0.7546771E-02  0.1151150E+00
         21   -1    0    0  501  502  0.00000000000E+00  0.00000000000E+00  0.26166118618E+02  0.26166118618E+02  0.00000000000E+00 0. -1.
          2   -1    0    0  502    0 -0.00000000000E+00 -0.00000000000E+00 -0.12177465287E+04  0.12177465287E+04  0.00000000000E+00 0. -1.
         23    2    1    2    0    0 -0.67149498094E+02  0.17777963155E+02 -0.30706707271E+03  0.32806267524E+03  0.92248689295E+02 0.  0.
         23    2    1    2    0    0  0.71402704071E+02 -0.92962706912E+02 -0.71976771889E+03  0.73470926912E+03  0.89396476190E+02 0.  0.
        -11    1    4    4    0    0  0.36946981314E+02  0.10364576124E+02 -0.20104910731E+03  0.20467839997E+03  0.00000000000E+00 0.  1.
         11    1    4    4    0    0  0.34455722756E+02 -0.10332728304E+03 -0.51871861158E+03  0.53003086915E+03  0.00000000000E+00 0. -1.
        -11    1    3    3    0    0 -0.84748320977E+02  0.27374549189E+01 -0.18086245756E+03  0.19975234698E+03  0.00000000000E+00 0. -1.
         11    1    3    3    0    0  0.17598822883E+02  0.15040508236E+02 -0.12620461514E+03  0.12831032826E+03  0.00000000000E+00 0.  1.
          2    1    1    2  501    0 -0.42532059769E+01  0.75184743758E+02 -0.16474561844E+03  0.18114070291E+03  0.00000000000E+00 0. -1.
<scales pt_clust_5="13000.00000" pt_clust_6="13000.00000" pt_clust_7="13000.00000" pt_clust_8="13000.00000" pt_clust_9="13000.00000"></scales>
<clustering>
<clus scale="   89.396">  5  6 -1 -1</clus>
<clus scale="   75.305">  5  9 -1 -1</clus>
<clus scale="   92.249">  7  8 -1 -1</clus>
<clus scale="  115.477">  2  7  1 -1</clus>
<clus scale="  237.523">  1  5  2 -1</clus>
</clustering>
</event>
<event>
 9    1  0.6399313E-006  0.5589549E+03  0.7546771E-02  0.1009019E+00
         21   -1    0    0  501  502  0.00000000000E+00  0.00000000000E+00  0.35904595920E+03  0.35904595920E+03  0.00000000000E+00 0.  1.
         -1   -1    0    0    0  501 -0.00000000000E+00 -0.00000000000E+00 -0.74207711679E+03  0.74207711679E+03  0.00000000000E+00 0.  1.
         23    2    1    2    0    0 -0.34315651192E+03  0.21380532092E+03  0.15441018864E+02  0.41467524570E+03  0.90818651214E+02 0.  0.
         23    2    1    2    0    0  0.19832827057E+03  0.56242512617E+02 -0.27407083749E+03  0.35572627818E+03  0.94493586497E+02 0.  0.
        -11    1    4    4    0    0  0.16832729167E+03  0.59445458448E+02 -0.16688012372E+03  0.24437024235E+03  0.00000000000E+00 0.  1.
         11    1    4    4    0    0  0.30000978896E+02 -0.32029458304E+01 -0.10719071377E+03  0.11135603583E+03  0.00000000000E+00 0. -1.
        -13    1    3    3    0    0 -0.26334189033E+03  0.16440443581E+03 -0.27081737279E+02  0.31162668404E+03  0.00000000000E+00 0.  1.
         13    1    3    3    0    0 -0.79814621594E+02  0.49400885110E+02  0.42522756143E+02  0.10304856166E+03  0.00000000000E+00 0. -1.
         -1    1    1    2    0  502  0.14482824135E+03 -0.27004783354E+03 -0.12440133896E+03  0.33072155210E+03  0.00000000000E+00 0.  1.
<scales pt_clust_5="13000.00000" pt_clust_6="13000.00000" pt_clust_7="13000.00000" pt_clust_8="13000.00000" pt_clust_9="13000.00000"></scales>
<clustering>
<clus scale="   90.819">  7  8 -1 -1</clus>
<clus scale="   94.494">  5  6 -1 -1</clus>
<clus scale="  306.433">  5  9 -1 -1</clus>
<clus scale="  414.388">  2  7  1 -1</clus>
<clus scale="  558.955">  1  5  2 -1</clus>
</clustering>
</event>
<event>
 9    1  0.6399313E-006  0.2136636E+03  0.7546771E-02  0.1169124E+00
         21   -1    0    0  501  502  0.00000000000E+00  0.00000000000E+00  0.71979264976E+03  0.71979264976E+03  0.00000000000E+00 0. -1.
          2   -1    0    0  502    0 -0.00000000000E+00 -0.00000000000E+00 -0.35353945550E+02  0.35353945550E+02  0.00000000000E+00 0. -1.
         23    2    1    2    0    0  0.35079511963E+01 -0.55187453092E+02  0.19771609107E+03  0.22359129024E+03  0.88563263845E+02 0.  0.
         23    2    1    2    0    0  0.70573560632E+02 -0.98368792826E+01  0.30040075001E+03  0.32076614293E+03  0.87022503924E+02 0.  0.
        -11    1    4    4    0    0  0.64335656684E+01  0.30208818921E+02  0.46325361282E+02  0.55677667029E+02  0.00000000000E+00 0.  1.
         11    1    4    4    0    0  0.64139994964E+02 -0.40045698203E+02  0.25407538873E+03  0.26508847590E+03  0.00000000000E+00 0. -1.
        -13    1    3    3    0    0  0.15295264673E+02  0.18689233614E+02  0.84559547818E+02  0.87940603260E+02  0.00000000000E+00 0.  1.
         13    1    3    3    0    0 -0.11787313477E+02 -0.73876686705E+02  0.11315654325E+03  0.13565068698E+03  0.00000000000E+00 0. -1.
          2    1    1    2  501    0 -0.74081511829E+02  0.65024332374E+02  0.18632186312E+03  0.21078916213E+03  0.00000000000E+00 0. -1.
<scales pt_clust_5="13000.00000" pt_clust_6="13000.00000" pt_clust_7="13000.00000" pt_clust_8="13000.00000" pt_clust_9="13000.00000"></scales>
<clustering>
<clus scale="   87.023">  5  6 -1 -1</clus>
<clus scale="   88.563">  7  8 -1 -1</clus>
<clus scale="   98.571">  5  9 -1 -1</clus>
<clus scale="  104.410">  2  7  1 -1</clus>
<clus scale="  213.664">  1  5  2 -1</clus>
</clustering>
</event>
<event>
 9    1  0.6399313E-006  0.1568570E+03  0.7546771E-02  0.1208350E+00
         21   -1    0    0  501  502  0.00000000000E+00  0.00000000000E+00  0.18469820196E+03  0.18469820196E+03  0.00000000000E+00 0. -1.
         -2   -1    0    0    0  501 -0.00000000000E+00 -0.00000000000E+00 -0.12681990751E+03  0.12681990751E+03  0.00000000000E+00 0.  1.
         23    2    1    2    0    0 -0.47401358253E+02  0.36699921265E+02  0.99925999576E+02  0.14912309220E+03  0.93052233989E+02 0.  0.
         23    2    1    2    0    0  0.20383761256E+02 -0.23836311836E+02 -0.70367239587E+02  0.12119527180E+03  0.93557885905E+02 0.  0.
        -13    1    4    4    0    0 -0.88381199512E+01  0.20651656758E+02  0.10170168592E+02  0.24658378299E+02  0.00000000000E+00 0. -1.
         13    1    4    4    0    0  0.29221881207E+02 -0.44487968594E+02 -0.80537408179E+02  0.96536893503E+02  0.00000000000E+00 0.  1.
        -13    1    3    3    0    0 -0.16456909254E+02  0.58376073601E+02  0.92512165634E+02  0.11062141123E+03  0.00000000000E+00 0. -1.
         13    1    3    3    0    0 -0.30944448999E+02 -0.21676152336E+02  0.74138339413E+01  0.38501680972E+02  0.00000000000E+00 0.  1.
         -2    1    1    2    0  502  0.27017596997E+02 -0.12863609429E+02  0.28319534461E+02  0.41199745474E+02  0.00000000000E+00 0.  1.
<scales pt_clust_5="13000.00000" pt_clust_6="13000.00000" pt_clust_7="13000.00000" pt_clust_8="13000.00000" pt_clust_9="13000.00000"></scales>
<clustering>
<clus scale="   93.052">  7  8 -1 -1</clus>
<clus scale="   93.558">  5  6 -1 -1</clus>
<clus scale="   29.924">  5  9 -1 -1</clus>
<clus scale="  110.691">  2  7  1 -1</clus>
<clus scale="  156.857">  1  5  2 -1</clus>
</clustering>
</event>
<event>
 9    1  0.6399313E-006  0.3286264E+03  0.7546771E-02  0.1109095E+00
         21   -1    0    0  501  502  0.00000000000E+00  0.00000000000E+00  0.18350449931E+03  0.18350449931E+03  0.00000000000E+00 0.  1.
          2   -1    0    0  502    0 -0.00000000000E+00 -0.00000000000E+00 -0.47922539796E+03  0.47922539796E+03  0.00000000000E+00 0. -1.
         23    2    1    2    0    0  0.19676990107E+02 -0.80113601079E+02 -0.31048159700E+03  0.33377215580E+03  0.90551956873E+02 0.  0.
         23    2    1    2    0    0 -0.57376235115E-01  0.27480298191E+01  0.14771973097E+03  0.17388206569E+03  0.91685870730E+02 0.  0.
        -11    1    3    3    0    0 -0.27519405054E+01 -0.94989006901E+02 -0.25433688199E+03  0.27151009953E+03  0.00000000000E+00 0. -1.
         11    1    3    3    0    0  0.22428930612E+02  0.14875405822E+02 -0.56144715008E+02  0.62262056263E+02  0.00000000000E+00 0.  1.
        -11    1    4    4    0    0 -0.21711419864E+02  0.36404774247E+02  0.37403372761E+02  0.56530572564E+02  0.00000000000E+00 0. -1.
         11    1    4    4    0    0  0.21654043629E+02 -0.33656744428E+02  0.11031635820E+03  0.11735149312E+03  0.00000000000E+00 0.  1.
          2    1    1    2  501    0 -0.19619613871E+02  0.77365571260E+02 -0.13295903262E+03  0.15507567578E+03  0.00000000000E+00 0. -1.
<scales pt_clust_5="13000.00000" pt_clust_6="13000.00000" pt_clust_7="13000.00000" pt_clust_8="13000.00000" pt_clust_9="13000.00000"></scales>
<clustering>
<clus scale="   90.552">  5  6 -1 -1</clus>
<clus scale="   91.686">  7  8 -1 -1</clus>
<clus scale="   79.815">  7  9 -1 -1</clus>
<clus scale="  122.495">  2  5  1 -1</clus>
<clus scale="  328.626">  1  5  2 -1</clus>
</clustering>
</event>
<event>
 9    1  0.6399313E-006  0.1291505E+03  0.7546771E-02  0.1240623E+00
          1   -1    0    0  502    0 -0.00000000000E+00  0.00000000000E+00  0.17420772719E+03  0.17420772719E+03  0.00000000000E+00 0. -1.
         21   -1    0    0  501  502  0.00000000000E+00 -0.00000000000E+00 -0.10066291739E+03  0.10066291739E+03  0.00000000000E+00 0.  1.
         23    2    1    2    0    0 -0.47964411033E+02  0.86640651957E+01  0.10084129798E+03  0.14286703784E+03  0.88692572240E+02 0.  0.
         23    2    1    2    0    0  0.19631144698E+02 -0.22075444938E+02 -0.57112428428E+01  0.93943629014E+02  0.88994831457E+02 0.  0.
        -11    1    3    3    0    0  0.51532416911E-01 -0.20011604627E+02  0.81140203363E+02  0.83571523721E+02  0.00000000000E+00 0.  1.
         11    1    3    3    0    0 -0.48015943450E+02  0.28675669823E+02  0.19701094618E+02  0.59295514116E+02  0.00000000000E+00 0. -1.
        -11    1    4    4    0    0  0.42611442829E+02 -0.21141911448E+02  0.26432850070E+02  0.54418848228E+02  0.00000000000E+00 0. -1.
         11    1    4    4    0    0 -0.22980298130E+02 -0.93353349072E+00 -0.32144092913E+02  0.39524780786E+02  0.00000000000E+00 0.  1.
          1    1    1    2  501    0  0.28333266335E+02  0.13411379743E+02 -0.21585245341E+02  0.38059977722E+02  0.00000000000E+00 0. -1.
<scales pt_clust_5="13000.00000" pt_clust_6="13000.00000" pt_clust_7="13000.00000" pt_clust_8="13000.00000" pt_clust_9="13000.00000"></scales>
<clustering>
<clus scale="   88.693">  5  6 -1 -1</clus>
<clus scale="   88.995">  7  8 -1 -1</clus>
<clus scale="   31.347">  7  9 -1 -1</clus>
<clus scale="  101.203">  1  5  2 -1</clus>
<clus scale="  129.151">  2  5  1 -1</clus>
</clustering>
</event>
<event>
 9    1  0.6399313E-006  0.3112916E+03  0.7546771E-02  0.1095666E+00
         21   -1    0    0  501  502  0.00000000000E+00  0.00000000000E+00  0.15270368080E+03  0.15270368080E+03  0.00000000000E+00 0. -1.
          1   -1    0    0  502    0 -0.00000000000E+00 -0.00000000000E+00 -0.72781920570E+03  0.72781920570E+03  0.00000000000E+00 0. -1.
         23    2    1    2    0    0 -0.14860780368E+03 -0.10283970802E+03 -0.52760121346E+03  0.56562592622E+03  0.94389422676E+02 0.  0.
         23    2    1    2    0    0 -0.14948950468E+02 -0.13265818572E+02 -0.65276927671E+02  0.11353456144E+03  0.90716957026E+02 0.  0.
        -11    1    4    4    0    0 -0.21758859026E+02  0.32533530907E+02 -0.81142595481E+01  0.39971487180E+02  0.00000000000E+00 0.  1.
         11    1    4    4    0    0  0.68099085582E+01 -0.45799349479E+02 -0.57162668123E+02  0.73563074257E+02  0.00000000000E+00 0. -1.
        -11    1    3    3    0    0 -0.33957361773E+02 -0.75324164237E+02 -0.26923142137E+03  0.28162455573E+03  0.00000000000E+00 0.  1.
         11    1    3    3    0    0 -0.11465044190E+03 -0.27515543783E+02 -0.25836979209E+03  0.28400137049E+03  0.00000000000E+00 0. -1.
          1    1    1    2  501    0  0.16355675415E+03  0.11610552659E+03  0.17762616230E+02  0.20136239884E+03  0.00000000000E+00 0. -1.
<scales pt_clust_5="13000.00000" pt_clust_6="13000.00000" pt_clust_7="13000.00000" pt_clust_8="13000.00000" pt_clust_9="13000.00000"></scales>
<clustering>
<clus scale="   90.717">  5  6 -1 -1</clus>
<clus scale="   94.389">  7  8 -1 -1</clus>
<clus scale="  200.578">  5  9 -1 -1</clus>
<clus scale="  203.886">  2  7  1 -1</clus>
<clus scale="  311.292">  1  5  2 -1</clus>
</clustering>
</event>
<event>
 9    1  0.6399313E-006  0.5271493E+03  0.7546771E-02  0.1026728E+00
          1   -1    0    0  502    0 -0.00000000000E+00  0.00000000000E+00  0.27835920026E+03  0.27835920026E+03  0.00000000000E+00 0. -1.
         21   -1    0    0  501  502  0.00000000000E+00 -0.00000000000E+00 -0.61372438583E+03  0.61372438583E+03  0.00000000000E+00 0. -1.
         23    2    1    2    0    0  0.26054109788E+03 -0.89137382043E+02 -0.50025501879E+02  0.29266297066E+03  0.85568259282E+02 0.  0.
         23    2    1    2    0    0 -0.16289199721E+03 -0.16867987391E+03 -0.13720121590E+03  0.28645082460E+03  0.90792062705E+02 0.  0.
        -11    1    4    4    0    0 -0.22663426687E+02 -0.28758811546E+02 -0.66873587955E+02  0.76241569480E+02  0.00000000000E+00 0.  1.
         11    1    4    4    0    0 -0.14022857053E+03 -0.13992106237E+03 -0.70327627942E+02  0.21020925512E+03  0.00000000000E+00 0. -1.
        -13    1    3    3    0    0  0.69463635009E+01 -0.24106435555E+02 -0.13006612624E+02  0.28258523900E+02  0.00000000000E+00 0.  1.
         13    1    3    3    0    0  0.25359473438E+03 -0.65030946488E+02 -0.37018889255E+02  0.26440444677E+03  0.00000000000E+00 0. -1.
          1    1    1    2  501    0 -0.97649100670E+02  0.25781725596E+03 -0.14813846779E+03  0.31296979082E+03  0.00000000000E+00 0. -1.
<scales pt_clust_5="13000.00000" pt_clust_6="13000.00000" pt_clust_7="13000.00000" pt_clust_8="13000.00000" pt_clust_9="13000.00000"></scales>
<clustering>
<clus scale="   85.568">  7  8 -1 -1</clus>
<clus scale="   90.792">  5  6 -1 -1</clus>
<clus scale="  275.690">  5  9 -1 -1</clus>
<clus scale="  288.356">  1  7  2 -1</clus>
<clus scale="  527.149">  2  5  1 -1</clus>
</clustering>
</event>
<event>
 9    1  0.6399313E-006  0.3779219E+03  0.7546771E-02  0.1066466E+00
          2   -1    0    0  502    0 -0.00000000000E+00  0.00000000000E+00  0.58053665240E+03  0.58053665240E+03  0.00000000000E+00 0. -1.
         21   -1    0    0  501  502  0.00000000000E+00 -0.00000000000E+00 -0.24897289106E+03  0.24897289106E+03  0.00000000000E+00 0. -1.
         23    2    1    2    0    0  0.22324182224E+03 -0.57858012394E+02  0.37340150185E+03  0.44927889522E+03  0.96116509024E+02 0.  0.
         23    2    1    2    0    0 -0.81015810923E+02  0.83542395296E+02  0.99378115455E+02  0.17816668858E+03  0.91238509720E+02 0.  0.
        -13    1    3    3    0    0  0.19942413035E+03 -0.66982837973E+02  0.36693953547E+03  0.42296726473E+03  0.00000000000E+00 0. -1.
         13    1    3    3    0    0  0.23817691898E+02  0.91248255790E+01  0.64619663827E+01  0.26311630484E+02  0.00000000000E+00 0.  1.
        -13    1    4    4    0    0  0.91155989091E+01  0.47682892117E+02  0.18791250282E+02  0.52056348617E+02  0.00000000000E+00 0. -1.
         13    1    4    4    0    0 -0.90131409833E+02  0.35859503178E+02  0.80586865173E+02  0.12611033996E+03  0.00000000000E+00 0.  1.
          2    1    1    2  501    0 -0.14222601132E+03 -0.25684382902E+02 -0.14121585596E+03  0.20206395967E+03  0.00000000000E+00 0. -1.
<scales pt_clust_5="13000.00000" pt_clust_6="13000.00000" pt_clust_7="13000.00000" pt_clust_8="13000.00000" pt_clust_9="13000.00000"></scales>
<clustering>
<clus scale="   91.239">  7  8 -1 -1</clus>
<clus scale="   96.117">  5  6 -1 -1</clus>
<clus scale="  144.527">  7  9 -1 -1</clus>
<clus scale="  249.846">  1  5  2 -1</clus>
<clus scale="  377.922">  2  5  1 -1</clus>
</clustering>
</event>
<event>
 9    1  0.6399313E-006  0.3674749E+03  0.7546771E-02  0.1094853E+00
         21   -1    0    0  501  502  0.00000000000E+00  0.00000000000E+00  0.45957538412E+03  0.45957538412E+03  0.00000000000E+00 0. -1.
         -2   -1    0    0    0  501 -0.00000000000E+00 -0.00000000000E+00 -0.15077225239E+03  0.15077225239E+03  0.00000000000E+00 0.  1.
         23    2    1    2    0    0 -0.25787159191E+02 -0.84196188759E+02 -0.55984406297E+01  0.12672984744E+03  0.90967774046E+02 0.  0.
         23    2    1    2    0    0  0.60985231630E+02  0.19986999685E+03  0.12892445613E+03  0.26221070964E+03  0.92009383994E+02 0.  0.
        -11    1    3    3    0    0 -0.23043350191E+02  0.98631094646E+01  0.16579205900E+02  0.30052403974E+02  0.00000000000E+00 0. -1.
         11    1    3    3    0    0 -0.27438089998E+01 -0.94059298223E+02 -0.22177646530E+02  0.96677443469E+02  0.00000000000E+00 0.  1.
        -13    1    4    4    0    0  0.51465248421E+02  0.17386136391E+03  0.14320462459E+03  0.23104980017E+03  0.00000000000E+00 0. -1.
         13    1    4    4    0    0  0.95199832091E+01  0.26008632937E+02 -0.14280168458E+02  0.31160909466E+02  0.00000000000E+00 0.  1.
         -2    1    1    2    0  502 -0.35198072439E+02 -0.11567380809E+03  0.18547711623E+03  0.22140707944E+03  0.00000000000E+00 0.  1.
<scales pt_clust_5="13000.00000" pt_clust_6="13000.00000" pt_clust_7="13000.00000" pt_clust_8="13000.00000" pt_clust_9="13000.00000"></scales>
<clustering>
<clus scale="   90.968">  5  6 -1 -1</clus>
<clus scale="   92.009">  7  8 -1 -1</clus>
<clus scale="  120.910">  7  9 -1 -1</clus>
<clus scale="  126.606">  2  5  1 -1</clus>
<clus scale="  367.475">  1  5  2 -1</clus>
</clustering>
</event>
<event>
 9    1  0.6399313E-006  0.2584101E+03  0.7546771E-02  0.1128549E+00
         21   -1    0    0  501  502  0.00000000000E+00  0.00000000000E+00  0.27737430784E+03  0.27737430784E+03  0.00000000000E+00 0. -1.
          1   -1    0    0  502    0 -0.00000000000E+00 -0.00000000000E+00 -0.18071612637E+03  0.18071612637E+03  0.00000000000E+00 0. -1.
         23    2    1    2    0    0 -0.10242821144E+03  0.70866074501E+02 -0.47942243963E+02  0.16197381083E+03  0.91779723379E+02 0.  0.
         23    2    1    2    0    0  0.12454814767E+02  0.87016767386E+01 -0.31406389775E+02  0.83032982177E+02  0.75347682257E+02 0.  0.
        -13    1    4    4    0    0 -0.28550352821E+02  0.84095319796E+01 -0.29616309704E+02  0.41987720524E+02  0.00000000000E+00 0.  1.
         13    1    4    4    0    0  0.41005167588E+02  0.29214475894E+00 -0.17900800706E+01  0.41045261653E+02  0.00000000000E+00 0. -1.
        -13    1    3    3    0    0 -0.21833083268E+02 -0.19629966940E+02  0.49095835753E+01  0.29767820510E+02  0.00000000000E+00 0.  1.
         13    1    3    3    0    0 -0.80595128174E+02  0.90496041441E+02 -0.52851827538E+02  0.13220599032E+03  0.00000000000E+00 0. -1.
          1    1    1    2  501    0  0.89973396675E+02 -0.79567751240E+02  0.17600681521E+03  0.21308364120E+03  0.00000000000E+00 0. -1.
<scales pt_clust_5="13000.00000" pt_clust_6="13000.00000" pt_clust_7="13000.00000" pt_clust_8="13000.00000" pt_clust_9="13000.00000"></scales>
<clustering>
<clus scale="   75.348">  5  6 -1 -1</clus>
<clus scale="   91.780">  7  8 -1 -1</clus>
<clus scale="  120.109">  5  9 -1 -1</clus>
<clus scale="  154.716">  2  7  1 -1</clus>
<clus scale="  258.410">  1  5  2 -1</clus>
</clustering>
</event>
<event>
 9    1  0.6399313E-006  0.2389136E+03  0.7546771E-02  0.1155515E+00
         -1   -1    0    0    0  501 -0.00000000000E+00  0.00000000000E+00  0.37375271150E+02  0.37375271150E+02  0.00000000000E+00 0.  1.
         21   -1    0    0  501  502  0.00000000000E+00 -0.00000000000E+00 -0.11130633067E+04  0.11130633067E+04  0.00000000000E+00 0. -1.
         23    2    1    2    0    0 -0.31007892854E+02  0.35439990623E+00 -0.90352703435E+02  0.13655228607E+03  0.97577153039E+02 0.  0.
         23    2    1    2    0    0  0.11131965031E+03  0.29365761865E+02 -0.60319342882E+03  0.62226696046E+03  0.10059545219E+03 0.  0.
        -13    1    4    4    0    0  0.10859492908E+03  0.57684472954E+02 -0.52009381809E+03  0.53443234994E+03  0.00000000000E+00 0. -1.
         13    1    4    4    0    0  0.27247212308E+01 -0.28318711089E+02 -0.83099610723E+02  0.87834610524E+02  0.00000000000E+00 0.  1.
        -13    1    3    3    0    0 -0.37972741834E+02  0.39222567417E+02 -0.24656641967E+02  0.59902328087E+02  0.00000000000E+00 0.  1.
         13    1    3    3    0    0  0.69648489798E+01 -0.38868167511E+02 -0.65696061467E+02  0.76649957986E+02  0.00000000000E+00 0. -1.
         -1    1    1    2    0  502 -0.80311757458E+02 -0.29720161772E+02 -0.38214190326E+03  0.39161933128E+03  0.00000000000E+00 0.  1.
<scales pt_clust_5="13000.00000" pt_clust_6="13000.00000" pt_clust_7="13000.00000" pt_clust_8="13000.00000" pt_clust_9="13000.00000"></scales>
<clustering>
<clus scale="   97.577">  7  8 -1 -1</clus>
<clus scale="  100.595">  5  6 -1 -1</clus>
<clus scale="   85.635">  5  9 -1 -1</clus>
<clus scale="  102.386">  1  7  2 -1</clus>
<clus scale="  238.914">  2  5  1 -1</clus>
</clustering>
</event>
<event>
 9    1  0.6399313E-006  0.2657817E+03  0.7546771E-02  0.1130934E+00
         21   -1    0    0  501  502  0.00000000000E+00  0.00000000000E+00  0.15927939233E+03  0.15927939233E+03  0.00000000000E+00 0. -1.
          1   -1    0    0  502    0 -0.00000000000E+00 -0.00000000000E+00 -0.30875499328E+03  0.30875499328E+03  0.00000000000E+00 0. -1.
         23    2    1    2    0    0  0.54082780937E+02 -0.80622022428E+02  0.41930213845E+02  0.14050407380E+03  0.92511589689E+02 0.  0.
         23    2    1    2    0    0 -0.10442829782E+02 -0.21169814511E+02 -0.19574292971E+03  0.21669334158E+03  0.89908264436E+02 0.  0.
        -11    1    3    3    0    0  0.23838578447E+02  0.18665005857E+02  0.10797671367E+02  0.32144205900E+02  0.00000000000E+00 0.  1.
         11    1    3    3    0    0  0.30244202491E+02 -0.99287028285E+02  0.31132542478E+02  0.10835986790E+03  0.00000000000E+00 0. -1.
        -13    1    4    4    0    0  0.34936513357E+00 -0.55603787147E+02 -0.13555959424E+03  0.14652067018E+03  0.00000000000E+00 0. -1.
         13    1    4    4    0    0 -0.10792194916E+02  0.34433972635E+02 -0.60183335472E+02  0.70172671398E+02  0.00000000000E+00 0.  1.
          1    1    1    2  501    0 -0.43639951155E+02  0.10179183694E+03  0.43371149150E+01  0.11083697023E+03  0.00000000000E+00 0. -1.
<scales pt_clust_5="13000.00000" pt_clust_6="13000.00000" pt_clust_7="13000.00000" pt_clust_8="13000.00000" pt_clust_9="13000.00000"></scales>
<clustering>
<clus scale="   89.908">  7  8 -1 -1</clus>
<clus scale="   92.512">  5  6 -1 -1</clus>
<clus scale="  110.752">  7  9 -1 -1</clus>
<clus scale="  134.102">  2  5  1 -1</clus>
<clus scale="  265.782">  1  5  2 -1</clus>
</clustering>
</event>
<event>
 9    1  0.6399313E-006  0.2874150E+03  0.7546771E-02  0.1129942E+00
         21   -1    0    0  501  502  0.00000000000E+00  0.00000000000E+00  0.43447116550E+03  0.43447116550E+03  0.00000000000E+00 0.  1.
         -3   -1    0    0    0  501 -0.00000000000E+00 -0.00000000000E+00 -0.90368016742E+02  0.90368016742E+02  0.00000000000E+00 0.  1.
         23    2    1    2    0    0  0.19811843574E+02 -0.55528501153E+02  0.10234958234E+03  0.14927008522E+03  0.91269917013E+02 0.  0.
         23    2    1    2    0    0 -0.40431380261E+02 -0.56455204923E+02  0.71156996583E+01  0.11476180372E+03  0.91091996019E+02 0.  0.
        -11    1    3    3    0    0  0.33418233537E+01 -0.79242120950E+02  0.80978833966E+02  0.11334925261E+03  0.00000000000E+00 0.  1.
         11    1    3    3    0    0  0.16470020220E+02  0.23713619796E+02  0.21370748373E+02  0.35920832617E+02  0.00000000000E+00 0. -1.
        -13    1    4    4    0    0  0.64579061745E+01 -0.40980838867E+02 -0.31490215088E+02  0.52084233245E+02  0.00000000000E+00 0.  1.
         13    1    4    4    0    0 -0.46889286435E+02 -0.15474366056E+02  0.38605914747E+02  0.62677570475E+02  0.00000000000E+00 0. -1.
         -3    1    1    2    0  502  0.20619536687E+02  0.11198370608E+03  0.23463786676E+03  0.26080729330E+03  0.00000000000E+00 0.  1.
<scales pt_clust_5="13000.00000" pt_clust_6="13000.00000" pt_clust_7="13000.00000" pt_clust_8="13000.00000" pt_clust_9="13000.00000"></scales>
<clustering>
<clus scale="   91.092">  7  8 -1 -1</clus>
<clus scale="   91.270">  5  6 -1 -1</clus>
<clus scale="  108.656">  2  5  1 -1</clus>
<clus scale="  104.049">  7  9 -1 -1</clus>
<clus scale="  287.415">  1  5  2 -1</clus>
</clustering>
</event>
<event>
 9    1  0.6399313E-006  0.6246198E+03  0.7546771E-02  0.1040643E+00
         21   -1    0    0  501  502  0.00000000000E+00  0.00000000000E+00  0.45570894317E+03  0.45570894317E+03  0.00000000000E+00 0. -1.
          1   -1    0    0  502    0 -0.00000000000E+00 -0.00000000000E+00 -0.41512391826E+03  0.41512391826E+03  0.00000000000E+00 0. -1.
         23    2    1    2    0    0  0.11931155059E+02 -0.68873041068E+02 -0.17554027923E+03  0.20987900695E+03  0.91372641856E+02 0.  0.
         23    2    1    2    0    0 -0.29206028859E+03  0.24548346319E+02  0.21701130521E+03  0.37733827836E+03  0.96893943310E+02 0.  0.
        -11    1    3    3    0    0 -0.32351474020E+02 -0.62211073923E+02 -0.10200243974E+03  0.12377937349E+03  0.00000000000E+00 0. -1.
         11    1    3    3    0    0  0.44282629079E+02 -0.66619671447E+01 -0.73537839491E+02  0.86099633457E+02  0.00000000000E+00 0.  1.
        -11    1    4    4    0    0 -0.30964974113E+02 -0.27963838673E+02  0.38082767512E+02  0.56489849323E+02  0.00000000000E+00 0.  1.
         11    1    4    4    0    0 -0.26109531448E+03  0.52512184992E+02  0.17892853770E+03  0.32084842904E+03  0.00000000000E+00 0. -1.
          1    1    1    2  501    0  0.28012913353E+03  0.44324694749E+02 -0.88600108018E+00  0.28361557612E+03  0.00000000000E+00 0. -1.
<scales pt_clust_5="13000.00000" pt_clust_6="13000.00000" pt_clust_7="13000.00000" pt_clust_8="13000.00000" pt_clust_9="13000.00000"></scales>
<clustering>
<clus scale="   91.373">  5  6 -1 -1</clus>
<clus scale="   96.894">  7  8 -1 -1</clus>
<clus scale="  115.043">  2  5  1 -1</clus>
<clus scale="  287.760">  7  9 -1 -1</clus>
<clus scale="  624.620">  1  5  2 -1</clus>
</clustering>
</event>
<event>
 9    1  0.6399313E-006  0.1191912E+03  0.7546771E-02  0.1251724E+00
         21   -1    0    0  501  502  0.00000000000E+00  0.00000000000E+00  0.84113627358E+02  0.84113627358E+02  0.00000000000E+00 0. -1.
         -2   -1    0    0    0  501 -0.00000000000E+00 -0.00000000000E+00 -0.14961371013E+03  0.14961371013E+03  0.00000000000E+00 0.  1.
         23    2    1    2    0    0  0.35925595685E+02 -0.27446991989E+02 -0.46592905703E+02  0.11304584860E+03  0.92544471633E+02 0.  0.
         23    2    1    2    0    0 -0.20980162105E+02  0.12088809522E+02 -0.25293911008E+02  0.98320135531E+02  0.91873612093E+02 0.  0.
        -11    1    3    3    0    0 -0.31166968367E+02 -0.13720368662E+02 -0.20582596303E+02  0.39790346869E+02  0.00000000000E+00 0.  1.
         11    1    3    3    0    0  0.67092564053E+02 -0.13726623327E+02 -0.26010309400E+02  0.73255501734E+02  0.00000000000E+00 0. -1.
        -13    1    4    4    0    0  0.73992829111E+01  0.22488210898E+02  0.28235448503E+02  0.36847110730E+02  0.00000000000E+00 0. -1.
         13    1    4    4    0    0 -0.28379445016E+02 -0.10399401375E+02 -0.53529359512E+02  0.61473024800E+02  0.00000000000E+00 0.  1.
         -2    1    1    2    0  502 -0.14945433580E+02  0.15358182467E+02  0.63867339371E+01  0.22361353357E+02  0.00000000000E+00 0.  1.
<scales pt_clust_5="13000.00000" pt_clust_6="13000.00000" pt_clust_7="13000.00000" pt_clust_8="13000.00000" pt_clust_9="13000.00000"></scales>
<clustering>
<clus scale="   91.874">  7  8 -1 -1</clus>
<clus scale="   21.430">  7  9 -1 -1</clus>
<clus scale="   92.544">  5  6 -1 -1</clus>
<clus scale="  102.997">  2  5  1 -1</clus>
<clus scale="  119.191">  1  5  2 -1</clus>
</clustering>
</event>
<event>
 9    1  0.6399313E-006  0.2741091E+03  0.7546771E-02  0.1138864E+00
          2   -1    0    0  502    0 -0.00000000000E+00  0.00000000000E+00  0.30441856919E+03  0.30441856919E+03  0.00000000000E+00 0. -1.
         21   -1    0    0  501  502  0.00000000000E+00 -0.00000000000E+00 -0.15337956650E+03  0.15337956650E+03  0.00000000000E+00 0. -1.
         23    2    1    2    0    0  0.38310081705E+02 -0.11260328904E+02  0.15355616304E+03  0.18367743996E+03  0.92538907348E+02 0.  0.
         23    2    1    2    0    0 -0.11614914673E+03  0.78298228335E+02  0.16223984686E+02  0.16969737209E+03  0.94407327945E+02 0.  0.
        -11    1    4    4    0    0 -0.15434350430E+02 -0.18816651240E+02  0.17170307366E+02  0.29784307816E+02  0.00000000000E+00 0.  1.
         11    1    4    4    0    0 -0.10071479630E+03  0.97114879575E+02 -0.94632267982E+00  0.13991306428E+03  0.00000000000E+00 0. -1.
        -13    1    3    3    0    0  0.20012140381E+02 -0.51364756722E+02  0.10115680878E+03  0.11520210049E+03  0.00000000000E+00 0.  1.
         13    1    3    3    0    0  0.18297941324E+02  0.40104427818E+02  0.52399354263E+02  0.68475339462E+02  0.00000000000E+00 0. -1.
          2    1    1    2  501    0  0.77839065023E+02 -0.67037899431E+02 -0.18741145031E+02  0.10442332364E+03  0.00000000000E+00 0. -1.
<scales pt_clust_5="13000.00000" pt_clust_6="13000.00000" pt_clust_7="13000.00000" pt_clust_8="13000.00000" pt_clust_9="13000.00000"></scales>
<clustering>
<clus scale="   92.539">  7  8 -1 -1</clus>
<clus scale="   94.407">  5  6 -1 -1</clus>
<clus scale="  100.786">  1  7  2 -1</clus>
<clus scale="  114.322">  5  9 -1 -1</clus>
<clus scale="  274.109">  2  5  1 -1</clus>
</clustering>
</event>
<event>
 9    1  0.6399313E-006  0.3655669E+03  0.7546771E-02  0.1061816E+00
         -3   -1    0    0    0  501 -0.00000000000E+00  0.00000000000E+00  0.24848572876E+03  0.24848572876E+03  0.00000000000E+00 0.  1.
         21   -1    0    0  501  502  0.00000000000E+00 -0.00000000000E+00 -0.53185978925E+03  0.53185978925E+03  0.00000000000E+00 0.  1.
         23    2    1    2    0    0  0.24739235183E+03  0.17386058085E+03  0.59580209492E+01  0.31413506864E+03  0.84940367434E+02 0.  0.
         23    2    1    2    0    0 -0.13212732605E+03 -0.70402440059E+02 -0.52597263898E+02  0.18330942974E+03  0.91770044182E+02 0.  0.
        -13    1    4    4    0    0 -0.87908584362E+02  0.50125164834E+01 -0.29884514317E+02  0.92984561740E+02  0.00000000000E+00 0.  1.
         13    1    4    4    0    0 -0.44218741684E+02 -0.75414956543E+02 -0.22712749581E+02  0.90324868004E+02  0.00000000000E+00 0. -1.
        -13    1    3    3    0    0  0.10818065088E+03  0.40420742657E+02 -0.26752207080E+02  0.11854353734E+03  0.00000000000E+00 0. -1.
         13    1    3    3    0    0  0.13921170094E+03  0.13343983820E+03  0.32710228029E+02  0.19559153130E+03  0.00000000000E+00 0.  1.
         -3    1    1    2    0  502 -0.11526502578E+03 -0.10345814080E+03 -0.23673481755E+03  0.28290101962E+03  0.00000000000E+00 0.  1.
<scales pt_clust_5="13000.00000" pt_clust_6="13000.00000" pt_clust_7="13000.00000" pt_clust_8="13000.00000" pt_clust_9="13000.00000"></scales>
<clustering>
<clus scale="   84.940">  7  8 -1 -1</clus>
<clus scale="   91.770">  5  6 -1 -1</clus>
<clus scale="  154.886">  5  9 -1 -1</clus>
<clus scale="  314.079">  1  7  2 -1</clus>
<clus scale="  365.567">  2  5  1 -1</clus>
</clustering>
</event>
<event>
 9    1  0.6399313E-006  0.1786098E+03  0.7546771E-02  0.1187851E+00
         -3   -1    0    0    0  501 -0.00000000000E+00  0.00000000000E+00  0.77129289724E+02  0.77129289724E+02  0.00000000000E+00 0.  1.
         21   -1    0    0  501  502  0.00000000000E+00 -0.00000000000E+00 -0.28624099783E+03  0.28624099783E+03  0.00000000000E+00 0.  1.
         23    2    1    2    0    0 -0.19396325275E+02  0.11464091636E+02 -0.66018685729E+02  0.13450990458E+03  0.11500784640E+03 0.  0.
         23    2    1    2    0    0  0.52620964644E+02  0.43135442706E+02 -0.90031440973E+02  0.14579103103E+03  0.92302394483E+02 0.  0.
        -13    1    4    4    0    0 -0.30149687424E+01  0.37095396375E+02 -0.80950445380E+02  0.89096201243E+02  0.00000000000E+00 0.  1.
         13    1    4    4    0    0  0.55635933386E+02  0.60400463311E+01 -0.90809955929E+01  0.56694829785E+02  0.00000000000E+00 0. -1.
        -13    1    3    3    0    0 -0.56445651961E+02 -0.27518333729E+02 -0.28659010825E+02  0.69026873158E+02  0.00000000000E+00 0.  1.
         13    1    3    3    0    0  0.37049326685E+02  0.38982425365E+02 -0.37359674904E+02  0.65483031421E+02  0.00000000000E+00 0. -1.
         -3    1    1    2    0  502 -0.33224639368E+02 -0.54599534342E+02 -0.53061581400E+02  0.83069351943E+02  0.00000000000E+00 0.  1.
<scales pt_clust_5="13000.00000" pt_clust_6="13000.00000" pt_clust_7="13000.00000" pt_clust_8="13000.00000" pt_clust_9="13000.00000"></scales>
<clustering>
<clus scale="   92.302">  5  6 -1 -1</clus>
<clus scale="   63.914">  5  9 -1 -1</clus>
<clus scale="  115.008">  7  8 -1 -1</clus>
<clus scale="  117.194">  1  7  2 -1</clus>
<clus scale="  178.610">  2  5  1 -1</clus>
</clustering>
</event>
<event>
 9    1  0.6456462E-006  0.1140050E+04  0.7546771E-02  0.9831306E-01
          1   -1    0    0  502    0 -0.00000000000E+00  0.00000000000E+00  0.77928652519E+03  0.77928652519E+03  0.00000000000E+00 0. -1.
         21   -1    0    0  501  502  0.00000000000E+00 -0.00000000000E+00 -0.50320971408E+03  0.50320971408E+03  0.00000000000E+00 0. -1.
         23    2    1    2    0    0  0.10549170918E+02  0.67651233277E+02  0.87686681818E+01  0.11152789935E+03  0.87599134813E+02 0.  0.
         23    2    1    2    0    0 -0.29734486899E+01 -0.26751072772E+03  0.66682674459E+03  0.72418391521E+03  0.90628940698E+02 0.  0.
        -11    1    4    4    0    0 -0.30978042555E+00 -0.17375975867E+03  0.31147980542E+03  0.35666821961E+03  0.00000000000E+00 0.  1.
         11    1    4    4    0    0 -0.26636682643E+01 -0.93750969054E+02  0.35534693917E+03  0.36751569559E+03  0.00000000000E+00 0. -1.
        -13    1    3    3    0    0  0.38336910660E+02  0.73387981358E+02  0.72107410203E+01  0.83111427089E+02  0.00000000000E+00 0.  1.
         13    1    3    3    0    0 -0.27787739742E+02 -0.57367480808E+01  0.15579271615E+01  0.28416472257E+02  0.00000000000E+00 0. -1.
          1    1    1    2  501    0 -0.75757222282E+01  0.19985949444E+03 -0.39951860167E+03  0.44678442471E+03  0.00000000000E+00 0. -1.
<scales pt_clust_5="13000.00000" pt_clust_6="13000.00000" pt_clust_7="13000.00000" pt_clust_8="13000.00000" pt_clust_9="13000.00000"></scales>
<clustering>
<clus scale="   87.599">  7  8 -1 -1</clus>
<clus scale="   90.629">  5  6 -1 -1</clus>
<clus scale="  111.183">  1  7  2 -1</clus>
<clus scale="  202.212">  5  9 -1 -1</clus>
<clus scale=" 1140.050">  2  5  1 -1</clus>
</clustering>
</event>
<event>
 9    1  0.6399313E-006  0.2341996E+03  0.7546771E-02  0.1155801E+00
          2   -1    0    0  502    0 -0.00000000000E+00  0.00000000000E+00  0.22075044766E+03  0.22075044766E+03  0.00000000000E+00 0. -1.
         21   -1    0    0  501  502  0.00000000000E+00 -0.00000000000E+00 -0.25434209488E+03  0.25434209488E+03  0.00000000000E+00 0. -1.
         23    2    1    2    0    0 -0.57654727510E+02 -0.84196626813E+01  0.14484873160E+03  0.18066016259E+03  0.90895439813E+02 0.  0.
         23    2    1    2    0    0  0.10211200728E+03  0.51679544977E+02 -0.71782023507E+02  0.17104732453E+03  0.10491373090E+03 0.  0.
        -11    1    4    4    0    0  0.96743482352E+01  0.58697592304E+02 -0.11850947045E+02  0.60658431416E+02  0.00000000000E+00 0.  1.
         11    1    4    4    0    0  0.92437659045E+02 -0.70180473269E+01 -0.59931076462E+02  0.11038889312E+03  0.00000000000E+00 0. -1.
        -13    1    3    3    0    0  0.28109420719E+01  0.33304905251E+02  0.57666068276E+02  0.66652033273E+02  0.00000000000E+00 0.  1.
         13    1    3    3    0    0 -0.60465669581E+02 -0.41724567932E+02  0.87182663321E+02  0.11400812932E+03  0.00000000000E+00 0. -1.
          2    1    1    2  501    0 -0.44457279770E+02 -0.43259882296E+02 -0.10665835531E+03  0.12338505541E+03  0.00000000000E+00 0. -1.
<scales pt_clust_5="13000.00000" pt_clust_6="13000.00000" pt_clust_7="13000.00000" pt_clust_8="13000.00000" pt_clust_9="13000.00000"></scales>
<clustering>
<clus scale="   90.895">  7  8 -1 -1</clus>
<clus scale="  104.914">  5  6 -1 -1</clus>
<clus scale="   62.031">  5  9 -1 -1</clus>
<clus scale="  107.967">  1  7  2 -1</clus>
<clus scale="  234.200">  2  5  1 -1</clus>
</clustering>
</event>
<event>
 9    1  0.6399313E-006  0.2356796E+03  0.7546771E-02  0.1155372E+00
          3   -1    0    0  502    0 -0.00000000000E+00  0.00000000000E+00  0.64436833314E+03  0.64436833314E+03  0.00000000000E+00 0. -1.
         21   -1    0    0  501  502  0.00000000000E+00 -0.00000000000E+00 -0.48182653615E+02  0.48182653615E+02  0.00000000000E+00 0.  1.
         23    2    1    2    0    0  0.48676051594E+02 -0.11172484308E+02  0.11710259056E+03  0.15863576174E+03  0.94647270341E+02 0.  0.
         23    2    1    2    0    0 -0.11939521851E+03  0.95231155552E+01  0.22699524475E+03  0.27209047029E+03  0.90335347180E+02 0.  0.
        -11    1    3    3    0    0  0.42935169959E+02  0.29760908712E+02  0.25485635730E+02  0.58126225882E+02  0.00000000000E+00 0.  1.
         11    1    3    3    0    0  0.57408816352E+01 -0.40933393020E+02  0.91616954833E+02  0.10050953586E+03  0.00000000000E+00 0. -1.
        -11    1    4    4    0    0 -0.87293255390E+02  0.42646859717E+02  0.18828362255E+03  0.21187163472E+03  0.00000000000E+00 0.  1.
         11    1    4    4    0    0 -0.32101963117E+02 -0.33123744162E+02  0.38711622200E+02  0.60218835563E+02  0.00000000000E+00 0. -1.
          3    1    1    2  501    0  0.70719166913E+02  0.16493687528E+01  0.25208784422E+03  0.26182475473E+03  0.00000000000E+00 0. -1.
<scales pt_clust_5="13000.00000" pt_clust_6="13000.00000" pt_clust_7="13000.00000" pt_clust_8="13000.00000" pt_clust_9="13000.00000"></scales>
<clustering>
<clus scale="   90.335">  7  8 -1 -1</clus>
<clus scale="   70.738">  7  9 -1 -1</clus>
<clus scale="   94.647">  5  6 -1 -1</clus>
<clus scale="  107.015">  1  5  2 -1</clus>
<clus scale="  235.680">  2  5  1 -1</clus>
</clustering>
</event>
<event>
 9    1  0.6399313E-006  0.1700342E+03  0.7546771E-02  0.1189247E+00
         21   -1    0    0  501  502  0.00000000000E+00  0.00000000000E+00  0.39966634945E+02  0.39966634945E+02  0.00000000000E+00 0.  1.
          1   -1    0    0  502    0 -0.00000000000E+00 -0.00000000000E+00 -0.72166503415E+03  0.72166503415E+03  0.00000000000E+00 0. -1.
         23    2    1    2    0    0 -0.65737908630E+02 -0.70706558833E+02 -0.13292328120E+03  0.18711816241E+03  0.89575208194E+02 0.  0.
         23    2    1    2    0    0  0.28211522796E+02  0.84214383858E+02 -0.35601830594E+03  0.37767377603E+03  0.89445483225E+02 0.  0.
        -11    1    3    3    0    0 -0.22107207992E+01 -0.54456406122E+02 -0.99664696287E+02  0.11359330588E+03  0.00000000000E+00 0. -1.
         11    1    3    3    0    0 -0.63527187830E+02 -0.16250152711E+02 -0.33258584917E+02  0.73524856528E+02  0.00000000000E+00 0.  1.
        -11    1    4    4    0    0  0.27022962623E+02 -0.88130670328E+01 -0.13344638847E+03  0.13643991079E+03  0.00000000000E+00 0. -1.
         11    1    4    4    0    0  0.11885601727E+01  0.93027450891E+02 -0.22257191747E+03  0.24123386524E+03  0.00000000000E+00 0.  1.
          1    1    1    2  501    0  0.37526385834E+02 -0.13507825025E+02 -0.19275681206E+03  0.19683973066E+03  0.00000000000E+00 0. -1.
<scales pt_clust_5="13000.00000" pt_clust_6="13000.00000" pt_clust_7="13000.00000" pt_clust_8="13000.00000" pt_clust_9="13000.00000"></scales>
<clustering>
<clus scale="   89.445">  7  8 -1 -1</clus>
<clus scale="   39.883">  7  9 -1 -1</clus>
<clus scale="   89.575">  5  6 -1 -1</clus>
<clus scale="  131.699">  2  5  1 -1</clus>
<clus scale="  170.034">  1  5  2 -1</clus>
</clustering>
</event>
<event>
 9    1  0.6399313E-006  0.3265437E+03  0.7546771E-02  0.1086243E+00
         -2   -1    0    0    0  501 -0.00000000000E+00  0.00000000000E+00  0.51132602979E+03  0.51132602979E+03  0.00000000000E+00 0.  1.
         21   -1    0    0  501  502  0.00000000000E+00 -0.00000000000E+00 -0.26302022157E+03  0.26302022157E+03  0.00000000000E+00 0. -1.
         23    2    1    2    0    0  0.10580501054E+03 -0.17848190565E+03  0.36332114056E+03  0.42813918955E+03  0.90831842159E+02 0.  0.
         23    2    1    2    0    0  0.34407678113E+02  0.19668248250E+02 -0.87653043747E+02  0.13259509895E+03  0.91256100543E+02 0.  0.
        -13    1    3    3    0    0  0.70537076078E+02 -0.35400363782E+02  0.11800908594E+03  0.14196763442E+03  0.00000000000E+00 0. -1.
         13    1    3    3    0    0  0.35267934457E+02 -0.14308154187E+03  0.24531205462E+03  0.28617155513E+03  0.00000000000E+00 0.  1.
        -13    1    4    4    0    0  0.25455603820E+02 -0.23760830129E+02 -0.51739024251E+00  0.34825744887E+02  0.00000000000E+00 0.  1.
         13    1    4    4    0    0  0.89520742925E+01  0.43429078379E+02 -0.87135653504E+02  0.97769354067E+02  0.00000000000E+00 0. -1.
         -2    1    1    2    0  502 -0.14021268865E+03  0.15881365740E+03 -0.27362288601E+02  0.21361196285E+03  0.00000000000E+00 0.  1.
<scales pt_clust_5="13000.00000" pt_clust_6="13000.00000" pt_clust_7="13000.00000" pt_clust_8="13000.00000" pt_clust_9="13000.00000"></scales>
<clustering>
<clus scale="   90.832">  5  6 -1 -1</clus>
<clus scale="   91.256">  7  8 -1 -1</clus>
<clus scale="  211.852">  7  9 -1 -1</clus>
<clus scale="  226.497">  1  5  2 -1</clus>
<clus scale="  326.544">  2  5  1 -1</clus>
</clustering>
</event>
<event>
 9    1  0.6399313E-006  0.3319212E+03  0.7546771E-02  0.1083951E+00
         21   -1    0    0  501  502  0.00000000000E+00  0.00000000000E+00  0.20108885674E+03  0.20108885674E+03  0.00000000000E+00 0. -1.
          1   -1    0    0  502    0 -0.00000000000E+00 -0.00000000000E+00 -0.39216302057E+03  0.39216302057E+03  0.00000000000E+00 0. -1.
         23    2    1    2    0    0 -0.66950060720E+02  0.19657417888E+03 -0.89824827478E+02  0.24623156166E+03  0.97148154351E+02 0.  0.
         23    2    1    2    0    0  0.65520172448E+02 -0.30678122837E+02 -0.13510490678E+03  0.17769888865E+03  0.89941753231E+02 0.  0.
        -11    1    4    4    0    0 -0.16183341930E+02  0.14715221907E+02 -0.28403271425E+02  0.35849464981E+02  0.00000000000E+00 0.  1.
         11    1    4    4    0    0  0.81703514378E+02 -0.45393344744E+02 -0.10670163535E+03  0.14184942367E+03  0.00000000000E+00 0. -1.
        -13    1    3    3    0    0  0.19293175314E+02  0.80154451822E+02 -0.48141902148E+02  0.95470443086E+02  0.00000000000E+00 0. -1.
         13    1    3    3    0    0 -0.86243236034E+02  0.11641972705E+03 -0.41682925330E+02  0.15076111857E+03  0.00000000000E+00 0.  1.
          1    1    1    2  501    0  0.14298882718E+01 -0.16589605604E+03  0.33855570429E+02  0.16932142699E+03  0.00000000000E+00 0. -1.
<scales pt_clust_5="13000.00000" pt_clust_6="13000.00000" pt_clust_7="13000.00000" pt_clust_8="13000.00000" pt_clust_9="13000.00000"></scales>
<clustering>
<clus scale="   89.942">  5  6 -1 -1</clus>
<clus scale="   97.148">  7  8 -1 -1</clus>
<clus scale="  165.902">  5  9 -1 -1</clus>
<clus scale="  229.263">  2  7  1 -1</clus>
<clus scale="  331.921">  1  5  2 -1</clus>
</clustering>
</event>
<event>
 9    1  0.6399313E-006  0.4020627E+03  0.7546771E-02  0.1051375E+00
          2   -1    0    0  502    0 -0.00000000000E+00  0.00000000000E+00  0.22302996983E+04  0.22302996983E+04  0.00000000000E+00 0. -1.
         21   -1    0    0  501  502  0.00000000000E+00 -0.00000000000E+00 -0.59287877359E+02  0.59287877359E+02  0.00000000000E+00 0.  1.
         23    2    1    2    0    0  0.28114972185E+03 -0.11382802958E+03  0.11319975141E+04  0.11754936988E+04  0.91460798433E+02 0.  0.
         23    2    1    2    0    0 -0.23108845239E+03  0.13052174952E+02  0.90787765913E+03  0.94129710618E+03  0.90698214129E+02 0.  0.
        -11    1    3    3    0    0  0.24675162364E+03 -0.68398709019E+02  0.98773835879E+03  0.10203880696E+04  0.00000000000E+00 0.  1.
         11    1    3    3    0    0  0.34398098214E+02 -0.45429320564E+02  0.14425915529E+03  0.15510562921E+03  0.00000000000E+00 0. -1.
        -13    1    4    4    0    0 -0.12339581361E+03  0.52202872999E+02  0.49540666149E+03  0.51320505357E+03  0.00000000000E+00 0.  1.
         13    1    4    4    0    0 -0.10769263879E+03 -0.39150698047E+02  0.41247099764E+03  0.42809205260E+03  0.00000000000E+00 0. -1.
          2    1    1    2  501    0 -0.50061269462E+02  0.10077585463E+03  0.13113664774E+03  0.17279677068E+03  0.00000000000E+00 0. -1.
<scales pt_clust_5="13000.00000" pt_clust_6="13000.00000" pt_clust_7="13000.00000" pt_clust_8="13000.00000" pt_clust_9="13000.00000"></scales>
<clustering>
<clus scale="   90.698">  7  8 -1 -1</clus>
<clus scale="   91.461">  5  6 -1 -1</clus>
<clus scale="  112.525">  7  9 -1 -1</clus>
<clus scale="  316.808">  1  5  2 -1</clus>
<clus scale="  402.063">  2  5  1 -1</clus>
</clustering>
</event>
<event>
 9    1  0.7791267E-006  0.2739735E+03  0.7546771E-02  0.1139375E+00
         21   -1    0    0  501  502  0.00000000000E+00  0.00000000000E+00  0.11813329586E+03  0.11813329586E+03  0.00000000000E+00 0. -1.
          1   -1    0    0  502    0 -0.00000000000E+00 -0.00000000000E+00 -0.34265750879E+03  0.34265750879E+03  0.00000000000E+00 0. -1.
         23    2    1    2    0    0 -0.52336945338E+02  0.30911700220E+02 -0.14415557026E+03  0.17527271002E+03  0.79025346443E+02 0.  0.
         23    2    1    2    0    0 -0.30224097149E+02  0.77177827642E+01 -0.14274755618E+03  0.17506588079E+03  0.96426851043E+02 0.  0.
        -11    1    4    4    0    0  0.24188721805E+02  0.33002793784E+02 -0.65886082183E+02  0.77558071698E+02  0.00000000000E+00 0.  1.
         11    1    4    4    0    0 -0.54412818954E+02 -0.25285011020E+02 -0.76861473999E+02  0.97507809093E+02  0.00000000000E+00 0. -1.
        -13    1    3    3    0    0 -0.66280594672E+02  0.83741423652E+01 -0.12758086667E+03  0.14401430843E+03  0.00000000000E+00 0. -1.
         13    1    3    3    0    0  0.13943649335E+02  0.22537557855E+02 -0.16574703593E+02  0.31258401591E+02  0.00000000000E+00 0.  1.
          1    1    1    2  501    0  0.82561042487E+02 -0.38629482985E+02  0.62378913510E+02  0.11045221384E+03  0.00000000000E+00 0. -1.
<scales pt_clust_5="13000.00000" pt_clust_6="13000.00000" pt_clust_7="13000.00000" pt_clust_8="13000.00000" pt_clust_9="13000.00000"></scales>
<clustering>
<clus scale="   79.025">  7  8 -1 -1</clus>
<clus scale="   96.427">  5  6 -1 -1</clus>
<clus scale="   91.151">  5  9 -1 -1</clus>
<clus scale="   99.698">  2  7  1 -1</clus>
<clus scale="  273.973">  1  5  2 -1</clus>
</clustering>
</event>
<event>
 9    1  0.6399313E-006  0.3254858E+03  0.7546771E-02  0.1120650E+00
         -3   -1    0    0    0  501 -0.00000000000E+00  0.00000000000E+00  0.49508468819E+03  0.49508468819E+03  0.00000000000E+00 0.  1.
         21   -1    0    0  501  502  0.00000000000E+00 -0.00000000000E+00 -0.99569828460E+02  0.99569828460E+02  0.00000000000E+00 0. -1.
         23    2    1    2    0    0  0.18468558179E+01  0.21845286026E+02  0.18335972370E+03  0.20613059820E+03  0.91588251668E+02 0.  0.
         23    2    1    2    0    0  0.10562350520E+03  0.69206891709E+02  0.31930622950E+02  0.15978552489E+03  0.92552312625E+02 0.  0.
        -11    1    4    4    0    0  0.52598867904E+02 -0.47107128696E+01  0.43057836304E+02  0.68138161024E+02  0.00000000000E+00 0.  1.
         11    1    4    4    0    0  0.53024637301E+02  0.73917604579E+02 -0.11127213354E+02  0.91647363871E+02  0.00000000000E+00 0. -1.
        -11    1    3    3    0    0 -0.96079852044E+01  0.55072554353E+02  0.85535528791E+02  0.10218427623E+03  0.00000000000E+00 0. -1.
         11    1    3    3    0    0  0.11454841022E+02 -0.33227268327E+02  0.97824194905E+02  0.10394632198E+03  0.00000000000E+00 0.  1.
         -3    1    1    2    0  502 -0.10747036102E+03 -0.91052177735E+02  0.18022451308E+03  0.22873839355E+03  0.00000000000E+00 0.  1.
<scales pt_clust_5="13000.00000" pt_clust_6="13000.00000" pt_clust_7="13000.00000" pt_clust_8="13000.00000" pt_clust_9="13000.00000"></scales>
<clustering>
<clus scale="   91.588">  7  8 -1 -1</clus>
<clus scale="   92.552">  5  6 -1 -1</clus>
<clus scale="   94.176">  1  7  2 -1</clus>
<clus scale="  130.708">  5  9 -1 -1</clus>
<clus scale="  325.486">  2  5  1 -1</clus>
</clustering>
</event>
<event>
 9    1  0.6399313E-006  0.2926942E+03  0.7546771E-02  0.1132424E+00
         21   -1    0    0  501  502  0.00000000000E+00  0.00000000000E+00  0.59641635645E+02  0.59641635645E+02  0.00000000000E+00 0. -1.
          2   -1    0    0  502    0 -0.00000000000E+00 -0.00000000000E+00 -0.68163665788E+03  0.68163665788E+03  0.00000000000E+00 0. -1.
         23    2    1    2    0    0  0.56227894436E+00 -0.23854602766E+02 -0.24896249444E+03  0.26712309548E+03  0.93824657044E+02 0.  0.
         23    2    1    2    0    0  0.21784565382E+02  0.74197593785E+02 -0.23416730972E+02  0.12022723421E+03  0.89030300148E+02 0.  0.
        -11    1    3    3    0    0  0.26327598853E+02 -0.51939500312E+02 -0.16304223283E+03  0.17312892260E+03  0.00000000000E+00 0. -1.
         11    1    3    3    0    0 -0.25765319909E+02  0.28084897546E+02 -0.85920261612E+02  0.93994172881E+02  0.00000000000E+00 0.  1.
        -11    1    4    4    0    0  0.54386850973E+02  0.50981729490E+02 -0.28652663895E+02  0.79862641134E+02  0.00000000000E+00 0. -1.
         11    1    4    4    0    0 -0.32602285592E+02  0.23215864295E+02  0.52359329227E+01  0.40364593078E+02  0.00000000000E+00 0.  1.
          2    1    1    2  501    0 -0.22346844326E+02 -0.50342991019E+02 -0.34961579682E+03  0.35392796383E+03  0.00000000000E+00 0. -1.
<scales pt_clust_5="13000.00000" pt_clust_6="13000.00000" pt_clust_7="13000.00000" pt_clust_8="13000.00000" pt_clust_9="13000.00000"></scales>
<clustering>
<clus scale="   89.030">  7  8 -1 -1</clus>
<clus scale="   55.080">  7  9 -1 -1</clus>
<clus scale="   93.825">  5  6 -1 -1</clus>
<clus scale="   96.811">  2  5  1 -1</clus>
<clus scale="  292.694">  1  5  2 -1</clus>
</clustering>
</event>
<event>
 9    1  0.6399313E-006  0.1408032E+03  0.7546771E-02  0.1229232E+00
         21   -1    0    0  501  502  0.00000000000E+00  0.00000000000E+00  0.80201591509E+02  0.80201591509E+02  0.00000000000E+00 0. -1.
         -3   -1    0    0    0  501 -0.00000000000E+00 -0.00000000000E+00 -0.18225998210E+03  0.18225998210E+03  0.00000000000E+00 0.  1.
         23    2    1    2    0    0 -0.17221647522E+02  0.38115045402E+02 -0.60310352324E+02  0.11559962756E+03  0.89311776743E+02 0.  0.
         23    2    1    2    0    0 -0.48080842796E+00 -0.57203331901E+02 -0.51241109069E+02  0.11915169485E+03  0.91098972382E+02 0.  0.
        -11    1    4    4    0    0 -0.40143578943E+02 -0.19616647036E+02 -0.65054872000E+00  0.44684930177E+02  0.00000000000E+00 0. -1.
         11    1    4    4    0    0  0.39662770515E+02 -0.37586684865E+02 -0.50590560349E+02  0.74466764671E+02  0.00000000000E+00 0.  1.
        -13    1    3    3    0    0  0.10547610761E+02  0.53407968394E+02 -0.88442926623E+01  0.55153283614E+02  0.00000000000E+00 0.  1.
         13    1    3    3    0    0 -0.27769258283E+02 -0.15292922992E+02 -0.51466059662E+02  0.60446343945E+02  0.00000000000E+00 0. -1.
         -3    1    1    2    0  502  0.17702455950E+02  0.19088286499E+02  0.94930708065E+01  0.27710251198E+02  0.00000000000E+00 0.  1.
<scales pt_clust_5="13000.00000" pt_clust_6="13000.00000" pt_clust_7="13000.00000" pt_clust_8="13000.00000" pt_clust_9="13000.00000"></scales>
<clustering>
<clus scale="   89.312">  7  8 -1 -1</clus>
<clus scale="   91.099">  5  6 -1 -1</clus>
<clus scale="   26.033">  5  9 -1 -1</clus>
<clus scale="   98.620">  2  7  1 -1</clus>
<clus scale="  140.803">  1  5  2 -1</clus>
</clustering>
</event>
<event>
 9    1  0.6399313E-006  0.1445680E+04  0.7546771E-02  0.9070779E-01
          1   -1    0    0  502    0 -0.00000000000E+00  0.00000000000E+00  0.13927171144E+04  0.13927171144E+04  0.00000000000E+00 0. -1.
         21   -1    0    0  501  502  0.00000000000E+00 -0.00000000000E+00 -0.98511465594E+03  0.98511465594E+03  0.00000000000E+00 0. -1.
         23    2    1    2    0    0  0.37922934157E+03  0.70510907911E+03  0.46564173693E+03  0.93098697882E+03  0.94450095826E+02 0.  0.
         23    2    1    2    0    0 -0.13858853606E+03 -0.27492378719E+03  0.56656184362E+03  0.65117278354E+03  0.90795375929E+02 0.  0.
        -11    1    3    3    0    0  0.34815061151E+03  0.67736356731E+03  0.45777884917E+03  0.88858973962E+03  0.00000000000E+00 0. -1.
         11    1    3    3    0    0  0.31078730065E+02  0.27745511798E+02  0.78628877611E+01  0.42397239194E+02  0.00000000000E+00 0.  1.
        -13    1    4    4    0    0  0.12606453908E+02 -0.18961374883E+02  0.54606080843E+02  0.59163168295E+02  0.00000000000E+00 0. -1.
         13    1    4    4    0    0 -0.15119498997E+03 -0.25596241231E+03  0.51195576277E+03  0.59200961525E+03  0.00000000000E+00 0.  1.
          1    1    1    2  501    0 -0.24064080551E+03 -0.43018529192E+03 -0.62460112206E+03  0.79567200801E+03  0.00000000000E+00 0. -1.
<scales pt_clust_5="13000.00000" pt_clust_6="13000.00000" pt_clust_7="13000.00000" pt_clust_8="13000.00000" pt_clust_9="13000.00000"></scales>
<clustering>
<clus scale="   90.795">  7  8 -1 -1</clus>
<clus scale="   94.450">  5  6 -1 -1</clus>
<clus scale="  492.917">  7  9 -1 -1</clus>
<clus scale="  806.173">  1  5  2 -1</clus>
<clus scale=" 1445.680">  2  5  1 -1</clus>
</clustering>
</event>
<event>
 9    1  0.6399313E-006  0.1921049E+03  0.7546771E-02  0.1186722E+00
          2   -1    0    0  502    0 -0.00000000000E+00  0.00000000000E+00  0.82643693796E+03  0.82643693796E+03  0.00000000000E+00 0. -1.
         21   -1    0    0  501  502  0.00000000000E+00 -0.00000000000E+00 -0.25381188788E+02  0.25381188788E+02  0.00000000000E+00 0.  1.
         23    2    1    2    0    0  0.61239265304E+01 -0.28885601606E+02  0.30188219807E+03  0.31695504322E+03  0.91955192626E+02 0.  0.
         23    2    1    2    0    0  0.44144527528E+02  0.14871915219E+01  0.44473302448E+03  0.45586079694E+03  0.89836807993E+02 0.  0.
        -11    1    4    4    0    0  0.35523545482E+02 -0.41475517349E+02  0.28726967491E+03  0.29241410183E+03  0.00000000000E+00 0.  1.
         11    1    4    4    0    0  0.86209820466E+01  0.42962708871E+02  0.15746334957E+03  0.16344669511E+03  0.00000000000E+00 0. -1.
        -13    1    3    3    0    0  0.42564718799E+02  0.55823286363E+01  0.97944437860E+02  0.10693937809E+03  0.00000000000E+00 0.  1.
         13    1    3    3    0    0 -0.36440792268E+02 -0.34467930242E+02  0.20393776021E+03  0.21001566512E+03  0.00000000000E+00 0. -1.
          2    1    1    2  501    0 -0.50268454058E+02  0.27398410084E+02  0.54440526613E+02  0.79002286590E+02  0.00000000000E+00 0. -1.
<scales pt_clust_5="13000.00000" pt_clust_6="13000.00000" pt_clust_7="13000.00000" pt_clust_8="13000.00000" pt_clust_9="13000.00000"></scales>
<clustering>
<clus scale="   89.837">  5  6 -1 -1</clus>
<clus scale="   57.250">  5  9 -1 -1</clus>
<clus scale="   91.955">  7  8 -1 -1</clus>
<clus scale="   96.580">  1  7  2 -1</clus>
<clus scale="  192.105">  2  5  1 -1</clus>
</clustering>
</event>
<event>
 9    1  0.6399313E-006  0.2254747E+03  0.7546771E-02  0.1164767E+00
         21   -1    0    0  501  502  0.00000000000E+00  0.00000000000E+00  0.19345782652E+03  0.19345782652E+03  0.00000000000E+00 0.  1.
         -3   -1    0    0    0  501 -0.00000000000E+00 -0.00000000000E+00 -0.13923700200E+03  0.13923700200E+03  0.00000000000E+00 0.  1.
         23    2    1    2    0    0  0.29155543168E+02 -0.11433461654E+02  0.42224125454E+02  0.10690116966E+03  0.93081757404E+02 0.  0.
         23    2    1    2    0    0  0.31261833445E+01 -0.13991468672E+02 -0.84960264453E+02  0.12048843713E+03  0.84224003273E+02 0.  0.
        -13    1    3    3    0    0 -0.21184720392E+02 -0.14800932195E+02  0.49583897005E+02  0.55914424025E+02  0.00000000000E+00 0. -1.
         13    1    3    3    0    0  0.50340263559E+02  0.33674705404E+01 -0.73597715508E+01  0.50986745634E+02  0.00000000000E+00 0.  1.
        -13    1    4    4    0    0 -0.35339649646E+02 -0.26616617165E+02 -0.36595403573E+02  0.57415666060E+02  0.00000000000E+00 0.  1.
         13    1    4    4    0    0  0.38465832990E+02  0.12625148493E+02 -0.48364860880E+02  0.63072771067E+02  0.00000000000E+00 0. -1.
         -3    1    1    2    0  502 -0.32281726512E+02  0.25424930326E+02  0.96956963525E+02  0.10530522173E+03  0.00000000000E+00 0.  1.
<scales pt_clust_5="13000.00000" pt_clust_6="13000.00000" pt_clust_7="13000.00000" pt_clust_8="13000.00000" pt_clust_9="13000.00000"></scales>
<clustering>
<clus scale="   84.224">  7  8 -1 -1</clus>
<clus scale="   41.092">  7  9 -1 -1</clus>
<clus scale="   93.082">  5  6 -1 -1</clus>
<clus scale="   98.209">  2  5  1 -1</clus>
<clus scale="  225.475">  1  5  2 -1</clus>
</clustering>
</event>
<event>
 9    1  0.6399313E-006  0.3054876E+03  0.7546771E-02  0.1125643E+00
          1   -1    0    0  502    0 -0.00000000000E+00  0.00000000000E+00  0.26095516649E+03  0.26095516649E+03  0.00000000000E+00 0. -1.
         21   -1    0    0  501  502  0.00000000000E+00 -0.00000000000E+00 -0.19092409109E+03  0.19092409109E+03  0.00000000000E+00 0.  1.
         23    2    1    2    0    0 -0.15990631934E+02  0.41560325153E+02  0.10376891221E+03  0.14453434368E+03  0.90217672463E+02 0.  0.
         23    2    1    2    0    0 -0.37155533576E+02 -0.10615326429E+03 -0.11957201424E+03  0.18749388675E+03  0.90594932431E+02 0.  0.
        -13    1    4    4    0    0 -0.62111335913E+02 -0.89217812218E+02 -0.69456852362E+02  0.12900345114E+03  0.00000000000E+00 0.  1.
         13    1    4    4    0    0  0.24955802336E+02 -0.16935452076E+02 -0.50115161882E+02  0.58490435609E+02  0.00000000000E+00 0. -1.
        -13    1    3    3    0    0  0.17304831371E+02  0.57482091729E+02  0.82202745047E+02  0.10178869953E+03  0.00000000000E+00 0.  1.
         13    1    3    3    0    0 -0.33295463306E+02 -0.15921766576E+02  0.21566167159E+02  0.42745644147E+02  0.00000000000E+00 0. -1.
          1    1    1    2  501    0  0.53146165511E+02  0.64592939140E+02  0.85834177435E+02  0.11985102716E+03  0.00000000000E+00 0. -1.
<scales pt_clust_5="13000.00000" pt_clust_6="13000.00000" pt_clust_7="13000.00000" pt_clust_8="13000.00000" pt_clust_9="13000.00000"></scales>
<clustering>
<clus scale="   90.218">  7  8 -1 -1</clus>
<clus scale="   90.595">  5  6 -1 -1</clus>
<clus scale="   83.647">  5  9 -1 -1</clus>
<clus scale="  100.609">  1  7  2 -1</clus>
<clus scale="  305.488">  2  5  1 -1</clus>
</clustering>
</event>
<event>
 9    1  0.6399313E-006  0.3314581E+03  0.7546771E-02  0.1089234E+00
         21   -1    0    0  501  502  0.00000000000E+00  0.00000000000E+00  0.48918284791E+02  0.48918284791E+02  0.00000000000E+00 0.  1.
          1   -1    0    0  502    0 -0.00000000000E+00 -0.00000000000E+00 -0.15704697209E+04  0.15704697209E+04  0.00000000000E+00 0. -1.
         23    2    1    2    0    0 -0.17603787425E+03  0.25297725671E+02 -0.36433759912E+03  0.41564038031E+03  0.91573639883E+02 0.  0.
         23    2    1    2    0    0  0.13680699642E+03 -0.10426191849E+03 -0.10345262086E+04  0.10526626834E+04  0.90926051765E+02 0.  0.
        -11    1    4    4    0    0  0.13683304932E+03 -0.60204381314E+02 -0.84117565712E+03  0.85435609499E+03  0.00000000000E+00 0. -1.
         11    1    4    4    0    0 -0.26052905486E-01 -0.44057537174E+02 -0.19335055145E+03  0.19830658841E+03  0.00000000000E+00 0.  1.
        -13    1    3    3    0    0 -0.13552715421E+03 -0.18363345043E+02 -0.21441131987E+03  0.25431680255E+03  0.00000000000E+00 0.  1.
         13    1    3    3    0    0 -0.40510720039E+02  0.43661070715E+02 -0.14992627925E+03  0.16132357776E+03  0.00000000000E+00 0. -1.
          1    1    1    2  501    0  0.39230877834E+02  0.78964192817E+02 -0.12268762840E+03  0.15108494195E+03  0.00000000000E+00 0. -1.
<scales pt_clust_5="13000.00000" pt_clust_6="13000.00000" pt_clust_7="13000.00000" pt_clust_8="13000.00000" pt_clust_9="13000.00000"></scales>
<clustering>
<clus scale="   90.926">  5  6 -1 -1</clus>
<clus scale="   88.173">  5  9 -1 -1</clus>
<clus scale="   91.574">  7  8 -1 -1</clus>
<clus scale="  200.038">  2  7  1 -1</clus>
<clus scale="  331.458">  1  5  2 -1</clus>
</clustering>
</event>
<event>
 9    1  0.6399313E-006  0.2641738E+03  0.7546771E-02  0.1128079E+00
          3   -1    0    0  502    0 -0.00000000000E+00  0.00000000000E+00  0.11912134626E+03  0.11912134626E+03  0.00000000000E+00 0. -1.
         21   -1    0    0  501  502  0.00000000000E+00 -0.00000000000E+00 -0.37835050818E+03  0.37835050818E+03  0.00000000000E+00 0.  1.
         23    2    1    2    0    0  0.10962399743E+03  0.35549854539E+02 -0.15557232012E+03  0.21368932856E+03  0.90438760395E+02 0.  0.
         23    2    1    2    0    0  0.52779261905E+02 -0.45700817152E+02 -0.37520751476E+02  0.10813559841E+03  0.73561441512E+02 0.  0.
        -11    1    4    4    0    0  0.12296302729E+02 -0.54584427685E+02 -0.36252273784E+02  0.66669979458E+02  0.00000000000E+00 0. -1.
         11    1    4    4    0    0  0.40482959175E+02  0.88836105321E+01 -0.12684776922E+01  0.41465618955E+02  0.00000000000E+00 0.  1.
        -13    1    3    3    0    0  0.78628226775E+02  0.62416806650E+02 -0.13372661175E+03  0.16721561676E+03  0.00000000000E+00 0.  1.
         13    1    3    3    0    0  0.30995770655E+02 -0.26866952111E+02 -0.21845708376E+02  0.46473711802E+02  0.00000000000E+00 0. -1.
          3    1    1    2  501    0 -0.16240325933E+03  0.10150962614E+02 -0.66136090321E+02  0.17564692746E+03  0.00000000000E+00 0. -1.
<scales pt_clust_5="13000.00000" pt_clust_6="13000.00000" pt_clust_7="13000.00000" pt_clust_8="13000.00000" pt_clust_9="13000.00000"></scales>
<clustering>
<clus scale="   73.561">  5  6 -1 -1</clus>
<clus scale="   90.439">  7  8 -1 -1</clus>
<clus scale="  146.494">  1  7  2 -1</clus>
<clus scale="  100.886">  5  9 -1 -1</clus>
<clus scale="  264.174">  2  5  1 -1</clus>
</clustering>
</event>
<event>
 9    1  0.6399313E-006  0.6116257E+03  0.7546771E-02  0.1029581E+00
         21   -1    0    0  501  502  0.00000000000E+00  0.00000000000E+00  0.21138424241E+03  0.21138424241E+03  0.00000000000E+00 0. -1.
          2   -1    0    0  502    0 -0.00000000000E+00 -0.00000000000E+00 -0.88103690839E+03  0.88103690839E+03  0.00000000000E+00 0. -1.
         23    2    1    2    0    0  0.81219236992E+02  0.11632560405E+03 -0.37908042922E+03  0.41528145783E+03  0.92889756057E+02 0.  0.
         23    2    1    2    0    0  0.37394653585E+02 -0.21166543566E+03  0.10319050310E+03  0.25499275905E+03  0.90401385309E+02 0.  0.
        -11    1    4    4    0    0  0.57451748609E+02 -0.12350333872E+03  0.32014839960E+02  0.13992400820E+03  0.00000000000E+00 0.  1.
         11    1    4    4    0    0 -0.20057095024E+02 -0.88162096941E+02  0.71175663141E+02  0.11506875085E+03  0.00000000000E+00 0. -1.
        -13    1    3    3    0    0  0.25044452815E+02 -0.12796687417E+02 -0.77542937584E+02  0.82485677513E+02  0.00000000000E+00 0.  1.
         13    1    3    3    0    0  0.56174784178E+02  0.12912229147E+03 -0.30153749164E+03  0.33279578032E+03  0.00000000000E+00 0. -1.
          2    1    1    2  501    0 -0.11861389058E+03  0.95339831605E+02 -0.39376273986E+03  0.42214693393E+03  0.00000000000E+00 0. -1.
<scales pt_clust_5="13000.00000" pt_clust_6="13000.00000" pt_clust_7="13000.00000" pt_clust_8="13000.00000" pt_clust_9="13000.00000"></scales>
<clustering>
<clus scale="   90.401">  5  6 -1 -1</clus>
<clus scale="   92.890">  7  8 -1 -1</clus>
<clus scale="  152.181">  5  9 -1 -1</clus>
<clus scale="  169.578">  2  7  1 -1</clus>
<clus scale="  611.626">  1  5  2 -1</clus>
</clustering>
</event>
<event>
 9    1  0.6399313E-006  0.1986826E+03  0.7546771E-02  0.1166331E+00
         -1   -1    0    0    0  501 -0.00000000000E+00  0.00000000000E+00  0.13534526073E+03  0.13534526073E+03  0.00000000000E+00 0.  1.
         21   -1    0    0  501  502  0.00000000000E+00 -0.00000000000E+00 -0.23063161684E+03  0.23063161684E+03  0.00000000000E+00 0.  1.
         23    2    1    2    0    0  0.10060303763E+03  0.27434768419E+02  0.14105148701E+02  0.13917021538E+03  0.91081040444E+02 0.  0.
         23    2    1    2    0    0  0.26676897496E+01  0.10860471800E+02 -0.33462379076E+02  0.93028485001E+02  0.86078462996E+02 0.  0.
        -11    1    4    4    0    0 -0.16595456045E+02 -0.33438543746E+02 -0.22180287557E+02  0.43422465675E+02  0.00000000000E+00 0. -1.
         11    1    4    4    0    0  0.19263145795E+02  0.44299015546E+02 -0.11282091519E+02  0.49606019325E+02  0.00000000000E+00 0.  1.
        -11    1    3    3    0    0 -0.13973378225E+01 -0.23842594612E+02 -0.15697367172E+01  0.23935035913E+02  0.00000000000E+00 0. -1.
         11    1    3    3    0    0  0.10200037546E+03  0.51277363031E+02  0.15674885418E+02  0.11523517946E+03  0.00000000000E+00 0.  1.
         -1    1    1    2    0  502 -0.10327072738E+03 -0.38295240219E+02 -0.75929125735E+02  0.13377817719E+03  0.00000000000E+00 0.  1.
<scales pt_clust_5="13000.00000" pt_clust_6="13000.00000" pt_clust_7="13000.00000" pt_clust_8="13000.00000" pt_clust_9="13000.00000"></scales>
<clustering>
<clus scale="   86.078">  5  6 -1 -1</clus>
<clus scale="   91.081">  7  8 -1 -1</clus>
<clus scale="  110.143">  5  9 -1 -1</clus>
<clus scale="  138.454">  1  7  2 -1</clus>
<clus scale="  198.683">  2  5  1 -1</clus>
</clustering>
</event>
<event>
 9    1  0.6399313E-006  0.2595878E+03  0.7546771E-02  0.1144769E+00
         21   -1    0    0  501  502  0.00000000000E+00  0.00000000000E+00  0.34372240321E+03  0.34372240321E+03  0.00000000000E+00 0. -1.
          2   -1    0    0  502    0 -0.00000000000E+00 -0.00000000000E+00 -0.22136206010E+03  0.22136206010E+03  0.00000000000E+00 0. -1.
         23    2    1    2    0    0  0.45641068283E+02 -0.12931694759E+02 -0.15443566587E+03  0.18560871117E+03  0.91377693814E+02 0.  0.
         23    2    1    2    0    0  0.40670160858E+02  0.60067175866E+02  0.40812115588E+02  0.12382016391E+03  0.91671569259E+02 0.  0.
        -11    1    4    4    0    0 -0.29413240417E+02  0.20045118448E+02  0.67891869916E+01  0.36235873736E+02  0.00000000000E+00 0.  1.
         11    1    4    4    0    0  0.70083401275E+02  0.40022057418E+02  0.34022928597E+02  0.87584290170E+02  0.00000000000E+00 0. -1.
        -13    1    3    3    0    0 -0.18606741397E+01  0.35013355191E+02 -0.45207550154E+02  0.57211185452E+02  0.00000000000E+00 0.  1.
         13    1    3    3    0    0  0.47501742423E+02 -0.47945049950E+02 -0.10922811572E+03  0.12839752572E+03  0.00000000000E+00 0. -1.
          2    1    1    2  501    0 -0.86311229141E+02 -0.47135481107E+02  0.23598389339E+03  0.25565558824E+03  0.00000000000E+00 0. -1.
<scales pt_clust_5="13000.00000" pt_clust_6="13000.00000" pt_clust_7="13000.00000" pt_clust_8="13000.00000" pt_clust_9="13000.00000"></scales>
<clustering>
<clus scale="   91.378">  7  8 -1 -1</clus>
<clus scale="   91.672">  5  6 -1 -1</clus>
<clus scale="   98.343">  5  9 -1 -1</clus>
<clus scale="  102.957">  2  7  1 -1</clus>
<clus scale="  259.588">  1  5  2 -1</clus>
</clustering>
</event>
<event>
 9    1  0.6399313E-006  0.4367650E+03  0.7546771E-02  0.1040592E+00
         21   -1    0    0  501  502  0.00000000000E+00  0.00000000000E+00  0.63878310316E+03  0.63878310316E+03  0.00000000000E+00 0. -1.
          2   -1    0    0  502    0 -0.00000000000E+00 -0.00000000000E+00 -0.23831391065E+03  0.23831391065E+03  0.00000000000E+00 0. -1.
         23    2    1    2    0    0  0.28115036936E+03  0.15553325374E+03  0.23125080885E+03  0.40869703522E+03  0.10158841858E+03 0.  0.
         23    2    1    2    0    0  0.13858901424E+02 -0.70456315791E+02 -0.22450826193E+02  0.10645296420E+03  0.75312896682E+02 0.  0.
        -11    1    4    4    0    0  0.35707468071E+02 -0.72647343301E+02 -0.24024879858E+02  0.84438466453E+02  0.00000000000E+00 0.  1.
         11    1    4    4    0    0 -0.21848566648E+02  0.21910275099E+01  0.15740536652E+01  0.22014497747E+02  0.00000000000E+00 0. -1.
        -11    1    3    3    0    0  0.59570003838E+02  0.12401100289E+02  0.47913511946E+01  0.61035478961E+02  0.00000000000E+00 0.  1.
         11    1    3    3    0    0  0.22158036552E+03  0.14313215345E+03  0.22645945766E+03  0.34766155626E+03  0.00000000000E+00 0. -1.
          2    1    1    2  501    0 -0.29500927079E+03 -0.85076937946E+02  0.19166920985E+03  0.36194701439E+03  0.00000000000E+00 0. -1.
<scales pt_clust_5="13000.00000" pt_clust_6="13000.00000" pt_clust_7="13000.00000" pt_clust_8="13000.00000" pt_clust_9="13000.00000"></scales>
<clustering>
<clus scale="   75.313">  5  6 -1 -1</clus>
<clus scale="  101.588">  7  8 -1 -1</clus>
<clus scale="  307.032">  5  9 -1 -1</clus>
<clus scale="  336.981">  2  7  1 -1</clus>
<clus scale="  436.765">  1  5  2 -1</clus>
</clustering>
</event>
<event>
 9    1  0.6399313E-006  0.1267032E+03  0.7546771E-02  0.1246072E+00
          3   -1    0    0  502    0 -0.00000000000E+00  0.00000000000E+00  0.87906720231E+02  0.87906720231E+02  0.00000000000E+00 0. -1.
         21   -1    0    0  501  502  0.00000000000E+00 -0.00000000000E+00 -0.14374808096E+03  0.14374808096E+03  0.00000000000E+00 0.  1.
         23    2    1    2    0    0  0.22155325281E+02  0.51403410529E+01 -0.84593106509E+01  0.96381913640E+02  0.93277177251E+02 0.  0.
         23    2    1    2    0    0 -0.18421581738E+02  0.24476506724E+02 -0.38298084177E+02  0.10407005195E+03  0.91789860035E+02 0.  0.
        -13    1    4    4    0    0 -0.30758116043E+02 -0.23561209092E+02 -0.38290680017E+02  0.54473557370E+02  0.00000000000E+00 0.  1.
         13    1    4    4    0    0  0.12336534306E+02  0.48037715815E+02 -0.74041601622E-02  0.49596494576E+02  0.00000000000E+00 0. -1.
        -13    1    3    3    0    0  0.51028577435E+02  0.27240833640E+02 -0.14222776492E+02  0.59567324127E+02  0.00000000000E+00 0. -1.
         13    1    3    3    0    0 -0.28873252154E+02 -0.22100492587E+02  0.57634658415E+01  0.36814589514E+02  0.00000000000E+00 0.  1.
          3    1    1    2  501    0 -0.37337435433E+01 -0.29616847777E+02 -0.90839658977E+01  0.31202835600E+02  0.00000000000E+00 0. -1.
<scales pt_clust_5="13000.00000" pt_clust_6="13000.00000" pt_clust_7="13000.00000" pt_clust_8="13000.00000" pt_clust_9="13000.00000"></scales>
<clustering>
<clus scale="   91.790">  5  6 -1 -1</clus>
<clus scale="   29.851">  5  9 -1 -1</clus>
<clus scale="   93.277">  7  8 -1 -1</clus>
<clus scale="   96.010">  1  7  2 -1</clus>
<clus scale="  126.703">  2  5  1 -1</clus>
</clustering>
</event>
<event>
 9    1  0.6399313E-006  0.2516053E+03  0.7546771E-02  0.1153509E+00
          1   -1    0    0  502    0 -0.00000000000E+00  0.00000000000E+00  0.64773283426E+02  0.64773283426E+02  0.00000000000E+00 0. -1.
         21   -1    0    0  501  502  0.00000000000E+00 -0.00000000000E+00 -0.48797141503E+03  0.48797141503E+03  0.00000000000E+00 0.  1.
         23    2    1    2    0    0 -0.17931493832E+02 -0.20548368370E+01 -0.55986221411E+02  0.10760450460E+03  0.90102783513E+02 0.  0.
         23    2    1    2    0    0  0.59576489610E+02  0.92199549730E+02 -0.14240010880E+03  0.19937461250E+03  0.86152945607E+02 0.  0.
        -11    1    3    3    0    0  0.29788695040E+02  0.15127687197E+02 -0.44421939712E+02  0.55583468765E+02  0.00000000000E+00 0.  1.
         11    1    3    3    0    0 -0.47720188872E+02 -0.17182524034E+02 -0.11564281698E+02  0.52021035835E+02  0.00000000000E+00 0. -1.
        -11    1    4    4    0    0  0.16243825651E+02  0.93242452650E+02 -0.11087153318E+03  0.14577555940E+03  0.00000000000E+00 0.  1.
         11    1    4    4    0    0  0.43332663959E+02 -0.10429029198E+01 -0.31528575616E+02  0.53599053095E+02  0.00000000000E+00 0. -1.
          1    1    1    2  501    0 -0.41644995778E+02 -0.90144712893E+02 -0.22481180139E+03  0.24576558136E+03  0.00000000000E+00 0. -1.
<scales pt_clust_5="13000.00000" pt_clust_6="13000.00000" pt_clust_7="13000.00000" pt_clust_8="13000.00000" pt_clust_9="13000.00000"></scales>
<clustering>
<clus scale="   86.153">  7  8 -1 -1</clus>
<clus scale="   90.103">  5  6 -1 -1</clus>
<clus scale="   91.893">  1  5  2 -1</clus>
<clus scale="  101.907">  7  9 -1 -1</clus>
<clus scale="  251.605">  2  5  1 -1</clus>
</clustering>
</event>
<event>
 9    1  0.6399313E-006  0.2457693E+03  0.7546771E-02  0.1156839E+00
         21   -1    0    0  501  502  0.00000000000E+00  0.00000000000E+00  0.12030031603E+03  0.12030031603E+03  0.00000000000E+00 0. -1.
          2   -1    0    0  502    0 -0.00000000000E+00 -0.00000000000E+00 -0.25877400779E+03  0.25877400779E+03  0.00000000000E+00 0. -1.
         23    2    1    2    0    0 -0.19190880878E+02  0.25920921330E+02 -0.90884839852E+02  0.12874007857E+03  0.85286397766E+02 0.  0.
         23    2    1    2    0    0 -0.42804428180E+02 -0.55293439129E+02  0.52842904342E+02  0.12870899783E+03  0.94255239114E+02 0.  0.
        -11    1    3    3    0    0 -0.49842406338E+02  0.32685148363E+02 -0.63406662977E+02  0.87022924008E+02  0.00000000000E+00 0. -1.
         11    1    3    3    0    0  0.30651525460E+02 -0.67642270326E+01 -0.27478176874E+02  0.41717154561E+02  0.00000000000E+00 0.  1.
        -13    1    4    4    0    0 -0.29776625024E+02 -0.80644210699E+02  0.26657511354E+02  0.90004216727E+02  0.00000000000E+00 0. -1.
         13    1    4    4    0    0 -0.13027803156E+02  0.25350771570E+02  0.26185392987E+02  0.38704781102E+02  0.00000000000E+00 0.  1.
          2    1    1    2  501    0  0.61995309058E+02  0.29372517799E+02 -0.10043175625E+03  0.12162524742E+03  0.00000000000E+00 0. -1.
<scales pt_clust_5="13000.00000" pt_clust_6="13000.00000" pt_clust_7="13000.00000" pt_clust_8="13000.00000" pt_clust_9="13000.00000"></scales>
<clustering>
<clus scale="   85.286">  5  6 -1 -1</clus>
<clus scale="   91.181">  2  5  1 -1</clus>
<clus scale="   94.255">  7  8 -1 -1</clus>
<clus scale="   68.158">  7  9 -1 -1</clus>
<clus scale="  245.769">  1  5  2 -1</clus>
</clustering>
</event>
<event>
 9    1  0.6399313E-006  0.2003837E+03  0.7546771E-02  0.1160573E+00
         21   -1    0    0  501  502  0.00000000000E+00  0.00000000000E+00  0.34585618468E+03  0.34585618468E+03  0.00000000000E+00 0.  1.
          1   -1    0    0  502    0 -0.00000000000E+00 -0.00000000000E+00 -0.13195399158E+03  0.13195399158E+03  0.00000000000E+00 0. -1.
         23    2    1    2    0    0 -0.82053346834E+02  0.93012855348E+02 -0.35156328562E+02  0.15814821780E+03  0.91601028212E+02 0.  0.
         23    2    1    2    0    0  0.98199099586E+02 -0.10562056588E+03  0.24733717073E+03  0.29910465450E+03  0.86539882264E+02 0.  0.
        -11    1    4    4    0    0  0.42565750770E+02 -0.97429146856E+02  0.19591069277E+03  0.22290195454E+03  0.00000000000E+00 0.  1.
         11    1    4    4    0    0  0.55633348816E+02 -0.81914190264E+01  0.51426477965E+02  0.76202699965E+02  0.00000000000E+00 0. -1.
        -13    1    3    3    0    0 -0.20244766213E+02  0.83838774948E+02  0.41016729981E+00  0.86249399888E+02  0.00000000000E+00 0.  1.
         13    1    3    3    0    0 -0.61808580622E+02  0.91740803998E+01 -0.35566495861E+02  0.71898817915E+02  0.00000000000E+00 0. -1.
          1    1    1    2  501    0 -0.16145752752E+02  0.12607710534E+02  0.17213509316E+01  0.20557303954E+02  0.00000000000E+00 0. -1.
<scales pt_clust_5="13000.00000" pt_clust_6="13000.00000" pt_clust_7="13000.00000" pt_clust_8="13000.00000" pt_clust_9="13000.00000"></scales>
<clustering>
<clus scale="   86.540">  5  6 -1 -1</clus>
<clus scale="   20.485">  5  9 -1 -1</clus>
<clus scale="   91.601">  7  8 -1 -1</clus>
<clus scale="  154.191">  2  7  1 -1</clus>
<clus scale="  200.384">  1  5  2 -1</clus>
</clustering>
</event>
<event>
 9    1  0.6399313E-006  0.3823051E+03  0.7546771E-02  0.1096492E+00
          1   -1    0    0  502    0 -0.00000000000E+00  0.00000000000E+00  0.44125436994E+03  0.44125436994E+03  0.00000000000E+00 0. -1.
         21   -1    0    0  501  502  0.00000000000E+00 -0.00000000000E+00 -0.13614363888E+03  0.13614363888E+03  0.00000000000E+00 0. -1.
         23    2    1    2    0    0 -0.38364580937E+02  0.45361150335E+02  0.73555695840E+02  0.13043614765E+03  0.89853620924E+02 0.  0.
         23    2    1    2    0    0 -0.11396632112E+03 -0.62372580895E+02  0.24521202375E+03  0.29307682022E+03  0.94267835218E+02 0.  0.
        -11    1    4    4    0    0 -0.43503979319E+02  0.19879721891E+02  0.46188915661E+02  0.66492221266E+02  0.00000000000E+00 0.  1.
         11    1    4    4    0    0 -0.70462341806E+02 -0.82252302786E+02  0.19902310809E+03  0.22658459895E+03  0.00000000000E+00 0. -1.
        -11    1    3    3    0    0 -0.76292562901E+01 -0.26018882947E+02  0.67227060768E+01  0.27935328857E+02  0.00000000000E+00 0.  1.
         11    1    3    3    0    0 -0.30735324647E+02  0.71380033282E+02  0.66832989763E+02  0.10250081879E+03  0.00000000000E+00 0. -1.
          1    1    1    2  501    0  0.15233090206E+03  0.17011430561E+02 -0.13656988527E+02  0.15388504095E+03  0.00000000000E+00 0. -1.
<scales pt_clust_5="13000.00000" pt_clust_6="13000.00000" pt_clust_7="13000.00000" pt_clust_8="13000.00000" pt_clust_9="13000.00000"></scales>
<clustering>
<clus scale="   89.854">  7  8 -1 -1</clus>
<clus scale="   94.268">  5  6 -1 -1</clus>
<clus scale="  107.718">  1  7  2 -1</clus>
<clus scale="  146.793">  5  9 -1 -1</clus>
<clus scale="  382.305">  2  5  1 -1</clus>
</clustering>
</event>
<event>
 9    1  0.6399313E-006  0.2565090E+03  0.7546771E-02  0.1139072E+00
          1   -1    0    0  502    0 -0.00000000000E+00  0.00000000000E+00  0.13554393734E+03  0.13554393734E+03  0.00000000000E+00 0. -1.
         21   -1    0    0  501  502  0.00000000000E+00 -0.00000000000E+00 -0.29187523279E+03  0.29187523279E+03  0.00000000000E+00 0.  1.
         23    2    1    2    0    0  0.66424279477E+02  0.47041897325E+02  0.82507731750E+01  0.12265020979E+03  0.91377643302E+02 0.  0.
         23    2    1    2    0    0 -0.12124332966E+03 -0.98886818165E+02 -0.12477508040E+03  0.21945999017E+03  0.90085064256E+02 0.  0.
        -11    1    3    3    0    0  0.65918749883E+02  0.68382730668E+02  0.21688234414E+02  0.97426171800E+02  0.00000000000E+00 0. -1.
         11    1    3    3    0    0  0.50552959429E+00 -0.21340833343E+02 -0.13437461239E+02  0.25224037989E+02  0.00000000000E+00 0.  1.
        -13    1    4    4    0    0 -0.35118867963E+02  0.68272545927E+00  0.39364861235E+01  0.35345394665E+02  0.00000000000E+00 0. -1.
         13    1    4    4    0    0 -0.86124461697E+02 -0.99569543624E+02 -0.12871156653E+03  0.18411459551E+03  0.00000000000E+00 0.  1.
          1    1    1    2  501    0  0.54819050183E+02  0.51844920840E+02 -0.39806988222E+02  0.85308970168E+02  0.00000000000E+00 0. -1.
<scales pt_clust_5="13000.00000" pt_clust_6="13000.00000" pt_clust_7="13000.00000" pt_clust_8="13000.00000" pt_clust_9="13000.00000"></scales>
<clustering>
<clus scale="   90.085">  7  8 -1 -1</clus>
<clus scale="   75.452">  7  9 -1 -1</clus>
<clus scale="   91.378">  5  6 -1 -1</clus>
<clus scale="  122.372">  1  5  2 -1</clus>
<clus scale="  256.509">  2  5  1 -1</clus>
</clustering>
</event>
<event>
 9    1  0.6399313E-006  0.2234567E+03  0.7546771E-02  0.1166347E+00
          2   -1    0    0  502    0 -0.00000000000E+00  0.00000000000E+00  0.20595215740E+03  0.20595215740E+03  0.00000000000E+00 0. -1.
         21   -1    0    0  501  502  0.00000000000E+00 -0.00000000000E+00 -0.12999320286E+03  0.12999320286E+03  0.00000000000E+00 0. -1.
         23    2    1    2    0    0 -0.14114398295E+02  0.31064301236E+02 -0.71185540825E+01  0.97544884279E+02  0.91105014057E+02 0.  0.
         23    2    1    2    0    0  0.55539758763E+02 -0.76698024943E+02  0.10976097815E+03  0.17124018433E+03  0.91150845144E+02 0.  0.
        -11    1    4    4    0    0 -0.22152920260E+02 -0.27863613170E+02  0.51279322299E+02  0.62423566947E+02  0.00000000000E+00 0.  1.
         11    1    4    4    0    0  0.77692679023E+02 -0.48834411773E+02  0.58481655849E+02  0.10881661738E+03  0.00000000000E+00 0. -1.
        -11    1    3    3    0    0  0.25905355221E+02 -0.19419476657E+02 -0.69939106209E+01  0.33122775979E+02  0.00000000000E+00 0.  1.
         11    1    3    3    0    0 -0.40019753516E+02  0.50483777893E+02 -0.12464346159E+00  0.64422108300E+02  0.00000000000E+00 0. -1.
          2    1    1    2  501    0 -0.41425360469E+02  0.45633723707E+02 -0.26683469530E+02  0.67160291657E+02  0.00000000000E+00 0. -1.
<scales pt_clust_5="13000.00000" pt_clust_6="13000.00000" pt_clust_7="13000.00000" pt_clust_8="13000.00000" pt_clust_9="13000.00000"></scales>
<clustering>
<clus scale="   91.105">  7  8 -1 -1</clus>
<clus scale="   91.151">  5  6 -1 -1</clus>
<clus scale="   61.632">  5  9 -1 -1</clus>
<clus scale="   97.285">  1  7  2 -1</clus>
<clus scale="  223.457">  2  5  1 -1</clus>
</clustering>
</event>
<event>
 9    1  0.6399313E-006  0.5030342E+03  0.7546771E-02  0.1054372E+00
         21   -1    0    0  501  502  0.00000000000E+00  0.00000000000E+00  0.22560890435E+03  0.22560890435E+03  0.00000000000E+00 0. -1.
          1   -1    0    0  502    0 -0.00000000000E+00 -0.00000000000E+00 -0.47470118037E+03  0.47470118037E+03  0.00000000000E+00 0. -1.
         23    2    1    2    0    0 -0.93216548644E+02 -0.60107408862E+02 -0.29721823459E+02  0.15152342984E+03  0.98862214520E+02 0.  0.
         23    2    1    2    0    0  0.93243639046E+02  0.24660434943E+03 -0.22439008627E+03  0.36222217193E+03  0.10651718004E+03 0.  0.
        -11    1    4    4    0    0  0.35355706140E+02  0.22009348813E+02 -0.76638197872E+02  0.87222994474E+02  0.00000000000E+00 0.  1.
         11    1    4    4    0    0  0.57887932906E+02  0.22459500061E+03 -0.14775188840E+03  0.27499917746E+03  0.00000000000E+00 0. -1.
        -11    1    3    3    0    0 -0.56978008010E+01 -0.60181129936E+02 -0.54169936771E+01  0.60692480217E+02  0.00000000000E+00 0. -1.
         11    1    3    3    0    0 -0.87518747843E+02  0.73721074655E-01 -0.24304829782E+02  0.90830949624E+02  0.00000000000E+00 0.  1.
          1    1    1    2  501    0 -0.27090401850E-01 -0.18649694057E+03  0.50196337060E+01  0.18656448295E+03  0.00000000000E+00 0. -1.
<scales pt_clust_5="13000.00000" pt_clust_6="13000.00000" pt_clust_7="13000.00000" pt_clust_8="13000.00000" pt_clust_9="13000.00000"></scales>
<clustering>
<clus scale="   98.862">  7  8 -1 -1</clus>
<clus scale="  106.517">  5  6 -1 -1</clus>
<clus scale="  148.580">  2  7  1 -1</clus>
<clus scale="  201.911">  5  9 -1 -1</clus>
<clus scale="  503.034">  1  5  2 -1</clus>
</clustering>
</event>
<event>
 9    1  0.6399313E-006  0.2702313E+03  0.7546771E-02  0.1129820E+00
         21   -1    0    0  501  502  0.00000000000E+00  0.00000000000E+00  0.47918427720E+02  0.47918427720E+02  0.00000000000E+00 0. -1.
          2   -1    0    0  502    0 -0.00000000000E+00 -0.00000000000E+00 -0.85678120377E+03  0.85678120377E+03  0.00000000000E+00 0. -1.
         23    2    1    2    0    0 -0.73019827902E+02 -0.50118349215E+02 -0.20819994242E+03  0.24604888198E+03  0.96690703284E+02 0.  0.
         23    2    1    2    0    0  0.97443137898E+01  0.81754664300E+02 -0.56718926259E+03  0.58038755844E+03  0.91472846306E+02 0.  0.
        -11    1    3    3    0    0 -0.70326403610E+01 -0.61844434311E+02 -0.79739867770E+02  0.10115650546E+03  0.00000000000E+00 0.  1.
         11    1    3    3    0    0 -0.65987187541E+02  0.11726085096E+02 -0.12846007465E+03  0.14489237651E+03  0.00000000000E+00 0. -1.
        -11    1    4    4    0    0  0.39103479872E+02  0.84693956960E+02 -0.44690709181E+03  0.45653926140E+03  0.00000000000E+00 0. -1.
         11    1    4    4    0    0 -0.29359166082E+02 -0.29392926597E+01 -0.12028217078E+03  0.12384829705E+03  0.00000000000E+00 0.  1.
          2    1    1    2  501    0  0.63275514112E+02 -0.31636315086E+02 -0.33473571032E+02  0.78263191067E+02  0.00000000000E+00 0. -1.
<scales pt_clust_5="13000.00000" pt_clust_6="13000.00000" pt_clust_7="13000.00000" pt_clust_8="13000.00000" pt_clust_9="13000.00000"></scales>
<clustering>
<clus scale="   91.473">  7  8 -1 -1</clus>
<clus scale="   70.744">  7  9 -1 -1</clus>
<clus scale="   96.691">  5  6 -1 -1</clus>
<clus scale="  131.122">  2  5  1 -1</clus>
<clus scale="  270.231">  1  5  2 -1</clus>
</clustering>
</event>
<event>
 9    1  0.6399313E-006  0.3359772E+03  0.7546771E-02  0.1100805E+00
         21   -1    0    0  501  502  0.00000000000E+00  0.00000000000E+00  0.64283691963E+02  0.64283691963E+02  0.00000000000E+00 0.  1.
         -1   -1    0    0    0  501 -0.00000000000E+00 -0.00000000000E+00 -0.88797774576E+03  0.88797774576E+03  0.00000000000E+00 0.  1.
         23    2    1    2    0    0  0.92721455555E+02  0.58163051334E+02 -0.24433770278E+03  0.28253428611E+03  0.90246888946E+02 0.  0.
         23    2    1    2    0    0  0.10007491867E+03 -0.83722733206E+01 -0.17974574225E+03  0.22325408174E+03  0.86306250334E+02 0.  0.
        -13    1    4    4    0    0  0.89536937597E+02  0.26519349824E+02 -0.14757879526E+03  0.17464146106E+03  0.00000000000E+00 0.  1.
         13    1    4    4    0    0  0.10537981077E+02 -0.34891623144E+02 -0.32166946994E+02  0.48612620683E+02  0.00000000000E+00 0. -1.
        -13    1    3    3    0    0  0.67279596319E+02  0.82620099161E+02 -0.18568459282E+03  0.21408267767E+03  0.00000000000E+00 0.  1.
         13    1    3    3    0    0  0.25441859235E+02 -0.24457047828E+02 -0.58653109958E+02  0.68451608436E+02  0.00000000000E+00 0. -1.
         -1    1    1    2    0  502 -0.19279637423E+03 -0.49790778013E+02 -0.39961060876E+03  0.44647306988E+03  0.00000000000E+00 0.  1.
<scales pt_clust_5="13000.00000" pt_clust_6="13000.00000" pt_clust_7="13000.00000" pt_clust_8="13000.00000" pt_clust_9="13000.00000"></scales>
<clustering>
<clus scale="   86.306">  5  6 -1 -1</clus>
<clus scale="   90.247">  7  8 -1 -1</clus>
<clus scale="  141.862">  2  7  1 -1</clus>
<clus scale="  130.405">  5  9 -1 -1</clus>
<clus scale="  335.977">  1  5  2 -1</clus>
</clustering>
</event>
<event>
 9    1  0.6399313E-006  0.3088691E+03  0.7546771E-02  0.1118249E+00
         21   -1    0    0  501  502  0.00000000000E+00  0.00000000000E+00  0.16559258819E+04  0.16559258819E+04  0.00000000000E+00 0.  1.
          2   -1    0    0  502    0 -0.00000000000E+00 -0.00000000000E+00 -0.35743923991E+02  0.35743923991E+02  0.00000000000E+00 0. -1.
         23    2    1    2    0    0  0.22868479148E+02  0.62243658301E+02  0.15464938381E+03  0.19394292088E+03  0.96437463202E+02 0.  0.
         23    2    1    2    0    0  0.20916990256E+02 -0.16779301629E+03  0.83301963788E+03  0.85497463976E+03  0.92021197180E+02 0.  0.
        -11    1    3    3    0    0 -0.16871279851E+02  0.69136438549E+02  0.12516585548E+03  0.14398256352E+03  0.00000000000E+00 0. -1.
         11    1    3    3    0    0  0.39739758999E+02 -0.68927802473E+01  0.29483528329E+02  0.49960357360E+02  0.00000000000E+00 0.  1.
        -11    1    4    4    0    0 -0.36973423143E+01 -0.15807935826E+03  0.77820666946E+03  0.79410854059E+03  0.00000000000E+00 0.  1.
         11    1    4    4    0    0  0.24614332570E+02 -0.97136580232E+01  0.54812968427E+02  0.60866099168E+02  0.00000000000E+00 0. -1.
          2    1    1    2  501    0 -0.43785469404E+02  0.10554935799E+03  0.63251293621E+03  0.64275224525E+03  0.00000000000E+00 0. -1.
<scales pt_clust_5="13000.00000" pt_clust_6="13000.00000" pt_clust_7="13000.00000" pt_clust_8="13000.00000" pt_clust_9="13000.00000"></scales>
<clustering>
<clus scale="   92.021">  7  8 -1 -1</clus>
<clus scale="   96.437">  5  6 -1 -1</clus>
<clus scale="  114.271">  7  9 -1 -1</clus>
<clus scale="  117.036">  2  5  1 -1</clus>
<clus scale="  308.869">  1  5  2 -1</clus>
</clustering>
</event>
<event>
 9    1  0.6399313E-006  0.4822999E+03  0.7546771E-02  0.1065127E+00
          1   -1    0    0  502    0 -0.00000000000E+00  0.00000000000E+00  0.70229178769E+03  0.70229178769E+03  0.00000000000E+00 0. -1.
         21   -1    0    0  501  502  0.00000000000E+00 -0.00000000000E+00 -0.14021390768E+03  0.14021390768E+03  0.00000000000E+00 0. -1.
         23    2    1    2    0    0 -0.25425954889E+02  0.78800840462E+02  0.21405408488E+03  0.24775048477E+03  0.93301124372E+02 0.  0.
         23    2    1    2    0    0 -0.11301168141E+03 -0.10023199969E+02  0.40419701595E+03  0.43028401643E+03  0.94323922829E+02 0.  0.
        -11    1    3    3    0    0  0.30474621804E+02  0.45793164373E+02  0.13284401053E+03  0.14378194467E+03  0.00000000000E+00 0.  1.
         11    1    3    3    0    0 -0.55900576693E+02  0.33007676089E+02  0.81210074349E+02  0.10396854010E+03  0.00000000000E+00 0. -1.
        -11    1    4    4    0    0 -0.95448347319E+01 -0.34457687145E+02  0.58042285073E+02  0.68171423119E+02  0.00000000000E+00 0.  1.
         11    1    4    4    0    0 -0.10346684668E+03  0.24434487177E+02  0.34615473087E+03  0.36211259331E+03  0.00000000000E+00 0. -1.
          1    1    1    2  501    0  0.13843763630E+03 -0.68777640493E+02 -0.56173220822E+02  0.16447119418E+03  0.00000000000E+00 0. -1.
<scales pt_clust_5="13000.00000" pt_clust_6="13000.00000" pt_clust_7="13000.00000" pt_clust_8="13000.00000" pt_clust_9="13000.00000"></scales>
<clustering>
<clus scale="   93.301">  5  6 -1 -1</clus>
<clus scale="   94.324">  7  8 -1 -1</clus>
<clus scale="  124.744">  1  5  2 -1</clus>
<clus scale="  148.095">  7  9 -1 -1</clus>
<clus scale="  482.300">  2  5  1 -1</clus>
</clustering>
</event>
<event>
 9    1  0.6399313E-006  0.2429265E+03  0.7546771E-02  0.1155089E+00
         -2   -1    0    0    0  501 -0.00000000000E+00  0.00000000000E+00  0.39778231309E+03  0.39778231309E+03  0.00000000000E+00 0.  1.
         21   -1    0    0  501  502  0.00000000000E+00 -0.00000000000E+00 -0.84429703366E+02  0.84429703366E+02  0.00000000000E+00 0. -1.
         23    2    1    2    0    0  0.43332978597E+02 -0.21251559885E+02  0.17990718196E+03  0.20504603362E+03  0.85719927383E+02 0.  0.
         23    2    1    2    0    0 -0.12533839159E+03  0.38354352865E+02  0.75232876947E+02  0.17515571688E+03  0.88536831853E+02 0.  0.
        -11    1    3    3    0    0  0.19229045492E+02  0.29757451201E+02  0.10790981143E+03  0.11357724022E+03  0.00000000000E+00 0.  1.
         11    1    3    3    0    0  0.24103933105E+02 -0.51009011086E+02  0.71997370524E+02  0.91468793397E+02  0.00000000000E+00 0. -1.
        -13    1    4    4    0    0 -0.11658815022E+03  0.96278346343E+01  0.83829647471E+02  0.14391977545E+03  0.00000000000E+00 0.  1.
         13    1    4    4    0    0 -0.87502413667E+01  0.28726518231E+02 -0.85967705246E+01  0.31235941431E+02  0.00000000000E+00 0. -1.
         -2    1    1    2    0  502  0.82005412989E+02 -0.17102792981E+02  0.58212550821E+02  0.10201026596E+03  0.00000000000E+00 0.  1.
<scales pt_clust_5="13000.00000" pt_clust_6="13000.00000" pt_clust_7="13000.00000" pt_clust_8="13000.00000" pt_clust_9="13000.00000"></scales>
<clustering>
<clus scale="   85.720">  5  6 -1 -1</clus>
<clus scale="   88.537">  7  8 -1 -1</clus>
<clus scale="   83.770">  7  9 -1 -1</clus>
<clus scale="   98.373">  1  5  2 -1</clus>
<clus scale="  242.927">  2  5  1 -1</clus>
</clustering>
</event>
<event>
 9    1  0.6399313E-006  0.4506315E+03  0.7546771E-02  0.1062094E+00
          1   -1    0    0  502    0 -0.00000000000E+00  0.00000000000E+00  0.15933802727E+03  0.15933802727E+03  0.00000000000E+00 0. -1.
         21   -1    0    0  501  502  0.00000000000E+00 -0.00000000000E+00 -0.10975095508E+04  0.10975095508E+04  0.00000000000E+00 0. -1.
         23    2    1    2    0    0 -0.68249976554E+02 -0.12145989552E+03  0.47515002090E+02  0.17303638477E+03  0.90957954637E+02 0.  0.
         23    2    1    2    0    0  0.16336759719E+03  0.12061233854E+03 -0.96004301706E+03  0.98529383622E+03  0.88797753809E+02 0.  0.
        -11    1    4    4    0    0  0.57907341552E+02  0.15344300284E+02 -0.14750002716E+03  0.15920102314E+03  0.00000000000E+00 0.  1.
         11    1    4    4    0    0  0.10546025564E+03  0.10526803825E+03 -0.81254298989E+03  0.82609281308E+03  0.00000000000E+00 0. -1.
        -11    1    3    3    0    0 -0.21871956435E+02 -0.29305436850E+02 -0.27269086945E+02  0.45615723277E+02  0.00000000000E+00 0.  1.
         11    1    3    3    0    0 -0.46378020119E+02 -0.92154458669E+02  0.74784089035E+02  0.12742066149E+03  0.00000000000E+00 0. -1.
          1    1    1    2  501    0 -0.95117620636E+02  0.84755698230E+00 -0.25643508530E+02  0.98517357040E+02  0.00000000000E+00 0. -1.
<scales pt_clust_5="13000.00000" pt_clust_6="13000.00000" pt_clust_7="13000.00000" pt_clust_8="13000.00000" pt_clust_9="13000.00000"></scales>
<clustering>
<clus scale="   88.798">  5  6 -1 -1</clus>
<clus scale="   90.958">  7  8 -1 -1</clus>
<clus scale="   95.121">  5  9 -1 -1</clus>
<clus scale="  166.385">  1  7  2 -1</clus>
<clus scale="  450.632">  2  5  1 -1</clus>
</clustering>
</event>
<event>
 9    1  0.6399313E-006  0.4486026E+03  0.7546771E-02  0.1075125E+00
          1   -1    0    0  502    0 -0.00000000000E+00  0.00000000000E+00  0.19954751799E+03  0.19954751799E+03  0.00000000000E+00 0. -1.
         21   -1    0    0  501  502  0.00000000000E+00 -0.00000000000E+00 -0.42508807016E+03  0.42508807016E+03  0.00000000000E+00 0.  1.
         23    2    1    2    0    0  0.33960918778E+02  0.57817073436E+02  0.94857379314E+01  0.11819541906E+03  0.96871150905E+02 0.  0.
         23    2    1    2    0    0  0.59612916839E+02 -0.12610982473E+03 -0.32066819161E+03  0.36237595464E+03  0.95030814184E+02 0.  0.
        -13    1    3    3    0    0  0.52614235634E+02  0.48079437655E+02  0.39540562719E+02  0.81506724979E+02  0.00000000000E+00 0. -1.
         13    1    3    3    0    0 -0.18653316856E+02  0.97376357813E+01 -0.30054824788E+02  0.36688694081E+02  0.00000000000E+00 0.  1.
        -13    1    4    4    0    0  0.81012831138E+02 -0.70030985619E+02 -0.18014169802E+03  0.20956729020E+03  0.00000000000E+00 0.  1.
         13    1    4    4    0    0 -0.21399914299E+02 -0.56078839110E+02 -0.14052649359E+03  0.15280866444E+03  0.00000000000E+00 0. -1.
          1    1    1    2  501    0 -0.93573835617E+02  0.68292751292E+02  0.85641901513E+02  0.14406421445E+03  0.00000000000E+00 0. -1.
<scales pt_clust_5="13000.00000" pt_clust_6="13000.00000" pt_clust_7="13000.00000" pt_clust_8="13000.00000" pt_clust_9="13000.00000"></scales>
<clustering>
<clus scale="   95.031">  7  8 -1 -1</clus>
<clus scale="   96.871">  5  6 -1 -1</clus>
<clus scale="  115.845">  7  9 -1 -1</clus>
<clus scale="  117.814">  1  5  2 -1</clus>
<clus scale="  448.603">  2  5  1 -1</clus>
</clustering>
</event>
<event>
 9    1  0.6399313E-006  0.1823158E+03  0.7546771E-02  0.1195453E+00
         21   -1    0    0  501  502  0.00000000000E+00  0.00000000000E+00  0.16774432107E+03  0.16774432107E+03  0.00000000000E+00 0.  1.
         -4   -1    0    0    0  501 -0.00000000000E+00 -0.00000000000E+00 -0.11402401358E+03  0.11402401358E+03  0.00000000000E+00 0.  1.
         23    2    1    2    0    0  0.86051404552E+01  0.26364219055E+02  0.64314125814E+01  0.93419433059E+02  0.88975878286E+02 0.  0.
         23    2    1    2    0    0 -0.43933373089E+02 -0.30053863236E+01 -0.24900818422E+02  0.10465258269E+03  0.91612983184E+02 0.  0.
        -11    1    3    3    0    0  0.13552477829E+02 -0.31850201518E+02  0.50395107792E+01  0.34978588607E+02  0.00000000000E+00 0. -1.
         11    1    3    3    0    0 -0.49473373737E+01  0.58214420573E+02  0.13919018022E+01  0.58440844453E+02  0.00000000000E+00 0.  1.
        -11    1    4    4    0    0 -0.68080455895E+02 -0.16579451281E+02 -0.30451564017E+02  0.76401076110E+02  0.00000000000E+00 0.  1.
         11    1    4    4    0    0  0.24147082805E+02  0.13574064958E+02  0.55507455949E+01  0.28251506582E+02  0.00000000000E+00 0. -1.
         -4    1    1    2    0  502  0.35328232634E+02 -0.23358832731E+02  0.72189713330E+02  0.83696318905E+02  0.00000000000E+00 0.  1.
<scales pt_clust_5="13000.00000" pt_clust_6="13000.00000" pt_clust_7="13000.00000" pt_clust_8="13000.00000" pt_clust_9="13000.00000"></scales>
<clustering>
<clus scale="   88.976">  5  6 -1 -1</clus>
<clus scale="   91.613">  7  8 -1 -1</clus>
<clus scale="   42.352">  7  9 -1 -1</clus>
<clus scale="   93.198">  2  5  1 -1</clus>
<clus scale="  182.316">  1  5  2 -1</clus>
</clustering>
</event>
<event>
 9    1  0.6399313E-006  0.2671832E+03  0.7546771E-02  0.1136675E+00
         21   -1    0    0  501  502  0.00000000000E+00  0.00000000000E+00  0.10320628763E+03  0.10320628763E+03  0.00000000000E+00 0. -1.
          1   -1    0    0  502    0 -0.00000000000E+00 -0.00000000000E+00 -0.42552499561E+03  0.42552499561E+03  0.00000000000E+00 0. -1.
         23    2    1    2    0    0 -0.69353073374E+02  0.21071756532E+02 -0.20916402638E+03  0.23857465688E+03  0.88962965697E+02 0.  0.
         23    2    1    2    0    0  0.24789337331E+02  0.49517169122E+02 -0.15981126222E+03  0.19452420765E+03  0.96091448862E+02 0.  0.
        -11    1    4    4    0    0  0.42167243685E+01 -0.29171452569E+02 -0.38972767014E+02  0.48863390981E+02  0.00000000000E+00 0.  1.
         11    1    4    4    0    0  0.20572612962E+02  0.78688621691E+02 -0.12083849521E+03  0.14566081666E+03  0.00000000000E+00 0. -1.
        -11    1    3    3    0    0 -0.25811073953E+02 -0.31546697577E+01 -0.26539513789E+01  0.26138227518E+02  0.00000000000E+00 0.  1.
         11    1    3    3    0    0 -0.43541999421E+02  0.24226426290E+02 -0.20651007500E+03  0.21243642936E+03  0.00000000000E+00 0. -1.
          1    1    1    2  501    0  0.44563736043E+02 -0.70588925654E+02  0.46656580617E+02  0.95632418718E+02  0.00000000000E+00 0. -1.
<scales pt_clust_5="13000.00000" pt_clust_6="13000.00000" pt_clust_7="13000.00000" pt_clust_8="13000.00000" pt_clust_9="13000.00000"></scales>
<clustering>
<clus scale="   88.963">  7  8 -1 -1</clus>
<clus scale="   96.091">  5  6 -1 -1</clus>
<clus scale="   83.479">  5  9 -1 -1</clus>
<clus scale="  114.753">  2  7  1 -1</clus>
<clus scale="  267.183">  1  5  2 -1</clus>
</clustering>
</event>
<event>
 9    1  0.6399313E-006  0.1883411E+03  0.7546771E-02  0.1160431E+00
         21   -1    0    0  501  502  0.00000000000E+00  0.00000000000E+00  0.24316774688E+03  0.24316774688E+03  0.00000000000E+00 0.  1.
         -1   -1    0    0    0  501 -0.00000000000E+00 -0.00000000000E+00 -0.16341128965E+03  0.16341128965E+03  0.00000000000E+00 0.  1.
         23    2    1    2    0    0  0.45484363110E+02 -0.12976671272E+03  0.10918713484E+03  0.21595236878E+03  0.12571940243E+03 0.  0.
         23    2    1    2    0    0 -0.19723615242E+02  0.69189815966E+02 -0.41746318580E+02  0.12365763339E+03  0.91499746167E+02 0.  0.
        -11    1    4    4    0    0  0.17410038519E+02  0.74283944630E+02 -0.15380461913E+02  0.77831693286E+02  0.00000000000E+00 0. -1.
         11    1    4    4    0    0 -0.37133653762E+02 -0.50941286642E+01 -0.26365856666E+02  0.45825940103E+02  0.00000000000E+00 0.  1.
        -13    1    3    3    0    0  0.37148826200E+02 -0.38043118613E+02  0.11181426081E+03  0.12381333968E+03  0.00000000000E+00 0.  1.
         13    1    3    3    0    0  0.83355369102E+01 -0.91723594111E+02 -0.26271259715E+01  0.92139029098E+02  0.00000000000E+00 0. -1.
         -1    1    1    2    0  502 -0.25760747868E+02  0.60576896758E+02  0.12315640975E+02  0.66969034368E+02  0.00000000000E+00 0.  1.
<scales pt_clust_5="13000.00000" pt_clust_6="13000.00000" pt_clust_7="13000.00000" pt_clust_8="13000.00000" pt_clust_9="13000.00000"></scales>
<clustering>
<clus scale="   91.500">  5  6 -1 -1</clus>
<clus scale="   65.827">  5  9 -1 -1</clus>
<clus scale="  125.719">  7  8 -1 -1</clus>
<clus scale="  186.316">  2  7  1 -1</clus>
<clus scale="  188.341">  1  5  2 -1</clus>
</clustering>
</event>
<event>
 9    1  0.6399313E-006  0.2216852E+03  0.7546771E-02  0.1151900E+00
          1   -1    0    0  502    0 -0.00000000000E+00  0.00000000000E+00  0.60798144097E+03  0.60798144097E+03  0.00000000000E+00 0. -1.
         21   -1    0    0  501  502  0.00000000000E+00 -0.00000000000E+00 -0.65480702369E+02  0.65480702369E+02  0.00000000000E+00 0. -1.
         23    2    1    2    0    0 -0.90311678187E+01  0.10587576149E+03  0.36074255992E+03  0.38679099440E+03  0.90447995820E+02 0.  0.
         23    2    1    2    0    0  0.38528249458E+01 -0.77494298559E+02  0.21293563723E+03  0.24419343014E+03  0.90932035891E+02 0.  0.
        -13    1    3    3    0    0 -0.26393180335E+02  0.13404312907E+02  0.27091172616E+02  0.40127387236E+02  0.00000000000E+00 0.  1.
         13    1    3    3    0    0  0.17362012516E+02  0.92471448581E+02  0.33365138731E+03  0.34666360717E+03  0.00000000000E+00 0. -1.
        -13    1    4    4    0    0 -0.13598553221E+02  0.16015989557E+02  0.65021861040E+02  0.68332093369E+02  0.00000000000E+00 0. -1.
         13    1    4    4    0    0  0.17451378167E+02 -0.93510288116E+02  0.14791377619E+03  0.17586133677E+03  0.00000000000E+00 0.  1.
          1    1    1    2  501    0  0.51783428730E+01 -0.28381462929E+02 -0.31177458549E+02  0.42477718801E+02  0.00000000000E+00 0. -1.
<scales pt_clust_5="13000.00000" pt_clust_6="13000.00000" pt_clust_7="13000.00000" pt_clust_8="13000.00000" pt_clust_9="13000.00000"></scales>
<clustering>
<clus scale="   90.448">  5  6 -1 -1</clus>
<clus scale="   90.932">  7  8 -1 -1</clus>
<clus scale="   28.850">  7  9 -1 -1</clus>
<clus scale="  139.542">  1  5  2 -1</clus>
<clus scale="  221.685">  2  5  1 -1</clus>
</clustering>
</event>
<event>
 9    1  0.6399313E-006  0.1991667E+03  0.7546771E-02  0.1180826E+00
         -3   -1    0    0    0  501 -0.00000000000E+00  0.00000000000E+00  0.24303060622E+03  0.24303060622E+03  0.00000000000E+00 0.  1.
         21   -1    0    0  501  502  0.00000000000E+00 -0.00000000000E+00 -0.94395103658E+02  0.94395103658E+02  0.00000000000E+00 0. -1.
         23    2    1    2    0    0 -0.26784382210E+02 -0.25186591867E+02  0.78611820909E+02  0.12630799941E+03  0.91772135146E+02 0.  0.
         23    2    1    2    0    0 -0.30174491916E+02  0.74319225994E+02  0.61026966165E+02  0.13535974080E+03  0.90355528413E+02 0.  0.
        -11    1    3    3    0    0  0.34298083661E+02 -0.66613502061E+01  0.25195154968E+02  0.43075839670E+02  0.00000000000E+00 0.  1.
         11    1    3    3    0    0 -0.61082465872E+02 -0.18525241661E+02  0.53416665940E+02  0.83232159745E+02  0.00000000000E+00 0. -1.
        -13    1    4    4    0    0 -0.22020190548E+02 -0.17070828249E+02  0.64406672806E+01  0.28596925777E+02  0.00000000000E+00 0.  1.
         13    1    4    4    0    0 -0.81543013680E+01  0.91390054243E+02  0.54586298885E+02  0.10676281502E+03  0.00000000000E+00 0. -1.
         -3    1    1    2    0  502  0.56958874126E+02 -0.49132634127E+02  0.89967154868E+01  0.75757969663E+02  0.00000000000E+00 0.  1.
<scales pt_clust_5="13000.00000" pt_clust_6="13000.00000" pt_clust_7="13000.00000" pt_clust_8="13000.00000" pt_clust_9="13000.00000"></scales>
<clustering>
<clus scale="   90.356">  7  8 -1 -1</clus>
<clus scale="   75.222">  7  9 -1 -1</clus>
<clus scale="   91.772">  5  6 -1 -1</clus>
<clus scale="   98.863">  1  5  2 -1</clus>
<clus scale="  199.167">  2  5  1 -1</clus>
</clustering>
</event>
<event>
 9    1  0.6399313E-006  0.1645192E+03  0.7546771E-02  0.1209360E+00
          1   -1    0    0  502    0 -0.00000000000E+00  0.00000000000E+00  0.92660077570E+02  0.92660077570E+02  0.00000000000E+00 0. -1.
         21   -1    0    0  501  502  0.00000000000E+00 -0.00000000000E+00 -0.31310976370E+03  0.31310976370E+03  0.00000000000E+00 0.  1.
         23    2    1    2    0    0  0.15742632292E+02  0.12916593755E+02  0.36446283759E+02  0.10070900198E+03  0.91647709272E+02 0.  0.
         23    2    1    2    0    0 -0.34802322125E+02 -0.50431611578E+02 -0.23102352508E+03  0.25566416188E+03  0.90762026511E+02 0.  0.
        -11    1    4    4    0    0 -0.60519031115E+02 -0.15587373444E+02 -0.16754047378E+03  0.17881646929E+03  0.00000000000E+00 0.  1.
         11    1    4    4    0    0  0.25716708990E+02 -0.34844238135E+02 -0.63483051306E+02  0.76847692584E+02  0.00000000000E+00 0. -1.
        -13    1    3    3    0    0  0.44680926945E+02  0.29266950535E+01  0.50095403385E+02  0.67190030637E+02  0.00000000000E+00 0. -1.
         13    1    3    3    0    0 -0.28938294654E+02  0.99898987018E+01 -0.13649119626E+02  0.33518971346E+02  0.00000000000E+00 0.  1.
          1    1    1    2  501    0  0.19059689833E+02  0.37515017823E+02 -0.25872444813E+02  0.49396677413E+02  0.00000000000E+00 0. -1.
<scales pt_clust_5="13000.00000" pt_clust_6="13000.00000" pt_clust_7="13000.00000" pt_clust_8="13000.00000" pt_clust_9="13000.00000"></scales>
<clustering>
<clus scale="   90.762">  5  6 -1 -1</clus>
<clus scale="   42.079">  5  9 -1 -1</clus>
<clus scale="   91.648">  7  8 -1 -1</clus>
<clus scale="   93.883">  1  7  2 -1</clus>
<clus scale="  164.519">  2  5  1 -1</clus>
</clustering>
</event>
<event>
 9    1  0.6399313E-006  0.2787893E+03  0.7546771E-02  0.1130463E+00
         -1   -1    0    0    0  501 -0.00000000000E+00  0.00000000000E+00  0.11466443411E+03  0.11466443411E+03  0.00000000000E+00 0.  1.
         21   -1    0    0  501  502  0.00000000000E+00 -0.00000000000E+00 -0.79249341852E+03  0.79249341852E+03  0.00000000000E+00 0.  1.
         23    2    1    2    0    0  0.30331648196E+02 -0.61682101489E+02  0.50018946363E+02  0.12774391059E+03  0.95351566177E+02 0.  0.
         23    2    1    2    0    0  0.95495593534E+02  0.43692254233E+02 -0.48175190312E+03  0.50243129964E+03  0.96560308769E+02 0.  0.
        -11    1    3    3    0    0  0.36263516341E+02 -0.31769789069E+02  0.74431192568E+02  0.88681252483E+02  0.00000000000E+00 0.  1.
         11    1    3    3    0    0 -0.59318681453E+01 -0.29912312420E+02 -0.24412246204E+02  0.39062658112E+02  0.00000000000E+00 0. -1.
        -11    1    4    4    0    0  0.98063062950E+02  0.18876623165E+02 -0.45508751340E+03  0.46591558899E+03  0.00000000000E+00 0.  1.
         11    1    4    4    0    0 -0.25674694165E+01  0.24815631068E+02 -0.26664389729E+02  0.36515710648E+02  0.00000000000E+00 0. -1.
         -1    1    1    2    0  502 -0.12582724173E+03  0.17989847257E+02 -0.24609602764E+03  0.27698264239E+03  0.00000000000E+00 0.  1.
<scales pt_clust_5="13000.00000" pt_clust_6="13000.00000" pt_clust_7="13000.00000" pt_clust_8="13000.00000" pt_clust_9="13000.00000"></scales>
<clustering>
<clus scale="   95.352">  5  6 -1 -1</clus>
<clus scale="   96.560">  7  8 -1 -1</clus>
<clus scale="  117.544">  1  5  2 -1</clus>
<clus scale="  109.316">  7  9 -1 -1</clus>
<clus scale="  278.789">  2  5  1 -1</clus>
</clustering>
</event>
<event>
 9    1  0.6399313E-006  0.1458709E+03  0.7546771E-02  0.1226145E+00
         21   -1    0    0  501  502  0.00000000000E+00  0.00000000000E+00  0.60019309980E+02  0.60019309980E+02  0.00000000000E+00 0.  1.
          2   -1    0    0  502    0 -0.00000000000E+00 -0.00000000000E+00 -0.39223944679E+03  0.39223944679E+03  0.00000000000E+00 0. -1.
         23    2    1    2    0    0  0.18365153821E+02 -0.29899823294E+02 -0.28288753417E+03  0.29827165756E+03  0.87802883799E+02 0.  0.
         23    2    1    2    0    0 -0.23382030377E+02 -0.16446401547E+02 -0.11830366398E+02  0.94157680611E+02  0.88929791300E+02 0.  0.
        -11    1    4    4    0    0 -0.28810000460E+02  0.22224175442E+02  0.21976082749E+02  0.42507391282E+02  0.00000000000E+00 0.  1.
         11    1    4    4    0    0  0.54279700831E+01 -0.38670576989E+02 -0.33806449147E+02  0.51650289330E+02  0.00000000000E+00 0. -1.
        -11    1    3    3    0    0 -0.31328543370E+02  0.44945073613E+01 -0.67249231222E+02  0.74324540538E+02  0.00000000000E+00 0.  1.
         11    1    3    3    0    0  0.49693697192E+02 -0.34394330655E+02 -0.21563830295E+03  0.22394711702E+03  0.00000000000E+00 0. -1.
          2    1    1    2  501    0  0.50168765558E+01  0.46346224841E+02 -0.37502236238E+02  0.59829418601E+02  0.00000000000E+00 0. -1.
<scales pt_clust_5="13000.00000" pt_clust_6="13000.00000" pt_clust_7="13000.00000" pt_clust_8="13000.00000" pt_clust_9="13000.00000"></scales>
<clustering>
<clus scale="   87.803">  7  8 -1 -1</clus>
<clus scale="   88.930">  5  6 -1 -1</clus>
<clus scale="   46.617">  5  9 -1 -1</clus>
<clus scale="   94.555">  2  7  1 -1</clus>
<clus scale="  145.871">  1  5  2 -1</clus>
</clustering>
</event>
<event>
 9    1  0.6399313E-006  0.7695555E+03  0.7546771E-02  0.9754338E-01
         -2   -1    0    0    0  501 -0.00000000000E+00  0.00000000000E+00  0.17544685886E+04  0.17544685886E+04  0.00000000000E+00 0.  1.
         21   -1    0    0  501  502  0.00000000000E+00 -0.00000000000E+00 -0.22627440082E+03  0.22627440082E+03  0.00000000000E+00 0. -1.
         23    2    1    2    0    0 -0.28707589205E+03 -0.35485403367E+03  0.77382889641E+03  0.90311472822E+03  0.92038570196E+02 0.  0.
         23    2    1    2    0    0  0.18007396836E+03  0.20258616158E+03  0.82905897301E+03  0.87709381869E+03  0.92124910326E+02 0.  0.
        -11    1    3    3    0    0 -0.46223633503E+02 -0.98761619072E+02  0.13110756652E+03  0.17052763909E+03  0.00000000000E+00 0.  1.
         11    1    3    3    0    0 -0.24085225855E+03 -0.25609241460E+03  0.64272132990E+03  0.73258708913E+03  0.00000000000E+00 0. -1.
        -11    1    4    4    0    0  0.13803730964E+03  0.11923293044E+03  0.42677818789E+03  0.46412327265E+03  0.00000000000E+00 0.  1.
         11    1    4    4    0    0  0.42036658719E+02  0.83353231139E+02  0.40228078512E+03  0.41297054604E+03  0.00000000000E+00 0. -1.
         -2    1    1    2    0  502  0.10700192369E+03  0.15226787209E+03 -0.74693681663E+02  0.20053444249E+03  0.00000000000E+00 0.  1.
<scales pt_clust_5="13000.00000" pt_clust_6="13000.00000" pt_clust_7="13000.00000" pt_clust_8="13000.00000" pt_clust_9="13000.00000"></scales>
<clustering>
<clus scale="   92.039">  5  6 -1 -1</clus>
<clus scale="   92.125">  7  8 -1 -1</clus>
<clus scale="  186.105">  7  9 -1 -1</clus>
<clus scale="  465.623">  1  5  2 -1</clus>
<clus scale="  769.556">  2  5  1 -1</clus>
</clustering>
</event>
<event>
 9    1  0.6399313E-006  0.3661305E+03  0.7546771E-02  0.1101545E+00
          1   -1    0    0  502    0 -0.00000000000E+00  0.00000000000E+00  0.27335057663E+03  0.27335057663E+03  0.00000000000E+00 0. -1.
         21   -1    0    0  501  502  0.00000000000E+00 -0.00000000000E+00 -0.21746381290E+03  0.21746381290E+03  0.00000000000E+00 0.  1.
         23    2    1    2    0    0 -0.58602295248E+02  0.61880355077E+01  0.62965289494E+02  0.12461550005E+03  0.89954846336E+02 0.  0.
         23    2    1    2    0    0  0.10239870844E+02 -0.17022711811E+03  0.12888160125E+02  0.19401755118E+03  0.91621934058E+02 0.  0.
        -13    1    4    4    0    0 -0.31951487890E+02 -0.13073026951E+03 -0.98596465142E+00  0.13458184525E+03  0.00000000000E+00 0.  1.
         13    1    4    4    0    0  0.42191358734E+02 -0.39496848592E+02  0.13874124776E+02  0.59435705925E+02  0.00000000000E+00 0. -1.
        -13    1    3    3    0    0 -0.54985638870E+01 -0.32517637747E+02  0.46261224830E+02  0.56813131336E+02  0.00000000000E+00 0.  1.
         13    1    3    3    0    0 -0.53103731361E+02  0.38705673255E+02  0.16704064664E+02  0.67802368711E+02  0.00000000000E+00 0. -1.
          1    1    1    2  501    0  0.48362424404E+02  0.16403908260E+03 -0.19966685886E+02  0.17218133830E+03  0.00000000000E+00 0. -1.
<scales pt_clust_5="13000.00000" pt_clust_6="13000.00000" pt_clust_7="13000.00000" pt_clust_8="13000.00000" pt_clust_9="13000.00000"></scales>
<clustering>
<clus scale="   89.955">  7  8 -1 -1</clus>
<clus scale="   91.622">  5  6 -1 -1</clus>
<clus scale="  107.538">  1  7  2 -1</clus>
<clus scale="  168.314">  5  9 -1 -1</clus>
<clus scale="  366.130">  2  5  1 -1</clus>
</clustering>
</event>
<event>
 9    1  0.6399313E-006  0.3084735E+03  0.7546771E-02  0.1110202E+00
         -2   -1    0    0    0  501 -0.00000000000E+00  0.00000000000E+00  0.57147474575E+03  0.57147474575E+03  0.00000000000E+00 0.  1.
         21   -1    0    0  501  502  0.00000000000E+00 -0.00000000000E+00 -0.12248977869E+03  0.12248977869E+03  0.00000000000E+00 0.  1.
         23    2    1    2    0    0 -0.89353582752E+02 -0.64735936706E+02  0.33582386908E+03  0.36538982693E+03  0.92505407041E+02 0.  0.
         23    2    1    2    0    0  0.13929040660E+02 -0.79374933954E+02  0.10853359207E+03  0.16585340694E+03  0.96090653411E+02 0.  0.
        -13    1    3    3    0    0 -0.55663427777E+02 -0.74155469655E+02  0.15032497644E+03  0.17662120318E+03  0.00000000000E+00 0.  1.
         13    1    3    3    0    0 -0.33690154975E+02  0.94195329488E+01  0.18549889264E+03  0.18876862375E+03  0.00000000000E+00 0. -1.
        -13    1    4    4    0    0  0.40713314201E+02 -0.37934239899E+02  0.10184933091E+03  0.11605975494E+03  0.00000000000E+00 0.  1.
         13    1    4    4    0    0 -0.26784273540E+02 -0.41440694056E+02  0.66842611648E+01  0.49793652007E+02  0.00000000000E+00 0. -1.
         -2    1    1    2    0  502  0.75424542092E+02  0.14411087066E+03  0.46275059166E+01  0.16272129057E+03  0.00000000000E+00 0.  1.
<scales pt_clust_5="13000.00000" pt_clust_6="13000.00000" pt_clust_7="13000.00000" pt_clust_8="13000.00000" pt_clust_9="13000.00000"></scales>
<clustering>
<clus scale="   92.505">  5  6 -1 -1</clus>
<clus scale="   96.091">  7  8 -1 -1</clus>
<clus scale="  143.986">  1  5  2 -1</clus>
<clus scale="  126.606">  7  9 -1 -1</clus>
<clus scale="  308.473">  2  5  1 -1</clus>
</clustering>
</event>
<event>
 9    1  0.6399313E-006  0.3912013E+03  0.7546771E-02  0.1069300E+00
         -1   -1    0    0    0  501 -0.00000000000E+00  0.00000000000E+00  0.15511170723E+03  0.15511170723E+03  0.00000000000E+00 0.  1.
         21   -1    0    0  501  502  0.00000000000E+00 -0.00000000000E+00 -0.58043698409E+03  0.58043698409E+03  0.00000000000E+00 0. -1.
         23    2    1    2    0    0 -0.17249072040E+03  0.76562692693E+02 -0.16330701847E+03  0.26470687577E+03  0.88236348868E+02 0.  0.
         23    2    1    2    0    0  0.15208441925E+03 -0.12109682788E+03 -0.10255623691E+02  0.21435764342E+03  0.89721286068E+02 0.  0.
        -11    1    3    3    0    0 -0.13893780055E+03  0.84370715688E+02 -0.95179457757E+02  0.18836469751E+03  0.00000000000E+00 0. -1.
         11    1    3    3    0    0 -0.33552919850E+02 -0.78080229944E+01 -0.68127560709E+02  0.76342178262E+02  0.00000000000E+00 0.  1.
        -13    1    4    4    0    0  0.71540067590E+01 -0.53417480205E+02  0.20281392386E+01  0.53932553740E+02  0.00000000000E+00 0. -1.
         13    1    4    4    0    0  0.14493041249E+03 -0.67679347672E+02 -0.12283762929E+02  0.16042508968E+03  0.00000000000E+00 0.  1.
         -1    1    1    2    0  502  0.20406301152E+02  0.44534135184E+02 -0.25176263470E+03  0.25648417213E+03  0.00000000000E+00 0.  1.
<scales pt_clust_5="13000.00000" pt_clust_6="13000.00000" pt_clust_7="13000.00000" pt_clust_8="13000.00000" pt_clust_9="13000.00000"></scales>
<clustering>
<clus scale="   88.236">  5  6 -1 -1</clus>
<clus scale="   89.721">  7  8 -1 -1</clus>
<clus scale="   48.987">  7  9 -1 -1</clus>
<clus scale="  208.328">  1  5  2 -1</clus>
<clus scale="  391.201">  2  5  1 -1</clus>
</clustering>
</event>
<event>
 9    1  0.6399313E-006  0.4011929E+03  0.7546771E-02  0.1084844E+00
         21   -1    0    0  501  502  0.00000000000E+00  0.00000000000E+00  0.22385926702E+03  0.22385926702E+03  0.00000000000E+00 0.  1.
          1   -1    0    0  502    0 -0.00000000000E+00 -0.00000000000E+00 -0.32484637757E+03  0.32484637757E+03  0.00000000000E+00 0. -1.
         23    2    1    2    0    0 -0.85089230067E+02  0.46552790857E+02 -0.73580941748E+02  0.14657773889E+03  0.81630503732E+02 0.  0.
         23    2    1    2    0    0  0.17088225530E+03 -0.11410319389E+03 -0.12402121655E+03  0.25632678231E+03  0.90010405730E+02 0.  0.
        -11    1    3    3    0    0 -0.23241472117E+02  0.58931804605E+02 -0.31448716412E+02  0.70725846648E+02  0.00000000000E+00 0.  1.
         11    1    3    3    0    0 -0.61847757951E+02 -0.12379013748E+02 -0.42132225336E+02  0.75851892242E+02  0.00000000000E+00 0. -1.
        -13    1    4    4    0    0  0.73218484627E+02 -0.98724898075E+02 -0.87726163580E+02  0.15100805200E+03  0.00000000000E+00 0.  1.
         13    1    4    4    0    0  0.97663770672E+02 -0.15378295818E+02 -0.36295052975E+02  0.10531873031E+03  0.00000000000E+00 0. -1.
          1    1    1    2  501    0 -0.85793025231E+02  0.67550403036E+02  0.96615047752E+02  0.14580112339E+03  0.00000000000E+00 0. -1.
<scales pt_clust_5="13000.00000" pt_clust_6="13000.00000" pt_clust_7="13000.00000" pt_clust_8="13000.00000" pt_clust_9="13000.00000"></scales>
<clustering>
<clus scale="   81.631">  5  6 -1 -1</clus>
<clus scale="   90.010">  7  8 -1 -1</clus>
<clus scale="  109.195">  7  9 -1 -1</clus>
<clus scale="  126.771">  2  5  1 -1</clus>
<clus scale="  401.193">  1  5  2 -1</clus>
</clustering>
</event>
<event>
 9    1  0.6399313E-006  0.2256500E+03  0.7546771E-02  0.1153518E+00
         21   -1    0    0  501  502  0.00000000000E+00  0.00000000000E+00  0.74654982590E+03  0.74654982590E+03  0.00000000000E+00 0.  1.
         -3   -1    0    0    0  501 -0.00000000000E+00 -0.00000000000E+00 -0.80095311158E+02  0.80095311158E+02  0.00000000000E+00 0.  1.
         23    2    1    2    0    0 -0.54344159702E+02 -0.67835426455E+02  0.46708642212E+01  0.12744880413E+03  0.93093758784E+02 0.  0.
         23    2    1    2    0    0  0.80496954716E+02  0.10094807315E+03  0.62076358348E+03  0.64034854658E+03  0.89602239590E+02 0.  0.
        -13    1    3    3    0    0 -0.31873759798E+02 -0.46402466323E+02 -0.42804075096E+02  0.70719970937E+02  0.00000000000E+00 0.  1.
         13    1    3    3    0    0 -0.22470399904E+02 -0.21432960132E+02  0.47474939317E+02  0.56728833189E+02  0.00000000000E+00 0. -1.
        -13    1    4    4    0    0  0.52666839902E+02  0.96986928762E+02  0.58253404619E+03  0.59289642885E+03  0.00000000000E+00 0.  1.
         13    1    4    4    0    0  0.27830114814E+02  0.39611443905E+01  0.38229537299E+02  0.47452117735E+02  0.00000000000E+00 0. -1.
         -3    1    1    2    0  502 -0.26152795014E+02 -0.33112646697E+02  0.41020067036E+02  0.58847786348E+02  0.00000000000E+00 0.  1.
<scales pt_clust_5="13000.00000" pt_clust_6="13000.00000" pt_clust_7="13000.00000" pt_clust_8="13000.00000" pt_clust_9="13000.00000"></scales>
<clustering>
<clus scale="   89.602">  7  8 -1 -1</clus>
<clus scale="   42.195">  7  9 -1 -1</clus>
<clus scale="   93.094">  5  6 -1 -1</clus>
<clus scale="  127.363">  2  5  1 -1</clus>
<clus scale="  225.650">  1  5  2 -1</clus>
</clustering>
</event>
<event>
 9    1  0.6399313E-006  0.2208550E+03  0.7546771E-02  0.1139703E+00
         21   -1    0    0  501  502  0.00000000000E+00  0.00000000000E+00  0.35151023925E+02  0.35151023925E+02  0.00000000000E+00 0. -1.
          2   -1    0    0  502    0 -0.00000000000E+00 -0.00000000000E+00 -0.13164183581E+04  0.13164183581E+04  0.00000000000E+00 0. -1.
         23    2    1    2    0    0 -0.59079423655E+02  0.15296672888E+03 -0.80099227475E+03  0.82294752749E+03  0.93620565854E+02 0.  0.
         23    2    1    2    0    0  0.22082889576E+02 -0.11777504748E+03 -0.43298625590E+03  0.45902710681E+03  0.94181586109E+02 0.  0.
        -13    1    3    3    0    0 -0.57795110617E+02  0.30596196530E+02 -0.32164359787E+03  0.32822401817E+03  0.00000000000E+00 0.  1.
         13    1    3    3    0    0 -0.12843130382E+01  0.12237053235E+03 -0.47934867688E+03  0.49472350932E+03  0.00000000000E+00 0. -1.
        -13    1    4    4    0    0  0.53815631910E+02 -0.55725916807E+02 -0.16752796892E+03  0.18457280518E+03  0.00000000000E+00 0.  1.
         13    1    4    4    0    0 -0.31732742334E+02 -0.62049130668E+02 -0.26545828698E+03  0.27445430162E+03  0.00000000000E+00 0. -1.
          2    1    1    2  501    0  0.36996534079E+02 -0.35191681407E+02 -0.47288803555E+02  0.69594747760E+02  0.00000000000E+00 0. -1.
<scales pt_clust_5="13000.00000" pt_clust_6="13000.00000" pt_clust_7="13000.00000" pt_clust_8="13000.00000" pt_clust_9="13000.00000"></scales>
<clustering>
<clus scale="   93.621">  5  6 -1 -1</clus>
<clus scale="   94.182">  7  8 -1 -1</clus>
<clus scale="   51.061">  7  9 -1 -1</clus>
<clus scale="  188.823">  2  5  1 -1</clus>
<clus scale="  220.855">  1  5  2 -1</clus>
</clustering>
</event>
<event>
 9    1  0.6399313E-006  0.1460516E+03  0.7546771E-02  0.1221232E+00
         21   -1    0    0  501  502  0.00000000000E+00  0.00000000000E+00  0.28117765449E+03  0.28117765449E+03  0.00000000000E+00 0.  1.
          1   -1    0    0  502    0 -0.00000000000E+00 -0.00000000000E+00 -0.14681056415E+03  0.14681056415E+03  0.00000000000E+00 0. -1.
         23    2    1    2    0    0 -0.33629220069E+02 -0.27589111875E+02 -0.10469950957E+03  0.14783842985E+03  0.94879557859E+02 0.  0.
         23    2    1    2    0    0  0.15052822317E+02 -0.18333494617E+02  0.14561968904E+03  0.17438451333E+03  0.92963219448E+02 0.  0.
        -13    1    4    4    0    0 -0.10100842262E+02 -0.25926755749E+02  0.14547214340E+03  0.14810931160E+03  0.00000000000E+00 0.  1.
         13    1    4    4    0    0  0.25153664579E+02  0.75932611321E+01  0.14754564081E+00  0.26275201732E+02  0.00000000000E+00 0. -1.
        -13    1    3    3    0    0 -0.55666347316E+01 -0.31573768914E+02 -0.11367304588E+03  0.11810779680E+03  0.00000000000E+00 0. -1.
         13    1    3    3    0    0 -0.28062585338E+02  0.39846570391E+01  0.89735363099E+01  0.29730633049E+02  0.00000000000E+00 0.  1.
          1    1    1    2  501    0  0.18576397752E+02  0.45922606492E+02  0.93446910878E+02  0.10576527546E+03  0.00000000000E+00 0. -1.
<scales pt_clust_5="13000.00000" pt_clust_6="13000.00000" pt_clust_7="13000.00000" pt_clust_8="13000.00000" pt_clust_9="13000.00000"></scales>
<clustering>
<clus scale="   92.963">  5  6 -1 -1</clus>
<clus scale="   49.538">  5  9 -1 -1</clus>
<clus scale="   94.880">  7  8 -1 -1</clus>
<clus scale="  104.375">  2  7  1 -1</clus>
<clus scale="  146.052">  1  5  2 -1</clus>
</clustering>
</event>
<event>
 9    1  0.6399313E-006  0.1601152E+03  0.7546771E-02  0.1200091E+00
         21   -1    0    0  501  502  0.00000000000E+00  0.00000000000E+00  0.81503028592E+03  0.81503028592E+03  0.00000000000E+00 0.  1.
         -1   -1    0    0    0  501 -0.00000000000E+00 -0.00000000000E+00 -0.28739778817E+02  0.28739778817E+02  0.00000000000E+00 0.  1.
         23    2    1    2    0    0 -0.75218280529E+02 -0.37194065765E+02  0.50515353094E+03  0.52023509377E+03  0.91778400026E+02 0.  0.
         23    2    1    2    0    0  0.27662138507E+02  0.92762393221E+01  0.11994540685E+03  0.15317149573E+03  0.90682765498E+02 0.  0.
        -11    1    4    4    0    0  0.48307784051E+02  0.36744635303E+02  0.71698339478E+02  0.93938608183E+02  0.00000000000E+00 0. -1.
         11    1    4    4    0    0 -0.20645645544E+02 -0.27468395980E+02  0.48247067372E+02  0.59232887552E+02  0.00000000000E+00 0.  1.
        -11    1    3    3    0    0 -0.62604333234E+02 -0.65441461218E+02  0.41954531276E+03  0.42920875672E+03  0.00000000000E+00 0.  1.
         11    1    3    3    0    0 -0.12613947296E+02  0.28247395453E+02  0.85608218187E+02  0.91026337053E+02  0.00000000000E+00 0. -1.
         -1    1    1    2    0  502  0.47556142022E+02  0.27917826443E+02  0.16119156931E+03  0.17036347524E+03  0.00000000000E+00 0.  1.
<scales pt_clust_5="13000.00000" pt_clust_6="13000.00000" pt_clust_7="13000.00000" pt_clust_8="13000.00000" pt_clust_9="13000.00000"></scales>
<clustering>
<clus scale="   90.683">  5  6 -1 -1</clus>
<clus scale="   55.145">  5  9 -1 -1</clus>
<clus scale="   91.778">  7  8 -1 -1</clus>
<clus scale="  124.356">  2  7  1 -1</clus>
<clus scale="  160.115">  1  5  2 -1</clus>
</clustering>
</event>
<event>
 9    1  0.6399313E-006  0.1626344E+03  0.7546771E-02  0.1197362E+00
          1   -1    0    0  502    0 -0.00000000000E+00  0.00000000000E+00  0.53023246928E+02  0.53023246928E+02  0.00000000000E+00 0. -1.
         21   -1    0    0  501  502  0.00000000000E+00 -0.00000000000E+00 -0.41815945477E+03  0.41815945477E+03  0.00000000000E+00 0.  1.
         23    2    1    2    0    0  0.18183266162E+02  0.81171203525E+02 -0.21855701281E+03  0.25224116069E+03  0.94546495690E+02 0.  0.
         23    2    1    2    0    0 -0.20970537861E+02 -0.18046656754E+02 -0.64713757857E+02  0.11552767786E+03  0.91615111290E+02 0.  0.
        -11    1    3    3    0    0  0.24835640570E+02  0.87637009219E+01 -0.15003634933E+03  0.15233029120E+03  0.00000000000E+00 0. -1.
         11    1    3    3    0    0 -0.66523744079E+01  0.72407502603E+02 -0.68520663476E+02  0.99910869487E+02  0.00000000000E+00 0.  1.
        -13    1    4    4    0    0  0.22921138670E+02  0.25166479466E+02 -0.20976430278E+02  0.39984258325E+02  0.00000000000E+00 0.  1.
         13    1    4    4    0    0 -0.43891676532E+02 -0.43213136220E+02 -0.43737327579E+02  0.75543419531E+02  0.00000000000E+00 0. -1.
          1    1    1    2  501    0  0.27872716992E+01 -0.63124546771E+02 -0.81865437182E+02  0.10341386316E+03  0.00000000000E+00 0. -1.
<scales pt_clust_5="13000.00000" pt_clust_6="13000.00000" pt_clust_7="13000.00000" pt_clust_8="13000.00000" pt_clust_9="13000.00000"></scales>
<clustering>
<clus scale="   91.615">  7  8 -1 -1</clus>
<clus scale="   63.186">  7  9 -1 -1</clus>
<clus scale="   94.546">  5  6 -1 -1</clus>
<clus scale="  125.930">  1  5  2 -1</clus>
<clus scale="  162.634">  2  5  1 -1</clus>
</clustering>
</event>
<event>
 9    1  0.6399313E-006  0.3474156E+03  0.7546771E-02  0.1105702E+00
          1   -1    0    0  502    0 -0.00000000000E+00  0.00000000000E+00  0.55040286990E+03  0.55040286990E+03  0.00000000000E+00 0. -1.
         21   -1    0    0  501  502  0.00000000000E+00 -0.00000000000E+00 -0.10136141217E+03  0.10136141217E+03  0.00000000000E+00 0. -1.
         23    2    1    2    0    0  0.67594054821E+02 -0.12599267330E+02  0.17905712699E+03  0.21177663997E+03  0.89778576079E+02 0.  0.
         23    2    1    2    0    0 -0.13773558966E+03  0.81282397490E+02  0.28646353779E+03  0.34044482949E+03  0.90903259813E+02 0.  0.
        -13    1    4    4    0    0 -0.53390001677E+02  0.27694099442E+02  0.34382292529E+02  0.69279127178E+02  0.00000000000E+00 0.  1.
         13    1    4    4    0    0 -0.84345587986E+02  0.53588298047E+02  0.25208124526E+03  0.27116570232E+03  0.00000000000E+00 0. -1.
        -13    1    3    3    0    0 -0.98236839821E+01  0.19959348448E+02  0.13199269322E+02  0.25866987998E+02  0.00000000000E+00 0.  1.
         13    1    3    3    0    0  0.77417738803E+02 -0.32558615778E+02  0.16585785767E+03  0.18590965197E+03  0.00000000000E+00 0. -1.
          1    1    1    2  501    0  0.70141534843E+02 -0.68683130159E+02 -0.16479207051E+02  0.99542812616E+02  0.00000000000E+00 0. -1.
<scales pt_clust_5="13000.00000" pt_clust_6="13000.00000" pt_clust_7="13000.00000" pt_clust_8="13000.00000" pt_clust_9="13000.00000"></scales>
<clustering>
<clus scale="   89.779">  7  8 -1 -1</clus>
<clus scale="   90.903">  5  6 -1 -1</clus>
<clus scale="   98.169">  5  9 -1 -1</clus>
<clus scale="  113.084">  1  7  2 -1</clus>
<clus scale="  347.416">  2  5  1 -1</clus>
</clustering>
</event>
<event>
 9    1  0.6399313E-006  0.1674686E+03  0.7546771E-02  0.1207736E+00
         21   -1    0    0  501  502  0.00000000000E+00  0.00000000000E+00  0.13712615287E+03  0.13712615287E+03  0.00000000000E+00 0.  1.
          2   -1    0    0  502    0 -0.00000000000E+00 -0.00000000000E+00 -0.26357922020E+03  0.26357922020E+03  0.00000000000E+00 0. -1.
         23    2    1    2    0    0 -0.79433865441E+01 -0.10960697348E+02 -0.19815148694E+03  0.21853399909E+03  0.91158448349E+02 0.  0.
         23    2    1    2    0    0  0.34097389258E+01  0.62370149760E+02  0.59112061486E+02  0.12904979486E+03  0.96218251072E+02 0.  0.
        -11    1    4    4    0    0  0.32512056610E+02  0.24763129451E+02  0.69267242765E+02  0.80425103826E+02  0.00000000000E+00 0.  1.
         11    1    4    4    0    0 -0.29102317684E+02  0.37607020309E+02 -0.10155181280E+02  0.48624691032E+02  0.00000000000E+00 0. -1.
        -13    1    3    3    0    0  0.33487812446E+02 -0.29658467855E+02 -0.75846022760E+02  0.88054968437E+02  0.00000000000E+00 0.  1.
         13    1    3    3    0    0 -0.41431198991E+02  0.18697770507E+02 -0.12230546418E+03  0.13047903065E+03  0.00000000000E+00 0. -1.
          2    1    1    2  501    0  0.45336476184E+01 -0.51409452412E+02  0.12586358123E+02  0.53121579126E+02  0.00000000000E+00 0. -1.
<scales pt_clust_5="13000.00000" pt_clust_6="13000.00000" pt_clust_7="13000.00000" pt_clust_8="13000.00000" pt_clust_9="13000.00000"></scales>
<clustering>
<clus scale="   91.158">  7  8 -1 -1</clus>
<clus scale="   92.158">  2  7  1 -1</clus>
<clus scale="   96.218">  5  6 -1 -1</clus>
<clus scale="   55.455">  5  9 -1 -1</clus>
<clus scale="  167.469">  1  5  2 -1</clus>
</clustering>
</event>
<event>
 9    1  0.6399313E-006  0.2833892E+03  0.7546771E-02  0.1122680E+00
          1   -1    0    0  502    0 -0.00000000000E+00  0.00000000000E+00  0.22424193246E+03  0.22424193246E+03  0.00000000000E+00 0. -1.
         21   -1    0    0  501  502  0.00000000000E+00 -0.00000000000E+00 -0.21000292317E+03  0.21000292317E+03  0.00000000000E+00 0.  1.
         23    2    1    2    0    0  0.53100052595E+02  0.85034885452E+02  0.57944912446E+02  0.14750513286E+03  0.91376167632E+02 0.  0.
         23    2    1    2    0    0  0.15297632248E+02 -0.79202556726E+02  0.80250648844E+02  0.14504467652E+03  0.89948479718E+02 0.  0.
        -11    1    4    4    0    0 -0.14753944884E+02 -0.87642634021E+02  0.66159989193E+02  0.11079735718E+03  0.00000000000E+00 0. -1.
         11    1    4    4    0    0  0.30051577132E+02  0.84400772953E+01  0.14090659651E+02  0.34247319344E+02  0.00000000000E+00 0.  1.
        -13    1    3    3    0    0  0.28236926291E+02  0.10126411551E+03  0.51751516987E+02  0.11717493165E+03  0.00000000000E+00 0.  1.
         13    1    3    3    0    0  0.24863126304E+02 -0.16229230059E+02  0.61933954587E+01  0.30330201207E+02  0.00000000000E+00 0. -1.
          1    1    1    2  501    0 -0.68397684843E+02 -0.58323287267E+01 -0.12395655199E+03  0.14169504625E+03  0.00000000000E+00 0. -1.
<scales pt_clust_5="13000.00000" pt_clust_6="13000.00000" pt_clust_7="13000.00000" pt_clust_8="13000.00000" pt_clust_9="13000.00000"></scales>
<clustering>
<clus scale="   89.948">  5  6 -1 -1</clus>
<clus scale="   68.646">  5  9 -1 -1</clus>
<clus scale="   91.376">  7  8 -1 -1</clus>
<clus scale="  135.647">  1  7  2 -1</clus>
<clus scale="  283.389">  2  5  1 -1</clus>
</clustering>
</event>
<event>
 9    1  0.6399313E-006  0.1979980E+03  0.7546771E-02  0.1155046E+00
          2   -1    0    0  502    0 -0.00000000000E+00  0.00000000000E+00  0.62531182553E+03  0.62531182553E+03  0.00000000000E+00 0. -1.
         21   -1    0    0  501  502  0.00000000000E+00 -0.00000000000E+00 -0.57786375480E+02  0.57786375480E+02  0.00000000000E+00 0. -1.
         23    2    1    2    0    0  0.78614760150E+02 -0.13572072810E+03  0.25781834795E+03  0.31550915114E+03  0.92061541192E+02 0.  0.
         23    2    1    2    0    0 -0.20864113173E+01  0.90972529457E+02  0.15628815897E+03  0.19039886513E+03  0.59543135457E+02 0.  0.
        -11    1    4    4    0    0 -0.28566070626E+02  0.33272316075E+02  0.49203130774E+02  0.65909145693E+02  0.00000000000E+00 0.  1.
         11    1    4    4    0    0  0.26479659309E+02  0.57700213382E+02  0.10708502819E+03  0.12448971943E+03  0.00000000000E+00 0. -1.
        -13    1    3    3    0    0  0.62610271456E+02 -0.21790512200E+02  0.82915218997E+02  0.10615934276E+03  0.00000000000E+00 0. -1.
         13    1    3    3    0    0  0.16004488693E+02 -0.11393021590E+03  0.17490312895E+03  0.20934980838E+03  0.00000000000E+00 0.  1.
          2    1    1    2  501    0 -0.76528348832E+02  0.44748198640E+02  0.15341894314E+03  0.17719018475E+03  0.00000000000E+00 0. -1.
<scales pt_clust_5="13000.00000" pt_clust_6="13000.00000" pt_clust_7="13000.00000" pt_clust_8="13000.00000" pt_clust_9="13000.00000"></scales>
<clustering>
<clus scale="   59.543">  5  6 -1 -1</clus>
<clus scale="   88.651">  5  9 -1 -1</clus>
<clus scale="   92.062">  7  8 -1 -1</clus>
<clus scale="  181.867">  1  7  2 -1</clus>
<clus scale="  197.998">  2  5  1 -1</clus>
</clustering>
</event>
<event>
 9    1  0.6399313E-006  0.1866305E+03  0.7546771E-02  0.1192300E+00
         -3   -1    0    0    0  501 -0.00000000000E+00  0.00000000000E+00  0.42895791374E+02  0.42895791374E+02  0.00000000000E+00 0.  1.
         21   -1    0    0  501  502  0.00000000000E+00 -0.00000000000E+00 -0.56263818900E+03  0.56263818900E+03  0.00000000000E+00 0. -1.
         23    2    1    2    0    0 -0.20856962710E+02  0.13154372121E+02 -0.31510361155E+03  0.32857189935E+03  0.89783944162E+02 0.  0.
         23    2    1    2    0    0  0.44655776687E+02  0.53402055752E+02 -0.12836734250E+03  0.17297422239E+03  0.92714556799E+02 0.  0.
        -13    1    3    3    0    0  0.16525429503E+02 -0.30756726495E+02 -0.10237125072E+03  0.10816163376E+03  0.00000000000E+00 0. -1.
         13    1    3    3    0    0 -0.37382392213E+02  0.43911098616E+02 -0.21273236083E+03  0.22041026558E+03  0.00000000000E+00 0.  1.
        -13    1    4    4    0    0  0.72197380004E+02  0.28973203312E+02 -0.74386822373E+02  0.10763506646E+03  0.00000000000E+00 0. -1.
         13    1    4    4    0    0 -0.27541603317E+02  0.24428852440E+02 -0.53980520126E+02  0.65339155932E+02  0.00000000000E+00 0.  1.
         -3    1    1    2    0  502 -0.23798813978E+02 -0.66556427873E+02 -0.76271443577E+02  0.10398785863E+03  0.00000000000E+00 0.  1.
<scales pt_clust_5="13000.00000" pt_clust_6="13000.00000" pt_clust_7="13000.00000" pt_clust_8="13000.00000" pt_clust_9="13000.00000"></scales>
<clustering>
<clus scale="   89.784">  5  6 -1 -1</clus>
<clus scale="   92.715">  7  8 -1 -1</clus>
<clus scale="   70.683">  7  9 -1 -1</clus>
<clus scale="   93.109">  1  5  2 -1</clus>
<clus scale="  186.631">  2  5  1 -1</clus>
</clustering>
</event>
<event>
 9    1  0.6399313E-006  0.2174288E+03  0.7546771E-02  0.1171274E+00
          2   -1    0    0  502    0 -0.00000000000E+00  0.00000000000E+00  0.20106875428E+03  0.20106875428E+03  0.00000000000E+00 0. -1.
         21   -1    0    0  501  502  0.00000000000E+00 -0.00000000000E+00 -0.16511555158E+03  0.16511555158E+03  0.00000000000E+00 0. -1.
         23    2    1    2    0    0  0.22565074955E+02 -0.53601824381E+01  0.10201517707E+03  0.13894115773E+03  0.91431038467E+02 0.  0.
         23    2    1    2    0    0 -0.87638205796E+02 -0.12350084606E+02 -0.90313764393E+02  0.15557505736E+03  0.90631356209E+02 0.  0.
        -11    1    4    4    0    0 -0.73170848943E+02 -0.36918487925E+02 -0.96287298101E+02  0.12644442123E+03  0.00000000000E+00 0. -1.
         11    1    4    4    0    0 -0.14467356852E+02  0.24568403320E+02  0.59735337087E+01  0.29130636123E+02  0.00000000000E+00 0.  1.
        -13    1    3    3    0    0  0.83136982297E+01  0.37528170532E+02  0.79815726652E+02  0.88589115487E+02  0.00000000000E+00 0.  1.
         13    1    3    3    0    0  0.14251376725E+02 -0.42888352970E+02  0.22199450414E+02  0.50352042240E+02  0.00000000000E+00 0. -1.
          2    1    1    2  501    0  0.65073130841E+02  0.17710267044E+02  0.24251790021E+02  0.71668090776E+02  0.00000000000E+00 0. -1.
<scales pt_clust_5="13000.00000" pt_clust_6="13000.00000" pt_clust_7="13000.00000" pt_clust_8="13000.00000" pt_clust_9="13000.00000"></scales>
<clustering>
<clus scale="   90.631">  5  6 -1 -1</clus>
<clus scale="   67.440">  5  9 -1 -1</clus>
<clus scale="   91.431">  7  8 -1 -1</clus>
<clus scale="   94.327">  1  7  2 -1</clus>
<clus scale="  217.429">  2  5  1 -1</clus>
</clustering>
</event>
<event>
 9    1  0.6399313E-006  0.1461604E+03  0.7546771E-02  0.1223462E+00
         21   -1    0    0  501  502  0.00000000000E+00  0.00000000000E+00  0.70005908216E+02  0.70005908216E+02  0.00000000000E+00 0.  1.
          2   -1    0    0  502    0 -0.00000000000E+00 -0.00000000000E+00 -0.34919870966E+03  0.34919870966E+03  0.00000000000E+00 0. -1.
         23    2    1    2    0    0  0.36702736205E+02 -0.25167298903E+02 -0.25152016399E+03  0.27044768260E+03  0.88876725597E+02 0.  0.
         23    2    1    2    0    0 -0.81135495736E+01  0.52180998562E+02 -0.34789251700E+02  0.10878534837E+03  0.88517081339E+02 0.  0.
        -13    1    4    4    0    0  0.39892217624E+02  0.28531888085E+02 -0.11232736828E+02  0.50315326108E+02  0.00000000000E+00 0.  1.
         13    1    4    4    0    0 -0.48005767198E+02  0.23649110476E+02 -0.23556514871E+02  0.58470022263E+02  0.00000000000E+00 0. -1.
        -13    1    3    3    0    0  0.58539102668E+00  0.26045400552E+02 -0.27727042640E+02  0.38045952034E+02  0.00000000000E+00 0.  1.
         13    1    3    3    0    0  0.36117345178E+02 -0.51212699455E+02 -0.22379312135E+03  0.23240173057E+03  0.00000000000E+00 0. -1.
          2    1    1    2  501    0 -0.28589186631E+02 -0.27013699659E+02  0.71166142420E+01  0.39971586906E+02  0.00000000000E+00 0. -1.
<scales pt_clust_5="13000.00000" pt_clust_6="13000.00000" pt_clust_7="13000.00000" pt_clust_8="13000.00000" pt_clust_9="13000.00000"></scales>
<clustering>
<clus scale="   88.517">  5  6 -1 -1</clus>
<clus scale="   39.333">  5  9 -1 -1</clus>
<clus scale="   88.877">  7  8 -1 -1</clus>
<clus scale="   99.396">  2  7  1 -1</clus>
<clus scale="  146.160">  1  5  2 -1</clus>
</clustering>
</event>
<event>
 9    1  0.6399313E-006  0.2233305E+03  0.7546771E-02  0.1154781E+00
          1   -1    0    0  502    0 -0.00000000000E+00  0.00000000000E+00  0.31993599192E+03  0.31993599192E+03  0.00000000000E+00 0. -1.
         21   -1    0    0  501  502  0.00000000000E+00 -0.00000000000E+00 -0.10523631677E+03  0.10523631677E+03  0.00000000000E+00 0. -1.
         23    2    1    2    0    0 -0.83119527483E+02  0.27339723650E+02  0.14071715637E+03  0.18990670464E+03  0.92773498546E+02 0.  0.
         23    2    1    2    0    0 -0.30383591048E+02  0.18965362315E+02  0.41938384018E+02  0.10856143886E+03  0.93508878620E+02 0.  0.
        -11    1    3    3    0    0 -0.48023072289E+02  0.58540644275E+02  0.11088852748E+03  0.13427392908E+03  0.00000000000E+00 0. -1.
         11    1    3    3    0    0 -0.35096455194E+02 -0.31200920624E+02  0.29828628888E+02  0.55632775558E+02  0.00000000000E+00 0.  1.
        -13    1    4    4    0    0  0.50045641411E+01  0.33944339598E+02  0.57615996109E+02  0.67058682217E+02  0.00000000000E+00 0.  1.
         13    1    4    4    0    0 -0.35388155189E+02 -0.14978977284E+02 -0.15677612091E+02  0.41502756644E+02  0.00000000000E+00 0. -1.
          1    1    1    2  501    0  0.11350311853E+03 -0.46305085965E+02  0.32044134766E+02  0.12670416519E+03  0.00000000000E+00 0. -1.
<scales pt_clust_5="13000.00000" pt_clust_6="13000.00000" pt_clust_7="13000.00000" pt_clust_8="13000.00000" pt_clust_9="13000.00000"></scales>
<clustering>
<clus scale="   92.773">  5  6 -1 -1</clus>
<clus scale="   93.509">  7  8 -1 -1</clus>
<clus scale="  122.585">  7  9 -1 -1</clus>
<clus scale="  127.527">  1  5  2 -1</clus>
<clus scale="  223.330">  2  5  1 -1</clus>
</clustering>
</event>
<event>
 9    1  0.6399313E-006  0.3237887E+03  0.7546771E-02  0.1118757E+00
         -3   -1    0    0    0  501 -0.00000000000E+00  0.00000000000E+00  0.20833591674E+03  0.20833591674E+03  0.00000000000E+00 0.  1.
         21   -1    0    0  501  502  0.00000000000E+00 -0.00000000000E+00 -0.36577123511E+03  0.36577123511E+03  0.00000000000E+00 0.  1.
         23    2    1    2    0    0  0.26526342877E+02 -0.34395531485E+02  0.11381968471E+03  0.15171112963E+03  0.90413753237E+02 0.  0.
         23    2    1    2    0    0 -0.65641913600E+01 -0.83263553546E+02  0.20831285037E+01  0.12414129558E+03  0.91819463544E+02 0.  0.
        -11    1    4    4    0    0  0.33518013159E+02 -0.30877411564E+02  0.27756272674E+02  0.53359932757E+02  0.00000000000E+00 0. -1.
         11    1    4    4    0    0 -0.40082204519E+02 -0.52386141982E+02 -0.25673144171E+02  0.70781362819E+02  0.00000000000E+00 0.  1.
        -13    1    3    3    0    0 -0.18121880447E+02 -0.35033116996E+02  0.95722799261E+02  0.10353055653E+03  0.00000000000E+00 0.  1.
         13    1    3    3    0    0  0.44648223324E+02  0.63758551174E+00  0.18096885448E+02  0.48180573100E+02  0.00000000000E+00 0. -1.
         -3    1    1    2    0  502 -0.19962151517E+02  0.11765908503E+03 -0.27333813158E+03  0.29825472664E+03  0.00000000000E+00 0.  1.
<scales pt_clust_5="13000.00000" pt_clust_6="13000.00000" pt_clust_7="13000.00000" pt_clust_8="13000.00000" pt_clust_9="13000.00000"></scales>
<clustering>
<clus scale="   90.414">  7  8 -1 -1</clus>
<clus scale="   91.819">  5  6 -1 -1</clus>
<clus scale="  100.306">  1  7  2 -1</clus>
<clus scale="  113.069">  5  9 -1 -1</clus>
<clus scale="  323.789">  2  5  1 -1</clus>
</clustering>
</event>
<event>
 9    1  0.6399313E-006  0.1858277E+03  0.7546771E-02  0.1179800E+00
         -3   -1    0    0    0  501 -0.00000000000E+00  0.00000000000E+00  0.83186130463E+03  0.83186130463E+03  0.00000000000E+00 0.  1.
         21   -1    0    0  501  502  0.00000000000E+00 -0.00000000000E+00 -0.30017100056E+02  0.30017100056E+02  0.00000000000E+00 0. -1.
         23    2    1    2    0    0 -0.18892306443E+02  0.81899874977E+02  0.24496597315E+03  0.27481340234E+03  0.91921539039E+02 0.  0.
         23    2    1    2    0    0  0.59819890817E+02 -0.22652739819E+02  0.28155874250E+03  0.30248441417E+03  0.90166121011E+02 0.  0.
        -11    1    4    4    0    0  0.18283295311E+02  0.23115885827E+02  0.25190061409E+02  0.38770636553E+02  0.00000000000E+00 0. -1.
         11    1    4    4    0    0  0.41536595506E+02 -0.45768625645E+02  0.25636868109E+03  0.26371377761E+03  0.00000000000E+00 0.  1.
        -13    1    3    3    0    0  0.30509815852E+02  0.48062456934E+02  0.16745356805E+03  0.17686589858E+03  0.00000000000E+00 0.  1.
         13    1    3    3    0    0 -0.49402122295E+02  0.33837418044E+02  0.77512405102E+02  0.97947503755E+02  0.00000000000E+00 0. -1.
         -3    1    1    2    0  502 -0.40927584374E+02 -0.59247135158E+02  0.27531948892E+03  0.28458058818E+03  0.00000000000E+00 0.  1.
<scales pt_clust_5="13000.00000" pt_clust_6="13000.00000" pt_clust_7="13000.00000" pt_clust_8="13000.00000" pt_clust_9="13000.00000"></scales>
<clustering>
<clus scale="   90.166">  5  6 -1 -1</clus>
<clus scale="   72.009">  5  9 -1 -1</clus>
<clus scale="   91.922">  7  8 -1 -1</clus>
<clus scale="  124.556">  1  7  2 -1</clus>
<clus scale="  185.828">  2  5  1 -1</clus>
</clustering>
</event>
<event>
 9    1  0.6399313E-006  0.2113226E+03  0.7546771E-02  0.1161731E+00
         21   -1    0    0  501  502  0.00000000000E+00  0.00000000000E+00  0.12237133669E+03  0.12237133669E+03  0.00000000000E+00 0. -1.
          1   -1    0    0  502    0 -0.00000000000E+00 -0.00000000000E+00 -0.25782965775E+03  0.25782965775E+03  0.00000000000E+00 0. -1.
         23    2    1    2    0    0 -0.68304781593E+02  0.57747617079E+02 -0.10731062933E+03  0.16701198946E+03  0.91526515220E+02 0.  0.
         23    2    1    2    0    0  0.32489544972E+02  0.21722305816E+02  0.35142075417E+02  0.10546809501E+03  0.91439184697E+02 0.  0.
        -13    1    3    3    0    0  0.15484493271E+02  0.38042533725E+02 -0.26041690328E+02  0.48633049865E+02  0.00000000000E+00 0.  1.
         13    1    3    3    0    0 -0.83789274864E+02  0.19705083355E+02 -0.81268939006E+02  0.11837893959E+03  0.00000000000E+00 0. -1.
        -13    1    4    4    0    0  0.63188764684E+02  0.21451703241E+02  0.33641184346E+02  0.74731016576E+02  0.00000000000E+00 0. -1.
         13    1    4    4    0    0 -0.30699219712E+02  0.27060257534E+00  0.15008910709E+01  0.30737078435E+02  0.00000000000E+00 0.  1.
          1    1    1    2  501    0  0.35815236621E+02 -0.79469922895E+02 -0.63289767142E+02  0.10772090997E+03  0.00000000000E+00 0. -1.
<scales pt_clust_5="13000.00000" pt_clust_6="13000.00000" pt_clust_7="13000.00000" pt_clust_8="13000.00000" pt_clust_9="13000.00000"></scales>
<clustering>
<clus scale="   91.439">  7  8 -1 -1</clus>
<clus scale="   87.168">  7  9 -1 -1</clus>
<clus scale="   91.527">  5  6 -1 -1</clus>
<clus scale="  127.974">  2  5  1 -1</clus>
<clus scale="  211.323">  1  5  2 -1</clus>
</clustering>
</event>
<event>
 9    1  0.6399313E-006  0.2136254E+03  0.7546771E-02  0.1169631E+00
         21   -1    0    0  501  502  0.00000000000E+00  0.00000000000E+00  0.48078207098E+02  0.48078207098E+02  0.00000000000E+00 0. -1.
         -1   -1    0    0    0  501 -0.00000000000E+00 -0.00000000000E+00 -0.81761158057E+03  0.81761158057E+03  0.00000000000E+00 0.  1.
         23    2    1    2    0    0  0.38770081033E+02 -0.28759294269E+02 -0.54910547643E+03  0.55873008456E+03  0.91281251985E+02 0.  0.
         23    2    1    2    0    0 -0.77526991721E+01 -0.48138143730E+02 -0.19336966163E+03  0.21973905158E+03  0.92282390126E+02 0.  0.
        -13    1    3    3    0    0 -0.15981283211E+02 -0.43660530247E+02 -0.24145184173E+03  0.24588744415E+03  0.00000000000E+00 0. -1.
         13    1    3    3    0    0  0.54751364244E+02  0.14901235978E+02 -0.30765363469E+03  0.31284264041E+03  0.00000000000E+00 0.  1.
        -13    1    4    4    0    0  0.38549122206E+02 -0.80097194912E+01 -0.10557798239E+03  0.11268052536E+03  0.00000000000E+00 0.  1.
         13    1    4    4    0    0 -0.46301821378E+02 -0.40128424238E+02 -0.87791679239E+02  0.10705852623E+03  0.00000000000E+00 0. -1.
         -1    1    1    2    0  502 -0.31017381861E+02  0.76897437998E+02 -0.27058235424E+02  0.87220651525E+02  0.00000000000E+00 0.  1.
<scales pt_clust_5="13000.00000" pt_clust_6="13000.00000" pt_clust_7="13000.00000" pt_clust_8="13000.00000" pt_clust_9="13000.00000"></scales>
<clustering>
<clus scale="   91.281">  5  6 -1 -1</clus>
<clus scale="   92.282">  7  8 -1 -1</clus>
<clus scale="   82.917">  7  9 -1 -1</clus>
<clus scale="  103.259">  2  5  1 -1</clus>
<clus scale="  213.625">  1  5  2 -1</clus>
</clustering>
</event>
<event>
 9    1  0.6399313E-006  0.5273004E+03  0.7546771E-02  0.1009298E+00
         21   -1    0    0  501  502  0.00000000000E+00  0.00000000000E+00  0.29970607203E+03  0.29970607203E+03  0.00000000000E+00 0. -1.
          1   -1    0    0  502    0 -0.00000000000E+00 -0.00000000000E+00 -0.88771321370E+03  0.88771321370E+03  0.00000000000E+00 0. -1.
         23    2    1    2    0    0  0.47442447038E+03  0.52358307523E+02 -0.18270342920E+03  0.52235029529E+03  0.10793200400E+03 0.  0.
         23    2    1    2    0    0 -0.95242044997E+02  0.21217333221E+02 -0.16425597563E+03  0.20977051904E+03  0.86616527078E+02 0.  0.
        -11    1    3    3    0    0  0.20787898371E+03  0.32186140799E+02 -0.24608526371E+02  0.21179046035E+03  0.00000000000E+00 0.  1.
         11    1    3    3    0    0  0.26654548667E+03  0.20172166724E+02 -0.15809490283E+03  0.31055983494E+03  0.00000000000E+00 0. -1.
        -11    1    4    4    0    0 -0.13965530841E+02  0.16425187406E+02  0.48383597785E+01  0.22095985118E+02  0.00000000000E+00 0.  1.
         11    1    4    4    0    0 -0.81276514156E+02  0.47921458150E+01 -0.16909433541E+03  0.18767453392E+03  0.00000000000E+00 0. -1.
          1    1    1    2  501    0 -0.37918242538E+03 -0.73575640744E+02 -0.24104773683E+03  0.45529847140E+03  0.00000000000E+00 0. -1.
<scales pt_clust_5="13000.00000" pt_clust_6="13000.00000" pt_clust_7="13000.00000" pt_clust_8="13000.00000" pt_clust_9="13000.00000"></scales>
<clustering>
<clus scale="   86.617">  7  8 -1 -1</clus>
<clus scale="  107.932">  5  6 -1 -1</clus>
<clus scale="  386.255">  7  9 -1 -1</clus>
<clus scale="  489.356">  2  5  1 -1</clus>
<clus scale="  527.300">  1  5  2 -1</clus>
</clustering>
</event>
<event>
 9    1  0.6399313E-006  0.2505756E+03  0.7546771E-02  0.1150130E+00
         21   -1    0    0  501  502  0.00000000000E+00  0.00000000000E+00  0.11041164848E+03  0.11041164848E+03  0.00000000000E+00 0. -1.
          2   -1    0    0  502    0 -0.00000000000E+00 -0.00000000000E+00 -0.44455561503E+03  0.44455561503E+03  0.00000000000E+00 0. -1.
         23    2    1    2    0    0 -0.40399845659E+02 -0.24477840827E+02 -0.28140795291E+03  0.29890239386E+03  0.88999398174E+02 0.  0.
         23    2    1    2    0    0 -0.52234571254E+02  0.17626773352E+02 -0.10445309119E+03  0.14975057883E+03  0.92063206705E+02 0.  0.
        -11    1    3    3    0    0  0.15454347503E+02 -0.17350019356E+02 -0.17589255727E+02  0.29141756046E+02  0.00000000000E+00 0.  1.
         11    1    3    3    0    0 -0.55854193162E+02 -0.71278214709E+01 -0.26381869718E+03  0.26976063782E+03  0.00000000000E+00 0. -1.
        -13    1    4    4    0    0 -0.51128472827E+02  0.51821413052E+02 -0.65766468674E+02  0.98106105754E+02  0.00000000000E+00 0. -1.
         13    1    4    4    0    0 -0.11060984270E+01 -0.34194639700E+02 -0.38686622514E+02  0.51644473077E+02  0.00000000000E+00 0.  1.
          2    1    1    2  501    0  0.92634416912E+02  0.68510674747E+01  0.51717077543E+02  0.10631429082E+03  0.00000000000E+00 0. -1.
<scales pt_clust_5="13000.00000" pt_clust_6="13000.00000" pt_clust_7="13000.00000" pt_clust_8="13000.00000" pt_clust_9="13000.00000"></scales>
<clustering>
<clus scale="   88.999">  5  6 -1 -1</clus>
<clus scale="   92.063">  7  8 -1 -1</clus>
<clus scale="   92.887">  7  9 -1 -1</clus>
<clus scale="  100.758">  2  5  1 -1</clus>
<clus scale="  250.576">  1  5  2 -1</clus>
</clustering>
</event>
<event>
 9    1  0.6399313E-006  0.1823596E+03  0.7546771E-02  0.1189547E+00
         21   -1    0    0  501  502  0.00000000000E+00  0.00000000000E+00  0.28113969712E+03  0.28113969712E+03  0.00000000000E+00 0.  1.
          2   -1    0    0  502    0 -0.00000000000E+00 -0.00000000000E+00 -0.13235436822E+03  0.13235436822E+03  0.00000000000E+00 0. -1.
         23    2    1    2    0    0  0.13136495331E+02 -0.64346527352E+02 -0.71211695620E+02  0.12774294776E+03  0.83271315694E+02 0.  0.
         23    2    1    2    0    0 -0.19113743037E+02  0.10432769145E+03  0.17178379054E+03  0.22283262345E+03  0.94313864347E+02 0.  0.
        -13    1    4    4    0    0 -0.43841131448E+02  0.74247683770E+02  0.16065982045E+03  0.18233579259E+03  0.00000000000E+00 0. -1.
         13    1    4    4    0    0  0.24727388410E+02  0.30080007681E+02  0.11123970086E+02  0.40496830866E+02  0.00000000000E+00 0.  1.
        -13    1    3    3    0    0  0.20644360777E+02 -0.54645335275E+01  0.12784444154E+02  0.24889611706E+02  0.00000000000E+00 0.  1.
         13    1    3    3    0    0 -0.75078654458E+01 -0.58881993824E+02 -0.83996139774E+02  0.10285333605E+03  0.00000000000E+00 0. -1.
          2    1    1    2  501    0  0.59772477062E+01 -0.39981164099E+02  0.48213233984E+02  0.62918494134E+02  0.00000000000E+00 0. -1.
<scales pt_clust_5="13000.00000" pt_clust_6="13000.00000" pt_clust_7="13000.00000" pt_clust_8="13000.00000" pt_clust_9="13000.00000"></scales>
<clustering>
<clus scale="   83.271">  7  8 -1 -1</clus>
<clus scale="   94.314">  5  6 -1 -1</clus>
<clus scale="   40.426">  5  9 -1 -1</clus>
<clus scale="  106.053">  2  7  1 -1</clus>
<clus scale="  182.360">  1  5  2 -1</clus>
</clustering>
</event>
<event>
 9    1  0.6399313E-006  0.2590824E+03  0.7546771E-02  0.1150076E+00
         21   -1    0    0  501  502  0.00000000000E+00  0.00000000000E+00  0.28442996242E+03  0.28442996242E+03  0.00000000000E+00 0.  1.
         -1   -1    0    0    0  501 -0.00000000000E+00 -0.00000000000E+00 -0.12263819441E+03  0.12263819441E+03  0.00000000000E+00 0.  1.
         23    2    1    2    0    0 -0.15349385664E+02 -0.70087296845E+01  0.10986796638E+03  0.14283386034E+03  0.89698470944E+02 0.  0.
         23    2    1    2    0    0  0.11528651689E+03 -0.14702461841E+02 -0.44630447227E+01  0.14745123918E+03  0.90635565915E+02 0.  0.
        -13    1    3    3    0    0  0.34246989048E+02 -0.13132053993E+02  0.69532950673E+02  0.78613855841E+02  0.00000000000E+00 0.  1.
         13    1    3    3    0    0 -0.49596374712E+02  0.61233243086E+01  0.40335015712E+02  0.64220004498E+02  0.00000000000E+00 0. -1.
        -13    1    4    4    0    0  0.49961289067E+02  0.38541667695E+02 -0.26970264599E+01  0.63157458037E+02  0.00000000000E+00 0. -1.
         13    1    4    4    0    0  0.65325227818E+02 -0.53244129535E+02 -0.17660182628E+01  0.84293781146E+02  0.00000000000E+00 0.  1.
         -1    1    1    2    0  502 -0.99937131221E+02  0.21711191525E+02  0.56386846349E+02  0.11678305731E+03  0.00000000000E+00 0.  1.
<scales pt_clust_5="13000.00000" pt_clust_6="13000.00000" pt_clust_7="13000.00000" pt_clust_8="13000.00000" pt_clust_9="13000.00000"></scales>
<clustering>
<clus scale="   89.698">  5  6 -1 -1</clus>
<clus scale="   90.636">  7  8 -1 -1</clus>
<clus scale="   91.272">  2  5  1 -1</clus>
<clus scale="  106.151">  7  9 -1 -1</clus>
<clus scale="  259.082">  1  5  2 -1</clus>
</clustering>
</event>
<event>
 9    1  0.6399313E-006  0.3943084E+03  0.7546771E-02  0.1089254E+00
         21   -1    0    0  501  502  0.00000000000E+00  0.00000000000E+00  0.53516986310E+02  0.53516986310E+02  0.00000000000E+00 0. -1.
          1   -1    0    0  502    0 -0.00000000000E+00 -0.00000000000E+00 -0.12831751936E+04  0.12831751936E+04  0.00000000000E+00 0. -1.
         23    2    1    2    0    0  0.13575593668E+02  0.73054935853E+02 -0.41445791182E+03  0.43113674022E+03  0.92640205609E+02 0.  0.
         23    2    1    2    0    0 -0.11646900419E+03  0.36504941603E+02 -0.13213617212E+03  0.20615068043E+03  0.10070002661E+03 0.  0.
        -13    1    4    4    0    0 -0.42684534986E+01  0.43880612472E+02 -0.24229017162E+02  0.50306789987E+02  0.00000000000E+00 0.  1.
         13    1    4    4    0    0 -0.11220055069E+03 -0.73756708697E+01 -0.10790715495E+03  0.15584389044E+03  0.00000000000E+00 0. -1.
        -13    1    3    3    0    0 -0.32910256322E+02  0.53190054035E+02 -0.16175632435E+03  0.17342830013E+03  0.00000000000E+00 0. -1.
         13    1    3    3    0    0  0.46485849991E+02  0.19864881818E+02 -0.25270158747E+03  0.25770844008E+03  0.00000000000E+00 0.  1.
          1    1    1    2  501    0  0.10289341052E+03 -0.10955987746E+03 -0.68306412330E+03  0.69940475922E+03  0.00000000000E+00 0. -1.
<scales pt_clust_5="13000.00000" pt_clust_6="13000.00000" pt_clust_7="13000.00000" pt_clust_8="13000.00000" pt_clust_9="13000.00000"></scales>
<clustering>
<clus scale="   92.640">  7  8 -1 -1</clus>
<clus scale="  100.700">  5  6 -1 -1</clus>
<clus scale="  118.758">  2  7  1 -1</clus>
<clus scale="  124.651">  5  9 -1 -1</clus>
<clus scale="  394.308">  1  5  2 -1</clus>
</clustering>
</event>
<event>
 9    1  0.6399313E-006  0.1520593E+03  0.7546771E-02  0.1222920E+00
         21   -1    0    0  501  502  0.00000000000E+00  0.00000000000E+00  0.15193591870E+03  0.15193591870E+03  0.00000000000E+00 0. -1.
          1   -1    0    0  502    0 -0.00000000000E+00 -0.00000000000E+00 -0.95936778836E+02  0.95936778836E+02  0.00000000000E+00 0. -1.
         23    2    1    2    0    0  0.27343582397E+00 -0.36589093906E+01  0.24624707548E+02  0.92610400915E+02  0.89201164514E+02 0.  0.
         23    2    1    2    0    0  0.26664448190E+02  0.34952588628E+02 -0.39699625695E+01  0.10091001787E+03  0.90743566465E+02 0.  0.
        -13    1    3    3    0    0  0.43991798331E+02 -0.48776357586E+01  0.45713794015E+01  0.44496821916E+02  0.00000000000E+00 0.  1.
         13    1    3    3    0    0 -0.43718362507E+02  0.12187263680E+01  0.20053328146E+02  0.48113578998E+02  0.00000000000E+00 0. -1.
        -13    1    4    4    0    0 -0.13418018215E+02  0.39992460059E+02 -0.30959868858E+02  0.52325457992E+02  0.00000000000E+00 0. -1.
         13    1    4    4    0    0  0.40082466405E+02 -0.50398714312E+01  0.26989906288E+02  0.48584559879E+02  0.00000000000E+00 0.  1.
          1    1    1    2  501    0 -0.26937884014E+02 -0.31293679238E+02  0.35344394885E+02  0.54352278748E+02  0.00000000000E+00 0. -1.
<scales pt_clust_5="13000.00000" pt_clust_6="13000.00000" pt_clust_7="13000.00000" pt_clust_8="13000.00000" pt_clust_9="13000.00000"></scales>
<clustering>
<clus scale="   89.201">  5  6 -1 -1</clus>
<clus scale="   89.277">  2  5  1 -1</clus>
<clus scale="   90.744">  7  8 -1 -1</clus>
<clus scale="   41.691">  7  9 -1 -1</clus>
<clus scale="  152.059">  1  5  2 -1</clus>
</clustering>
</event>
<event>
 9    1  0.6399313E-006  0.1500026E+03  0.7546771E-02  0.1218485E+00
          1   -1    0    0  502    0 -0.00000000000E+00  0.00000000000E+00  0.11470193556E+03  0.11470193556E+03  0.00000000000E+00 0. -1.
         21   -1    0    0  501  502  0.00000000000E+00 -0.00000000000E+00 -0.14726831142E+03  0.14726831142E+03  0.00000000000E+00 0.  1.
         23    2    1    2    0    0 -0.43991100378E+02 -0.13402677642E+02  0.18068065507E+02  0.10365211175E+03  0.91117817130E+02 0.  0.
         23    2    1    2    0    0 -0.11948770851E+02  0.83224940838E+01 -0.25741597015E+02  0.96879294439E+02  0.92254706338E+02 0.  0.
        -13    1    3    3    0    0  0.57871239446E+01 -0.28394261971E+02 -0.23324905382E+02  0.37199141489E+02  0.00000000000E+00 0.  1.
         13    1    3    3    0    0 -0.49778224323E+02  0.14991584329E+02  0.41392970890E+02  0.66452970261E+02  0.00000000000E+00 0. -1.
        -13    1    4    4    0    0 -0.48385525764E+02 -0.14311198000E+02 -0.15409931924E+02  0.52758274171E+02  0.00000000000E+00 0. -1.
         13    1    4    4    0    0  0.36436754913E+02  0.22633692083E+02 -0.10331665091E+02  0.44121020268E+02  0.00000000000E+00 0.  1.
          1    1    1    2  501    0  0.55939871229E+02  0.50801835581E+01 -0.24892844351E+02  0.61438840793E+02  0.00000000000E+00 0. -1.
<scales pt_clust_5="13000.00000" pt_clust_6="13000.00000" pt_clust_7="13000.00000" pt_clust_8="13000.00000" pt_clust_9="13000.00000"></scales>
<clustering>
<clus scale="   91.118">  5  6 -1 -1</clus>
<clus scale="   92.255">  7  8 -1 -1</clus>
<clus scale="   56.170">  7  9 -1 -1</clus>
<clus scale="  102.065">  1  5  2 -1</clus>
<clus scale="  150.003">  2  5  1 -1</clus>
</clustering>
</event>
<event>
 9    1  0.6399313E-006  0.1871245E+03  0.7546771E-02  0.1191513E+00
          2   -1    0    0  502    0 -0.00000000000E+00  0.00000000000E+00  0.47787885181E+03  0.47787885181E+03  0.00000000000E+00 0. -1.
         21   -1    0    0  501  502  0.00000000000E+00 -0.00000000000E+00 -0.76754502955E+02  0.76754502955E+02  0.00000000000E+00 0. -1.
         23    2    1    2    0    0 -0.17188455428E+02  0.95628837984E+01  0.34748689472E+03  0.35997328556E+03  0.91906107360E+02 0.  0.
         23    2    1    2    0    0 -0.45771392939E+02 -0.24256102203E+02  0.70192955260E+02  0.12792239025E+03  0.93561252953E+02 0.  0.
        -11    1    3    3    0    0  0.18616810265E+02 -0.29060050668E+02  0.76622049425E+02  0.84035769928E+02  0.00000000000E+00 0. -1.
         11    1    3    3    0    0 -0.35805265694E+02  0.38622934466E+02  0.27086484529E+03  0.27593751563E+03  0.00000000000E+00 0.  1.
        -11    1    4    4    0    0  0.13709708698E+02 -0.40369312973E+02  0.43038038995E+02  0.60579784937E+02  0.00000000000E+00 0. -1.
         11    1    4    4    0    0 -0.59481101638E+02  0.16113210770E+02  0.27154916266E+02  0.67342605316E+02  0.00000000000E+00 0.  1.
          2    1    1    2  501    0  0.62959848368E+02  0.14693218404E+02 -0.16555501128E+02  0.66737678947E+02  0.00000000000E+00 0. -1.
<scales pt_clust_5="13000.00000" pt_clust_6="13000.00000" pt_clust_7="13000.00000" pt_clust_8="13000.00000" pt_clust_9="13000.00000"></scales>
<clustering>
<clus scale="   91.906">  5  6 -1 -1</clus>
<clus scale="   93.561">  7  8 -1 -1</clus>
<clus scale="   64.652">  7  9 -1 -1</clus>
<clus scale="   93.987">  1  5  2 -1</clus>
<clus scale="  187.124">  2  5  1 -1</clus>
</clustering>
</event>
<event>
 9    1  0.6399313E-006  0.2001621E+03  0.7546771E-02  0.1180824E+00
         -3   -1    0    0    0  501 -0.00000000000E+00  0.00000000000E+00  0.12936471831E+03  0.12936471831E+03  0.00000000000E+00 0.  1.
         21   -1    0    0  501  502  0.00000000000E+00 -0.00000000000E+00 -0.26373336558E+03  0.26373336558E+03  0.00000000000E+00 0. -1.
         23    2    1    2    0    0  0.38178355145E+02 -0.24488155800E+01  0.59749627298E+02  0.11426697395E+03  0.89573097939E+02 0.  0.
         23    2    1    2    0    0 -0.10290855223E+03  0.49748718880E+01 -0.14941231175E+03  0.20012277184E+03  0.84321796906E+02 0.  0.
        -13    1    4    4    0    0 -0.68985118605E+02  0.29597741399E+02 -0.13731570500E+03  0.15649465079E+03  0.00000000000E+00 0. -1.
         13    1    4    4    0    0 -0.33923433629E+02 -0.24622869511E+02 -0.12096606755E+02  0.43628121059E+02  0.00000000000E+00 0.  1.
        -13    1    3    3    0    0  0.13512180712E+02  0.35096199914E+02 -0.22828017161E+01  0.37676696507E+02  0.00000000000E+00 0. -1.
         13    1    3    3    0    0  0.24666174433E+02 -0.37545015494E+02  0.62032429014E+02  0.76590277444E+02  0.00000000000E+00 0.  1.
         -3    1    1    2    0  502  0.64730197089E+02 -0.25260563080E+01 -0.44705962811E+02  0.78708338100E+02  0.00000000000E+00 0.  1.
<scales pt_clust_5="13000.00000" pt_clust_6="13000.00000" pt_clust_7="13000.00000" pt_clust_8="13000.00000" pt_clust_9="13000.00000"></scales>
<clustering>
<clus scale="   84.322">  5  6 -1 -1</clus>
<clus scale="   64.779">  5  9 -1 -1</clus>
<clus scale="   89.573">  7  8 -1 -1</clus>
<clus scale="   97.401">  1  7  2 -1</clus>
<clus scale="  200.162">  2  5  1 -1</clus>
</clustering>
</event>
<event>
 9    1  0.1257800E-005  0.1022129E+04  0.7546771E-02  0.9531259E-01
          2   -1    0    0  502    0 -0.00000000000E+00  0.00000000000E+00  0.13842667347E+04  0.13842667347E+04  0.00000000000E+00 0. -1.
         21   -1    0    0  501  502  0.00000000000E+00 -0.00000000000E+00 -0.40937848704E+03  0.40937848704E+03  0.00000000000E+00 0.  1.
         23    2    1    2    0    0  0.40586198794E+03 -0.77976251669E+02  0.71975795558E+02  0.42982782916E+03  0.93633319365E+02 0.  0.
         23    2    1    2    0    0  0.20587034713E+03 -0.70822082476E+02  0.63816133096E+03  0.68084554095E+03  0.94352525650E+02 0.  0.
        -11    1    3    3    0    0  0.35903198273E+03 -0.97885600073E+02  0.71478429289E+02  0.37893894123E+03  0.00000000000E+00 0.  1.
         11    1    3    3    0    0  0.46830005206E+02  0.19909348404E+02  0.49736626914E+00  0.50888887929E+02  0.00000000000E+00 0. -1.
        -13    1    4    4    0    0  0.47218348965E+02  0.20035310164E+02  0.19062803720E+03  0.19740829441E+03  0.00000000000E+00 0.  1.
         13    1    4    4    0    0  0.15865199816E+03 -0.90857392640E+02  0.44753329376E+03  0.48343724654E+03  0.00000000000E+00 0. -1.
          2    1    1    2  501    0 -0.61173233506E+03  0.14879833415E+03  0.26475112116E+03  0.68297185166E+03  0.00000000000E+00 0. -1.
<scales pt_clust_5="13000.00000" pt_clust_6="13000.00000" pt_clust_7="13000.00000" pt_clust_8="13000.00000" pt_clust_9="13000.00000"></scales>
<clustering>
<clus scale="   93.633">  5  6 -1 -1</clus>
<clus scale="   94.353">  7  8 -1 -1</clus>
<clus scale="  423.759">  1  5  2 -1</clus>
<clus scale="  457.058">  7  9 -1 -1</clus>
<clus scale=" 1022.129">  2  5  1 -1</clus>
</clustering>
</event>
<event>
 9    1  0.6399313E-006  0.3722879E+03  0.7546771E-02  0.1094929E+00
         21   -1    0    0  501  502  0.00000000000E+00  0.00000000000E+00  0.21015132704E+03  0.21015132704E+03  0.00000000000E+00 0. -1.
         -3   -1    0    0    0  501 -0.00000000000E+00 -0.00000000000E+00 -0.29403817084E+03  0.29403817084E+03  0.00000000000E+00 0.  1.
         23    2    1    2    0    0  0.47760450078E+02  0.66258518987E+02 -0.46181504184E+02  0.12999705687E+03  0.89973615784E+02 0.  0.
         23    2    1    2    0    0 -0.13752579311E+03 -0.47712239408E+02 -0.15048567900E+03  0.22886114276E+03  0.92421217920E+02 0.  0.
        -13    1    4    4    0    0 -0.76607645909E+02 -0.40284098116E+01 -0.21491095998E+02  0.79666973738E+02  0.00000000000E+00 0. -1.
         13    1    4    4    0    0 -0.60918147205E+02 -0.43683829597E+02 -0.12899458300E+03  0.14919416903E+03  0.00000000000E+00 0.  1.
        -13    1    3    3    0    0 -0.20937659123E+00 -0.20716058572E+02 -0.63720987166E+00  0.20726913849E+02  0.00000000000E+00 0.  1.
         13    1    3    3    0    0  0.47969826669E+02  0.86974577559E+02 -0.45544294313E+02  0.10927014302E+03  0.00000000000E+00 0. -1.
         -3    1    1    2    0  502  0.89765343036E+02 -0.18546279579E+02  0.11278033939E+03  0.14533129825E+03  0.00000000000E+00 0.  1.
<scales pt_clust_5="13000.00000" pt_clust_6="13000.00000" pt_clust_7="13000.00000" pt_clust_8="13000.00000" pt_clust_9="13000.00000"></scales>
<clustering>
<clus scale="   89.974">  7  8 -1 -1</clus>
<clus scale="   92.421">  5  6 -1 -1</clus>
<clus scale="   91.661">  5  9 -1 -1</clus>
<clus scale="  121.518">  2  7  1 -1</clus>
<clus scale="  372.288">  1  5  2 -1</clus>
</clustering>
</event>
<event>
 9    1  0.6399313E-006  0.1723847E+03  0.7546771E-02  0.1205818E+00
         21   -1    0    0  501  502  0.00000000000E+00  0.00000000000E+00  0.79124492158E+02  0.79124492158E+02  0.00000000000E+00 0. -1.
          2   -1    0    0  502    0 -0.00000000000E+00 -0.00000000000E+00 -0.21628444537E+03  0.21628444537E+03  0.00000000000E+00 0. -1.
         23    2    1    2    0    0  0.23326094761E+01 -0.71174753265E+01 -0.59966050572E+02  0.10652968239E+03  0.87729963444E+02 0.  0.
         23    2    1    2    0    0 -0.33048146313E+02 -0.24829018995E+02 -0.98928586540E+02  0.13951915803E+03  0.89275248891E+02 0.  0.
        -13    1    4    4    0    0 -0.54307769329E+02 -0.30466175991E+02 -0.99658059145E+02  0.11751276714E+03  0.00000000000E+00 0. -1.
         13    1    4    4    0    0  0.21259623016E+02  0.56371569951E+01  0.72947260438E+00  0.22006390891E+02  0.00000000000E+00 0.  1.
        -13    1    3    3    0    0  0.37756942143E+02 -0.19294051089E+02 -0.91123055774E+01  0.43369127272E+02  0.00000000000E+00 0.  1.
         13    1    3    3    0    0 -0.35424332667E+02  0.12176575762E+02 -0.50853744994E+02  0.63160555113E+02  0.00000000000E+00 0. -1.
          2    1    1    2  501    0  0.30715536836E+02  0.31946494322E+02  0.21734683898E+02  0.49360097111E+02  0.00000000000E+00 0. -1.
<scales pt_clust_5="13000.00000" pt_clust_6="13000.00000" pt_clust_7="13000.00000" pt_clust_8="13000.00000" pt_clust_9="13000.00000"></scales>
<clustering>
<clus scale="   87.730">  7  8 -1 -1</clus>
<clus scale="   88.049">  2  7  1 -1</clus>
<clus scale="   89.275">  5  6 -1 -1</clus>
<clus scale="   43.958">  5  9 -1 -1</clus>
<clus scale="  172.385">  1  5  2 -1</clus>
</clustering>
</event>
<event>
 9    1  0.6399313E-006  0.1686354E+03  0.7546771E-02  0.1200653E+00
         21   -1    0    0  501  502  0.00000000000E+00  0.00000000000E+00  0.17984821579E+03  0.17984821579E+03  0.00000000000E+00 0. -1.
          2   -1    0    0  502    0 -0.00000000000E+00 -0.00000000000E+00 -0.37911740819E+03  0.37911740819E+03  0.00000000000E+00 0. -1.
         23    2    1    2    0    0 -0.35019542353E+02  0.40058231576E+02 -0.32951640783E+03  0.34588764574E+03  0.90698236953E+02 0.  0.
         23    2    1    2    0    0  0.74041395378E+02 -0.45836933733E+02  0.79368579560E+02  0.14869836967E+03  0.90712077468E+02 0.  0.
        -11    1    3    3    0    0  0.88269975554E+01  0.51854044251E+02 -0.23779123927E+03  0.24353938339E+03  0.00000000000E+00 0.  1.
         11    1    3    3    0    0 -0.43846539909E+02 -0.11795812675E+02 -0.91725168559E+02  0.10234826235E+03  0.00000000000E+00 0. -1.
        -13    1    4    4    0    0 -0.17905764281E+02 -0.22968131070E+02  0.83745587190E+01  0.30303212257E+02  0.00000000000E+00 0.  1.
         13    1    4    4    0    0  0.91947159659E+02 -0.22868802663E+02  0.70994020841E+02  0.11839515742E+03  0.00000000000E+00 0. -1.
          2    1    1    2  501    0 -0.39021853024E+02  0.57787021569E+01  0.50878635865E+02  0.64379608569E+02  0.00000000000E+00 0. -1.
<scales pt_clust_5="13000.00000" pt_clust_6="13000.00000" pt_clust_7="13000.00000" pt_clust_8="13000.00000" pt_clust_9="13000.00000"></scales>
<clustering>
<clus scale="   90.698">  5  6 -1 -1</clus>
<clus scale="   90.712">  7  8 -1 -1</clus>
<clus scale="   39.447">  7  9 -1 -1</clus>
<clus scale="  105.153">  2  5  1 -1</clus>
<clus scale="  168.635">  1  5  2 -1</clus>
</clustering>
</event>
<event>
 9    1  0.6399313E-006  0.1409751E+03  0.7546771E-02  0.1222860E+00
         21   -1    0    0  501  502  0.00000000000E+00  0.00000000000E+00  0.28437951384E+03  0.28437951384E+03  0.00000000000E+00 0. -1.
         -1   -1    0    0    0  501 -0.00000000000E+00 -0.00000000000E+00 -0.60187661041E+02  0.60187661041E+02  0.00000000000E+00 0.  1.
         23    2    1    2    0    0 -0.33850957102E+02 -0.49356326936E+02  0.56844700351E+02  0.12575433786E+03  0.94873069029E+02 0.  0.
         23    2    1    2    0    0  0.54385000527E+01  0.12234601118E+02  0.77389872648E+02  0.11743432632E+03  0.87306161649E+02 0.  0.
        -11    1    3    3    0    0  0.29468393520E+02 -0.36605947744E+02  0.17629228256E+02  0.50191347021E+02  0.00000000000E+00 0.  1.
         11    1    3    3    0    0 -0.63319350622E+02 -0.12750379192E+02  0.39215472095E+02  0.75562990838E+02  0.00000000000E+00 0. -1.
        -13    1    4    4    0    0  0.45749737482E+02  0.18748447878E+01  0.48933487768E+02  0.67015220269E+02  0.00000000000E+00 0.  1.
         13    1    4    4    0    0 -0.40311237429E+02  0.10359756330E+02  0.28456384880E+02  0.50419106048E+02  0.00000000000E+00 0. -1.
         -1    1    1    2    0  502  0.28412457049E+02  0.37121725818E+02  0.89957279796E+02  0.10137851070E+03  0.00000000000E+00 0.  1.
<scales pt_clust_5="13000.00000" pt_clust_6="13000.00000" pt_clust_7="13000.00000" pt_clust_8="13000.00000" pt_clust_9="13000.00000"></scales>
<clustering>
<clus scale="   87.306">  7  8 -1 -1</clus>
<clus scale="   46.747">  7  9 -1 -1</clus>
<clus scale="   94.873">  5  6 -1 -1</clus>
<clus scale="  112.173">  2  5  1 -1</clus>
<clus scale="  140.975">  1  5  2 -1</clus>
</clustering>
</event>
<event>
 9    1  0.6399313E-006  0.1420599E+03  0.7546771E-02  0.1226955E+00
         21   -1    0    0  501  502  0.00000000000E+00  0.00000000000E+00  0.72714709748E+02  0.72714709748E+02  0.00000000000E+00 0.  1.
         -3   -1    0    0    0  501 -0.00000000000E+00 -0.00000000000E+00 -0.37115502001E+03  0.37115502001E+03  0.00000000000E+00 0.  1.
         23    2    1    2    0    0 -0.66326992700E+01  0.40599892129E+02 -0.28372082832E+03  0.30104926641E+03  0.91873872468E+02 0.  0.
         23    2    1    2    0    0  0.35933001333E+02 -0.37452494691E+02 -0.33673871539E+02  0.10778216007E+03  0.88256413148E+02 0.  0.
        -13    1    3    3    0    0  0.34407866596E+02 -0.88401474090E+01 -0.12080266507E+03  0.12591796289E+03  0.00000000000E+00 0. -1.
         13    1    3    3    0    0 -0.41040565866E+02  0.49440039538E+02 -0.16291816325E+03  0.17513130352E+03  0.00000000000E+00 0.  1.
        -13    1    4    4    0    0  0.60439245362E+02 -0.16830238774E+02 -0.20502537796E+01  0.62772309641E+02  0.00000000000E+00 0.  1.
         13    1    4    4    0    0 -0.24506244029E+02 -0.20622255917E+02 -0.31623617759E+02  0.45009850430E+02  0.00000000000E+00 0. -1.
         -3    1    1    2    0  502 -0.29300302063E+02 -0.31473974380E+01  0.18954389598E+02  0.35038303278E+02  0.00000000000E+00 0.  1.
<scales pt_clust_5="13000.00000" pt_clust_6="13000.00000" pt_clust_7="13000.00000" pt_clust_8="13000.00000" pt_clust_9="13000.00000"></scales>
<clustering>
<clus scale="   88.256">  7  8 -1 -1</clus>
<clus scale="   29.469">  7  9 -1 -1</clus>
<clus scale="   91.874">  5  6 -1 -1</clus>
<clus scale="  100.664">  2  5  1 -1</clus>
<clus scale="  142.060">  1  5  2 -1</clus>
</clustering>
</event>
<event>
 9    1  0.6399313E-006  0.3247720E+03  0.7546771E-02  0.1093099E+00
         21   -1    0    0  501  502  0.00000000000E+00  0.00000000000E+00  0.52082291620E+02  0.52082291620E+02  0.00000000000E+00 0.  1.
          2   -1    0    0  502    0 -0.00000000000E+00 -0.00000000000E+00 -0.14169243873E+04  0.14169243873E+04  0.00000000000E+00 0. -1.
         23    2    1    2    0    0 -0.16036486176E+03  0.78192374159E+02 -0.30411164041E+03  0.35967086395E+03  0.71051419975E+02 0.  0.
         23    2    1    2    0    0 -0.33479884908E+02  0.48448008651E+01 -0.18673919441E+03  0.21026313587E+03  0.90524498270E+02 0.  0.
        -11    1    3    3    0    0 -0.13323574768E+03  0.32856454769E+02 -0.24132325137E+03  0.27761164012E+03  0.00000000000E+00 0.  1.
         11    1    3    3    0    0 -0.27129114083E+02  0.45335919389E+02 -0.62788389043E+02  0.82059223835E+02  0.00000000000E+00 0. -1.
        -13    1    4    4    0    0 -0.81790278317E+01  0.23404918182E+02 -0.43219334368E+01  0.25166759823E+02  0.00000000000E+00 0.  1.
         13    1    4    4    0    0 -0.25300857076E+02 -0.18560117317E+02 -0.18241726098E+03  0.18509637605E+03  0.00000000000E+00 0. -1.
          2    1    1    2  501    0  0.19384474667E+03 -0.83037175024E+02 -0.87399126090E+03  0.89907267914E+03  0.00000000000E+00 0. -1.
<scales pt_clust_5="13000.00000" pt_clust_6="13000.00000" pt_clust_7="13000.00000" pt_clust_8="13000.00000" pt_clust_9="13000.00000"></scales>
<clustering>
<clus scale="   71.051">  5  6 -1 -1</clus>
<clus scale="   90.524">  7  8 -1 -1</clus>
<clus scale="  192.040">  2  5  1 -1</clus>
<clus scale="   65.672">  7  9 -1 -1</clus>
<clus scale="  324.772">  1  5  2 -1</clus>
</clustering>
</event>
<event>
 9    1  0.6399313E-006  0.1464164E+03  0.7546771E-02  0.1219728E+00
         21   -1    0    0  501  502  0.00000000000E+00  0.00000000000E+00  0.45780937191E+02  0.45780937191E+02  0.00000000000E+00 0. -1.
         -1   -1    0    0    0  501 -0.00000000000E+00 -0.00000000000E+00 -0.36308524317E+03  0.36308524317E+03  0.00000000000E+00 0.  1.
         23    2    1    2    0    0 -0.35344637141E+02 -0.30850339438E+02 -0.17244357546E+03  0.20289918418E+03  0.96074478426E+02 0.  0.
         23    2    1    2    0    0  0.25449254596E+02  0.62710230093E+02 -0.12293542895E+03  0.16604594813E+03  0.88757533106E+02 0.  0.
        -11    1    3    3    0    0  0.11431069312E+02 -0.30631317832E+02 -0.14505608464E+03  0.14869503915E+03  0.00000000000E+00 0. -1.
         11    1    3    3    0    0 -0.46775706452E+02 -0.21902160566E+00 -0.27387490822E+02  0.54204145027E+02  0.00000000000E+00 0.  1.
        -11    1    4    4    0    0 -0.13963046845E+02  0.38094385022E+02 -0.11083589632E+03  0.11802857604E+03  0.00000000000E+00 0.  1.
         11    1    4    4    0    0  0.39412301441E+02  0.24615845071E+02 -0.12099532625E+02  0.48017372098E+02  0.00000000000E+00 0. -1.
         -1    1    1    2    0  502  0.98953825451E+01 -0.31859890655E+02 -0.21925301567E+02  0.39921048046E+02  0.00000000000E+00 0.  1.
<scales pt_clust_5="13000.00000" pt_clust_6="13000.00000" pt_clust_7="13000.00000" pt_clust_8="13000.00000" pt_clust_9="13000.00000"></scales>
<clustering>
<clus scale="   88.758">  7  8 -1 -1</clus>
<clus scale="   33.361">  7  9 -1 -1</clus>
<clus scale="   96.074">  5  6 -1 -1</clus>
<clus scale="  106.917">  2  5  1 -1</clus>
<clus scale="  146.416">  1  5  2 -1</clus>
</clustering>
</event>
<event>
 9    1  0.6399313E-006  0.2530757E+03  0.7546771E-02  0.1125229E+00
         21   -1    0    0  501  502  0.00000000000E+00  0.00000000000E+00  0.76161659312E+02  0.76161659312E+02  0.00000000000E+00 0. -1.
          1   -1    0    0  502    0 -0.00000000000E+00 -0.00000000000E+00 -0.61759001774E+03  0.61759001774E+03  0.00000000000E+00 0. -1.
         23    2    1    2    0    0  0.13771127484E+03 -0.59563836183E+02 -0.25652221896E+03  0.31267583979E+03  0.97212582393E+02 0.  0.
         23    2    1    2    0    0 -0.99608357612E+02  0.40651477898E+01 -0.28303736139E+03  0.31373024315E+03  0.91532328672E+02 0.  0.
        -13    1    3    3    0    0  0.27509837696E+02 -0.59405297906E+02 -0.68601020502E+02  0.94825527171E+02  0.00000000000E+00 0. -1.
         13    1    3    3    0    0  0.11020143714E+03 -0.15853827788E+00 -0.18792119845E+03  0.21785031262E+03  0.00000000000E+00 0.  1.
        -13    1    4    4    0    0 -0.10763956908E+03 -0.18401524706E+02 -0.25150089604E+03  0.27418532720E+03  0.00000000000E+00 0. -1.
         13    1    4    4    0    0  0.80312114697E+01  0.22466672496E+02 -0.31536465352E+02  0.39544915951E+02  0.00000000000E+00 0.  1.
          1    1    1    2  501    0 -0.38102917223E+02  0.55498688394E+02 -0.18687780846E+01  0.67345594109E+02  0.00000000000E+00 0. -1.
<scales pt_clust_5="13000.00000" pt_clust_6="13000.00000" pt_clust_7="13000.00000" pt_clust_8="13000.00000" pt_clust_9="13000.00000"></scales>
<clustering>
<clus scale="   91.532">  7  8 -1 -1</clus>
<clus scale="   67.320">  7  9 -1 -1</clus>
<clus scale="   97.213">  5  6 -1 -1</clus>
<clus scale="  178.781">  2  5  1 -1</clus>
<clus scale="  253.076">  1  5  2 -1</clus>
</clustering>
</event>
<event>
 9    1  0.6399313E-006  0.3516563E+03  0.7546771E-02  0.1104693E+00
          2   -1    0    0  502    0 -0.00000000000E+00  0.00000000000E+00  0.59275812297E+03  0.59275812297E+03  0.00000000000E+00 0. -1.
         21   -1    0    0  501  502  0.00000000000E+00 -0.00000000000E+00 -0.90922549069E+02  0.90922549069E+02  0.00000000000E+00 0. -1.
         23    2    1    2    0    0  0.62244868486E+02 -0.13269386183E+02  0.13814270792E+03  0.17778079676E+03  0.92044031214E+02 0.  0.
         23    2    1    2    0    0  0.96365810450E+02  0.23837012939E+01  0.31087716371E+03  0.33837273117E+03  0.92517256924E+02 0.  0.
        -11    1    4    4    0    0  0.51579213167E+02  0.45108211370E+02  0.12624953878E+03  0.14364578659E+03  0.00000000000E+00 0.  1.
         11    1    4    4    0    0  0.44786597283E+02 -0.42724510076E+02  0.18462762493E+03  0.19472694458E+03  0.00000000000E+00 0. -1.
        -11    1    3    3    0    0  0.29679645736E+02 -0.12971168235E+02  0.14139007832E+03  0.14505270361E+03  0.00000000000E+00 0. -1.
         11    1    3    3    0    0  0.32565222750E+02 -0.29821794848E+00 -0.32473704010E+01  0.32728093150E+02  0.00000000000E+00 0.  1.
          2    1    1    2  501    0 -0.15861067894E+03  0.10885684889E+02  0.52815702276E+02  0.16752714411E+03  0.00000000000E+00 0. -1.
<scales pt_clust_5="13000.00000" pt_clust_6="13000.00000" pt_clust_7="13000.00000" pt_clust_8="13000.00000" pt_clust_9="13000.00000"></scales>
<clustering>
<clus scale="   92.044">  7  8 -1 -1</clus>
<clus scale="   92.517">  5  6 -1 -1</clus>
<clus scale="  111.904">  1  7  2 -1</clus>
<clus scale="  143.037">  5  9 -1 -1</clus>
<clus scale="  351.656">  2  5  1 -1</clus>
</clustering>
</event>
<event>
 9    1  0.6399313E-006  0.1858335E+03  0.7546771E-02  0.1181721E+00
         -2   -1    0    0    0  501 -0.00000000000E+00  0.00000000000E+00  0.13379841430E+03  0.13379841430E+03  0.00000000000E+00 0.  1.
         21   -1    0    0  501  502  0.00000000000E+00 -0.00000000000E+00 -0.19609051637E+03  0.19609051637E+03  0.00000000000E+00 0.  1.
         23    2    1    2    0    0  0.44368337153E+02 -0.63251155199E+02  0.29115982637E+02  0.12279108119E+03  0.90888124633E+02 0.  0.
         23    2    1    2    0    0 -0.24047488785E+02  0.57805543744E+01  0.25282537532E+01  0.95116411199E+02  0.91809820207E+02 0.  0.
        -11    1    4    4    0    0  0.25024166712E+02 -0.16827972096E+02 -0.20416014554E+02  0.36417073122E+02  0.00000000000E+00 0.  1.
         11    1    4    4    0    0 -0.49071655498E+02  0.22608526471E+02  0.22944268307E+02  0.58699338076E+02  0.00000000000E+00 0. -1.
        -11    1    3    3    0    0 -0.44199581724E+01 -0.42343988513E+02 -0.23012021278E+02  0.48395273702E+02  0.00000000000E+00 0. -1.
         11    1    3    3    0    0  0.48788295325E+02 -0.20907166687E+02  0.52128003916E+02  0.74395807488E+02  0.00000000000E+00 0.  1.
         -2    1    1    2    0  502 -0.20320848367E+02  0.57470600825E+02 -0.93936338458E+02  0.11198143829E+03  0.00000000000E+00 0.  1.
<scales pt_clust_5="13000.00000" pt_clust_6="13000.00000" pt_clust_7="13000.00000" pt_clust_8="13000.00000" pt_clust_9="13000.00000"></scales>
<clustering>
<clus scale="   90.888">  7  8 -1 -1</clus>
<clus scale="   91.810">  5  6 -1 -1</clus>
<clus scale="   60.957">  5  9 -1 -1</clus>
<clus scale="  119.289">  1  7  2 -1</clus>
<clus scale="  185.833">  2  5  1 -1</clus>
</clustering>
</event>
<event>
 9    1  0.6399313E-006  0.4222564E+03  0.7546771E-02  0.1081109E+00
          2   -1    0    0  502    0 -0.00000000000E+00  0.00000000000E+00  0.11126682908E+03  0.11126682908E+03  0.00000000000E+00 0. -1.
         21   -1    0    0  501  502  0.00000000000E+00 -0.00000000000E+00 -0.70007335841E+03  0.70007335841E+03  0.00000000000E+00 0. -1.
         23    2    1    2    0    0 -0.61490843188E+02  0.46418442959E+02 -0.59075386329E+02  0.13390712914E+03  0.92224846557E+02 0.  0.
         23    2    1    2    0    0 -0.10937009245E+03  0.11150630027E+02 -0.46141299066E+03  0.48462479237E+03  0.99363412551E+02 0.  0.
        -11    1    3    3    0    0 -0.75181382150E+02  0.55664503789E+01 -0.48172447913E+02  0.89464016955E+02  0.00000000000E+00 0. -1.
         11    1    3    3    0    0  0.13690538962E+02  0.40851992580E+02 -0.10902938416E+02  0.44443112188E+02  0.00000000000E+00 0.  1.
        -13    1    4    4    0    0 -0.22996519893E+02  0.16454521631E+02 -0.19573040577E+02  0.34390334786E+02  0.00000000000E+00 0.  1.
         13    1    4    4    0    0 -0.86373572553E+02 -0.53038916046E+01 -0.44183995009E+03  0.45023445758E+03  0.00000000000E+00 0. -1.
          2    1    1    2  501    0  0.17086093563E+03 -0.57569072986E+02 -0.68318152340E+02  0.19280826598E+03  0.00000000000E+00 0. -1.
<scales pt_clust_5="13000.00000" pt_clust_6="13000.00000" pt_clust_7="13000.00000" pt_clust_8="13000.00000" pt_clust_9="13000.00000"></scales>
<clustering>
<clus scale="   92.225">  5  6 -1 -1</clus>
<clus scale="   99.363">  7  8 -1 -1</clus>
<clus scale="  120.172">  1  5  2 -1</clus>
<clus scale="  120.454">  7  9 -1 -1</clus>
<clus scale="  422.256">  2  5  1 -1</clus>
</clustering>
</event>
<event>
 9    1  0.6399313E-006  0.3867862E+03  0.7546771E-02  0.1083188E+00
         21   -1    0    0  501  502  0.00000000000E+00  0.00000000000E+00  0.12457601750E+03  0.12457601750E+03  0.00000000000E+00 0. -1.
          1   -1    0    0  502    0 -0.00000000000E+00 -0.00000000000E+00 -0.74308539645E+03  0.74308539645E+03  0.00000000000E+00 0. -1.
         23    2    1    2    0    0  0.30426518393E+02 -0.12382993292E+03 -0.39308330906E+03  0.41997796147E+03  0.74882407484E+02 0.  0.
         23    2    1    2    0    0 -0.18680996345E+03  0.53164000887E+02 -0.13308550267E+03  0.25280852800E+03  0.92065342956E+02 0.  0.
        -11    1    4    4    0    0 -0.16603906688E+03  0.54246200828E+02 -0.14656830826E+03  0.22802168980E+03  0.00000000000E+00 0. -1.
         11    1    4    4    0    0 -0.20770896567E+02 -0.10821999412E+01  0.13482805592E+02  0.24786838192E+02  0.00000000000E+00 0.  1.
        -13    1    3    3    0    0  0.24482852016E+01 -0.55156313938E+02 -0.73626888744E+02  0.92027886066E+02  0.00000000000E+00 0.  1.
         13    1    3    3    0    0  0.27978233192E+02 -0.68673618985E+02 -0.31945642031E+03  0.32795007540E+03  0.00000000000E+00 0. -1.
          1    1    1    2  501    0  0.15638344505E+03  0.70665932037E+02 -0.92340567220E+02  0.19487492448E+03  0.00000000000E+00 0. -1.
<scales pt_clust_5="13000.00000" pt_clust_6="13000.00000" pt_clust_7="13000.00000" pt_clust_8="13000.00000" pt_clust_9="13000.00000"></scales>
<clustering>
<clus scale="   74.882">  7  8 -1 -1</clus>
<clus scale="   92.065">  5  6 -1 -1</clus>
<clus scale="  147.875">  2  7  1 -1</clus>
<clus scale="  170.302">  5  9 -1 -1</clus>
<clus scale="  386.786">  1  5  2 -1</clus>
</clustering>
</event>
<event>
 9    1  0.6399313E-006  0.3591170E+03  0.7546771E-02  0.1110054E+00
          1   -1    0    0  502    0 -0.00000000000E+00  0.00000000000E+00  0.18895982718E+03  0.18895982718E+03  0.00000000000E+00 0. -1.
         21   -1    0    0  501  502  0.00000000000E+00 -0.00000000000E+00 -0.27932069351E+03  0.27932069351E+03  0.00000000000E+00 0. -1.
         23    2    1    2    0    0 -0.12244682405E+02 -0.47455693943E+01  0.17619365822E+02  0.93280856397E+02  0.90655520749E+02 0.  0.
         23    2    1    2    0    0  0.11057239337E+03  0.87027850296E+02  0.47334024613E+02  0.17360147451E+03  0.89982560322E+02 0.  0.
        -11    1    3    3    0    0 -0.43098478523E+02  0.60912264326E+01 -0.16005663101E+02  0.46376320916E+02  0.00000000000E+00 0.  1.
         11    1    3    3    0    0  0.30853796118E+02 -0.10836795827E+02  0.33625028923E+02  0.46904535481E+02  0.00000000000E+00 0. -1.
        -13    1    4    4    0    0  0.31469825590E+02 -0.17424595911E+02  0.11487676423E+02  0.37761530358E+02  0.00000000000E+00 0.  1.
         13    1    4    4    0    0  0.79102567781E+02  0.10445244621E+03  0.35846348189E+02  0.13583994415E+03  0.00000000000E+00 0. -1.
          1    1    1    2  501    0 -0.98327710967E+02 -0.82282280902E+02 -0.15531425677E+03  0.20139818979E+03  0.00000000000E+00 0. -1.
<scales pt_clust_5="13000.00000" pt_clust_6="13000.00000" pt_clust_7="13000.00000" pt_clust_8="13000.00000" pt_clust_9="13000.00000"></scales>
<clustering>
<clus scale="   89.983">  7  8 -1 -1</clus>
<clus scale="   90.656">  5  6 -1 -1</clus>
<clus scale="   91.602">  1  5  2 -1</clus>
<clus scale="  130.362">  7  9 -1 -1</clus>
<clus scale="  359.117">  2  5  1 -1</clus>
</clustering>
</event>
<event>
 9    1  0.6399313E-006  0.3610605E+03  0.7546771E-02  0.1087731E+00
          3   -1    0    0  502    0 -0.00000000000E+00  0.00000000000E+00  0.17885848864E+03  0.17885848864E+03  0.00000000000E+00 0. -1.
         21   -1    0    0  501  502  0.00000000000E+00 -0.00000000000E+00 -0.38163909624E+03  0.38163909624E+03  0.00000000000E+00 0. -1.
         23    2    1    2    0    0 -0.11552786317E+03  0.67437537244E+02 -0.52246539554E+02  0.16931322933E+03  0.89681436940E+02 0.  0.
         23    2    1    2    0    0  0.14960851616E+01  0.78120209576E+01  0.81595965555E+02  0.12183310736E+03  0.90122907810E+02 0.  0.
        -13    1    3    3    0    0 -0.11697844753E+03  0.27324153887E+02 -0.46274108543E+02  0.12873173537E+03  0.00000000000E+00 0. -1.
         13    1    3    3    0    0  0.14505843538E+01  0.40113383357E+02 -0.59724310110E+01  0.40581493954E+02  0.00000000000E+00 0.  1.
        -13    1    4    4    0    0 -0.37970807086E+02  0.18481664034E+02  0.65418999707E+02  0.77865265805E+02  0.00000000000E+00 0. -1.
         13    1    4    4    0    0  0.39466892248E+02 -0.10669643076E+02  0.16176965848E+02  0.43967841556E+02  0.00000000000E+00 0.  1.
          3    1    1    2  501    0  0.11403177801E+03 -0.75249558202E+02 -0.23213003360E+03  0.26935124819E+03  0.00000000000E+00 0. -1.
<scales pt_clust_5="13000.00000" pt_clust_6="13000.00000" pt_clust_7="13000.00000" pt_clust_8="13000.00000" pt_clust_9="13000.00000"></scales>
<clustering>
<clus scale="   89.681">  5  6 -1 -1</clus>
<clus scale="   90.123">  7  8 -1 -1</clus>
<clus scale="  136.623">  7  9 -1 -1</clus>
<clus scale="  161.051">  1  5  2 -1</clus>
<clus scale="  361.061">  2  5  1 -1</clus>
</clustering>
</event>
<event>
 9    1  0.6399313E-006  0.5018827E+03  0.7546771E-02  0.1036420E+00
         -1   -1    0    0    0  501 -0.00000000000E+00  0.00000000000E+00  0.34457050489E+03  0.34457050489E+03  0.00000000000E+00 0.  1.
         21   -1    0    0  501  502  0.00000000000E+00 -0.00000000000E+00 -0.43846751009E+03  0.43846751009E+03  0.00000000000E+00 0.  1.
         23    2    1    2    0    0  0.11187156833E+03  0.20490050733E+03 -0.12485354439E+03  0.28020149383E+03  0.91787819976E+02 0.  0.
         23    2    1    2    0    0 -0.14862833079E+03  0.60555228209E+02  0.11637289511E+03  0.22156483580E+03  0.98949529406E+02 0.  0.
        -11    1    3    3    0    0  0.58953741040E+02  0.18411118908E+03 -0.10490128002E+03  0.21994715746E+03  0.00000000000E+00 0.  1.
         11    1    3    3    0    0  0.52917827287E+02  0.20789318257E+02 -0.19952264365E+02  0.60254336372E+02  0.00000000000E+00 0. -1.
        -13    1    4    4    0    0 -0.93219508253E+02  0.51175856693E+02  0.17409657905E+02  0.10775871759E+03  0.00000000000E+00 0.  1.
         13    1    4    4    0    0 -0.55408822537E+02  0.93793715155E+01  0.98963237205E+02  0.11380611821E+03  0.00000000000E+00 0. -1.
         -1    1    1    2    0  502  0.36756762463E+02 -0.26545573554E+03 -0.85416355929E+02  0.28127168535E+03  0.00000000000E+00 0.  1.
<scales pt_clust_5="13000.00000" pt_clust_6="13000.00000" pt_clust_7="13000.00000" pt_clust_8="13000.00000" pt_clust_9="13000.00000"></scales>
<clustering>
<clus scale="   91.788">  5  6 -1 -1</clus>
<clus scale="   98.950">  7  8 -1 -1</clus>
<clus scale="  250.848">  1  5  2 -1</clus>
<clus scale="  205.568">  7  9 -1 -1</clus>
<clus scale="  501.883">  2  5  1 -1</clus>
</clustering>
</event>
<event>
 9    1  0.6399313E-006  0.2071352E+03  0.7546771E-02  0.1163427E+00
          4   -1    0    0  502    0 -0.00000000000E+00  0.00000000000E+00  0.42499437222E+03  0.42499437222E+03  0.00000000000E+00 0. -1.
         21   -1    0    0  501  502  0.00000000000E+00 -0.00000000000E+00 -0.70691336438E+02  0.70691336438E+02  0.00000000000E+00 0. -1.
         23    2    1    2    0    0  0.25307568008E+02 -0.88761342452E+02  0.19340107577E+03  0.23339879824E+03  0.92476883591E+02 0.  0.
         23    2    1    2    0    0  0.55936723035E+02  0.33244696003E+02  0.88133240119E+02  0.13990219138E+03  0.87011656357E+02 0.  0.
        -11    1    3    3    0    0  0.12268186579E+02 -0.48579219813E+02  0.18321591341E+03  0.18994346508E+03  0.00000000000E+00 0. -1.
         11    1    3    3    0    0  0.13039381429E+02 -0.40182122639E+02  0.10185162360E+02  0.43455333161E+02  0.00000000000E+00 0.  1.
        -13    1    4    4    0    0  0.31928382167E+02  0.60336405789E+02  0.74949661602E+02  0.10137729147E+03  0.00000000000E+00 0.  1.
         13    1    4    4    0    0  0.24008340868E+02 -0.27091709787E+02  0.13183578517E+02  0.38524899908E+02  0.00000000000E+00 0. -1.
          4    1    1    2  501    0 -0.81244291043E+02  0.55516646449E+02  0.72768719892E+02  0.12238471904E+03  0.00000000000E+00 0. -1.
<scales pt_clust_5="13000.00000" pt_clust_6="13000.00000" pt_clust_7="13000.00000" pt_clust_8="13000.00000" pt_clust_9="13000.00000"></scales>
<clustering>
<clus scale="   87.012">  7  8 -1 -1</clus>
<clus scale="   92.477">  5  6 -1 -1</clus>
<clus scale="   98.401">  7  9 -1 -1</clus>
<clus scale="  130.656">  1  5  2 -1</clus>
<clus scale="  207.135">  2  5  1 -1</clus>
</clustering>
</event>
<event>
 9    1  0.6399313E-006  0.1904207E+03  0.7546771E-02  0.1166719E+00
         -3   -1    0    0    0  501 -0.00000000000E+00  0.00000000000E+00  0.15709686871E+03  0.15709686871E+03  0.00000000000E+00 0.  1.
         21   -1    0    0  501  502  0.00000000000E+00 -0.00000000000E+00 -0.22189000351E+03  0.22189000351E+03  0.00000000000E+00 0.  1.
         23    2    1    2    0    0  0.89375590410E+02  0.88553550082E+02  0.40970513377E+02  0.16116584434E+03  0.92011515705E+02 0.  0.
         23    2    1    2    0    0 -0.42052948894E+02 -0.16821436491E+02 -0.44572285324E+02  0.11232547627E+03  0.92622420424E+02 0.  0.
        -11    1    3    3    0    0  0.39035276167E+02  0.97217353445E+02  0.26070600392E+02  0.10795667094E+03  0.00000000000E+00 0. -1.
         11    1    3    3    0    0  0.50340314243E+02 -0.86638033623E+01  0.14899912985E+02  0.53209173398E+02  0.00000000000E+00 0.  1.
        -13    1    4    4    0    0 -0.46585263265E+02  0.17896509565E+02 -0.56456279111E+02  0.75351066742E+02  0.00000000000E+00 0.  1.
         13    1    4    4    0    0  0.45323143716E+01 -0.34717946056E+02  0.11883993788E+02  0.36974409533E+02  0.00000000000E+00 0. -1.
         -3    1    1    2    0  502 -0.47322641516E+02 -0.71732113591E+02 -0.61191362851E+02  0.10549555160E+03  0.00000000000E+00 0.  1.
<scales pt_clust_5="13000.00000" pt_clust_6="13000.00000" pt_clust_7="13000.00000" pt_clust_8="13000.00000" pt_clust_9="13000.00000"></scales>
<clustering>
<clus scale="   92.012">  5  6 -1 -1</clus>
<clus scale="   92.622">  7  8 -1 -1</clus>
<clus scale="   85.936">  7  9 -1 -1</clus>
<clus scale="  155.871">  1  5  2 -1</clus>
<clus scale="  190.421">  2  5  1 -1</clus>
</clustering>
</event>
<event>
 9    1  0.6399313E-006  0.2563876E+03  0.7546771E-02  0.1146995E+00
          2   -1    0    0  502    0 -0.00000000000E+00  0.00000000000E+00  0.10475422435E+04  0.10475422435E+04  0.00000000000E+00 0. -1.
         21   -1    0    0  501  502  0.00000000000E+00 -0.00000000000E+00 -0.37347848993E+02  0.37347848993E+02  0.00000000000E+00 0. -1.
         23    2    1    2    0    0  0.16605585236E+02  0.43882124914E+02  0.11299482945E+03  0.15177613778E+03  0.89815244640E+02 0.  0.
         23    2    1    2    0    0  0.66005431847E+02 -0.99971931432E+02  0.64030787950E+03  0.65749830812E+03  0.89211773434E+02 0.  0.
        -11    1    3    3    0    0 -0.42925566838E+01  0.68577689508E+02  0.81872440938E+02  0.10688508842E+03  0.00000000000E+00 0.  1.
         11    1    3    3    0    0  0.20898141920E+02 -0.24695564594E+02  0.31122388508E+02  0.44891049361E+02  0.00000000000E+00 0. -1.
        -13    1    4    4    0    0  0.45181353322E+02  0.61263232856E+00  0.24038466091E+03  0.24459459358E+03  0.00000000000E+00 0.  1.
         13    1    4    4    0    0  0.20824078525E+02 -0.10058456376E+03  0.39992321859E+03  0.41290371454E+03  0.00000000000E+00 0. -1.
          2    1    1    2  501    0 -0.82611017083E+02  0.56089806518E+02  0.25689168557E+03  0.27561564660E+03  0.00000000000E+00 0. -1.
<scales pt_clust_5="13000.00000" pt_clust_6="13000.00000" pt_clust_7="13000.00000" pt_clust_8="13000.00000" pt_clust_9="13000.00000"></scales>
<clustering>
<clus scale="   89.212">  7  8 -1 -1</clus>
<clus scale="   89.815">  5  6 -1 -1</clus>
<clus scale="   99.853">  7  9 -1 -1</clus>
<clus scale="  101.332">  1  5  2 -1</clus>
<clus scale="  256.388">  2  5  1 -1</clus>
</clustering>
</event>
<event>
 9    1  0.6399313E-006  0.6251347E+03  0.7546771E-02  0.1028691E+00
         21   -1    0    0  501  502  0.00000000000E+00  0.00000000000E+00  0.10522167818E+04  0.10522167818E+04  0.00000000000E+00 0.  1.
          3   -1    0    0  502    0 -0.00000000000E+00 -0.00000000000E+00 -0.15258014357E+03  0.15258014357E+03  0.00000000000E+00 0. -1.
         23    2    1    2    0    0  0.14403442158E+02  0.13091523846E+03  0.10590010976E+03  0.19444495568E+03  0.96165215826E+02 0.  0.
         23    2    1    2    0    0  0.20771655242E+03 -0.91269556219E+02  0.90072282739E+02  0.27139835624E+03  0.11860756136E+03 0.  0.
        -11    1    3    3    0    0  0.45541837989E+02  0.11657760385E+03  0.64841290496E+02  0.14095669435E+03  0.00000000000E+00 0.  1.
         11    1    3    3    0    0 -0.31138395832E+02  0.14337634605E+02  0.41058819261E+02  0.53488261330E+02  0.00000000000E+00 0. -1.
        -11    1    4    4    0    0  0.11245115995E+03 -0.14153199871E+02  0.96226560713E+02  0.14867793187E+03  0.00000000000E+00 0.  1.
         11    1    4    4    0    0  0.95265392470E+02 -0.77116356348E+02 -0.61542779736E+01  0.12272042436E+03  0.00000000000E+00 0. -1.
          3    1    1    2  501    0 -0.22211999457E+03 -0.39645682240E+02  0.70366424577E+03  0.73895361349E+03  0.00000000000E+00 0. -1.
<scales pt_clust_5="13000.00000" pt_clust_6="13000.00000" pt_clust_7="13000.00000" pt_clust_8="13000.00000" pt_clust_9="13000.00000"></scales>
<clustering>
<clus scale="   96.165">  5  6 -1 -1</clus>
<clus scale="  118.608">  7  8 -1 -1</clus>
<clus scale="  163.077">  2  5  1 -1</clus>
<clus scale="  220.536">  7  9 -1 -1</clus>
<clus scale="  625.135">  1  5  2 -1</clus>
</clustering>
</event>
<event>
 9    1  0.6399313E-006  0.1608951E+03  0.7546771E-02  0.1211520E+00
         21   -1    0    0  501  502  0.00000000000E+00  0.00000000000E+00  0.10552656048E+03  0.10552656048E+03  0.00000000000E+00 0.  1.
          3   -1    0    0  502    0 -0.00000000000E+00 -0.00000000000E+00 -0.21489576359E+03  0.21489576359E+03  0.00000000000E+00 0. -1.
         23    2    1    2    0    0  0.22462364658E+02 -0.32425278785E+02 -0.12639640239E+03  0.15862878196E+03  0.87356072470E+02 0.  0.
         23    2    1    2    0    0  0.32488559649E+01  0.19052890857E+02  0.59878340353E+02  0.11006243044E+03  0.90303683399E+02 0.  0.
        -11    1    4    4    0    0 -0.27371172482E+02 -0.25383511281E+02  0.16450329177E+02  0.40793590894E+02  0.00000000000E+00 0. -1.
         11    1    4    4    0    0  0.30620028447E+02  0.44436402138E+02  0.43428011176E+02  0.69268839544E+02  0.00000000000E+00 0.  1.
        -13    1    3    3    0    0  0.20161384026E+02 -0.13858509056E+01  0.72010768935E+01  0.21453612680E+02  0.00000000000E+00 0.  1.
         13    1    3    3    0    0  0.23009806317E+01 -0.31039427879E+02 -0.13359747928E+03  0.13717516928E+03  0.00000000000E+00 0. -1.
          3    1    1    2  501    0 -0.25711220623E+02  0.13372387928E+02 -0.42851141063E+02  0.51731111676E+02  0.00000000000E+00 0. -1.
<scales pt_clust_5="13000.00000" pt_clust_6="13000.00000" pt_clust_7="13000.00000" pt_clust_8="13000.00000" pt_clust_9="13000.00000"></scales>
<clustering>
<clus scale="   87.356">  7  8 -1 -1</clus>
<clus scale="   90.304">  5  6 -1 -1</clus>
<clus scale="   28.981">  5  9 -1 -1</clus>
<clus scale="   95.849">  2  7  1 -1</clus>
<clus scale="  160.895">  1  5  2 -1</clus>
</clustering>
</event>
<event>
 9    1  0.6399313E-006  0.5048098E+03  0.7546771E-02  0.1068293E+00
          1   -1    0    0  502    0 -0.00000000000E+00  0.00000000000E+00  0.73615996995E+03  0.73615996995E+03  0.00000000000E+00 0. -1.
         21   -1    0    0  501  502  0.00000000000E+00 -0.00000000000E+00 -0.12685951010E+03  0.12685951010E+03  0.00000000000E+00 0. -1.
         23    2    1    2    0    0 -0.23544512601E+02 -0.34785250137E+02  0.15264630627E+03  0.18230960858E+03  0.90396575504E+02 0.  0.
         23    2    1    2    0    0  0.22022066980E+03 -0.56563598560E+02  0.37668549346E+03  0.44957980079E+03  0.92376686446E+02 0.  0.
        -11    1    4    4    0    0  0.12600287028E+03 -0.39041160600E+02  0.13119060976E+03  0.18604276828E+03  0.00000000000E+00 0.  1.
         11    1    4    4    0    0  0.94217799526E+02 -0.17522437961E+02  0.24549488370E+03  0.26353703251E+03  0.00000000000E+00 0. -1.
        -13    1    3    3    0    0  0.13254653921E+01  0.29689962274E+02  0.57361552421E+02  0.64603393212E+02  0.00000000000E+00 0.  1.
         13    1    3    3    0    0 -0.24869977993E+02 -0.64475212411E+02  0.95284753851E+02  0.11770621537E+03  0.00000000000E+00 0. -1.
          1    1    1    2  501    0 -0.19667615720E+03  0.91348848697E+02  0.79968660119E+02  0.23113007068E+03  0.00000000000E+00 0. -1.
<scales pt_clust_5="13000.00000" pt_clust_6="13000.00000" pt_clust_7="13000.00000" pt_clust_8="13000.00000" pt_clust_9="13000.00000"></scales>
<clustering>
<clus scale="   90.397">  7  8 -1 -1</clus>
<clus scale="   92.377">  5  6 -1 -1</clus>
<clus scale="   99.679">  1  7  2 -1</clus>
<clus scale="  218.982">  5  9 -1 -1</clus>
<clus scale="  504.810">  2  5  1 -1</clus>
</clustering>
</event>
<event>
 9    1  0.6399313E-006  0.1710933E+03  0.7546771E-02  0.1192900E+00
         21   -1    0    0  501  502  0.00000000000E+00  0.00000000000E+00  0.59060960118E+02  0.59060960118E+02  0.00000000000E+00 0.  1.
          2   -1    0    0  502    0 -0.00000000000E+00 -0.00000000000E+00 -0.46170238425E+03  0.46170238425E+03  0.00000000000E+00 0. -1.
         23    2    1    2    0    0  0.52954185123E+02  0.17237065011E+02 -0.29608437374E+03  0.31920111630E+03  0.10546152922E+03 0.  0.
         23    2    1    2    0    0 -0.35252846405E+02 -0.45092334373E+02 -0.12396018550E+03  0.16425106975E+03  0.91302817725E+02 0.  0.
        -13    1    3    3    0    0  0.67964977531E+02  0.38949191290E+02 -0.27338784122E+03  0.28438915134E+03  0.00000000000E+00 0. -1.
         13    1    3    3    0    0 -0.15010792408E+02 -0.21712126279E+02 -0.22696532522E+02  0.34811964966E+02  0.00000000000E+00 0.  1.
        -13    1    4    4    0    0  0.23391318804E+02  0.90734681612E+01 -0.15192404798E+02  0.29330713994E+02  0.00000000000E+00 0. -1.
         13    1    4    4    0    0 -0.58644165209E+02 -0.54165802534E+02 -0.10876778070E+03  0.13492035575E+03  0.00000000000E+00 0.  1.
          2    1    1    2  501    0 -0.17701338718E+02  0.27855269362E+02  0.17403135106E+02  0.37311158320E+02  0.00000000000E+00 0. -1.
<scales pt_clust_5="13000.00000" pt_clust_6="13000.00000" pt_clust_7="13000.00000" pt_clust_8="13000.00000" pt_clust_9="13000.00000"></scales>
<clustering>
<clus scale="   91.303">  7  8 -1 -1</clus>
<clus scale="   33.004">  7  9 -1 -1</clus>
<clus scale="  105.462">  5  6 -1 -1</clus>
<clus scale="  119.262">  2  5  1 -1</clus>
<clus scale="  171.093">  1  5  2 -1</clus>
</clustering>
</event>
<event>
 9    1  0.6399313E-006  0.2616922E+03  0.7546771E-02  0.1130245E+00
         21   -1    0    0  501  502  0.00000000000E+00  0.00000000000E+00  0.39263226258E+03  0.39263226258E+03  0.00000000000E+00 0.  1.
          3   -1    0    0  502    0 -0.00000000000E+00 -0.00000000000E+00 -0.10476062808E+03  0.10476062808E+03  0.00000000000E+00 0. -1.
         23    2    1    2    0    0  0.93523520212E+02  0.56784775601E+02  0.84796109135E+02  0.16614902117E+03  0.91891009020E+02 0.  0.
         23    2    1    2    0    0 -0.13998029974E+03 -0.99013350195E+02  0.12512018464E+03  0.23115131220E+03  0.91529998882E+02 0.  0.
        -11    1    3    3    0    0  0.88264327742E+02  0.24577733446E+01  0.51979303815E+02  0.10246209166E+03  0.00000000000E+00 0. -1.
         11    1    3    3    0    0  0.52591924707E+01  0.54327002256E+02  0.32816805319E+02  0.63686929514E+02  0.00000000000E+00 0.  1.
        -13    1    4    4    0    0 -0.11463772850E+03 -0.62517068592E+02  0.13259382117E+03  0.18609490609E+03  0.00000000000E+00 0.  1.
         13    1    4    4    0    0 -0.25342571245E+02 -0.36496281603E+02 -0.74736365367E+01  0.45056406106E+02  0.00000000000E+00 0. -1.
          3    1    1    2  501    0  0.46456779530E+02  0.42228574594E+02  0.77955340726E+02  0.10009255729E+03  0.00000000000E+00 0. -1.
<scales pt_clust_5="13000.00000" pt_clust_6="13000.00000" pt_clust_7="13000.00000" pt_clust_8="13000.00000" pt_clust_9="13000.00000"></scales>
<clustering>
<clus scale="   91.530">  7  8 -1 -1</clus>
<clus scale="   62.781">  7  9 -1 -1</clus>
<clus scale="   91.891">  5  6 -1 -1</clus>
<clus scale="  142.881">  2  5  1 -1</clus>
<clus scale="  261.692">  1  5  2 -1</clus>
</clustering>
</event>
<event>
 9    1  0.6399313E-006  0.1500462E+03  0.7546771E-02  0.1222906E+00
          2   -1    0    0  502    0 -0.00000000000E+00  0.00000000000E+00  0.54515413402E+02  0.54515413402E+02  0.00000000000E+00 0. -1.
         21   -1    0    0  501  502  0.00000000000E+00 -0.00000000000E+00 -0.29638856042E+03  0.29638856042E+03  0.00000000000E+00 0.  1.
         23    2    1    2    0    0 -0.37956291865E+01 -0.44648710299E+01 -0.44709940122E+02  0.10313955923E+03  0.92760164182E+02 0.  0.
         23    2    1    2    0    0 -0.59000589968E+01 -0.43766314771E+02 -0.14163409777E+03  0.17357724849E+03  0.90102955211E+02 0.  0.
        -11    1    4    4    0    0  0.24230526407E+02  0.16714076473E+00 -0.22212802555E+01  0.24332702931E+02  0.00000000000E+00 0. -1.
         11    1    4    4    0    0 -0.30130585403E+02 -0.43933455536E+02 -0.13941281751E+03  0.14924454556E+03  0.00000000000E+00 0.  1.
        -13    1    3    3    0    0  0.25605454509E+02  0.12524914294E+02  0.16649362073E+02  0.33010816956E+02  0.00000000000E+00 0. -1.
         13    1    3    3    0    0 -0.29401083695E+02 -0.16989785324E+02 -0.61359302194E+02  0.70128742279E+02  0.00000000000E+00 0.  1.
          2    1    1    2  501    0  0.96956881833E+01  0.48231185801E+02 -0.55529109127E+02  0.74187166097E+02  0.00000000000E+00 0. -1.
<scales pt_clust_5="13000.00000" pt_clust_6="13000.00000" pt_clust_7="13000.00000" pt_clust_8="13000.00000" pt_clust_9="13000.00000"></scales>
<clustering>
<clus scale="   90.103">  5  6 -1 -1</clus>
<clus scale="   49.196">  5  9 -1 -1</clus>
<clus scale="   92.760">  7  8 -1 -1</clus>
<clus scale="   92.945">  1  7  2 -1</clus>
<clus scale="  150.046">  2  5  1 -1</clus>
</clustering>
</event>
<event>
 9    1  0.6399313E-006  0.1543908E+03  0.7546771E-02  0.1217703E+00
         21   -1    0    0  501  502  0.00000000000E+00  0.00000000000E+00  0.15210102625E+03  0.15210102625E+03  0.00000000000E+00 0. -1.
         -3   -1    0    0    0  501 -0.00000000000E+00 -0.00000000000E+00 -0.12876785374E+03  0.12876785374E+03  0.00000000000E+00 0.  1.
         23    2    1    2    0    0  0.39252695593E+02 -0.25896952981E+01 -0.52690654970E+02  0.10877546243E+03  0.86650536483E+02 0.  0.
         23    2    1    2    0    0 -0.55771038904E+02  0.38205070039E+02  0.38609421452E+02  0.11786106226E+03  0.88490148688E+02 0.  0.
        -11    1    3    3    0    0  0.12140020135E+02  0.40308050071E+02 -0.35889970984E+02  0.55319155874E+02  0.00000000000E+00 0.  1.
         11    1    3    3    0    0  0.27112675457E+02 -0.42897745369E+02 -0.16800683986E+02  0.53456306556E+02  0.00000000000E+00 0. -1.
        -13    1    4    4    0    0 -0.47849264727E+02  0.61948849625E+02  0.47189932715E+02  0.91400776005E+02  0.00000000000E+00 0. -1.
         13    1    4    4    0    0 -0.79217741775E+01 -0.23743779586E+02 -0.85805112622E+01  0.26460286254E+02  0.00000000000E+00 0.  1.
         -3    1    1    2    0  502  0.16518343312E+02 -0.35615374741E+02  0.37414406021E+02  0.54232355302E+02  0.00000000000E+00 0.  1.
<scales pt_clust_5="13000.00000" pt_clust_6="13000.00000" pt_clust_7="13000.00000" pt_clust_8="13000.00000" pt_clust_9="13000.00000"></scales>
<clustering>
<clus scale="   86.651">  5  6 -1 -1</clus>
<clus scale="   88.490">  7  8 -1 -1</clus>
<clus scale="   39.260">  7  9 -1 -1</clus>
<clus scale="   95.162">  2  5  1 -1</clus>
<clus scale="  154.391">  1  5  2 -1</clus>
</clustering>
</event>
<event>
 9    1  0.6399313E-006  0.2008088E+03  0.7546771E-02  0.1165240E+00
         -1   -1    0    0    0  501 -0.00000000000E+00  0.00000000000E+00  0.10283023345E+03  0.10283023345E+03  0.00000000000E+00 0.  1.
         21   -1    0    0  501  502  0.00000000000E+00 -0.00000000000E+00 -0.28955634248E+03  0.28955634248E+03  0.00000000000E+00 0. -1.
         23    2    1    2    0    0 -0.55215571146E+02  0.87530891766E+02 -0.38528735540E+02  0.14281366776E+03  0.90558621497E+02 0.  0.
         23    2    1    2    0    0  0.16760676940E+02  0.12051145209E+02 -0.63211880424E+02  0.11312550069E+03  0.91517685103E+02 0.  0.
        -11    1    3    3    0    0 -0.36123711565E+02 -0.69476108844E+01  0.48684442604E+01  0.37106516728E+02  0.00000000000E+00 0.  1.
         11    1    3    3    0    0 -0.19091859581E+02  0.94478502651E+02 -0.43397179800E+02  0.10570715104E+03  0.00000000000E+00 0. -1.
        -13    1    4    4    0    0 -0.55518037371E+01  0.25997510498E+02 -0.78372187294E+02  0.82758037785E+02  0.00000000000E+00 0. -1.
         13    1    4    4    0    0  0.22312480677E+02 -0.13946365289E+02  0.15160306869E+02  0.30367462902E+02  0.00000000000E+00 0.  1.
         -1    1    1    2    0  502  0.38454894206E+02 -0.99582036975E+02 -0.84985493064E+02  0.13644740748E+03  0.00000000000E+00 0.  1.
<scales pt_clust_5="13000.00000" pt_clust_6="13000.00000" pt_clust_7="13000.00000" pt_clust_8="13000.00000" pt_clust_9="13000.00000"></scales>
<clustering>
<clus scale="   90.559">  5  6 -1 -1</clus>
<clus scale="   91.518">  7  8 -1 -1</clus>
<clus scale="  106.749">  7  9 -1 -1</clus>
<clus scale="  137.518">  1  5  2 -1</clus>
<clus scale="  200.809">  2  5  1 -1</clus>
</clustering>
</event>
<event>
 9    1  0.6399313E-006  0.4243610E+03  0.7546771E-02  0.1086892E+00
         21   -1    0    0  501  502  0.00000000000E+00  0.00000000000E+00  0.23730713466E+03  0.23730713466E+03  0.00000000000E+00 0.  1.
          1   -1    0    0  502    0 -0.00000000000E+00 -0.00000000000E+00 -0.34289996510E+03  0.34289996510E+03  0.00000000000E+00 0. -1.
         23    2    1    2    0    0 -0.30169722945E+02  0.28767049579E+02 -0.11807709046E+03  0.15566254544E+03  0.92470932924E+02 0.  0.
         23    2    1    2    0    0 -0.77893372221E+02  0.16027219426E+03 -0.33012803146E+02  0.20209579393E+03  0.89433277157E+02 0.  0.
        -11    1    3    3    0    0 -0.21117386778E+02  0.61457643419E+02 -0.60231402776E+02  0.88604784517E+02  0.00000000000E+00 0.  1.
         11    1    3    3    0    0 -0.90523361671E+01 -0.32690593840E+02 -0.57845687685E+02  0.67057760919E+02  0.00000000000E+00 0. -1.
        -13    1    4    4    0    0  0.92883610576E+01  0.41582810066E+02 -0.34494643478E+02  0.54820472205E+02  0.00000000000E+00 0. -1.
         13    1    4    4    0    0 -0.87181733279E+02  0.11868938419E+03  0.14818403324E+01  0.14727532172E+03  0.00000000000E+00 0.  1.
          1    1    1    2  501    0  0.10806309517E+03 -0.18903924383E+03  0.45497063167E+02  0.22244876040E+03  0.00000000000E+00 0. -1.
<scales pt_clust_5="13000.00000" pt_clust_6="13000.00000" pt_clust_7="13000.00000" pt_clust_8="13000.00000" pt_clust_9="13000.00000"></scales>
<clustering>
<clus scale="   89.433">  7  8 -1 -1</clus>
<clus scale="   92.471">  5  6 -1 -1</clus>
<clus scale="  101.433">  2  5  1 -1</clus>
<clus scale="  200.657">  7  9 -1 -1</clus>
<clus scale="  424.361">  1  5  2 -1</clus>
</clustering>
</event>
<event>
 9    1  0.6399313E-006  0.2887971E+03  0.7546771E-02  0.1123431E+00
         -3   -1    0    0    0  501 -0.00000000000E+00  0.00000000000E+00  0.68440259871E+02  0.68440259871E+02  0.00000000000E+00 0.  1.
         21   -1    0    0  501  502  0.00000000000E+00 -0.00000000000E+00 -0.65036362807E+03  0.65036362807E+03  0.00000000000E+00 0. -1.
         23    2    1    2    0    0 -0.17874581245E+02 -0.91420284254E+02 -0.24217387041E+03  0.27289640856E+03  0.84540506649E+02 0.  0.
         23    2    1    2    0    0 -0.88237078292E+02  0.10177172589E+03 -0.12064887147E+03  0.20224393865E+03  0.90571487556E+02 0.  0.
        -13    1    4    4    0    0 -0.81027409912E+01  0.76640766788E+02 -0.45183763894E+02  0.89336633388E+02  0.00000000000E+00 0. -1.
         13    1    4    4    0    0 -0.80134337300E+02  0.25130959097E+02 -0.75465107581E+02  0.11290730526E+03  0.00000000000E+00 0.  1.
        -13    1    3    3    0    0  0.30575643225E+02 -0.53302921142E+02 -0.14900790026E+03  0.16118134414E+03  0.00000000000E+00 0. -1.
         13    1    3    3    0    0 -0.48450224469E+02 -0.38117363112E+02 -0.93165970159E+02  0.11171506442E+03  0.00000000000E+00 0.  1.
         -3    1    1    2    0  502  0.10611165954E+03 -0.10351441631E+02 -0.21910062631E+03  0.24366354074E+03  0.00000000000E+00 0.  1.
<scales pt_clust_5="13000.00000" pt_clust_6="13000.00000" pt_clust_7="13000.00000" pt_clust_8="13000.00000" pt_clust_9="13000.00000"></scales>
<clustering>
<clus scale="   84.541">  7  8 -1 -1</clus>
<clus scale="   90.571">  5  6 -1 -1</clus>
<clus scale="  106.615">  5  9 -1 -1</clus>
<clus scale="  125.795">  1  7  2 -1</clus>
<clus scale="  288.797">  2  5  1 -1</clus>
</clustering>
</event>
<event>
 9    1  0.6399313E-006  0.3362004E+03  0.7546771E-02  0.1077748E+00
          1   -1    0    0  502    0 -0.00000000000E+00  0.00000000000E+00  0.11899767193E+04  0.11899767193E+04  0.00000000000E+00 0. -1.
         21   -1    0    0  501  502  0.00000000000E+00 -0.00000000000E+00 -0.76175268583E+02  0.76175268583E+02  0.00000000000E+00 0. -1.
         23    2    1    2    0    0 -0.20750137159E+03 -0.12974244134E+03  0.57061459893E+03  0.62733849265E+03  0.89792224327E+02 0.  0.
         23    2    1    2    0    0  0.14741392995E+03 -0.12116866041E+02  0.35666683237E+03  0.39689557241E+03  0.91854128402E+02 0.  0.
        -11    1    3    3    0    0 -0.41818588799E+02 -0.33297151426E+02  0.52631803132E+02  0.75017340416E+02  0.00000000000E+00 0.  1.
         11    1    3    3    0    0 -0.16568278279E+03 -0.96445289911E+02  0.51798279580E+03  0.55232115223E+03  0.00000000000E+00 0. -1.
        -13    1    4    4    0    0  0.22227013484E+02  0.48077796743E+01  0.50781481475E+01  0.23301125776E+02  0.00000000000E+00 0.  1.
         13    1    4    4    0    0  0.12518691647E+03 -0.16924645716E+02  0.35158868422E+03  0.37359444664E+03  0.00000000000E+00 0. -1.
          1    1    1    2  501    0  0.60087441642E+02  0.14185930738E+03  0.18652001937E+03  0.24191792278E+03  0.00000000000E+00 0. -1.
<scales pt_clust_5="13000.00000" pt_clust_6="13000.00000" pt_clust_7="13000.00000" pt_clust_8="13000.00000" pt_clust_9="13000.00000"></scales>
<clustering>
<clus scale="   89.792">  5  6 -1 -1</clus>
<clus scale="   91.854">  7  8 -1 -1</clus>
<clus scale="  154.060">  7  9 -1 -1</clus>
<clus scale="  260.677">  1  5  2 -1</clus>
<clus scale="  336.200">  2  5  1 -1</clus>
</clustering>
</event>
<event>
 9    1  0.6399313E-006  0.1846896E+03  0.7546771E-02  0.1185574E+00
          1   -1    0    0  502    0 -0.00000000000E+00  0.00000000000E+00  0.67550497112E+03  0.67550497112E+03  0.00000000000E+00 0. -1.
         21   -1    0    0  501  502  0.00000000000E+00 -0.00000000000E+00 -0.75237755000E+02  0.75237755000E+02  0.00000000000E+00 0. -1.
         23    2    1    2    0    0  0.54300628510E+02 -0.29302927558E+02  0.54739378108E+03  0.55863374549E+03  0.92868133476E+02 0.  0.
         23    2    1    2    0    0 -0.87450122785E+02 -0.15752843731E+02  0.39003413765E+02  0.13447835521E+03  0.93099332292E+02 0.  0.
        -13    1    3    3    0    0 -0.12684391577E+02  0.19968653550E+02  0.66018559794E+02  0.70129103456E+02  0.00000000000E+00 0.  1.
         13    1    3    3    0    0  0.66985020087E+02 -0.49271581108E+02  0.48137522128E+03  0.48850464203E+03  0.00000000000E+00 0. -1.
        -13    1    4    4    0    0  0.74045150591E+01 -0.25510729435E+02 -0.85736145336E+01  0.27912918617E+02  0.00000000000E+00 0. -1.
         13    1    4    4    0    0 -0.94854637845E+02  0.97578857042E+01  0.47577028298E+02  0.10656543659E+03  0.00000000000E+00 0.  1.
          1    1    1    2  501    0  0.33149494275E+02  0.45055771289E+02  0.13870021284E+02  0.57630625431E+02  0.00000000000E+00 0. -1.
<scales pt_clust_5="13000.00000" pt_clust_6="13000.00000" pt_clust_7="13000.00000" pt_clust_8="13000.00000" pt_clust_9="13000.00000"></scales>
<clustering>
<clus scale="   92.868">  5  6 -1 -1</clus>
<clus scale="   93.099">  7  8 -1 -1</clus>
<clus scale="   55.937">  7  9 -1 -1</clus>
<clus scale="  111.498">  1  5  2 -1</clus>
<clus scale="  184.690">  2  5  1 -1</clus>
</clustering>
</event>
<event>
 9    1  0.6399313E-006  0.1757780E+03  0.7546771E-02  0.1179802E+00
         21   -1    0    0  501  502  0.00000000000E+00  0.00000000000E+00  0.13935486266E+03  0.13935486266E+03  0.00000000000E+00 0. -1.
         -2   -1    0    0    0  501 -0.00000000000E+00 -0.00000000000E+00 -0.19522545419E+03  0.19522545419E+03  0.00000000000E+00 0.  1.
         23    2    1    2    0    0 -0.95613564750E+02  0.60916027908E+02  0.84603974520E+01  0.14740027349E+03  0.93821884869E+02 0.  0.
         23    2    1    2    0    0  0.50637753444E+02 -0.29082664835E+02 -0.13513206539E+02  0.11222249791E+03  0.94875174929E+02 0.  0.
        -11    1    4    4    0    0  0.27765096236E+02  0.11357879493E+02 -0.46433561575E+02  0.55280897569E+02  0.00000000000E+00 0. -1.
         11    1    4    4    0    0  0.22872657208E+02 -0.40440544328E+02  0.32920355035E+02  0.56941600337E+02  0.00000000000E+00 0.  1.
        -13    1    3    3    0    0 -0.60109211814E+02  0.58613723634E+02  0.45955816619E+02  0.95711143679E+02  0.00000000000E+00 0. -1.
         13    1    3    3    0    0 -0.35504352936E+02  0.23023042747E+01 -0.37495419167E+02  0.51689129814E+02  0.00000000000E+00 0.  1.
         -2    1    1    2    0  502  0.44975811306E+02 -0.31833363073E+02 -0.50817782446E+02  0.74957545450E+02  0.00000000000E+00 0.  1.
<scales pt_clust_5="13000.00000" pt_clust_6="13000.00000" pt_clust_7="13000.00000" pt_clust_8="13000.00000" pt_clust_9="13000.00000"></scales>
<clustering>
<clus scale="   93.822">  7  8 -1 -1</clus>
<clus scale="   94.875">  5  6 -1 -1</clus>
<clus scale="   55.102">  5  9 -1 -1</clus>
<clus scale="  147.157">  2  7  1 -1</clus>
<clus scale="  175.778">  1  5  2 -1</clus>
</clustering>
</event>
<event>
 9    1  0.6399313E-006  0.6138873E+03  0.7546771E-02  0.1041113E+00
          4   -1    0    0  502    0 -0.00000000000E+00  0.00000000000E+00  0.18630462921E+03  0.18630462921E+03  0.00000000000E+00 0. -1.
         21   -1    0    0  501  502  0.00000000000E+00 -0.00000000000E+00 -0.72216574041E+03  0.72216574041E+03  0.00000000000E+00 0.  1.
         23    2    1    2    0    0 -0.75877014677E+02  0.46231197693E+01 -0.80082466786E+02  0.14388435752E+03  0.92254063650E+02 0.  0.
         23    2    1    2    0    0  0.16691429894E+03 -0.19682591042E+03 -0.15016087154E+02  0.27519727936E+03  0.94378162145E+02 0.  0.
        -11    1    4    4    0    0  0.47131460538E+02 -0.10393178513E+03  0.28244482484E+02  0.11756249965E+03  0.00000000000E+00 0. -1.
         11    1    4    4    0    0  0.11978283840E+03 -0.92894125290E+02 -0.43260569638E+02  0.15763477971E+03  0.00000000000E+00 0.  1.
        -13    1    3    3    0    0 -0.24340481994E+02 -0.32051213311E+02 -0.68691576487E+02  0.79613265343E+02  0.00000000000E+00 0.  1.
         13    1    3    3    0    0 -0.51536532684E+02  0.36674333080E+02 -0.11390890299E+02  0.64271092178E+02  0.00000000000E+00 0. -1.
          4    1    1    2  501    0 -0.91037284258E+02  0.19220279065E+03 -0.44076255726E+03  0.48938873275E+03  0.00000000000E+00 0. -1.
<scales pt_clust_5="13000.00000" pt_clust_6="13000.00000" pt_clust_7="13000.00000" pt_clust_8="13000.00000" pt_clust_9="13000.00000"></scales>
<clustering>
<clus scale="   92.254">  7  8 -1 -1</clus>
<clus scale="   94.378">  5  6 -1 -1</clus>
<clus scale="  119.539">  1  7  2 -1</clus>
<clus scale="  218.697">  5  9 -1 -1</clus>
<clus scale="  613.887">  2  5  1 -1</clus>
</clustering>
</event>
<event>
 9    1  0.6399313E-006  0.1528833E+03  0.7546771E-02  0.1215032E+00
         21   -1    0    0  501  502  0.00000000000E+00  0.00000000000E+00  0.16954613128E+03  0.16954613128E+03  0.00000000000E+00 0.  1.
          1   -1    0    0  502    0 -0.00000000000E+00 -0.00000000000E+00 -0.11529072739E+03  0.11529072739E+03  0.00000000000E+00 0. -1.
         23    2    1    2    0    0  0.47165421518E+02 -0.18393786464E+02 -0.32986595782E+02  0.10881277825E+03  0.90494181264E+02 0.  0.
         23    2    1    2    0    0 -0.13485843244E+02  0.42699440976E+00  0.91057146982E+01  0.89062027551E+02  0.87561866238E+02 0.  0.
        -13    1    4    4    0    0  0.27272620601E+02  0.11839922515E+02  0.29671059911E+02  0.42004183076E+02  0.00000000000E+00 0.  1.
         13    1    4    4    0    0 -0.40758463845E+02 -0.11412928105E+02 -0.20565345213E+02  0.47057844475E+02  0.00000000000E+00 0. -1.
        -13    1    3    3    0    0  0.69897970716E+02  0.59343856129E+01 -0.18834336319E+02  0.72633845192E+02  0.00000000000E+00 0.  1.
         13    1    3    3    0    0 -0.22732549198E+02 -0.24328172077E+02 -0.14152259462E+02  0.36178933062E+02  0.00000000000E+00 0. -1.
          1    1    1    2  501    0 -0.33679578274E+02  0.17966792054E+02  0.78136284972E+02  0.86962052866E+02  0.00000000000E+00 0. -1.
<scales pt_clust_5="13000.00000" pt_clust_6="13000.00000" pt_clust_7="13000.00000" pt_clust_8="13000.00000" pt_clust_9="13000.00000"></scales>
<clustering>
<clus scale="   87.562">  5  6 -1 -1</clus>
<clus scale="   38.172">  5  9 -1 -1</clus>
<clus scale="   90.494">  7  8 -1 -1</clus>
<clus scale="  103.692">  2  7  1 -1</clus>
<clus scale="  152.883">  1  5  2 -1</clus>
</clustering>
</event>
<event>
 9    1  0.6399313E-006  0.3586722E+03  0.7546771E-02  0.1107911E+00
          2   -1    0    0  502    0 -0.00000000000E+00  0.00000000000E+00  0.19449578836E+03  0.19449578836E+03  0.00000000000E+00 0. -1.
         21   -1    0    0  501  502  0.00000000000E+00 -0.00000000000E+00 -0.29482371036E+03  0.29482371036E+03  0.00000000000E+00 0. -1.
         23    2    1    2    0    0  0.21797997212E+02 -0.25199432188E+02  0.38844602018E+02  0.10459268028E+03  0.91217112410E+02 0.  0.
         23    2    1    2    0    0  0.16655839086E+02  0.12954507738E+03  0.48526487648E+02  0.16655800724E+03  0.91254620288E+02 0.  0.
        -11    1    4    4    0    0 -0.24375379435E+01  0.13760769481E+03  0.35699457949E+02  0.14218393214E+03  0.00000000000E+00 0. -1.
         11    1    4    4    0    0  0.19093377030E+02 -0.80626174256E+01  0.12827029700E+02  0.24374075102E+02  0.00000000000E+00 0.  1.
        -11    1    3    3    0    0  0.35300751799E+02  0.23086800366E+02  0.34081765932E+02  0.54228315461E+02  0.00000000000E+00 0. -1.
         11    1    3    3    0    0 -0.13502754587E+02 -0.48286232554E+02  0.47628360864E+01  0.50364364815E+02  0.00000000000E+00 0.  1.
          2    1    1    2  501    0 -0.38453836298E+02 -0.10434564519E+03 -0.18769901168E+03  0.21816881120E+03  0.00000000000E+00 0. -1.
<scales pt_clust_5="13000.00000" pt_clust_6="13000.00000" pt_clust_7="13000.00000" pt_clust_8="13000.00000" pt_clust_9="13000.00000"></scales>
<clustering>
<clus scale="   91.217">  7  8 -1 -1</clus>
<clus scale="   91.255">  5  6 -1 -1</clus>
<clus scale="   97.112">  1  7  2 -1</clus>
<clus scale="  113.262">  5  9 -1 -1</clus>
<clus scale="  358.672">  2  5  1 -1</clus>
</clustering>
</event>
<event>
 9    1  0.6399313E-006  0.5112375E+03  0.7546771E-02  0.1044450E+00
         -1   -1    0    0    0  501 -0.00000000000E+00  0.00000000000E+00  0.38761875387E+03  0.38761875387E+03  0.00000000000E+00 0.  1.
         21   -1    0    0  501  502  0.00000000000E+00 -0.00000000000E+00 -0.33399624920E+03  0.33399624920E+03  0.00000000000E+00 0. -1.
         23    2    1    2    0    0 -0.16326979079E+03 -0.18866097148E+02  0.91432624122E+02  0.20898122008E+03  0.91105825195E+02 0.  0.
         23    2    1    2    0    0 -0.92648217320E+02 -0.47092421205E+02  0.13824218244E+03  0.19508226587E+03  0.90248552032E+02 0.  0.
        -11    1    4    4    0    0  0.12645099559E+02 -0.27775009683E+02  0.33412222970E+02  0.45251810456E+02  0.00000000000E+00 0.  1.
         11    1    4    4    0    0 -0.10529331688E+03 -0.19317411522E+02  0.10482995947E+03  0.14983045542E+03  0.00000000000E+00 0. -1.
        -13    1    3    3    0    0 -0.81701959326E+02  0.26954178595E+02  0.74705018297E+02  0.11394111488E+03  0.00000000000E+00 0.  1.
         13    1    3    3    0    0 -0.81567831466E+02 -0.45820275743E+02  0.16727605825E+02  0.95040105197E+02  0.00000000000E+00 0. -1.
         -1    1    1    2    0  502  0.25591800811E+03  0.65958518353E+02 -0.17605230189E+03  0.31755151711E+03  0.00000000000E+00 0.  1.
<scales pt_clust_5="13000.00000" pt_clust_6="13000.00000" pt_clust_7="13000.00000" pt_clust_8="13000.00000" pt_clust_9="13000.00000"></scales>
<clustering>
<clus scale="   90.249">  5  6 -1 -1</clus>
<clus scale="   91.106">  7  8 -1 -1</clus>
<clus scale="  187.918">  1  7  2 -1</clus>
<clus scale="  215.867">  5  9 -1 -1</clus>
<clus scale="  511.238">  2  5  1 -1</clus>
</clustering>
</event>
<event>
 9    1  0.6399313E-006  0.1724407E+03  0.7546771E-02  0.1194063E+00
          1   -1    0    0  502    0 -0.00000000000E+00  0.00000000000E+00  0.55624890908E+03  0.55624890908E+03  0.00000000000E+00 0. -1.
         21   -1    0    0  501  502  0.00000000000E+00 -0.00000000000E+00 -0.38640922322E+02  0.38640922322E+02  0.00000000000E+00 0. -1.
         23    2    1    2    0    0 -0.49764466780E+02  0.47259461351E+02  0.27238797543E+03  0.29510880440E+03  0.90465675441E+02 0.  0.
         23    2    1    2    0    0  0.28620605867E+02 -0.79910167874E+02  0.14086060102E+03  0.18840769980E+03  0.91929203287E+02 0.  0.
        -11    1    4    4    0    0 -0.21483877426E+02 -0.65388910621E+02  0.55712898848E+02  0.88550515071E+02  0.00000000000E+00 0.  1.
         11    1    4    4    0    0  0.50104483292E+02 -0.14521257253E+02  0.85147702167E+02  0.99857184732E+02  0.00000000000E+00 0. -1.
        -13    1    3    3    0    0 -0.34378879881E+02 -0.21525741029E+02  0.13082881135E+03  0.13697241616E+03  0.00000000000E+00 0.  1.
         13    1    3    3    0    0 -0.15385586900E+02  0.68785202380E+02  0.14155916408E+03  0.15813638824E+03  0.00000000000E+00 0. -1.
          1    1    1    2  501    0  0.21143860914E+02  0.32650706523E+02  0.10435941031E+03  0.11137332720E+03  0.00000000000E+00 0. -1.
<scales pt_clust_5="13000.00000" pt_clust_6="13000.00000" pt_clust_7="13000.00000" pt_clust_8="13000.00000" pt_clust_9="13000.00000"></scales>
<clustering>
<clus scale="   90.466">  7  8 -1 -1</clus>
<clus scale="   91.929">  5  6 -1 -1</clus>
<clus scale="   38.899">  5  9 -1 -1</clus>
<clus scale="  113.552">  1  7  2 -1</clus>
<clus scale="  172.441">  2  5  1 -1</clus>
</clustering>
</event>
<event>
 9    1  0.6399313E-006  0.1272583E+04  0.7546771E-02  0.9548904E-01
          1   -1    0    0  502    0 -0.00000000000E+00  0.00000000000E+00  0.76454960004E+03  0.76454960004E+03  0.00000000000E+00 0. -1.
         21   -1    0    0  501  502  0.00000000000E+00 -0.00000000000E+00 -0.72352883641E+03  0.72352883641E+03  0.00000000000E+00 0. -1.
         23    2    1    2    0    0  0.18173453762E+03  0.31229370348E+02  0.60946469971E+02  0.21533925030E+03  0.93025828581E+02 0.  0.
         23    2    1    2    0    0 -0.80523164315E+01 -0.33940370726E+03  0.51968011941E+03  0.62751722196E+03  0.91927803405E+02 0.  0.
        -13    1    3    3    0    0  0.32182527798E+01  0.25421906741E+02  0.18914664477E+02  0.31849568687E+02  0.00000000000E+00 0.  1.
         13    1    3    3    0    0  0.17851628484E+03  0.58074636066E+01  0.42031805494E+02  0.18348968162E+03  0.00000000000E+00 0. -1.
        -13    1    4    4    0    0 -0.31638242385E+02 -0.31865689616E+03  0.46911800981E+03  0.56799199200E+03  0.00000000000E+00 0. -1.
         13    1    4    4    0    0  0.23585925953E+02 -0.20746811109E+02  0.50562109601E+02  0.59525229958E+02  0.00000000000E+00 0.  1.
          1    1    1    2  501    0 -0.17368222119E+03  0.30817433692E+03 -0.53960582575E+03  0.64522196419E+03  0.00000000000E+00 0. -1.
<scales pt_clust_5="13000.00000" pt_clust_6="13000.00000" pt_clust_7="13000.00000" pt_clust_8="13000.00000" pt_clust_9="13000.00000"></scales>
<clustering>
<clus scale="   91.928">  7  8 -1 -1</clus>
<clus scale="   93.026">  5  6 -1 -1</clus>
<clus scale="  206.535">  1  5  2 -1</clus>
<clus scale="  348.826">  7  9 -1 -1</clus>
<clus scale=" 1272.583">  2  5  1 -1</clus>
</clustering>
</event>
<event>
 9    1  0.6399313E-006  0.5224291E+03  0.7546771E-02  0.1064913E+00
         21   -1    0    0  501  502  0.00000000000E+00  0.00000000000E+00  0.90876274274E+02  0.90876274274E+02  0.00000000000E+00 0. -1.
          1   -1    0    0  502    0 -0.00000000000E+00 -0.00000000000E+00 -0.11680840671E+04  0.11680840671E+04  0.00000000000E+00 0. -1.
         23    2    1    2    0    0 -0.37079974085E+02 -0.11691941961E+02 -0.34925656509E+03  0.36294409130E+03  0.90755931865E+02 0.  0.
         23    2    1    2    0    0 -0.22914228805E+03  0.59168401578E+02 -0.35940951109E+03  0.43890433380E+03  0.86340776295E+02 0.  0.
        -11    1    3    3    0    0  0.28841103623E+02  0.76969021267E+01 -0.96238373128E+02  0.10076148085E+03  0.00000000000E+00 0.  1.
         11    1    3    3    0    0 -0.65921077707E+02 -0.19388844088E+02 -0.25301819196E+03  0.26218261045E+03  0.00000000000E+00 0. -1.
        -13    1    4    4    0    0 -0.16981226229E+03  0.17306171165E+02 -0.29968062484E+03  0.34488285676E+03  0.00000000000E+00 0.  1.
         13    1    4    4    0    0 -0.59330025767E+02  0.41862230413E+02 -0.59728886245E+02  0.94021477040E+02  0.00000000000E+00 0. -1.
          1    1    1    2  501    0  0.26622226214E+03 -0.47476459617E+02 -0.36854171661E+03  0.45711191623E+03  0.00000000000E+00 0. -1.
<scales pt_clust_5="13000.00000" pt_clust_6="13000.00000" pt_clust_7="13000.00000" pt_clust_8="13000.00000" pt_clust_9="13000.00000"></scales>
<clustering>
<clus scale="   86.341">  7  8 -1 -1</clus>
<clus scale="   90.756">  5  6 -1 -1</clus>
<clus scale="   98.733">  2  5  1 -1</clus>
<clus scale="  253.073">  7  9 -1 -1</clus>
<clus scale="  522.429">  1  5  2 -1</clus>
</clustering>
</event>
<event>
 9    1  0.6399313E-006  0.2913014E+03  0.7546771E-02  0.1105706E+00
         -1   -1    0    0    0  501 -0.00000000000E+00  0.00000000000E+00  0.28827693000E+03  0.28827693000E+03  0.00000000000E+00 0.  1.
         21   -1    0    0  501  502  0.00000000000E+00 -0.00000000000E+00 -0.26809450921E+03  0.26809450921E+03  0.00000000000E+00 0.  1.
         23    2    1    2    0    0 -0.43875844589E+02  0.16253591519E+03  0.14400167186E+03  0.23984702836E+03  0.91908117430E+02 0.  0.
         23    2    1    2    0    0  0.98703153279E+02 -0.59644533220E+02 -0.55456319134E+01  0.15044816555E+03  0.96457833660E+02 0.  0.
        -13    1    3    3    0    0 -0.45227112959E+02  0.13377531578E+03  0.15439648307E+03  0.20923575422E+03  0.00000000000E+00 0.  1.
         13    1    3    3    0    0  0.13512683699E+01  0.28760599406E+02 -0.10394811209E+02  0.30611274140E+02  0.00000000000E+00 0. -1.
        -13    1    4    4    0    0  0.79392830897E+02 -0.11139152885E+02 -0.38265548371E+02  0.88834421915E+02  0.00000000000E+00 0.  1.
         13    1    4    4    0    0  0.19310322382E+02 -0.48505380335E+02  0.32719916458E+02  0.61613743637E+02  0.00000000000E+00 0. -1.
         -1    1    1    2    0  502 -0.54827308689E+02 -0.10289138197E+03 -0.11827361916E+03  0.16607624529E+03  0.00000000000E+00 0.  1.
<scales pt_clust_5="13000.00000" pt_clust_6="13000.00000" pt_clust_7="13000.00000" pt_clust_8="13000.00000" pt_clust_9="13000.00000"></scales>
<clustering>
<clus scale="   91.908">  5  6 -1 -1</clus>
<clus scale="   96.458">  7  8 -1 -1</clus>
<clus scale="  116.588">  7  9 -1 -1</clus>
<clus scale="  191.807">  1  5  2 -1</clus>
<clus scale="  291.301">  2  5  1 -1</clus>
</clustering>
</event>
<event>
 9    1  0.6399313E-006  0.2543653E+03  0.7546771E-02  0.1140620E+00
          1   -1    0    0  502    0 -0.00000000000E+00  0.00000000000E+00  0.85069801416E+02  0.85069801416E+02  0.00000000000E+00 0. -1.
         21   -1    0    0  501  502  0.00000000000E+00 -0.00000000000E+00 -0.45115963135E+03  0.45115963135E+03  0.00000000000E+00 0. -1.
         23    2    1    2    0    0  0.73356710371E+02 -0.22291883622E+02 -0.50813987477E+02  0.13113613431E+03  0.93469189399E+02 0.  0.
         23    2    1    2    0    0 -0.25818579298E+02  0.10409456444E+03 -0.26378538072E+03  0.29737691092E+03  0.85720608276E+02 0.  0.
        -11    1    3    3    0    0  0.68502571235E+02  0.11086230511E+02 -0.64495791100E+02  0.94737605217E+02  0.00000000000E+00 0. -1.
         11    1    3    3    0    0  0.48541391359E+01 -0.33378114132E+02  0.13681803623E+02  0.36398529093E+02  0.00000000000E+00 0.  1.
        -11    1    4    4    0    0  0.31744935420E+02  0.41113904241E+02 -0.96839024134E+02  0.10989035737E+03  0.00000000000E+00 0.  1.
         11    1    4    4    0    0 -0.57563514718E+02  0.62980660195E+02 -0.16694635659E+03  0.18748655355E+03  0.00000000000E+00 0. -1.
          1    1    1    2  501    0 -0.47538131073E+02 -0.81802680815E+02 -0.51490461740E+02  0.10771638754E+03  0.00000000000E+00 0. -1.
<scales pt_clust_5="13000.00000" pt_clust_6="13000.00000" pt_clust_7="13000.00000" pt_clust_8="13000.00000" pt_clust_9="13000.00000"></scales>
<clustering>
<clus scale="   85.721">  7  8 -1 -1</clus>
<clus scale="   93.469">  5  6 -1 -1</clus>
<clus scale="   94.613">  7  9 -1 -1</clus>
<clus scale="  120.891">  1  5  2 -1</clus>
<clus scale="  254.365">  2  5  1 -1</clus>
</clustering>
</event>
<event>
 9    1  0.6399313E-006  0.2953323E+03  0.7546771E-02  0.1098142E+00
         21   -1    0    0  501  502  0.00000000000E+00  0.00000000000E+00  0.22117728161E+03  0.22117728161E+03  0.00000000000E+00 0.  1.
         -3   -1    0    0    0  501 -0.00000000000E+00 -0.00000000000E+00 -0.30603756704E+03  0.30603756704E+03  0.00000000000E+00 0.  1.
         23    2    1    2    0    0  0.77653960895E+02  0.18902075484E+03 -0.54258126511E+02  0.23030128302E+03  0.91300346461E+02 0.  0.
         23    2    1    2    0    0 -0.57688010366E+02 -0.28039224274E+01 -0.19890416273E+02  0.10932334923E+03  0.90665304869E+02 0.  0.
        -11    1    4    4    0    0  0.58451251361E+01 -0.29446625523E+02 -0.26591889179E+02  0.40104835278E+02  0.00000000000E+00 0.  1.
         11    1    4    4    0    0 -0.63533135502E+02  0.26642703096E+02  0.67014729069E+01  0.69218513954E+02  0.00000000000E+00 0. -1.
        -13    1    3    3    0    0  0.42679294692E+02  0.13773012299E+03  0.52765201355E+01  0.14428773558E+03  0.00000000000E+00 0.  1.
         13    1    3    3    0    0  0.34974666203E+02  0.51290631857E+02 -0.59534646646E+02  0.86013547442E+02  0.00000000000E+00 0. -1.
         -3    1    1    2    0  502 -0.19965950529E+02 -0.18621683242E+03 -0.10711742649E+02  0.18759021639E+03  0.00000000000E+00 0.  1.
<scales pt_clust_5="13000.00000" pt_clust_6="13000.00000" pt_clust_7="13000.00000" pt_clust_8="13000.00000" pt_clust_9="13000.00000"></scales>
<clustering>
<clus scale="   90.665">  5  6 -1 -1</clus>
<clus scale="   91.300">  7  8 -1 -1</clus>
<clus scale="  187.284">  5  9 -1 -1</clus>
<clus scale="  223.819">  2  7  1 -1</clus>
<clus scale="  295.332">  1  5  2 -1</clus>
</clustering>
</event>
<event>
 9    1  0.6399313E-006  0.1288563E+03  0.7546771E-02  0.1244929E+00
          1   -1    0    0  502    0 -0.00000000000E+00  0.00000000000E+00  0.33604041431E+03  0.33604041431E+03  0.00000000000E+00 0. -1.
         21   -1    0    0  501  502  0.00000000000E+00 -0.00000000000E+00 -0.46824896731E+02  0.46824896731E+02  0.00000000000E+00 0. -1.
         23    2    1    2    0    0 -0.19592984505E+02 -0.54958352833E+01  0.21440593779E+03  0.23386725592E+03  0.91158641868E+02 0.  0.
         23    2    1    2    0    0  0.26165957316E+02 -0.16812081065E+02  0.34521702209E+02  0.10247966968E+03  0.91340195878E+02 0.  0.
        -13    1    4    4    0    0 -0.78777510662E-01  0.36799073275E+02  0.13331553910E+02  0.39139600528E+02  0.00000000000E+00 0.  1.
         13    1    4    4    0    0  0.26244734827E+02 -0.53611154340E+02  0.21190148299E+02  0.63340069156E+02  0.00000000000E+00 0. -1.
        -13    1    3    3    0    0 -0.27567767483E+02  0.38443419740E+02  0.13063520546E+03  0.13893680301E+03  0.00000000000E+00 0.  1.
         13    1    3    3    0    0  0.79747829774E+01 -0.43939255023E+02  0.83770732331E+02  0.94930452916E+02  0.00000000000E+00 0. -1.
          1    1    1    2  501    0 -0.65729728110E+01  0.22307916348E+02  0.40287877578E+02  0.46518385431E+02  0.00000000000E+00 0. -1.
<scales pt_clust_5="13000.00000" pt_clust_6="13000.00000" pt_clust_7="13000.00000" pt_clust_8="13000.00000" pt_clust_9="13000.00000"></scales>
<clustering>
<clus scale="   91.159">  7  8 -1 -1</clus>
<clus scale="   91.340">  5  6 -1 -1</clus>
<clus scale="   23.256">  5  9 -1 -1</clus>
<clus scale="   93.402">  1  7  2 -1</clus>
<clus scale="  128.856">  2  5  1 -1</clus>
</clustering>
</event>
<event>
 9    1  0.6399313E-006  0.2127399E+03  0.7546771E-02  0.1153348E+00
         -1   -1    0    0    0  501 -0.00000000000E+00  0.00000000000E+00  0.58274963006E+02  0.58274963006E+02  0.00000000000E+00 0.  1.
         21   -1    0    0  501  502  0.00000000000E+00 -0.00000000000E+00 -0.61677311865E+03  0.61677311865E+03  0.00000000000E+00 0.  1.
         23    2    1    2    0    0 -0.89498067636E+00  0.12361101518E+03 -0.32577594164E+03  0.35974204491E+03  0.89464465927E+02 0.  0.
         23    2    1    2    0    0 -0.18070334606E+02 -0.87709005492E+01 -0.50963948503E+02  0.99472762683E+02  0.83030360588E+02 0.  0.
        -13    1    4    4    0    0 -0.40518321949E+02  0.19358829129E+02 -0.43896635078E+02  0.62796602217E+02  0.00000000000E+00 0.  1.
         13    1    4    4    0    0  0.22447987342E+02 -0.28129729678E+02 -0.70673134253E+01  0.36676160466E+02  0.00000000000E+00 0. -1.
        -13    1    3    3    0    0  0.40966492440E+02  0.88949023198E+02 -0.22035718414E+03  0.24113786686E+03  0.00000000000E+00 0.  1.
         13    1    3    3    0    0 -0.41861473117E+02  0.34661991985E+02 -0.10541875750E+03  0.11860417806E+03  0.00000000000E+00 0. -1.
         -1    1    1    2    0  502  0.18965315282E+02 -0.11484011463E+03 -0.18175826550E+03  0.21583327406E+03  0.00000000000E+00 0.  1.
<scales pt_clust_5="13000.00000" pt_clust_6="13000.00000" pt_clust_7="13000.00000" pt_clust_8="13000.00000" pt_clust_9="13000.00000"></scales>
<clustering>
<clus scale="   83.030">  5  6 -1 -1</clus>
<clus scale="   89.464">  7  8 -1 -1</clus>
<clus scale="  116.396">  5  9 -1 -1</clus>
<clus scale="  152.592">  1  7  2 -1</clus>
<clus scale="  212.740">  2  5  1 -1</clus>
</clustering>
</event>
<event>
 9    1  0.6399313E-006  0.3361894E+03  0.7546771E-02  0.1100246E+00
         21   -1    0    0  501  502  0.00000000000E+00  0.00000000000E+00  0.66426036174E+03  0.66426036174E+03  0.00000000000E+00 0. -1.
          1   -1    0    0  502    0 -0.00000000000E+00 -0.00000000000E+00 -0.86803188545E+02  0.86803188545E+02  0.00000000000E+00 0. -1.
         23    2    1    2    0    0  0.70606928192E+02  0.92150131524E+02  0.15901956897E+03  0.21430163613E+03  0.84622590872E+02 0.  0.
         23    2    1    2    0    0 -0.82100211907E+02  0.30120847036E+02  0.30564976048E+02  0.12991124934E+03  0.91076916519E+02 0.  0.
        -11    1    3    3    0    0  0.70956569879E+02  0.26142759765E+02  0.66837555735E+02  0.10092342421E+03  0.00000000000E+00 0.  1.
         11    1    3    3    0    0 -0.34964168647E+00  0.66007371759E+02  0.92182013233E+02  0.11337821193E+03  0.00000000000E+00 0. -1.
        -11    1    4    4    0    0  0.13865218896E+02  0.25244215817E+02  0.15313049671E+02  0.32619077508E+02  0.00000000000E+00 0.  1.
         11    1    4    4    0    0 -0.95965430803E+02  0.48766312186E+01  0.15251926377E+02  0.97292171830E+02  0.00000000000E+00 0. -1.
          1    1    1    2  501    0  0.11493283715E+02 -0.12227097856E+03  0.38787262818E+03  0.40685066482E+03  0.00000000000E+00 0. -1.
<scales pt_clust_5="13000.00000" pt_clust_6="13000.00000" pt_clust_7="13000.00000" pt_clust_8="13000.00000" pt_clust_9="13000.00000"></scales>
<clustering>
<clus scale="   84.623">  5  6 -1 -1</clus>
<clus scale="   91.077">  7  8 -1 -1</clus>
<clus scale="  122.810">  7  9 -1 -1</clus>
<clus scale="  143.659">  2  5  1 -1</clus>
<clus scale="  336.189">  1  5  2 -1</clus>
</clustering>
</event>
<event>
 9    1  0.6399313E-006  0.2362719E+03  0.7546771E-02  0.1156123E+00
         21   -1    0    0  501  502  0.00000000000E+00  0.00000000000E+00  0.23981917418E+03  0.23981917418E+03  0.00000000000E+00 0. -1.
         -1   -1    0    0    0  501 -0.00000000000E+00 -0.00000000000E+00 -0.21437474783E+03  0.21437474783E+03  0.00000000000E+00 0.  1.
         23    2    1    2    0    0  0.49209619292E+02 -0.54512310750E+01 -0.13348956074E+03  0.16944068774E+03  0.91866105198E+02 0.  0.
         23    2    1    2    0    0 -0.13695876942E+02 -0.89400992621E+02  0.58117869524E+02  0.14184746184E+03  0.92535945149E+02 0.  0.
        -11    1    4    4    0    0 -0.87935195624E+01 -0.36857049220E+02  0.76984390982E+02  0.85804222031E+02  0.00000000000E+00 0. -1.
         11    1    4    4    0    0 -0.49023573796E+01 -0.52543943401E+02 -0.18866521458E+02  0.56043239806E+02  0.00000000000E+00 0.  1.
        -13    1    3    3    0    0  0.22636119782E+02 -0.48215606981E+02 -0.78700856852E+02  0.95031381893E+02  0.00000000000E+00 0. -1.
         13    1    3    3    0    0  0.26573499510E+02  0.42764375906E+02 -0.54788703883E+02  0.74409305843E+02  0.00000000000E+00 0.  1.
         -1    1    1    2    0  502 -0.35513742349E+02  0.94852223696E+02  0.10081611756E+03  0.14290577244E+03  0.00000000000E+00 0.  1.
<scales pt_clust_5="13000.00000" pt_clust_6="13000.00000" pt_clust_7="13000.00000" pt_clust_8="13000.00000" pt_clust_9="13000.00000"></scales>
<clustering>
<clus scale="   91.866">  7  8 -1 -1</clus>
<clus scale="   92.536">  5  6 -1 -1</clus>
<clus scale="  101.283">  5  9 -1 -1</clus>
<clus scale="  104.358">  2  7  1 -1</clus>
<clus scale="  236.272">  1  5  2 -1</clus>
</clustering>
</event>
<event>
 9    1  0.6399313E-006  0.1405930E+03  0.7546771E-02  0.1224361E+00
         -1   -1    0    0    0  501 -0.00000000000E+00  0.00000000000E+00  0.69036578271E+02  0.69036578271E+02  0.00000000000E+00 0.  1.
         21   -1    0    0  501  502  0.00000000000E+00 -0.00000000000E+00 -0.40331389036E+03  0.40331389036E+03  0.00000000000E+00 0. -1.
         23    2    1    2    0    0 -0.53355771084E+02 -0.31210671205E+01  0.11592427753E+00  0.10960369769E+03  0.95688963528E+02 0.  0.
         23    2    1    2    0    0  0.30612791236E+02  0.12090195656E+02 -0.31772766463E+03  0.33315910999E+03  0.94661543828E+02 0.  0.
        -13    1    3    3    0    0 -0.14425687419E+01  0.31518380398E+02  0.27118025461E+02  0.41603805264E+02  0.00000000000E+00 0. -1.
         13    1    3    3    0    0 -0.51913202342E+02 -0.34639447518E+02 -0.27002101184E+02  0.67999892427E+02  0.00000000000E+00 0.  1.
        -13    1    4    4    0    0 -0.33637975423E+02  0.70149165479E+01 -0.13837732844E+03  0.14257982841E+03  0.00000000000E+00 0.  1.
         13    1    4    4    0    0  0.64250766658E+02  0.50752791086E+01 -0.17935033620E+03  0.19057928158E+03  0.00000000000E+00 0. -1.
         -1    1    1    2    0  502  0.22742979848E+02 -0.89691285359E+01 -0.16665571732E+02  0.29587660945E+02  0.00000000000E+00 0.  1.
<scales pt_clust_5="13000.00000" pt_clust_6="13000.00000" pt_clust_7="13000.00000" pt_clust_8="13000.00000" pt_clust_9="13000.00000"></scales>
<clustering>
<clus scale="   94.662">  7  8 -1 -1</clus>
<clus scale="   24.448">  7  9 -1 -1</clus>
<clus scale="   95.689">  5  6 -1 -1</clus>
<clus scale="  109.604">  1  5  2 -1</clus>
<clus scale="  140.593">  2  5  1 -1</clus>
</clustering>
</event>
<event>
 9    1  0.6399313E-006  0.3172145E+03  0.7546771E-02  0.1102142E+00
          1   -1    0    0  502    0 -0.00000000000E+00  0.00000000000E+00  0.98635426488E+02  0.98635426488E+02  0.00000000000E+00 0. -1.
         21   -1    0    0  501  502  0.00000000000E+00 -0.00000000000E+00 -0.76738964132E+03  0.76738964132E+03  0.00000000000E+00 0. -1.
         23    2    1    2    0    0 -0.13466435164E+03 -0.60786895459E+01 -0.49377190632E+02  0.17014221570E+03  0.91317186440E+02 0.  0.
         23    2    1    2    0    0  0.60915417461E+02 -0.42222761136E+02 -0.61025938675E+02  0.13061488898E+03  0.88558649440E+02 0.  0.
        -13    1    3    3    0    0 -0.25445976103E+02 -0.21018948608E+01 -0.55072317770E+02  0.60703178223E+02  0.00000000000E+00 0.  1.
         13    1    3    3    0    0 -0.10921837553E+03 -0.39767946851E+01  0.56951271377E+01  0.10943903748E+03  0.00000000000E+00 0. -1.
        -13    1    4    4    0    0  0.89237500548E+01 -0.47055124670E+02 -0.62056518568E+02  0.78388963315E+02  0.00000000000E+00 0. -1.
         13    1    4    4    0    0  0.51991667406E+02  0.48323635339E+01  0.10305798937E+01  0.52225925669E+02  0.00000000000E+00 0.  1.
          1    1    1    2  501    0  0.73748934177E+02  0.48301450682E+02 -0.55835108552E+03  0.56526796312E+03  0.00000000000E+00 0. -1.
<scales pt_clust_5="13000.00000" pt_clust_6="13000.00000" pt_clust_7="13000.00000" pt_clust_8="13000.00000" pt_clust_9="13000.00000"></scales>
<clustering>
<clus scale="   88.559">  7  8 -1 -1</clus>
<clus scale="   88.159">  7  9 -1 -1</clus>
<clus scale="   91.317">  5  6 -1 -1</clus>
<clus scale="  162.820">  1  5  2 -1</clus>
<clus scale="  317.215">  2  5  1 -1</clus>
</clustering>
</event>
<event>
 9    1  0.6399313E-006  0.2467173E+03  0.7546771E-02  0.1120443E+00
         21   -1    0    0  501  502  0.00000000000E+00  0.00000000000E+00  0.23089664892E+03  0.23089664892E+03  0.00000000000E+00 0.  1.
          2   -1    0    0  502    0 -0.00000000000E+00 -0.00000000000E+00 -0.25793275551E+03  0.25793275551E+03  0.00000000000E+00 0. -1.
         23    2    1    2    0    0  0.85146807937E+02  0.17683417336E+03  0.62818161217E+02  0.22625897255E+03  0.93416794589E+02 0.  0.
         23    2    1    2    0    0 -0.14364953316E+02 -0.66850265217E+02 -0.20705865663E+02  0.11462438592E+03  0.89636527889E+02 0.  0.
        -13    1    4    4    0    0 -0.43509744232E+02 -0.34709726852E+02 -0.38556548839E+02  0.67708717604E+02  0.00000000000E+00 0. -1.
         13    1    4    4    0    0  0.29144790916E+02 -0.32140538365E+02  0.17850683176E+02  0.46915668319E+02  0.00000000000E+00 0.  1.
        -13    1    3    3    0    0  0.97968472638E+01  0.81315115569E+02  0.65025596080E+02  0.10457750419E+03  0.00000000000E+00 0.  1.
         13    1    3    3    0    0  0.75349960673E+02  0.95519057788E+02 -0.22074348623E+01  0.12168146836E+03  0.00000000000E+00 0. -1.
          2    1    1    2  501    0 -0.70781854621E+02 -0.10998390814E+03 -0.69148402147E+02  0.14794604595E+03  0.00000000000E+00 0. -1.
<scales pt_clust_5="13000.00000" pt_clust_6="13000.00000" pt_clust_7="13000.00000" pt_clust_8="13000.00000" pt_clust_9="13000.00000"></scales>
<clustering>
<clus scale="   89.637">  5  6 -1 -1</clus>
<clus scale="   93.417">  7  8 -1 -1</clus>
<clus scale="  130.792">  5  9 -1 -1</clus>
<clus scale="  217.364">  2  7  1 -1</clus>
<clus scale="  246.717">  1  5  2 -1</clus>
</clustering>
</event>
<event>
 9    1  0.6399313E-006  0.1859632E+03  0.7546771E-02  0.1173055E+00
         -2   -1    0    0    0  501 -0.00000000000E+00  0.00000000000E+00  0.18781758522E+03  0.18781758522E+03  0.00000000000E+00 0.  1.
         21   -1    0    0  501  502  0.00000000000E+00 -0.00000000000E+00 -0.14821189623E+03  0.14821189623E+03  0.00000000000E+00 0. -1.
         23    2    1    2    0    0  0.10657963113E+03  0.36063217824E+02 -0.47622514781E+01  0.14484679947E+03  0.91094142655E+02 0.  0.
         23    2    1    2    0    0 -0.51739141791E+02 -0.28812010561E+02  0.69359497955E+02  0.13048146929E+03  0.93314538662E+02 0.  0.
        -11    1    4    4    0    0 -0.73595414802E+02 -0.36779848630E+02  0.35985679653E+02  0.89799841232E+02  0.00000000000E+00 0. -1.
         11    1    4    4    0    0  0.21856273011E+02  0.79678380687E+01  0.33373818302E+02  0.40681628059E+02  0.00000000000E+00 0.  1.
        -13    1    3    3    0    0  0.11492859413E+03  0.14471749676E+02  0.11722406577E+02  0.11642778064E+03  0.00000000000E+00 0. -1.
         13    1    3    3    0    0 -0.83489630070E+01  0.21591468148E+02 -0.16484658055E+02  0.28419018830E+02  0.00000000000E+00 0.  1.
         -2    1    1    2    0  502 -0.54840489335E+02 -0.72512072631E+01 -0.24991557487E+02  0.60701212697E+02  0.00000000000E+00 0.  1.
<scales pt_clust_5="13000.00000" pt_clust_6="13000.00000" pt_clust_7="13000.00000" pt_clust_8="13000.00000" pt_clust_9="13000.00000"></scales>
<clustering>
<clus scale="   91.094">  7  8 -1 -1</clus>
<clus scale="   93.315">  5  6 -1 -1</clus>
<clus scale="   55.318">  5  9 -1 -1</clus>
<clus scale="  144.769">  1  7  2 -1</clus>
<clus scale="  185.963">  2  5  1 -1</clus>
</clustering>
</event>
<event>
 9    1  0.6399313E-006  0.1404192E+03  0.7546771E-02  0.1226396E+00
          2   -1    0    0  502    0 -0.00000000000E+00  0.00000000000E+00  0.28515372809E+03  0.28515372809E+03  0.00000000000E+00 0. -1.
         21   -1    0    0  501  502  0.00000000000E+00 -0.00000000000E+00 -0.10040763413E+03  0.10040763413E+03  0.00000000000E+00 0. -1.
         23    2    1    2    0    0 -0.56369038384E+00 -0.50701882316E+02  0.21719601192E+03  0.24144141299E+03  0.92459989696E+02 0.  0.
         23    2    1    2    0    0 -0.84036573988E+01  0.11438477783E+02  0.50237813569E+01  0.89108074136E+02  0.87826819739E+02 0.  0.
        -11    1    3    3    0    0 -0.25732697695E+02 -0.16166357674E+01  0.11065454639E+02  0.28057610879E+02  0.00000000000E+00 0.  1.
         11    1    3    3    0    0  0.25169007311E+02 -0.49085246548E+02  0.20613055728E+03  0.21338380211E+03  0.00000000000E+00 0. -1.
        -13    1    4    4    0    0 -0.25430865981E+02  0.30940482681E+02  0.32336479685E+02  0.51475142851E+02  0.00000000000E+00 0.  1.
         13    1    4    4    0    0  0.17027208582E+02 -0.19502004899E+02 -0.27312698328E+02  0.37632931285E+02  0.00000000000E+00 0. -1.
          2    1    1    2  501    0  0.89673477827E+01  0.39263404533E+02 -0.37473699313E+02  0.55011875100E+02  0.00000000000E+00 0. -1.
<scales pt_clust_5="13000.00000" pt_clust_6="13000.00000" pt_clust_7="13000.00000" pt_clust_8="13000.00000" pt_clust_9="13000.00000"></scales>
<clustering>
<clus scale="   87.827">  7  8 -1 -1</clus>
<clus scale="   40.274">  7  9 -1 -1</clus>
<clus scale="   92.460">  5  6 -1 -1</clus>
<clus scale="  105.451">  1  5  2 -1</clus>
<clus scale="  140.419">  2  5  1 -1</clus>
</clustering>
</event>
<event>
 9    1  0.6399313E-006  0.3866019E+03  0.7546771E-02  0.1093689E+00
         21   -1    0    0  501  502  0.00000000000E+00  0.00000000000E+00  0.41962861292E+03  0.41962861292E+03  0.00000000000E+00 0. -1.
         -1   -1    0    0    0  501 -0.00000000000E+00 -0.00000000000E+00 -0.36646114301E+03  0.36646114301E+03  0.00000000000E+00 0.  1.
         23    2    1    2    0    0  0.27569640454E+02 -0.58770821061E+02 -0.26349810745E+03  0.28635171752E+03  0.91389053033E+02 0.  0.
         23    2    1    2    0    0  0.13187051109E+03 -0.71753658593E+02  0.18291344272E+03  0.25408088864E+03  0.92527570098E+02 0.  0.
        -11    1    4    4    0    0  0.76438154963E+02 -0.75358326662E+02  0.16280182972E+03  0.19500283252E+03  0.00000000000E+00 0. -1.
         11    1    4    4    0    0  0.55432356126E+02  0.36046680689E+01  0.20111613006E+02  0.59078056123E+02  0.00000000000E+00 0.  1.
        -11    1    3    3    0    0  0.34455406216E+02  0.15182521429E+02 -0.96290964649E+02  0.10339068550E+03  0.00000000000E+00 0.  1.
         11    1    3    3    0    0 -0.68857657626E+01 -0.73953342490E+02 -0.16720714280E+03  0.18296103202E+03  0.00000000000E+00 0. -1.
         -1    1    1    2    0  502 -0.15944015154E+03  0.13052447965E+03  0.13375213464E+03  0.24565714977E+03  0.00000000000E+00 0.  1.
<scales pt_clust_5="13000.00000" pt_clust_6="13000.00000" pt_clust_7="13000.00000" pt_clust_8="13000.00000" pt_clust_9="13000.00000"></scales>
<clustering>
<clus scale="   91.389">  7  8 -1 -1</clus>
<clus scale="   92.528">  5  6 -1 -1</clus>
<clus scale="  112.098">  2  7  1 -1</clus>
<clus scale="  171.116">  5  9 -1 -1</clus>
<clus scale="  386.602">  1  5  2 -1</clus>
</clustering>
</event>
<event>
 9    1  0.6399313E-006  0.2799135E+03  0.7546771E-02  0.1137709E+00
          2   -1    0    0  502    0 -0.00000000000E+00  0.00000000000E+00  0.15141853064E+03  0.15141853064E+03  0.00000000000E+00 0. -1.
         21   -1    0    0  501  502  0.00000000000E+00 -0.00000000000E+00 -0.29034164311E+03  0.29034164311E+03  0.00000000000E+00 0. -1.
         23    2    1    2    0    0  0.11187055555E+02  0.23097825486E+02  0.44588139183E+02  0.10705445003E+03  0.93882337852E+02 0.  0.
         23    2    1    2    0    0  0.89360430907E+02 -0.86175403588E+02 -0.13815960902E+03  0.20764137238E+03  0.92819045275E+02 0.  0.
        -11    1    3    3    0    0 -0.34463377390E+02  0.34332549781E+02  0.12794901192E+02  0.50300674470E+02  0.00000000000E+00 0.  1.
         11    1    3    3    0    0  0.45650432945E+02 -0.11234724294E+02  0.31793237991E+02  0.56753775557E+02  0.00000000000E+00 0. -1.
        -13    1    4    4    0    0  0.93421873407E+02 -0.43338500738E+02 -0.12638426750E+03  0.16303022771E+03  0.00000000000E+00 0. -1.
         13    1    4    4    0    0 -0.40614424998E+01 -0.42836902850E+02 -0.11775341521E+02  0.44611144671E+02  0.00000000000E+00 0.  1.
          2    1    1    2  501    0 -0.10054748646E+03  0.63077578102E+02 -0.45351642638E+02  0.12706435135E+03  0.00000000000E+00 0. -1.
<scales pt_clust_5="13000.00000" pt_clust_6="13000.00000" pt_clust_7="13000.00000" pt_clust_8="13000.00000" pt_clust_9="13000.00000"></scales>
<clustering>
<clus scale="   92.819">  7  8 -1 -1</clus>
<clus scale="   93.882">  5  6 -1 -1</clus>
<clus scale="   97.327">  1  5  2 -1</clus>
<clus scale="  120.996">  7  9 -1 -1</clus>
<clus scale="  279.913">  2  5  1 -1</clus>
</clustering>
</event>
<event>
 9    1  0.6399313E-006  0.2554680E+03  0.7546771E-02  0.1129548E+00
          1   -1    0    0  502    0 -0.00000000000E+00  0.00000000000E+00  0.19633972771E+03  0.19633972771E+03  0.00000000000E+00 0. -1.
         21   -1    0    0  501  502  0.00000000000E+00 -0.00000000000E+00 -0.52680792720E+03  0.52680792720E+03  0.00000000000E+00 0. -1.
         23    2    1    2    0    0 -0.36652197973E+02 -0.12326050286E+03  0.12556248991E+03  0.20043559479E+03  0.88724030579E+02 0.  0.
         23    2    1    2    0    0  0.55953948977E+02 -0.70294088383E+01 -0.11871473438E+03  0.16059319539E+03  0.92286127089E+02 0.  0.
        -13    1    4    4    0    0  0.55632945077E+02  0.35241079463E+02 -0.73993220241E+02  0.99055312332E+02  0.00000000000E+00 0. -1.
         13    1    4    4    0    0  0.32100390040E+00 -0.42270488302E+02 -0.44721514137E+02  0.61537883059E+02  0.00000000000E+00 0.  1.
        -13    1    3    3    0    0  0.20250916725E+02 -0.82678649881E+02  0.56424658205E+02  0.10212541715E+03  0.00000000000E+00 0.  1.
         13    1    3    3    0    0 -0.56903114699E+02 -0.40581852982E+02  0.69137831708E+02  0.98310177638E+02  0.00000000000E+00 0. -1.
          1    1    1    2  501    0 -0.19301751004E+02  0.13028991170E+03 -0.33731595502E+03  0.36211886473E+03  0.00000000000E+00 0. -1.
<scales pt_clust_5="13000.00000" pt_clust_6="13000.00000" pt_clust_7="13000.00000" pt_clust_8="13000.00000" pt_clust_9="13000.00000"></scales>
<clustering>
<clus scale="   88.724">  7  8 -1 -1</clus>
<clus scale="   92.286">  5  6 -1 -1</clus>
<clus scale="  131.712">  5  9 -1 -1</clus>
<clus scale="  156.232">  1  7  2 -1</clus>
<clus scale="  255.468">  2  5  1 -1</clus>
</clustering>
</event>
<event>
 9    1  0.6399313E-006  0.4044730E+03  0.7546771E-02  0.1046309E+00
         21   -1    0    0  501  502  0.00000000000E+00  0.00000000000E+00  0.28780065312E+03  0.28780065312E+03  0.00000000000E+00 0.  1.
          3   -1    0    0  502    0 -0.00000000000E+00 -0.00000000000E+00 -0.52079375321E+03  0.52079375321E+03  0.00000000000E+00 0. -1.
         23    2    1    2    0    0 -0.61745109457E+02  0.34332890895E+03 -0.44741730477E+02  0.36245880279E+03  0.87677608357E+02 0.  0.
         23    2    1    2    0    0 -0.80443154674E+00 -0.73605423543E+02 -0.10650062619E+03  0.15743785899E+03  0.89587334914E+02 0.  0.
        -11    1    3    3    0    0 -0.22775204866E+02  0.93178373663E+02 -0.52152729269E+02  0.10918253727E+03  0.00000000000E+00 0. -1.
         11    1    3    3    0    0 -0.38969904591E+02  0.25015053529E+03  0.74109987920E+01  0.25327626552E+03  0.00000000000E+00 0.  1.
        -13    1    4    4    0    0  0.11034878164E+02  0.19096090851E+02 -0.25982056719E+02  0.34080734928E+02  0.00000000000E+00 0. -1.
         13    1    4    4    0    0 -0.11839309711E+02 -0.92701514394E+02 -0.80518569476E+02  0.12335712406E+03  0.00000000000E+00 0.  1.
          3    1    1    2  501    0  0.62549541003E+02 -0.26972348541E+03 -0.81750743421E+02  0.28869774456E+03  0.00000000000E+00 0. -1.
<scales pt_clust_5="13000.00000" pt_clust_6="13000.00000" pt_clust_7="13000.00000" pt_clust_8="13000.00000" pt_clust_9="13000.00000"></scales>
<clustering>
<clus scale="   87.678">  5  6 -1 -1</clus>
<clus scale="   89.587">  7  8 -1 -1</clus>
<clus scale="  276.881">  7  9 -1 -1</clus>
<clus scale="  359.687">  2  5  1 -1</clus>
<clus scale="  404.473">  1  5  2 -1</clus>
</clustering>
</event>
<event>
 9    1  0.6399313E-006  0.1508306E+03  0.7546771E-02  0.1216562E+00
          4   -1    0    0  502    0 -0.00000000000E+00  0.00000000000E+00  0.44281990750E+02  0.44281990750E+02  0.00000000000E+00 0. -1.
         21   -1    0    0  501  502  0.00000000000E+00 -0.00000000000E+00 -0.47475546973E+03  0.47475546973E+03  0.00000000000E+00 0.  1.
         23    2    1    2    0    0  0.39979364667E+02  0.24512602003E+02 -0.63608196235E+02  0.12237639019E+03  0.93438541247E+02 0.  0.
         23    2    1    2    0    0 -0.19566103822E+02  0.25854871142E+02 -0.20981245559E+03  0.23047089583E+03  0.89689801686E+02 0.  0.
        -11    1    4    4    0    0 -0.47561033216E+02 -0.41367236619E+01 -0.69751764493E+02  0.84524984550E+02  0.00000000000E+00 0. -1.
         11    1    4    4    0    0  0.27994929395E+02  0.29991594804E+02 -0.14006069109E+03  0.14594591128E+03  0.00000000000E+00 0.  1.
        -11    1    3    3    0    0 -0.65260608867E+01 -0.19075211797E+02  0.12019237008E+02  0.23471583544E+02  0.00000000000E+00 0. -1.
         11    1    3    3    0    0  0.46505425554E+02  0.43587813800E+02 -0.75627433244E+02  0.98904806642E+02  0.00000000000E+00 0.  1.
          4    1    1    2  501    0 -0.20413260845E+02 -0.50367473145E+02 -0.15705282715E+03  0.16619017446E+03  0.00000000000E+00 0. -1.
<scales pt_clust_5="13000.00000" pt_clust_6="13000.00000" pt_clust_7="13000.00000" pt_clust_8="13000.00000" pt_clust_9="13000.00000"></scales>
<clustering>
<clus scale="   89.690">  5  6 -1 -1</clus>
<clus scale="   54.347">  5  9 -1 -1</clus>
<clus scale="   93.439">  7  8 -1 -1</clus>
<clus scale="  104.547">  1  7  2 -1</clus>
<clus scale="  150.831">  2  5  1 -1</clus>
</clustering>
</event>
<event>
 9    1  0.6399313E-006  0.2357674E+03  0.7546771E-02  0.1124441E+00
         21   -1    0    0  501  502  0.00000000000E+00  0.00000000000E+00  0.43192858456E+02  0.43192858456E+02  0.00000000000E+00 0. -1.
          2   -1    0    0  502    0 -0.00000000000E+00 -0.00000000000E+00 -0.15342189490E+04  0.15342189490E+04  0.00000000000E+00 0. -1.
         23    2    1    2    0    0  0.19863127954E+03  0.52378816221E+02 -0.38181094400E+03  0.44341686795E+03  0.92956959002E+02 0.  0.
         23    2    1    2    0    0 -0.15191098655E+03 -0.20179123869E+02 -0.79213969156E+03  0.81188245896E+03  0.90463757158E+02 0.  0.
        -11    1    3    3    0    0  0.18287497740E+03  0.73240652017E+02 -0.35483401701E+03  0.40585050215E+03  0.00000000000E+00 0. -1.
         11    1    3    3    0    0  0.15756302142E+02 -0.20861835797E+02 -0.26976926991E+02  0.37566365806E+02  0.00000000000E+00 0.  1.
        -13    1    4    4    0    0 -0.14585541386E+03  0.94401545444E+01 -0.61110766499E+03  0.62834345424E+03  0.00000000000E+00 0. -1.
         13    1    4    4    0    0 -0.60555726922E+01 -0.29619278413E+02 -0.18103202656E+03  0.18353900472E+03  0.00000000000E+00 0.  1.
          2    1    1    2  501    0 -0.46720292987E+02 -0.32199692352E+02 -0.31707545501E+03  0.32211248056E+03  0.00000000000E+00 0. -1.
<scales pt_clust_5="13000.00000" pt_clust_6="13000.00000" pt_clust_7="13000.00000" pt_clust_8="13000.00000" pt_clust_9="13000.00000"></scales>
<clustering>
<clus scale="   90.464">  7  8 -1 -1</clus>
<clus scale="   56.742">  7  9 -1 -1</clus>
<clus scale="   92.957">  5  6 -1 -1</clus>
<clus scale="  225.475">  2  5  1 -1</clus>
<clus scale="  235.767">  1  5  2 -1</clus>
</clustering>
</event>
<event>
 9    1  0.6399313E-006  0.2211298E+03  0.7546771E-02  0.1162969E+00
          1   -1    0    0  502    0 -0.00000000000E+00  0.00000000000E+00  0.53577918317E+03  0.53577918317E+03  0.00000000000E+00 0. -1.
         21   -1    0    0  501  502  0.00000000000E+00 -0.00000000000E+00 -0.68630011741E+02  0.68630011741E+02  0.00000000000E+00 0. -1.
         23    2    1    2    0    0 -0.15864443767E+02 -0.58366043196E+02  0.32224602812E+03  0.34003198175E+03  0.90116426920E+02 0.  0.
         23    2    1    2    0    0 -0.65623919718E+02  0.58461448679E+02  0.12049081754E+03  0.17931062668E+03  0.99549103003E+02 0.  0.
        -11    1    3    3    0    0 -0.29613802113E+02  0.12107951364E+02  0.58389083869E+02  0.66579763269E+02  0.00000000000E+00 0.  1.
         11    1    3    3    0    0  0.13749358346E+02 -0.70473994560E+02  0.26385694425E+03  0.27345221849E+03  0.00000000000E+00 0. -1.
        -13    1    4    4    0    0 -0.14922368358E+02  0.56503223971E+02  0.11406707887E+03  0.12816625873E+03  0.00000000000E+00 0. -1.
         13    1    4    4    0    0 -0.50701551360E+02  0.19582247080E+01  0.64237386735E+01  0.51144367949E+02  0.00000000000E+00 0.  1.
          1    1    1    2  501    0  0.81488363484E+02 -0.95405482912E-01  0.24412325771E+02  0.85066586479E+02  0.00000000000E+00 0. -1.
<scales pt_clust_5="13000.00000" pt_clust_6="13000.00000" pt_clust_7="13000.00000" pt_clust_8="13000.00000" pt_clust_9="13000.00000"></scales>
<clustering>
<clus scale="   90.116">  5  6 -1 -1</clus>
<clus scale="   99.549">  7  8 -1 -1</clus>
<clus scale="   81.488">  7  9 -1 -1</clus>
<clus scale="  108.532">  1  5  2 -1</clus>
<clus scale="  221.130">  2  5  1 -1</clus>
</clustering>
</event>
<event>
 9    1  0.6399313E-006  0.2979489E+03  0.7546771E-02  0.1089397E+00
         21   -1    0    0  501  502  0.00000000000E+00  0.00000000000E+00  0.43221504541E+02  0.43221504541E+02  0.00000000000E+00 0. -1.
          1   -1    0    0  502    0 -0.00000000000E+00 -0.00000000000E+00 -0.21162874940E+04  0.21162874940E+04  0.00000000000E+00 0. -1.
         23    2    1    2    0    0 -0.15825362775E+03  0.20338238302E+03 -0.13480574191E+04  0.13756652778E+04  0.93741917071E+02 0.  0.
         23    2    1    2    0    0  0.12746051634E+03 -0.97249147588E+02 -0.50007164835E+03  0.53322628666E+03  0.92493455774E+02 0.  0.
        -11    1    3    3    0    0 -0.16980281250E+03  0.17713100678E+03 -0.12209875127E+04  0.12453990906E+04  0.00000000000E+00 0. -1.
         11    1    3    3    0    0  0.11549184752E+02  0.26251376241E+02 -0.12706990636E+03  0.13026618719E+03  0.00000000000E+00 0.  1.
        -13    1    4    4    0    0  0.10673929432E+03 -0.11562377854E+03 -0.42139829975E+03  0.44982070000E+03  0.00000000000E+00 0.  1.
         13    1    4    4    0    0  0.20721222024E+02  0.18374630956E+02 -0.78673348606E+02  0.83405586658E+02  0.00000000000E+00 0. -1.
          1    1    1    2  501    0  0.30793111403E+02 -0.10613323543E+03 -0.22493692207E+03  0.25061743412E+03  0.00000000000E+00 0. -1.
<scales pt_clust_5="13000.00000" pt_clust_6="13000.00000" pt_clust_7="13000.00000" pt_clust_8="13000.00000" pt_clust_9="13000.00000"></scales>
<clustering>
<clus scale="   92.493">  7  8 -1 -1</clus>
<clus scale="   93.742">  5  6 -1 -1</clus>
<clus scale="  110.510">  7  9 -1 -1</clus>
<clus scale="  274.219">  2  5  1 -1</clus>
<clus scale="  297.949">  1  5  2 -1</clus>
</clustering>
</event>
<event>
 9    1  0.6399313E-006  0.3797968E+03  0.7546771E-02  0.1097083E+00
         -1   -1    0    0    0  501 -0.00000000000E+00  0.00000000000E+00  0.15666371830E+03  0.15666371830E+03  0.00000000000E+00 0.  1.
         21   -1    0    0  501  502  0.00000000000E+00 -0.00000000000E+00 -0.76147520781E+03  0.76147520781E+03  0.00000000000E+00 0.  1.
         23    2    1    2    0    0  0.55914219557E+02  0.10520977524E+02  0.80346841627E+02  0.13475682132E+03  0.92014645655E+02 0.  0.
         23    2    1    2    0    0 -0.16401616250E+03 -0.10007062291E+03 -0.54509835967E+03  0.58508443798E+03  0.90973329735E+02 0.  0.
        -13    1    4    4    0    0 -0.33549292411E+02 -0.69556741733E+02 -0.16828368068E+03  0.18515694026E+03  0.00000000000E+00 0.  1.
         13    1    4    4    0    0 -0.13046687009E+03 -0.30513881179E+02 -0.37681467898E+03  0.39992749772E+03  0.00000000000E+00 0. -1.
        -13    1    3    3    0    0 -0.15364614302E+02  0.29568722057E+02  0.16485469102E+02  0.37177296677E+02  0.00000000000E+00 0.  1.
         13    1    3    3    0    0  0.71278833859E+02 -0.19047744532E+02  0.63861372525E+02  0.97579524639E+02  0.00000000000E+00 0. -1.
         -1    1    1    2    0  502  0.10810194294E+03  0.89549645388E+02 -0.14005997147E+03  0.19829766682E+03  0.00000000000E+00 0.  1.
<scales pt_clust_5="13000.00000" pt_clust_6="13000.00000" pt_clust_7="13000.00000" pt_clust_8="13000.00000" pt_clust_9="13000.00000"></scales>
<clustering>
<clus scale="   90.973">  5  6 -1 -1</clus>
<clus scale="   92.015">  7  8 -1 -1</clus>
<clus scale="  108.184">  1  7  2 -1</clus>
<clus scale="  170.669">  5  9 -1 -1</clus>
<clus scale="  379.797">  2  5  1 -1</clus>
</clustering>
</event>
<event>
 9    1  0.6399313E-006  0.1613392E+03  0.7546771E-02  0.1201609E+00
         21   -1    0    0  501  502  0.00000000000E+00  0.00000000000E+00  0.21991655755E+03  0.21991655755E+03  0.00000000000E+00 0. -1.
          2   -1    0    0  502    0 -0.00000000000E+00 -0.00000000000E+00 -0.18270463814E+03  0.18270463814E+03  0.00000000000E+00 0. -1.
         23    2    1    2    0    0  0.63532319133E+02  0.37138638318E+02 -0.12652864340E+03  0.17274884553E+03  0.91744384023E+02 0.  0.
         23    2    1    2    0    0 -0.10600416867E+02 -0.48731609654E+02  0.12448218241E+03  0.16295894572E+03  0.92588690643E+02 0.  0.
        -11    1    4    4    0    0  0.23803525377E+02 -0.24258159523E+02  0.27320074993E+01  0.34095894017E+02  0.00000000000E+00 0.  1.
         11    1    4    4    0    0 -0.34403942244E+02 -0.24473450131E+02  0.12175017491E+03  0.12886305170E+03  0.00000000000E+00 0. -1.
        -11    1    3    3    0    0  0.50885107736E+02  0.36892785863E+01 -0.11512228621E+02  0.52301399346E+02  0.00000000000E+00 0.  1.
         11    1    3    3    0    0  0.12647211397E+02  0.33449359732E+02 -0.11501641478E+03  0.12044744618E+03  0.00000000000E+00 0. -1.
          2    1    1    2  501    0 -0.52931902266E+02  0.11592971336E+02  0.39258380404E+02  0.66913404440E+02  0.00000000000E+00 0. -1.
<scales pt_clust_5="13000.00000" pt_clust_6="13000.00000" pt_clust_7="13000.00000" pt_clust_8="13000.00000" pt_clust_9="13000.00000"></scales>
<clustering>
<clus scale="   91.744">  7  8 -1 -1</clus>
<clus scale="   92.589">  5  6 -1 -1</clus>
<clus scale="   54.187">  5  9 -1 -1</clus>
<clus scale="  117.612">  2  7  1 -1</clus>
<clus scale="  161.339">  1  5  2 -1</clus>
</clustering>
</event>
<event>
 9    1  0.6399313E-006  0.1494514E+03  0.7546771E-02  0.1205625E+00
         21   -1    0    0  501  502  0.00000000000E+00  0.00000000000E+00  0.49102444910E+03  0.49102444910E+03  0.00000000000E+00 0.  1.
         -2   -1    0    0    0  501 -0.00000000000E+00 -0.00000000000E+00 -0.58126592552E+02  0.58126592552E+02  0.00000000000E+00 0.  1.
         23    2    1    2    0    0  0.74787376702E+02  0.70057869035E+02  0.61806761457E+02  0.14909564568E+03  0.88927943138E+02 0.  0.
         23    2    1    2    0    0 -0.41156691159E+02 -0.19863921337E+02  0.18957470371E+03  0.20874764460E+03  0.74488671899E+02 0.  0.
        -11    1    4    4    0    0 -0.43072489790E+02 -0.44913856934E+02  0.13778680340E+03  0.15118762222E+03  0.00000000000E+00 0. -1.
         11    1    4    4    0    0  0.19157986318E+01  0.25049935597E+02  0.51787900312E+02  0.57560022381E+02  0.00000000000E+00 0.  1.
        -13    1    3    3    0    0  0.69329784237E+02  0.90703910898E+02  0.49373685388E+02  0.12438480310E+03  0.00000000000E+00 0.  1.
         13    1    3    3    0    0  0.54575924654E+01 -0.20646041864E+02  0.12433076070E+02  0.24710842574E+02  0.00000000000E+00 0. -1.
         -2    1    1    2    0  502 -0.33630685544E+02 -0.50193947698E+02  0.18151639138E+03  0.19130775137E+03  0.00000000000E+00 0.  1.
<scales pt_clust_5="13000.00000" pt_clust_6="13000.00000" pt_clust_7="13000.00000" pt_clust_8="13000.00000" pt_clust_9="13000.00000"></scales>
<clustering>
<clus scale="   74.489">  5  6 -1 -1</clus>
<clus scale="   60.419">  5  9 -1 -1</clus>
<clus scale="   88.928">  7  8 -1 -1</clus>
<clus scale="  135.681">  2  7  1 -1</clus>
<clus scale="  149.451">  1  5  2 -1</clus>
</clustering>
</event>
<event>
 9    1  0.6399313E-006  0.1436574E+03  0.7546771E-02  0.1230338E+00
         21   -1    0    0  501  502  0.00000000000E+00  0.00000000000E+00  0.29050284921E+02  0.29050284921E+02  0.00000000000E+00 0. -1.
         -1   -1    0    0    0  501 -0.00000000000E+00 -0.00000000000E+00 -0.47336585041E+03  0.47336585041E+03  0.00000000000E+00 0.  1.
         23    2    1    2    0    0 -0.10078279656E+02  0.49449105392E+01 -0.17975493642E+03  0.20136834678E+03  0.90063033804E+02 0.  0.
         23    2    1    2    0    0  0.40106371952E+02  0.22447235296E+02 -0.17421160012E+03  0.20197729338E+03  0.91283875802E+02 0.  0.
        -11    1    4    4    0    0 -0.67112859457E+01 -0.28015759308E+02 -0.27074128945E+02  0.39533942211E+02  0.00000000000E+00 0. -1.
         11    1    4    4    0    0  0.46817657898E+02  0.50462994603E+02 -0.14713747118E+03  0.16244335117E+03  0.00000000000E+00 0.  1.
        -13    1    3    3    0    0 -0.16516623387E+02  0.44729146451E+02 -0.12159497542E+03  0.13060946918E+03  0.00000000000E+00 0.  1.
         13    1    3    3    0    0  0.64383437304E+01 -0.39784235912E+02 -0.58159960994E+02  0.70758877605E+02  0.00000000000E+00 0. -1.
         -1    1    1    2    0  502 -0.30028092296E+02 -0.27392145835E+02 -0.90349028942E+02  0.99070495159E+02  0.00000000000E+00 0.  1.
<scales pt_clust_5="13000.00000" pt_clust_6="13000.00000" pt_clust_7="13000.00000" pt_clust_8="13000.00000" pt_clust_9="13000.00000"></scales>
<clustering>
<clus scale="   90.063">  7  8 -1 -1</clus>
<clus scale="   90.760">  2  7  1 -1</clus>
<clus scale="   91.284">  5  6 -1 -1</clus>
<clus scale="   42.168">  5  9 -1 -1</clus>
<clus scale="  143.657">  1  5  2 -1</clus>
</clustering>
</event>
<event>
 9    1  0.6399313E-006  0.2148772E+03  0.7546771E-02  0.1159305E+00
         -1   -1    0    0    0  501 -0.00000000000E+00  0.00000000000E+00  0.10363611005E+03  0.10363611005E+03  0.00000000000E+00 0.  1.
         21   -1    0    0  501  502  0.00000000000E+00 -0.00000000000E+00 -0.36719143225E+03  0.36719143225E+03  0.00000000000E+00 0. -1.
         23    2    1    2    0    0 -0.26325607626E+02  0.88251194052E+02  0.25224623710E+01  0.12881936405E+03  0.90037519226E+02 0.  0.
         23    2    1    2    0    0  0.49153311539E+02 -0.10319486671E+03 -0.14346606756E+03  0.21639746785E+03  0.11480471681E+03 0.  0.
        -13    1    4    4    0    0  0.15670620147E+02 -0.12039334190E+03 -0.90543323866E+02  0.15145368469E+03  0.00000000000E+00 0. -1.
         13    1    4    4    0    0  0.33482691392E+02  0.17198475187E+02 -0.52922743692E+02  0.64943783163E+02  0.00000000000E+00 0.  1.
        -13    1    3    3    0    0 -0.14067594424E+02  0.10428829233E+03 -0.89307597410E+01  0.10561109600E+03  0.00000000000E+00 0.  1.
         13    1    3    3    0    0 -0.12258013202E+02 -0.16037098276E+02  0.11453222112E+02  0.23208268042E+02  0.00000000000E+00 0. -1.
         -1    1    1    2    0  502 -0.22827703913E+02  0.14943672663E+02 -0.12261171701E+03  0.12561071040E+03  0.00000000000E+00 0.  1.
<scales pt_clust_5="13000.00000" pt_clust_6="13000.00000" pt_clust_7="13000.00000" pt_clust_8="13000.00000" pt_clust_9="13000.00000"></scales>
<clustering>
<clus scale="   90.038">  7  8 -1 -1</clus>
<clus scale="  114.805">  5  6 -1 -1</clus>
<clus scale="   27.284">  5  9 -1 -1</clus>
<clus scale="  128.795">  1  7  2 -1</clus>
<clus scale="  214.877">  2  5  1 -1</clus>
</clustering>
</event>
<event>
 9    1  0.7860673E-006  0.3803549E+03  0.7546771E-02  0.1064306E+00
         21   -1    0    0  501  502  0.00000000000E+00  0.00000000000E+00  0.34993759424E+03  0.34993759424E+03  0.00000000000E+00 0.  1.
          2   -1    0    0  502    0 -0.00000000000E+00 -0.00000000000E+00 -0.35773042108E+03  0.35773042108E+03  0.00000000000E+00 0. -1.
         23    2    1    2    0    0  0.11201020478E+03 -0.21597769861E+03  0.14489262344E+03  0.29781105559E+03  0.92222015967E+02 0.  0.
         23    2    1    2    0    0 -0.22086191575E+02  0.75442950749E+01 -0.15658679425E+03  0.18281944665E+03  0.91426526194E+02 0.  0.
        -13    1    4    4    0    0 -0.13642042061E+02  0.49521767170E+02 -0.90894218985E+02  0.10440435709E+03  0.00000000000E+00 0. -1.
         13    1    4    4    0    0 -0.84441495135E+01 -0.41977472095E+02 -0.65692575265E+02  0.78415089552E+02  0.00000000000E+00 0.  1.
        -13    1    3    3    0    0  0.47573513795E+02 -0.17242782498E+03  0.77643729345E+02  0.19499523776E+03  0.00000000000E+00 0.  1.
         13    1    3    3    0    0  0.64436690981E+02 -0.43549873634E+02  0.67248894097E+02  0.10281581783E+03  0.00000000000E+00 0. -1.
          2    1    1    2  501    0 -0.89924013201E+02  0.20843340354E+03  0.39013439664E+01  0.22703751308E+03  0.00000000000E+00 0. -1.
<scales pt_clust_5="13000.00000" pt_clust_6="13000.00000" pt_clust_7="13000.00000" pt_clust_8="13000.00000" pt_clust_9="13000.00000"></scales>
<clustering>
<clus scale="   91.427">  5  6 -1 -1</clus>
<clus scale="   92.222">  7  8 -1 -1</clus>
<clus scale="  227.004">  5  9 -1 -1</clus>
<clus scale="  260.188">  2  7  1 -1</clus>
<clus scale="  380.355">  1  5  2 -1</clus>
</clustering>
</event>
<event>
 9    1  0.6399313E-006  0.2054078E+03  0.7546771E-02  0.1162855E+00
         21   -1    0    0  501  502  0.00000000000E+00  0.00000000000E+00  0.91485414317E+02  0.91485414317E+02  0.00000000000E+00 0. -1.
          2   -1    0    0  502    0 -0.00000000000E+00 -0.00000000000E+00 -0.71212939785E+03  0.71212939785E+03  0.00000000000E+00 0. -1.
         23    2    1    2    0    0  0.50879311666E+02 -0.54113027201E+02 -0.57812442011E+03  0.59385242316E+03  0.11364827891E+03 0.  0.
         23    2    1    2    0    0 -0.10305548809E+02  0.19484028959E+02  0.49170013157E+02  0.10368517088E+03  0.88583817630E+02 0.  0.
        -13    1    4    4    0    0 -0.49031704782E+02  0.18840486532E+02  0.29533631492E+02  0.60260330199E+02  0.00000000000E+00 0.  1.
         13    1    4    4    0    0  0.38726155973E+02  0.64354242678E+00  0.19636381665E+02  0.43424840681E+02  0.00000000000E+00 0. -1.
        -13    1    3    3    0    0 -0.31766433672E+02 -0.19582281227E+02 -0.87598441380E+02  0.95215854659E+02  0.00000000000E+00 0.  1.
         13    1    3    3    0    0  0.82645745337E+02 -0.34530745973E+02 -0.49052597873E+03  0.49863656850E+03  0.00000000000E+00 0. -1.
          2    1    1    2  501    0 -0.40573762857E+02  0.34628998242E+02 -0.91689576582E+02  0.10607721813E+03  0.00000000000E+00 0. -1.
<scales pt_clust_5="13000.00000" pt_clust_6="13000.00000" pt_clust_7="13000.00000" pt_clust_8="13000.00000" pt_clust_9="13000.00000"></scales>
<clustering>
<clus scale="   88.584">  5  6 -1 -1</clus>
<clus scale="   53.342">  5  9 -1 -1</clus>
<clus scale="  113.648">  7  8 -1 -1</clus>
<clus scale="  135.768">  2  7  1 -1</clus>
<clus scale="  205.408">  1  5  2 -1</clus>
</clustering>
</event>
<event>
 9    1  0.6399313E-006  0.1380182E+03  0.7546771E-02  0.1228539E+00
          1   -1    0    0  502    0 -0.00000000000E+00  0.00000000000E+00  0.25497330607E+03  0.25497330607E+03  0.00000000000E+00 0. -1.
         21   -1    0    0  501  502  0.00000000000E+00 -0.00000000000E+00 -0.58809535288E+02  0.58809535288E+02  0.00000000000E+00 0.  1.
         23    2    1    2    0    0 -0.36127214028E+01  0.33328153361E+02  0.73922280619E+02  0.12941359597E+03  0.10079463125E+03 0.  0.
         23    2    1    2    0    0 -0.61207448484E+01 -0.12418854678E+02  0.13074897292E+03  0.15978639772E+03  0.90800371734E+02 0.  0.
        -11    1    4    4    0    0 -0.68922463985E+01 -0.44930412436E+02  0.31390989059E+02  0.55241643859E+02  0.00000000000E+00 0.  1.
         11    1    4    4    0    0  0.77150155013E+00  0.32511557758E+02  0.99357983861E+02  0.10454475386E+03  0.00000000000E+00 0. -1.
        -13    1    3    3    0    0 -0.28552172885E+02  0.14839331256E+01  0.83148604965E+02  0.87926782845E+02  0.00000000000E+00 0. -1.
         13    1    3    3    0    0  0.24939451482E+02  0.31844220235E+02 -0.92263243456E+01  0.41486813128E+02  0.00000000000E+00 0.  1.
          1    1    1    2  501    0  0.97334662512E+01 -0.20909298683E+02 -0.85074827549E+01  0.24582847668E+02  0.00000000000E+00 0. -1.
<scales pt_clust_5="13000.00000" pt_clust_6="13000.00000" pt_clust_7="13000.00000" pt_clust_8="13000.00000" pt_clust_9="13000.00000"></scales>
<clustering>
<clus scale="   90.800">  5  6 -1 -1</clus>
<clus scale="   23.064">  5  9 -1 -1</clus>
<clus scale="  100.795">  7  8 -1 -1</clus>
<clus scale="  106.223">  1  7  2 -1</clus>
<clus scale="  138.018">  2  5  1 -1</clus>
</clustering>
</event>
<event>
 9    1  0.6399313E-006  0.1693172E+03  0.7546771E-02  0.1202849E+00
         21   -1    0    0  501  502  0.00000000000E+00  0.00000000000E+00  0.38329987933E+03  0.38329987933E+03  0.00000000000E+00 0.  1.
         -1   -1    0    0    0  501 -0.00000000000E+00 -0.00000000000E+00 -0.51790401245E+02  0.51790401245E+02  0.00000000000E+00 0.  1.
         23    2    1    2    0    0 -0.34570800379E+02  0.15632002367E+02  0.62180594403E+02  0.11696079551E+03  0.91509024846E+02 0.  0.
         23    2    1    2    0    0 -0.39928237180E+02 -0.25315216732E+02  0.87455664994E+02  0.12135108454E+03  0.69587844180E+02 0.  0.
        -13    1    4    4    0    0 -0.51675004016E+01  0.22472499266E+02  0.13623393232E+02  0.26782702008E+02  0.00000000000E+00 0. -1.
         13    1    4    4    0    0 -0.34760736779E+02 -0.47787715999E+02  0.73832271761E+02  0.94568382535E+02  0.00000000000E+00 0.  1.
        -13    1    3    3    0    0  0.16946417177E+02  0.32998311619E+02  0.48208202461E+02  0.60828450657E+02  0.00000000000E+00 0. -1.
         13    1    3    3    0    0 -0.51517217555E+02 -0.17366309252E+02  0.13972391942E+02  0.56132344849E+02  0.00000000000E+00 0.  1.
         -1    1    1    2    0  502  0.74499037559E+02  0.96832143654E+01  0.18187321869E+03  0.19677840053E+03  0.00000000000E+00 0.  1.
<scales pt_clust_5="13000.00000" pt_clust_6="13000.00000" pt_clust_7="13000.00000" pt_clust_8="13000.00000" pt_clust_9="13000.00000"></scales>
<clustering>
<clus scale="   69.588">  5  6 -1 -1</clus>
<clus scale="   75.126">  5  9 -1 -1</clus>
<clus scale="   91.509">  7  8 -1 -1</clus>
<clus scale="   99.063">  2  7  1 -1</clus>
<clus scale="  169.317">  1  5  2 -1</clus>
</clustering>
</event>
<event>
 9    1  0.6399313E-006  0.3048268E+03  0.7546771E-02  0.1123148E+00
          2   -1    0    0  502    0 -0.00000000000E+00  0.00000000000E+00  0.37192241360E+03  0.37192241360E+03  0.00000000000E+00 0. -1.
         21   -1    0    0  501  502  0.00000000000E+00 -0.00000000000E+00 -0.23800359087E+03  0.23800359087E+03  0.00000000000E+00 0. -1.
         23    2    1    2    0    0  0.54547932096E+02  0.77077212381E+01  0.25894062733E+03  0.28045697177E+03  0.92579580195E+02 0.  0.
         23    2    1    2    0    0 -0.11219667154E+03  0.99508659737E+02 -0.11273837371E+03  0.20711866619E+03  0.87739013624E+02 0.  0.
        -11    1    4    4    0    0 -0.11305642351E+03  0.66593536399E+02 -0.11449941557E+03  0.17414525590E+03  0.00000000000E+00 0. -1.
         11    1    4    4    0    0  0.85975196921E+00  0.32915123338E+02  0.17610418627E+01  0.32973410291E+02  0.00000000000E+00 0.  1.
        -13    1    3    3    0    0  0.17668054334E+02  0.44558656729E+02  0.72882726750E+02  0.87232596499E+02  0.00000000000E+00 0.  1.
         13    1    3    3    0    0  0.36879877762E+02 -0.36850935490E+02  0.18605790058E+03  0.19322437527E+03  0.00000000000E+00 0. -1.
          2    1    1    2  501    0  0.57648739443E+02 -0.10721638098E+03 -0.12283430899E+02  0.12235036650E+03  0.00000000000E+00 0. -1.
<scales pt_clust_5="13000.00000" pt_clust_6="13000.00000" pt_clust_7="13000.00000" pt_clust_8="13000.00000" pt_clust_9="13000.00000"></scales>
<clustering>
<clus scale="   87.739">  5  6 -1 -1</clus>
<clus scale="   92.580">  7  8 -1 -1</clus>
<clus scale="  107.731">  1  7  2 -1</clus>
<clus scale="  134.887">  5  9 -1 -1</clus>
<clus scale="  304.827">  2  5  1 -1</clus>
</clustering>
</event>
<event>
 9    1  0.6399313E-006  0.3491808E+03  0.7546771E-02  0.1110729E+00
          2   -1    0    0  502    0 -0.00000000000E+00  0.00000000000E+00  0.21467884782E+03  0.21467884782E+03  0.00000000000E+00 0. -1.
         21   -1    0    0  501  502  0.00000000000E+00 -0.00000000000E+00 -0.29577587825E+03  0.29577587825E+03  0.00000000000E+00 0. -1.
         23    2    1    2    0    0  0.66699477567E+01 -0.30892640092E+02  0.79463642223E+02  0.12612811870E+03  0.92709160693E+02 0.  0.
         23    2    1    2    0    0 -0.25681997428E+02 -0.22599604558E+02  0.86467990575E+02  0.13085858429E+03  0.92070345775E+02 0.  0.
        -11    1    3    3    0    0 -0.59350649947E+01 -0.54806523904E+02  0.82182346761E+02  0.98959174300E+02  0.00000000000E+00 0. -1.
         11    1    3    3    0    0  0.12605012751E+02  0.23913883812E+02 -0.27187045385E+01  0.27168944400E+02  0.00000000000E+00 0.  1.
        -11    1    4    4    0    0 -0.25888417612E+02 -0.44458951325E+02  0.94477627013E+02  0.10757709108E+03  0.00000000000E+00 0. -1.
         11    1    4    4    0    0  0.20642018433E+00  0.21859346767E+02 -0.80096364382E+01  0.23281493213E+02  0.00000000000E+00 0.  1.
          2    1    1    2  501    0  0.19012049671E+02  0.53492244650E+02 -0.24702866322E+03  0.25346802308E+03  0.00000000000E+00 0. -1.
<scales pt_clust_5="13000.00000" pt_clust_6="13000.00000" pt_clust_7="13000.00000" pt_clust_8="13000.00000" pt_clust_9="13000.00000"></scales>
<clustering>
<clus scale="   92.070">  7  8 -1 -1</clus>
<clus scale="   56.770">  7  9 -1 -1</clus>
<clus scale="   92.709">  5  6 -1 -1</clus>
<clus scale="   97.948">  1  5  2 -1</clus>
<clus scale="  349.181">  2  5  1 -1</clus>
</clustering>
</event>
<event>
 9    1  0.6399313E-006  0.9378468E+03  0.7546771E-02  0.9945212E-01
         -1   -1    0    0    0  501 -0.00000000000E+00  0.00000000000E+00  0.12884533086E+03  0.12884533086E+03  0.00000000000E+00 0.  1.
         21   -1    0    0  501  502  0.00000000000E+00 -0.00000000000E+00 -0.22508385837E+04  0.22508385837E+04  0.00000000000E+00 0.  1.
         23    2    1    2    0    0 -0.10303969561E+03 -0.28953426039E+02 -0.24172667693E+03  0.27850354277E+03  0.87618247194E+02 0.  0.
         23    2    1    2    0    0 -0.76992135183E+02  0.40326350308E+03 -0.47013554792E+03  0.63115009660E+03  0.93668400376E+02 0.  0.
        -11    1    4    4    0    0 -0.71758527387E+02  0.34212943484E+03 -0.34182414350E+03  0.48892287891E+03  0.00000000000E+00 0.  1.
         11    1    4    4    0    0 -0.52336077954E+01  0.61134068237E+02 -0.12831140442E+03  0.14222721770E+03  0.00000000000E+00 0. -1.
        -13    1    3    3    0    0 -0.32935532270E+01 -0.36799051063E+02 -0.49169840038E+02  0.61503583809E+02  0.00000000000E+00 0. -1.
         13    1    3    3    0    0 -0.99746142382E+02  0.78456250241E+01 -0.19255683689E+03  0.21699995896E+03  0.00000000000E+00 0.  1.
         -1    1    1    2    0  502  0.18003183079E+03 -0.37431007704E+03 -0.14101310280E+04  0.14700302752E+04  0.00000000000E+00 0.  1.
<scales pt_clust_5="13000.00000" pt_clust_6="13000.00000" pt_clust_7="13000.00000" pt_clust_8="13000.00000" pt_clust_9="13000.00000"></scales>
<clustering>
<clus scale="   87.618">  7  8 -1 -1</clus>
<clus scale="   93.668">  5  6 -1 -1</clus>
<clus scale="  138.320">  1  7  2 -1</clus>
<clus scale="  411.314">  5  9 -1 -1</clus>
<clus scale="  937.847">  2  5  1 -1</clus>
</clustering>
</event>
<event>
 9    1  0.6399313E-006  0.4136606E+03  0.7546771E-02  0.1092488E+00
         -3   -1    0    0    0  501 -0.00000000000E+00  0.00000000000E+00  0.12566630347E+03  0.12566630347E+03  0.00000000000E+00 0.  1.
         21   -1    0    0  501  502  0.00000000000E+00 -0.00000000000E+00 -0.53471622376E+03  0.53471622376E+03  0.00000000000E+00 0.  1.
         23    2    1    2    0    0 -0.68162094404E+01 -0.17050708564E+02 -0.29402378765E+02  0.98913605741E+02  0.92640240446E+02 0.  0.
         23    2    1    2    0    0  0.10563753993E+03  0.62990065658E+01  0.27272815856E+02  0.14258298033E+03  0.91581288852E+02 0.  0.
        -11    1    4    4    0    0  0.67840337435E+02 -0.27962890035E+02 -0.16675486491E+02  0.75248298666E+02  0.00000000000E+00 0. -1.
         11    1    4    4    0    0  0.37797202499E+02  0.34261896601E+02  0.43948302348E+02  0.67334681663E+02  0.00000000000E+00 0.  1.
        -11    1    3    3    0    0 -0.18606313045E+02  0.30689691891E+02  0.84342175355E+01  0.36867168307E+02  0.00000000000E+00 0.  1.
         11    1    3    3    0    0  0.11790103605E+02 -0.47740400455E+02 -0.37836596301E+02  0.62046437434E+02  0.00000000000E+00 0. -1.
         -3    1    1    2    0  502 -0.98821330494E+02  0.10751701998E+02 -0.40692035738E+03  0.41888594117E+03  0.00000000000E+00 0.  1.
<scales pt_clust_5="13000.00000" pt_clust_6="13000.00000" pt_clust_7="13000.00000" pt_clust_8="13000.00000" pt_clust_9="13000.00000"></scales>
<clustering>
<clus scale="   91.581">  5  6 -1 -1</clus>
<clus scale="   92.640">  7  8 -1 -1</clus>
<clus scale="   94.443">  1  7  2 -1</clus>
<clus scale="   99.736">  5  9 -1 -1</clus>
<clus scale="  413.661">  2  5  1 -1</clus>
</clustering>
</event>
<event>
 9    1  0.6399313E-006  0.1483936E+03  0.7546771E-02  0.1224483E+00
          2   -1    0    0  502    0 -0.00000000000E+00  0.00000000000E+00  0.61521171302E+02  0.61521171302E+02  0.00000000000E+00 0. -1.
         21   -1    0    0  501  502  0.00000000000E+00 -0.00000000000E+00 -0.41265106266E+03  0.41265106266E+03  0.00000000000E+00 0. -1.
         23    2    1    2    0    0 -0.79121361366E+01 -0.27017949366E+02 -0.14550057164E-02  0.92974334562E+02  0.88609567198E+02 0.  0.
         23    2    1    2    0    0  0.22214932484E+01 -0.22473723238E+02 -0.24289962162E+03  0.26205393013E+03  0.95718508387E+02 0.  0.
        -13    1    3    3    0    0  0.35529727087E+02 -0.15772098017E+02 -0.20149335958E+02  0.43784886916E+02  0.00000000000E+00 0. -1.
         13    1    3    3    0    0 -0.43441863223E+02 -0.11245851348E+02  0.20147880952E+02  0.49189447646E+02  0.00000000000E+00 0.  1.
        -13    1    4    4    0    0  0.31958106041E+02  0.10847405917E+02 -0.18930783880E+03  0.19229260149E+03  0.00000000000E+00 0.  1.
         13    1    4    4    0    0 -0.29736612792E+02 -0.33321129154E+02 -0.53591782819E+02  0.69761328644E+02  0.00000000000E+00 0. -1.
          2    1    1    2  501    0  0.56906428881E+01  0.49491672603E+02 -0.10822881473E+03  0.11914396927E+03  0.00000000000E+00 0. -1.
<scales pt_clust_5="13000.00000" pt_clust_6="13000.00000" pt_clust_7="13000.00000" pt_clust_8="13000.00000" pt_clust_9="13000.00000"></scales>
<clustering>
<clus scale="   88.610">  5  6 -1 -1</clus>
<clus scale="   92.974">  1  5  2 -1</clus>
<clus scale="   95.719">  7  8 -1 -1</clus>
<clus scale="   39.784">  7  9 -1 -1</clus>
<clus scale="  148.394">  2  5  1 -1</clus>
</clustering>
</event>
<event>
 9    1  0.6399313E-006  0.2350377E+03  0.7546771E-02  0.1154409E+00
          1   -1    0    0  502    0 -0.00000000000E+00  0.00000000000E+00  0.30138230447E+03  0.30138230447E+03  0.00000000000E+00 0. -1.
         21   -1    0    0  501  502  0.00000000000E+00 -0.00000000000E+00 -0.14782676778E+03  0.14782676778E+03  0.00000000000E+00 0. -1.
         23    2    1    2    0    0  0.17130860913E+02  0.18536770778E+02  0.18159784022E+03  0.21250440225E+03  0.10743959761E+03 0.  0.
         23    2    1    2    0    0 -0.29712958883E+02  0.15682650255E+02  0.76882321962E+02  0.12562607170E+03  0.93499802220E+02 0.  0.
        -11    1    4    4    0    0 -0.47792813808E+02 -0.25647464419E+02  0.41611194192E+02  0.68362540656E+02  0.00000000000E+00 0.  1.
         11    1    4    4    0    0  0.18079854925E+02  0.41330114674E+02  0.35271127771E+02  0.57263531041E+02  0.00000000000E+00 0. -1.
        -13    1    3    3    0    0 -0.42573345152E+02  0.20372634214E+02  0.10694039774E+03  0.11689218371E+03  0.00000000000E+00 0.  1.
         13    1    3    3    0    0  0.59704206066E+02 -0.18358634355E+01  0.74657442478E+02  0.95612218539E+02  0.00000000000E+00 0. -1.
          1    1    1    2  501    0  0.12582097970E+02 -0.34219421033E+02 -0.10492462549E+03  0.11107859830E+03  0.00000000000E+00 0. -1.
<scales pt_clust_5="13000.00000" pt_clust_6="13000.00000" pt_clust_7="13000.00000" pt_clust_8="13000.00000" pt_clust_9="13000.00000"></scales>
<clustering>
<clus scale="   93.500">  5  6 -1 -1</clus>
<clus scale="   36.459">  5  9 -1 -1</clus>
<clus scale="  107.440">  7  8 -1 -1</clus>
<clus scale="  110.365">  1  7  2 -1</clus>
<clus scale="  235.038">  2  5  1 -1</clus>
</clustering>
</event>
<event>
 9    1  0.6399313E-006  0.4076506E+03  0.7546771E-02  0.1065597E+00
         -1   -1    0    0    0  501 -0.00000000000E+00  0.00000000000E+00  0.74766368124E+02  0.74766368124E+02  0.00000000000E+00 0.  1.
         21   -1    0    0  501  502  0.00000000000E+00 -0.00000000000E+00 -0.12739654564E+04  0.12739654564E+04  0.00000000000E+00 0. -1.
         23    2    1    2    0    0  0.22470516843E+01 -0.17325794611E+03 -0.31732119890E+03  0.37719304200E+03  0.10751038337E+03 0.  0.
         23    2    1    2    0    0  0.67187352301E+02  0.99229930862E+02 -0.95071680599E+02  0.17821331736E+03  0.91436549289E+02 0.  0.
        -11    1    3    3    0    0  0.48442116267E+02 -0.40077611032E+02 -0.10280476841E+03  0.12050590833E+03  0.00000000000E+00 0.  1.
         11    1    3    3    0    0 -0.46195064582E+02 -0.13318033508E+03 -0.21451643049E+03  0.25668713367E+03  0.00000000000E+00 0. -1.
        -11    1    4    4    0    0  0.22676174257E+02 -0.64370932106E+01  0.71192697918E+01  0.24623749720E+02  0.00000000000E+00 0.  1.
         11    1    4    4    0    0  0.44511178044E+02  0.10566702407E+03 -0.10219095039E+03  0.15358956764E+03  0.00000000000E+00 0. -1.
         -1    1    1    2    0  502 -0.69434403985E+02  0.74028015248E+02 -0.78680620881E+03  0.79332546519E+03  0.00000000000E+00 0.  1.
<scales pt_clust_5="13000.00000" pt_clust_6="13000.00000" pt_clust_7="13000.00000" pt_clust_8="13000.00000" pt_clust_9="13000.00000"></scales>
<clustering>
<clus scale="   91.437">  7  8 -1 -1</clus>
<clus scale="  101.495">  7  9 -1 -1</clus>
<clus scale="  107.510">  5  6 -1 -1</clus>
<clus scale="  203.916">  1  5  2 -1</clus>
<clus scale="  407.651">  2  5  1 -1</clus>
</clustering>
</event>
<event>
 9    1  0.6399313E-006  0.4349831E+03  0.7546771E-02  0.1066052E+00
         21   -1    0    0  501  502  0.00000000000E+00  0.00000000000E+00  0.26055539986E+03  0.26055539986E+03  0.00000000000E+00 0. -1.
          1   -1    0    0  502    0 -0.00000000000E+00 -0.00000000000E+00 -0.37806199951E+03  0.37806199951E+03  0.00000000000E+00 0. -1.
         23    2    1    2    0    0 -0.13016085074E+03 -0.47865327926E+02 -0.11830425312E+03  0.20363358592E+03  0.90762350802E+02 0.  0.
         23    2    1    2    0    0  0.90038900336E+02 -0.74049669086E+02 -0.16738729277E+03  0.22342007946E+03  0.91146415516E+02 0.  0.
        -13    1    4    4    0    0  0.23759258572E+02 -0.21324478048E+02 -0.12442066955E+03  0.12845130884E+03  0.00000000000E+00 0. -1.
         13    1    4    4    0    0  0.66279641764E+02 -0.52725191038E+02 -0.42966623217E+02  0.94968770620E+02  0.00000000000E+00 0.  1.
        -13    1    3    3    0    0  0.84660940311E+01 -0.21794056098E+02 -0.26465306353E+02  0.35313850961E+02  0.00000000000E+00 0.  1.
         13    1    3    3    0    0 -0.13862694477E+03 -0.26071271829E+02 -0.91838946767E+02  0.16831973495E+03  0.00000000000E+00 0. -1.
          1    1    1    2  501    0  0.40121950407E+02  0.12191499701E+03  0.16818494624E+03  0.21156373399E+03  0.00000000000E+00 0. -1.
<scales pt_clust_5="13000.00000" pt_clust_6="13000.00000" pt_clust_7="13000.00000" pt_clust_8="13000.00000" pt_clust_9="13000.00000"></scales>
<clustering>
<clus scale="   90.762">  7  8 -1 -1</clus>
<clus scale="   91.146">  5  6 -1 -1</clus>
<clus scale="  128.347">  5  9 -1 -1</clus>
<clus scale="  165.743">  2  7  1 -1</clus>
<clus scale="  434.983">  1  5  2 -1</clus>
</clustering>
</event>
<event>
 9    1  0.6399313E-006  0.1377535E+03  0.7546771E-02  0.1232404E+00
          1   -1    0    0  502    0 -0.00000000000E+00  0.00000000000E+00  0.37340022354E+03  0.37340022354E+03  0.00000000000E+00 0. -1.
         21   -1    0    0  501  502  0.00000000000E+00 -0.00000000000E+00 -0.42622140533E+02  0.42622140533E+02  0.00000000000E+00 0.  1.
         23    2    1    2    0    0 -0.49743923121E+01  0.29172134450E+02  0.21318788888E+03  0.23490503443E+03  0.94103885314E+02 0.  0.
         23    2    1    2    0    0 -0.50380355340E+01 -0.52096609846E+02  0.11533658233E+03  0.15600042199E+03  0.91072311269E+02 0.  0.
        -11    1    3    3    0    0 -0.51783144523E+01  0.59486948130E+02  0.18141728424E+03  0.19099147352E+03  0.00000000000E+00 0.  1.
         11    1    3    3    0    0  0.20392214017E+00 -0.30314813680E+02  0.31770604638E+02  0.43913560909E+02  0.00000000000E+00 0. -1.
        -13    1    4    4    0    0 -0.36486445884E+02  0.97260156704E+00  0.71647872083E+02  0.80409105585E+02  0.00000000000E+00 0.  1.
         13    1    4    4    0    0  0.31448410350E+02 -0.53069211413E+02  0.43688710244E+02  0.75591316408E+02  0.00000000000E+00 0. -1.
          1    1    1    2  501    0  0.10012427846E+02  0.22924475396E+02  0.22536118029E+01  0.25116907646E+02  0.00000000000E+00 0. -1.
<scales pt_clust_5="13000.00000" pt_clust_6="13000.00000" pt_clust_7="13000.00000" pt_clust_8="13000.00000" pt_clust_9="13000.00000"></scales>
<clustering>
<clus scale="   91.072">  7  8 -1 -1</clus>
<clus scale="   25.016">  7  9 -1 -1</clus>
<clus scale="   94.104">  5  6 -1 -1</clus>
<clus scale="   98.647">  1  5  2 -1</clus>
<clus scale="  137.754">  2  5  1 -1</clus>
</clustering>
</event>
<event>
 9    1  0.6399313E-006  0.3318059E+03  0.7546771E-02  0.1105620E+00
          1   -1    0    0  502    0 -0.00000000000E+00  0.00000000000E+00  0.21578955702E+03  0.21578955702E+03  0.00000000000E+00 0. -1.
         21   -1    0    0  501  502  0.00000000000E+00 -0.00000000000E+00 -0.24717400511E+03  0.24717400511E+03  0.00000000000E+00 0. -1.
         23    2    1    2    0    0 -0.33636534274E+02 -0.79913823658E+02 -0.10544165668E+02  0.13050379747E+03  0.96966107867E+02 0.  0.
         23    2    1    2    0    0 -0.10846489111E+03 -0.34331892096E+02  0.98608655270E+01  0.14756125426E+03  0.93454671737E+02 0.  0.
        -11    1    4    4    0    0 -0.33780435537E+02 -0.28842514367E+02 -0.38195077140E+02  0.58582184816E+02  0.00000000000E+00 0.  1.
         11    1    4    4    0    0 -0.74684455576E+02 -0.54893777289E+01  0.48055942667E+02  0.88979069439E+02  0.00000000000E+00 0. -1.
        -13    1    3    3    0    0  0.29473365010E+02 -0.56632431213E+01 -0.13730588994E+02  0.33004251875E+02  0.00000000000E+00 0.  1.
         13    1    3    3    0    0 -0.63109899284E+02 -0.74250580537E+02  0.31864233262E+01  0.97499545596E+02  0.00000000000E+00 0. -1.
          1    1    1    2  501    0  0.14210142539E+03  0.11424571575E+03 -0.30701147941E+02  0.18489851041E+03  0.00000000000E+00 0. -1.
<scales pt_clust_5="13000.00000" pt_clust_6="13000.00000" pt_clust_7="13000.00000" pt_clust_8="13000.00000" pt_clust_9="13000.00000"></scales>
<clustering>
<clus scale="   93.455">  5  6 -1 -1</clus>
<clus scale="   96.966">  7  8 -1 -1</clus>
<clus scale="  130.077">  1  7  2 -1</clus>
<clus scale="  146.014">  5  9 -1 -1</clus>
<clus scale="  331.806">  2  5  1 -1</clus>
</clustering>
</event>
<event>
 9    1  0.6399313E-006  0.2747558E+03  0.7546771E-02  0.1139475E+00
         -3   -1    0    0    0  501 -0.00000000000E+00  0.00000000000E+00  0.17907386928E+03  0.17907386928E+03  0.00000000000E+00 0.  1.
         21   -1    0    0  501  502  0.00000000000E+00 -0.00000000000E+00 -0.19841946555E+03  0.19841946555E+03  0.00000000000E+00 0.  1.
         23    2    1    2    0    0 -0.59399817393E+00  0.45092671098E+02 -0.28301682706E+02  0.10259159816E+03  0.87694634661E+02 0.  0.
         23    2    1    2    0    0 -0.72913566591E+02  0.18627014549E+02 -0.80577255289E+02  0.14269061878E+03  0.90579052504E+02 0.  0.
        -13    1    4    4    0    0 -0.24423493659E+02  0.47381026037E+02 -0.13344221016E+02  0.54950313059E+02  0.00000000000E+00 0. -1.
         13    1    4    4    0    0 -0.48490072932E+02 -0.28754011487E+02 -0.67233034273E+02  0.87740305716E+02  0.00000000000E+00 0.  1.
        -13    1    3    3    0    0 -0.40901920402E+02  0.62535724913E+01 -0.40041861082E+01  0.41570515607E+02  0.00000000000E+00 0.  1.
         13    1    3    3    0    0  0.40307922228E+02  0.38839098607E+02 -0.24297496598E+02  0.61021082553E+02  0.00000000000E+00 0. -1.
         -3    1    1    2    0  502  0.73507564765E+02 -0.63719685648E+02  0.89533341726E+02  0.13221111790E+03  0.00000000000E+00 0.  1.
<scales pt_clust_5="13000.00000" pt_clust_6="13000.00000" pt_clust_7="13000.00000" pt_clust_8="13000.00000" pt_clust_9="13000.00000"></scales>
<clustering>
<clus scale="   87.695">  7  8 -1 -1</clus>
<clus scale="   90.579">  5  6 -1 -1</clus>
<clus scale="   97.281">  5  9 -1 -1</clus>
<clus scale="   98.611">  1  7  2 -1</clus>
<clus scale="  274.756">  2  5  1 -1</clus>
</clustering>
</event>
<event>
 9    1  0.6399313E-006  0.2776699E+03  0.7546771E-02  0.1137353E+00
          1   -1    0    0  502    0 -0.00000000000E+00  0.00000000000E+00  0.38959520446E+03  0.38959520446E+03  0.00000000000E+00 0. -1.
         21   -1    0    0  501  502  0.00000000000E+00 -0.00000000000E+00 -0.94076938832E+02  0.94076938832E+02  0.00000000000E+00 0.  1.
         23    2    1    2    0    0  0.22421254935E+02 -0.35467806511E+02  0.11357215924E+03  0.15170083029E+03  0.91399281094E+02 0.  0.
         23    2    1    2    0    0 -0.32894878373E+01 -0.40336908631E+02  0.22256807964E+03  0.24386612551E+03  0.91083753591E+02 0.  0.
        -11    1    3    3    0    0 -0.29881282412E+02 -0.14877248281E+02  0.78867863138E+02  0.85640897887E+02  0.00000000000E+00 0. -1.
         11    1    3    3    0    0  0.52302537347E+02 -0.20590558230E+02  0.34704296105E+02  0.66059932404E+02  0.00000000000E+00 0.  1.
        -13    1    4    4    0    0 -0.35748076366E+02  0.32170662534E+01  0.41710449629E+02  0.55027593872E+02  0.00000000000E+00 0. -1.
         13    1    4    4    0    0  0.32458588529E+02 -0.43553974884E+02  0.18085763001E+03  0.18883853164E+03  0.00000000000E+00 0.  1.
          1    1    1    2  501    0 -0.19131767098E+02  0.75804715141E+02 -0.40621973261E+02  0.88105187484E+02  0.00000000000E+00 0. -1.
<scales pt_clust_5="13000.00000" pt_clust_6="13000.00000" pt_clust_7="13000.00000" pt_clust_8="13000.00000" pt_clust_9="13000.00000"></scales>
<clustering>
<clus scale="   91.084">  7  8 -1 -1</clus>
<clus scale="   78.182">  7  9 -1 -1</clus>
<clus scale="   91.399">  5  6 -1 -1</clus>
<clus scale="  100.571">  1  5  2 -1</clus>
<clus scale="  277.670">  2  5  1 -1</clus>
</clustering>
</event>
<event>
 9    1  0.6399313E-006  0.2044139E+03  0.7546771E-02  0.1180621E+00
         21   -1    0    0  501  502  0.00000000000E+00  0.00000000000E+00  0.42478851174E+02  0.42478851174E+02  0.00000000000E+00 0. -1.
          1   -1    0    0  502    0 -0.00000000000E+00 -0.00000000000E+00 -0.65974354968E+03  0.65974354968E+03  0.00000000000E+00 0. -1.
         23    2    1    2    0    0  0.92277755119E+01  0.49956876696E+01 -0.37084360195E+03  0.38205306414E+03  0.91265864208E+02 0.  0.
         23    2    1    2    0    0 -0.27520572104E+02 -0.46067789084E+02 -0.25394094451E+03  0.27458324196E+03  0.89612110698E+02 0.  0.
        -11    1    4    4    0    0  0.91427267771E+01 -0.62473399106E+02 -0.17436973281E+03  0.18544896540E+03  0.00000000000E+00 0.  1.
         11    1    4    4    0    0 -0.36663298881E+02  0.16405610022E+02 -0.79571211708E+02  0.89134276560E+02  0.00000000000E+00 0. -1.
        -11    1    3    3    0    0 -0.29261673151E+02  0.29104483813E+02 -0.24069629528E+03  0.24420897415E+03  0.00000000000E+00 0. -1.
         11    1    3    3    0    0  0.38489448663E+02 -0.24108796143E+02 -0.13014730668E+03  0.13784408999E+03  0.00000000000E+00 0.  1.
          1    1    1    2  501    0  0.18292796592E+02  0.41072101414E+02  0.75198479646E+01  0.45586094757E+02  0.00000000000E+00 0. -1.
<scales pt_clust_5="13000.00000" pt_clust_6="13000.00000" pt_clust_7="13000.00000" pt_clust_8="13000.00000" pt_clust_9="13000.00000"></scales>
<clustering>
<clus scale="   89.612">  5  6 -1 -1</clus>
<clus scale="   44.962">  5  9 -1 -1</clus>
<clus scale="   91.266">  7  8 -1 -1</clus>
<clus scale="   91.867">  2  7  1 -1</clus>
<clus scale="  204.414">  1  5  2 -1</clus>
</clustering>
</event>
<event>
 9    1  0.6399313E-006  0.2817806E+03  0.7546771E-02  0.1135835E+00
         21   -1    0    0  501  502  0.00000000000E+00  0.00000000000E+00  0.24365360435E+03  0.24365360435E+03  0.00000000000E+00 0. -1.
          2   -1    0    0  502    0 -0.00000000000E+00 -0.00000000000E+00 -0.14963118295E+03  0.14963118295E+03  0.00000000000E+00 0. -1.
         23    2    1    2    0    0  0.51081452909E+01  0.41134746545E+02  0.30963453975E+02  0.10453444583E+03  0.90832562233E+02 0.  0.
         23    2    1    2    0    0 -0.13659854288E+02  0.51763463009E+01 -0.90093073050E+02  0.12852114141E+03  0.90485003160E+02 0.  0.
        -11    1    4    4    0    0 -0.44290012178E+02  0.47305108382E+01 -0.14315394280E+02  0.46785825043E+02  0.00000000000E+00 0.  1.
         11    1    4    4    0    0  0.30630157890E+02  0.44583546274E+00 -0.75777678769E+02  0.81735316365E+02  0.00000000000E+00 0. -1.
        -13    1    3    3    0    0 -0.24284803816E+02 -0.15529819167E+02  0.28674679576E+02  0.40659122328E+02  0.00000000000E+00 0.  1.
         13    1    3    3    0    0  0.29392949107E+02  0.56664565712E+02  0.22887743994E+01  0.63875323505E+02  0.00000000000E+00 0. -1.
          2    1    1    2  501    0  0.85517089974E+01 -0.46311092846E+02  0.15315204048E+03  0.16022920006E+03  0.00000000000E+00 0. -1.
<scales pt_clust_5="13000.00000" pt_clust_6="13000.00000" pt_clust_7="13000.00000" pt_clust_8="13000.00000" pt_clust_9="13000.00000"></scales>
<clustering>
<clus scale="   90.485">  5  6 -1 -1</clus>
<clus scale="   47.094">  5  9 -1 -1</clus>
<clus scale="   90.833">  7  8 -1 -1</clus>
<clus scale="   99.844">  2  7  1 -1</clus>
<clus scale="  281.781">  1  5  2 -1</clus>
</clustering>
</event>
<event>
 9    1  0.6399313E-006  0.1594550E+03  0.7546771E-02  0.1209755E+00
         -3   -1    0    0    0  501 -0.00000000000E+00  0.00000000000E+00  0.18679379379E+03  0.18679379379E+03  0.00000000000E+00 0.  1.
         21   -1    0    0  501  502  0.00000000000E+00 -0.00000000000E+00 -0.15718829199E+03  0.15718829199E+03  0.00000000000E+00 0. -1.
         23    2    1    2    0    0 -0.35148944248E+02 -0.20809472161E+02  0.12240333224E+03  0.15949002172E+03  0.93733712567E+02 0.  0.
         23    2    1    2    0    0 -0.49404096646E+01  0.51567738640E+02 -0.39610099423E+02  0.11112884449E+03  0.89983447286E+02 0.  0.
        -13    1    3    3    0    0 -0.85441834137E+01 -0.54931962336E+02  0.48129458880E+02  0.73532090738E+02  0.00000000000E+00 0.  1.
         13    1    3    3    0    0 -0.26604760834E+02  0.34122490175E+02  0.74273873360E+02  0.85957930982E+02  0.00000000000E+00 0. -1.
        -13    1    4    4    0    0 -0.25702190619E+02  0.43256787097E+02 -0.61753711103E+02  0.79657222319E+02  0.00000000000E+00 0. -1.
         13    1    4    4    0    0  0.20761780954E+02  0.83109515435E+01  0.22143611680E+02  0.31471622173E+02  0.00000000000E+00 0.  1.
         -3    1    1    2    0  502  0.40089353912E+02 -0.30758266479E+02 -0.53187731024E+02  0.73363219568E+02  0.00000000000E+00 0.  1.
<scales pt_clust_5="13000.00000" pt_clust_6="13000.00000" pt_clust_7="13000.00000" pt_clust_8="13000.00000" pt_clust_9="13000.00000"></scales>
<clustering>
<clus scale="   89.983">  7  8 -1 -1</clus>
<clus scale="   50.529">  7  9 -1 -1</clus>
<clus scale="   93.734">  5  6 -1 -1</clus>
<clus scale="  102.247">  1  5  2 -1</clus>
<clus scale="  159.455">  2  5  1 -1</clus>
</clustering>
</event>
<event>
 9    1  0.6399313E-006  0.2682525E+03  0.7546771E-02  0.1113961E+00
          1   -1    0    0  502    0 -0.00000000000E+00  0.00000000000E+00  0.44530004196E+03  0.44530004196E+03  0.00000000000E+00 0. -1.
         21   -1    0    0  501  502  0.00000000000E+00 -0.00000000000E+00 -0.17437054476E+03  0.17437054476E+03  0.00000000000E+00 0.  1.
         23    2    1    2    0    0  0.46173843625E+02 -0.17091041201E+03 -0.46179111055E+02  0.20431861657E+03  0.90946104973E+02 0.  0.
         23    2    1    2    0    0 -0.75587285969E+02  0.27909023179E+02  0.14191342334E+03  0.18729956254E+03  0.91920373315E+02 0.  0.
        -11    1    4    4    0    0 -0.39523948456E+02  0.81272359369E+01  0.14046035976E+03  0.14614139431E+03  0.00000000000E+00 0. -1.
         11    1    4    4    0    0 -0.36063337513E+02  0.19781787242E+02  0.14530635799E+01  0.41158168239E+02  0.00000000000E+00 0.  1.
        -11    1    3    3    0    0  0.65806394950E+01 -0.69076753824E+02 -0.63059474344E+02  0.93762466049E+02  0.00000000000E+00 0.  1.
         11    1    3    3    0    0  0.39593204130E+02 -0.10183365818E+03  0.16880363289E+02  0.11055615052E+03  0.00000000000E+00 0. -1.
          1    1    1    2  501    0  0.29413442344E+02  0.14300138883E+03  0.17519518492E+03  0.22805240761E+03  0.00000000000E+00 0. -1.
<scales pt_clust_5="13000.00000" pt_clust_6="13000.00000" pt_clust_7="13000.00000" pt_clust_8="13000.00000" pt_clust_9="13000.00000"></scales>
<clustering>
<clus scale="   90.946">  7  8 -1 -1</clus>
<clus scale="   91.920">  5  6 -1 -1</clus>
<clus scale="  145.995">  5  9 -1 -1</clus>
<clus scale="  199.032">  1  7  2 -1</clus>
<clus scale="  268.252">  2  5  1 -1</clus>
</clustering>
</event>
<event>
 9    1  0.6399313E-006  0.1395087E+03  0.7546771E-02  0.1234092E+00
         -1   -1    0    0    0  501 -0.00000000000E+00  0.00000000000E+00  0.96324120249E+02  0.96324120249E+02  0.00000000000E+00 0.  1.
         21   -1    0    0  501  502  0.00000000000E+00 -0.00000000000E+00 -0.15223495189E+03  0.15223495189E+03  0.00000000000E+00 0. -1.
         23    2    1    2    0    0 -0.90644183851E+00 -0.12578132314E+02  0.13523429396E+02  0.92726478264E+02  0.90864105010E+02 0.  0.
         23    2    1    2    0    0  0.40039025018E+02  0.40394210095E+01 -0.47090108139E+02  0.10996833954E+03  0.90863177193E+02 0.  0.
        -13    1    3    3    0    0  0.83167927693E+01 -0.43987302297E+02 -0.17079562319E+02  0.47914123746E+02  0.00000000000E+00 0. -1.
         13    1    3    3    0    0 -0.92232346078E+01  0.31409169983E+02  0.30602991714E+02  0.44812354518E+02  0.00000000000E+00 0.  1.
        -13    1    4    4    0    0 -0.17317320905E+02 -0.21409702920E+02  0.55181246887E+01  0.28084064566E+02  0.00000000000E+00 0.  1.
         13    1    4    4    0    0  0.57356345923E+02  0.25449123929E+02 -0.52608232828E+02  0.81884274972E+02  0.00000000000E+00 0. -1.
         -1    1    1    2    0  502 -0.39132583179E+02  0.85387113049E+01 -0.22344152893E+02  0.45864254333E+02  0.00000000000E+00 0.  1.
<scales pt_clust_5="13000.00000" pt_clust_6="13000.00000" pt_clust_7="13000.00000" pt_clust_8="13000.00000" pt_clust_9="13000.00000"></scales>
<clustering>
<clus scale="   90.863">  7  8 -1 -1</clus>
<clus scale="   40.053">  7  9 -1 -1</clus>
<clus scale="   90.864">  5  6 -1 -1</clus>
<clus scale="   91.735">  1  5  2 -1</clus>
<clus scale="  139.509">  2  5  1 -1</clus>
</clustering>
</event>
<event>
 9    1  0.6399313E-006  0.1883186E+03  0.7546771E-02  0.1191215E+00
         21   -1    0    0  501  502  0.00000000000E+00  0.00000000000E+00  0.12294216096E+03  0.12294216096E+03  0.00000000000E+00 0. -1.
         -1   -1    0    0    0  501 -0.00000000000E+00 -0.00000000000E+00 -0.17922747865E+03  0.17922747865E+03  0.00000000000E+00 0.  1.
         23    2    1    2    0    0 -0.18500536268E+02  0.99959589209E+01  0.26397980504E+02  0.96498977791E+02  0.90404702881E+02 0.  0.
         23    2    1    2    0    0 -0.25294878144E+02 -0.52592321338E+02 -0.92108640326E+02  0.14385379124E+03  0.93830317633E+02 0.  0.
        -11    1    3    3    0    0 -0.51482587440E+02 -0.87090782170E+01  0.26561426406E+02  0.58581688484E+02  0.00000000000E+00 0. -1.
         11    1    3    3    0    0  0.32982051172E+02  0.18705037138E+02 -0.16344590182E+00  0.37917289307E+02  0.00000000000E+00 0.  1.
        -13    1    4    4    0    0 -0.12862163008E+02 -0.33192295859E+02  0.11737179137E+02  0.37482330714E+02  0.00000000000E+00 0. -1.
         13    1    4    4    0    0 -0.12432715137E+02 -0.19400025478E+02 -0.10384581946E+03  0.10637146053E+03  0.00000000000E+00 0.  1.
         -1    1    1    2    0  502  0.43795414412E+02  0.42596362417E+02  0.94253421280E+01  0.61816870585E+02  0.00000000000E+00 0.  1.
<scales pt_clust_5="13000.00000" pt_clust_6="13000.00000" pt_clust_7="13000.00000" pt_clust_8="13000.00000" pt_clust_9="13000.00000"></scales>
<clustering>
<clus scale="   90.405">  5  6 -1 -1</clus>
<clus scale="   92.818">  2  5  1 -1</clus>
<clus scale="   93.830">  7  8 -1 -1</clus>
<clus scale="   60.062">  7  9 -1 -1</clus>
<clus scale="  188.319">  1  5  2 -1</clus>
</clustering>
</event>
<event>
 9    1  0.6399313E-006  0.1953444E+03  0.7546771E-02  0.1181868E+00
         -3   -1    0    0    0  501 -0.00000000000E+00  0.00000000000E+00  0.16548271252E+03  0.16548271252E+03  0.00000000000E+00 0.  1.
         21   -1    0    0  501  502  0.00000000000E+00 -0.00000000000E+00 -0.23030722947E+03  0.23030722947E+03  0.00000000000E+00 0. -1.
         23    2    1    2    0    0 -0.32907690101E+01  0.51594176511E+02 -0.15088400246E+03  0.18232873561E+03  0.88345896449E+02 0.  0.
         23    2    1    2    0    0 -0.64947643551E+00 -0.94269488473E+01  0.12477295809E+03  0.15608234632E+03  0.93295865814E+02 0.  0.
        -11    1    3    3    0    0  0.24365763945E+02  0.25163145756E+02 -0.13735610824E+03  0.14175180714E+03  0.00000000000E+00 0. -1.
         11    1    3    3    0    0 -0.27656532955E+02  0.26431030755E+02 -0.13527894222E+02  0.40576928469E+02  0.00000000000E+00 0.  1.
        -11    1    4    4    0    0  0.25118081653E+02  0.29088632716E+02  0.24387605711E+02  0.45517270255E+02  0.00000000000E+00 0.  1.
         11    1    4    4    0    0 -0.25767558088E+02 -0.38515581563E+02  0.10038535238E+03  0.11056507606E+03  0.00000000000E+00 0. -1.
         -3    1    1    2    0  502  0.39402454456E+01 -0.42167227664E+02 -0.38713472579E+02  0.57378860064E+02  0.00000000000E+00 0.  1.
<scales pt_clust_5="13000.00000" pt_clust_6="13000.00000" pt_clust_7="13000.00000" pt_clust_8="13000.00000" pt_clust_9="13000.00000"></scales>
<clustering>
<clus scale="   88.346">  5  6 -1 -1</clus>
<clus scale="   93.296">  7  8 -1 -1</clus>
<clus scale="   42.351">  7  9 -1 -1</clus>
<clus scale="  102.361">  1  5  2 -1</clus>
<clus scale="  195.344">  2  5  1 -1</clus>
</clustering>
</event>
<event>
 9    1  0.6399313E-006  0.1879277E+03  0.7546771E-02  0.1189526E+00
          2   -1    0    0  502    0 -0.00000000000E+00  0.00000000000E+00  0.14427937483E+03  0.14427937483E+03  0.00000000000E+00 0. -1.
         21   -1    0    0  501  502  0.00000000000E+00 -0.00000000000E+00 -0.24938854805E+03  0.24938854805E+03  0.00000000000E+00 0. -1.
         23    2    1    2    0    0 -0.87942101573E+01 -0.21363484718E+02  0.83107549703E+02  0.12769359432E+03  0.94154408293E+02 0.  0.
         23    2    1    2    0    0 -0.34136797538E+02 -0.52242627362E+01 -0.33822555057E+02  0.10353191166E+03  0.91554779413E+02 0.  0.
        -11    1    3    3    0    0 -0.41149358762E+02 -0.14616121311E+02  0.83953737619E+02  0.94631552819E+02  0.00000000000E+00 0. -1.
         11    1    3    3    0    0  0.32355148605E+02 -0.67473634064E+01 -0.84618791668E+00  0.33062041500E+02  0.00000000000E+00 0.  1.
        -13    1    4    4    0    0  0.16146184060E+02  0.17829016052E+02  0.16161163072E+02  0.28978548358E+02  0.00000000000E+00 0.  1.
         13    1    4    4    0    0 -0.50282981598E+02 -0.23053278788E+02 -0.49983718129E+02  0.74553363299E+02  0.00000000000E+00 0. -1.
          2    1    1    2  501    0  0.42931007695E+02  0.26587747454E+02 -0.15439416787E+03  0.16244241690E+03  0.00000000000E+00 0. -1.
<scales pt_clust_5="13000.00000" pt_clust_6="13000.00000" pt_clust_7="13000.00000" pt_clust_8="13000.00000" pt_clust_9="13000.00000"></scales>
<clustering>
<clus scale="   91.555">  7  8 -1 -1</clus>
<clus scale="   50.497">  7  9 -1 -1</clus>
<clus scale="   94.154">  5  6 -1 -1</clus>
<clus scale="   96.947">  1  5  2 -1</clus>
<clus scale="  187.928">  2  5  1 -1</clus>
</clustering>
</event>
<event>
 9    1  0.6399313E-006  0.1908159E+03  0.7546771E-02  0.1176124E+00
         -2   -1    0    0    0  501 -0.00000000000E+00  0.00000000000E+00  0.18501236836E+03  0.18501236836E+03  0.00000000000E+00 0.  1.
         21   -1    0    0  501  502  0.00000000000E+00 -0.00000000000E+00 -0.24323292759E+03  0.24323292759E+03  0.00000000000E+00 0. -1.
         23    2    1    2    0    0  0.80580787963E+02 -0.23483637666E+02  0.11550950312E+03  0.17018940415E+03  0.92613408032E+02 0.  0.
         23    2    1    2    0    0 -0.11451700690E+03  0.25186103356E+02 -0.16835753691E+03  0.22365488346E+03  0.89043596003E+02 0.  0.
        -13    1    3    3    0    0  0.85070346246E+02 -0.27273753465E+01  0.12129558087E+03  0.14817901445E+03  0.00000000000E+00 0.  1.
         13    1    3    3    0    0 -0.44895582832E+01 -0.20756262319E+02 -0.57860777430E+01  0.22010389699E+02  0.00000000000E+00 0. -1.
        -13    1    4    4    0    0 -0.72451957373E+02  0.36276954383E+02 -0.44635275644E+02  0.92507358509E+02  0.00000000000E+00 0. -1.
         13    1    4    4    0    0 -0.42065049528E+02 -0.11090851026E+02 -0.12372226126E+03  0.13114752495E+03  0.00000000000E+00 0.  1.
         -2    1    1    2    0  502  0.33936218938E+02 -0.17024656906E+01 -0.53725254420E+01  0.34401008341E+02  0.00000000000E+00 0.  1.
<scales pt_clust_5="13000.00000" pt_clust_6="13000.00000" pt_clust_7="13000.00000" pt_clust_8="13000.00000" pt_clust_9="13000.00000"></scales>
<clustering>
<clus scale="   89.044">  7  8 -1 -1</clus>
<clus scale="   33.979">  7  9 -1 -1</clus>
<clus scale="   92.613">  5  6 -1 -1</clus>
<clus scale="  124.988">  1  5  2 -1</clus>
<clus scale="  190.816">  2  5  1 -1</clus>
</clustering>
</event>
<event>
 9    1  0.6399313E-006  0.3869220E+03  0.7546771E-02  0.1063953E+00
         21   -1    0    0  501  502  0.00000000000E+00  0.00000000000E+00  0.94621767130E+02  0.94621767130E+02  0.00000000000E+00 0. -1.
          1   -1    0    0  502    0 -0.00000000000E+00 -0.00000000000E+00 -0.16139086103E+04  0.16139086103E+04  0.00000000000E+00 0. -1.
         23    2    1    2    0    0 -0.50427315859E+01  0.23223614418E+03 -0.16293777813E+03  0.29807249861E+03  0.91320529336E+02 0.  0.
         23    2    1    2    0    0  0.11176988419E+03 -0.18891736819E+02 -0.49379711022E+03  0.51552637529E+03  0.95301903573E+02 0.  0.
        -11    1    4    4    0    0  0.36589661994E+02 -0.47882161236E+02 -0.13574925586E+03  0.14852395495E+03  0.00000000000E+00 0.  1.
         11    1    4    4    0    0  0.75180222192E+02  0.28990424417E+02 -0.35804785437E+03  0.36700242034E+03  0.00000000000E+00 0. -1.
        -13    1    3    3    0    0  0.27268722310E+01  0.28842191344E+02  0.10341745120E+02  0.30761331665E+02  0.00000000000E+00 0.  1.
         13    1    3    3    0    0 -0.77696038169E+01  0.20339395284E+03 -0.17327952325E+03  0.26731116695E+03  0.00000000000E+00 0. -1.
          1    1    1    2  501    0 -0.10672715260E+03 -0.21334440736E+03 -0.86255195478E+03  0.89493150349E+03  0.00000000000E+00 0. -1.
<scales pt_clust_5="13000.00000" pt_clust_6="13000.00000" pt_clust_7="13000.00000" pt_clust_8="13000.00000" pt_clust_9="13000.00000"></scales>
<clustering>
<clus scale="   91.321">  7  8 -1 -1</clus>
<clus scale="   95.302">  5  6 -1 -1</clus>
<clus scale="  238.551">  5  9 -1 -1</clus>
<clus scale="  249.597">  2  7  1 -1</clus>
<clus scale="  386.922">  1  5  2 -1</clus>
</clustering>
</event>
<event>
 9    1  0.6399313E-006  0.2105028E+03  0.7546771E-02  0.1158787E+00
          1   -1    0    0  502    0 -0.00000000000E+00  0.00000000000E+00  0.56709929924E+03  0.56709929924E+03  0.00000000000E+00 0. -1.
         21   -1    0    0  501  502  0.00000000000E+00 -0.00000000000E+00 -0.67777717939E+02  0.67777717939E+02  0.00000000000E+00 0.  1.
         23    2    1    2    0    0  0.38958506509E+02  0.98251858892E+02  0.66924440007E+02  0.15396256649E+03  0.89746299118E+02 0.  0.
         23    2    1    2    0    0  0.67181292552E+01 -0.22626127149E+02  0.33551602921E+03  0.34979787570E+03  0.96075351160E+02 0.  0.
        -11    1    4    4    0    0 -0.35059822615E+02  0.15908974321E+02  0.91883449714E+02  0.99623566274E+02  0.00000000000E+00 0.  1.
         11    1    4    4    0    0  0.41777951870E+02 -0.38535101469E+02  0.24363257949E+03  0.25017430943E+03  0.00000000000E+00 0. -1.
        -13    1    3    3    0    0  0.38863105375E+02  0.15223110359E+01  0.34365465998E+02  0.51900324118E+02  0.00000000000E+00 0. -1.
         13    1    3    3    0    0  0.95401133688E-01  0.96729547856E+02  0.32558974010E+02  0.10206224237E+03  0.00000000000E+00 0.  1.
          1    1    1    2  501    0 -0.45676635764E+02 -0.75625731744E+02  0.96881112085E+02  0.13111657498E+03  0.00000000000E+00 0. -1.
<scales pt_clust_5="13000.00000" pt_clust_6="13000.00000" pt_clust_7="13000.00000" pt_clust_8="13000.00000" pt_clust_9="13000.00000"></scales>
<clustering>
<clus scale="   89.746">  7  8 -1 -1</clus>
<clus scale="   96.075">  5  6 -1 -1</clus>
<clus scale="   88.349">  5  9 -1 -1</clus>
<clus scale="  138.656">  1  7  2 -1</clus>
<clus scale="  210.503">  2  5  1 -1</clus>
</clustering>
</event>
<event>
 9    1  0.6399313E-006  0.1886920E+03  0.7546771E-02  0.1178596E+00
          3   -1    0    0  502    0 -0.00000000000E+00  0.00000000000E+00  0.41352090824E+03  0.41352090824E+03  0.00000000000E+00 0. -1.
         21   -1    0    0  501  502  0.00000000000E+00 -0.00000000000E+00 -0.61492512518E+02  0.61492512518E+02  0.00000000000E+00 0. -1.
         23    2    1    2    0    0  0.74599586327E+02  0.36848935723E+02  0.88567043103E+02  0.15095085284E+03  0.89549408173E+02 0.  0.
         23    2    1    2    0    0 -0.26563972623E+02 -0.10564846599E+02  0.25141195857E+03  0.26799598766E+03  0.88298447690E+02 0.  0.
        -11    1    3    3    0    0  0.58325869938E+01 -0.25503385144E+02  0.62846983934E+01  0.26906117496E+02  0.00000000000E+00 0.  1.
         11    1    3    3    0    0  0.68766999334E+02  0.62352320867E+02  0.82282344709E+02  0.12404473534E+03  0.00000000000E+00 0. -1.
        -11    1    4    4    0    0 -0.32717473232E+02  0.33422223664E+02  0.10388233253E+03  0.11392548925E+03  0.00000000000E+00 0. -1.
         11    1    4    4    0    0  0.61535006089E+01 -0.43987070264E+02  0.14752962604E+03  0.15407049841E+03  0.00000000000E+00 0.  1.
          3    1    1    2  501    0 -0.48035613704E+02 -0.26284089124E+02  0.12049394047E+02  0.56066580259E+02  0.00000000000E+00 0. -1.
<scales pt_clust_5="13000.00000" pt_clust_6="13000.00000" pt_clust_7="13000.00000" pt_clust_8="13000.00000" pt_clust_9="13000.00000"></scales>
<clustering>
<clus scale="   88.298">  7  8 -1 -1</clus>
<clus scale="   54.757">  7  9 -1 -1</clus>
<clus scale="   89.549">  5  6 -1 -1</clus>
<clus scale="  122.238">  1  5  2 -1</clus>
<clus scale="  188.692">  2  5  1 -1</clus>
</clustering>
</event>
<event>
 9    1  0.6399313E-006  0.2035848E+03  0.7546771E-02  0.1172268E+00
          1   -1    0    0  502    0 -0.00000000000E+00  0.00000000000E+00  0.25148825242E+02  0.25148825242E+02  0.00000000000E+00 0. -1.
         21   -1    0    0  501  502  0.00000000000E+00 -0.00000000000E+00 -0.10490348382E+04  0.10490348382E+04  0.00000000000E+00 0.  1.
         23    2    1    2    0    0  0.43852038175E+02 -0.10175840822E+02 -0.25203617575E+03  0.27593624987E+03  0.10291759381E+03 0.  0.
         23    2    1    2    0    0 -0.94737868469E+02  0.84637519945E+01 -0.36061783463E+03  0.38387552877E+03  0.90930193643E+02 0.  0.
        -13    1    4    4    0    0 -0.20837978717E+01 -0.25540152588E+02 -0.13801695098E+03  0.14037564022E+03  0.00000000000E+00 0. -1.
         13    1    4    4    0    0 -0.92654070597E+02  0.34003904582E+02 -0.22260088365E+03  0.24349988855E+03  0.00000000000E+00 0.  1.
        -13    1    3    3    0    0  0.43210273159E+02  0.24405021526E+02 -0.22915237664E+03  0.23446437790E+03  0.00000000000E+00 0.  1.
         13    1    3    3    0    0  0.64176501613E+00 -0.34580862348E+02 -0.22883799111E+02  0.41471871971E+02  0.00000000000E+00 0. -1.
          1    1    1    2  501    0  0.50885830294E+02  0.17120888274E+01 -0.41123200255E+03  0.41437188478E+03  0.00000000000E+00 0. -1.
<scales pt_clust_5="13000.00000" pt_clust_6="13000.00000" pt_clust_7="13000.00000" pt_clust_8="13000.00000" pt_clust_9="13000.00000"></scales>
<clustering>
<clus scale="   90.930">  5  6 -1 -1</clus>
<clus scale="   50.915">  5  9 -1 -1</clus>
<clus scale="  102.918">  7  8 -1 -1</clus>
<clus scale="  112.332">  1  7  2 -1</clus>
<clus scale="  203.585">  2  5  1 -1</clus>
</clustering>
</event>
<event>
 9    1  0.6399313E-006  0.3280683E+03  0.7546771E-02  0.1077914E+00
         -1   -1    0    0    0  501 -0.00000000000E+00  0.00000000000E+00  0.49309080738E+03  0.49309080738E+03  0.00000000000E+00 0.  1.
         21   -1    0    0  501  502  0.00000000000E+00 -0.00000000000E+00 -0.19184494528E+03  0.19184494528E+03  0.00000000000E+00 0. -1.
         23    2    1    2    0    0  0.23469969716E+03  0.12035553450E+03  0.84719938325E+02  0.29185527036E+03  0.91829343665E+02 0.  0.
         23    2    1    2    0    0 -0.12505663483E+03 -0.17200988837E+02  0.17777975009E+03  0.23763361876E+03  0.94493710331E+02 0.  0.
        -11    1    4    4    0    0 -0.51707743163E+02 -0.46379107204E+02  0.12395611998E+03  0.14209092852E+03  0.00000000000E+00 0. -1.
         11    1    4    4    0    0 -0.73348891662E+02  0.29178118368E+02  0.53823630111E+02  0.95542690238E+02  0.00000000000E+00 0.  1.
        -11    1    3    3    0    0  0.12563689197E+03  0.15185300983E+02  0.52197518925E+02  0.13689340003E+03  0.00000000000E+00 0.  1.
         11    1    3    3    0    0  0.10906280519E+03  0.10517023351E+03  0.32522419400E+02  0.15496187033E+03  0.00000000000E+00 0. -1.
         -1    1    1    2    0  502 -0.10964306234E+03 -0.10315454566E+03  0.38746173688E+02  0.15544686354E+03  0.00000000000E+00 0.  1.
<scales pt_clust_5="13000.00000" pt_clust_6="13000.00000" pt_clust_7="13000.00000" pt_clust_8="13000.00000" pt_clust_9="13000.00000"></scales>
<clustering>
<clus scale="   91.829">  7  8 -1 -1</clus>
<clus scale="   94.494">  5  6 -1 -1</clus>
<clus scale="  150.541">  5  9 -1 -1</clus>
<clus scale="  279.289">  1  7  2 -1</clus>
<clus scale="  328.068">  2  5  1 -1</clus>
</clustering>
</event>
<event>
 9    1  0.6399313E-006  0.2789532E+03  0.7546771E-02  0.1122759E+00
         21   -1    0    0  501  502  0.00000000000E+00  0.00000000000E+00  0.72747284733E+02  0.72747284733E+02  0.00000000000E+00 0. -1.
          1   -1    0    0  502    0 -0.00000000000E+00 -0.00000000000E+00 -0.61321169238E+03  0.61321169238E+03  0.00000000000E+00 0. -1.
         23    2    1    2    0    0  0.44185407631E+02 -0.82797400295E+02 -0.21044753046E+03  0.25384088008E+03  0.10648600651E+03 0.  0.
         23    2    1    2    0    0 -0.23009723615E+02 -0.10017153442E+02 -0.32295611710E+03  0.33665708241E+03  0.91692675920E+02 0.  0.
        -11    1    3    3    0    0 -0.41047411858E+01 -0.67286023912E+02 -0.18539610410E+03  0.19727131908E+03  0.00000000000E+00 0. -1.
         11    1    3    3    0    0  0.48290148817E+02 -0.15511376383E+02 -0.25051426354E+02  0.56569561006E+02  0.00000000000E+00 0.  1.
        -11    1    4    4    0    0  0.16389025378E+02 -0.41497824136E+02 -0.14843497760E+03  0.15499552295E+03  0.00000000000E+00 0. -1.
         11    1    4    4    0    0 -0.39398748993E+02  0.31480670694E+02 -0.17452113951E+03  0.18166155946E+03  0.00000000000E+00 0.  1.
          1    1    1    2  501    0 -0.21175684016E+02  0.92814553737E+02 -0.70607600836E+01  0.95461014618E+02  0.00000000000E+00 0. -1.
<scales pt_clust_5="13000.00000" pt_clust_6="13000.00000" pt_clust_7="13000.00000" pt_clust_8="13000.00000" pt_clust_9="13000.00000"></scales>
<clustering>
<clus scale="   91.693">  7  8 -1 -1</clus>
<clus scale="   95.200">  7  9 -1 -1</clus>
<clus scale="  106.486">  5  6 -1 -1</clus>
<clus scale="  141.940">  2  5  1 -1</clus>
<clus scale="  278.953">  1  5  2 -1</clus>
</clustering>
</event>
<event>
 9    1  0.6399313E-006  0.1348474E+03  0.7546771E-02  0.1230505E+00
         -1   -1    0    0    0  501 -0.00000000000E+00  0.00000000000E+00  0.57709555890E+02  0.57709555890E+02  0.00000000000E+00 0.  1.
         21   -1    0    0  501  502  0.00000000000E+00 -0.00000000000E+00 -0.26435175352E+03  0.26435175352E+03  0.00000000000E+00 0. -1.
         23    2    1    2    0    0  0.14056146934E+02  0.27282978924E+02 -0.11691644538E+03  0.16009055066E+03  0.10496472268E+03 0.  0.
         23    2    1    2    0    0  0.63025059243E+01 -0.55331710791E+02 -0.61201331639E+02  0.11708369294E+03  0.82835187916E+02 0.  0.
        -11    1    4    4    0    0  0.33468419010E+02 -0.21471221440E+02 -0.62011259127E+02  0.73665084536E+02  0.00000000000E+00 0.  1.
         11    1    4    4    0    0 -0.27165913085E+02 -0.33860489351E+02  0.80992748812E+00  0.43418608400E+02  0.00000000000E+00 0. -1.
        -11    1    3    3    0    0 -0.45274971863E+01  0.42991358776E+02 -0.12669425676E+03  0.13386631337E+03  0.00000000000E+00 0. -1.
         11    1    3    3    0    0  0.18583644120E+02 -0.15708379852E+02  0.97778113787E+01  0.26224237295E+02  0.00000000000E+00 0.  1.
         -1    1    1    2    0  502 -0.20358652858E+02  0.28048731867E+02 -0.28524420613E+02  0.44887065808E+02  0.00000000000E+00 0.  1.
<scales pt_clust_5="13000.00000" pt_clust_6="13000.00000" pt_clust_7="13000.00000" pt_clust_8="13000.00000" pt_clust_9="13000.00000"></scales>
<clustering>
<clus scale="   82.835">  5  6 -1 -1</clus>
<clus scale="   34.658">  5  9 -1 -1</clus>
<clus scale="  104.965">  7  8 -1 -1</clus>
<clus scale="  109.360">  1  7  2 -1</clus>
<clus scale="  134.847">  2  5  1 -1</clus>
</clustering>
</event>
<event>
 9    1  0.6399313E-006  0.2216453E+03  0.7546771E-02  0.1147090E+00
         21   -1    0    0  501  502  0.00000000000E+00  0.00000000000E+00  0.42631463684E+03  0.42631463684E+03  0.00000000000E+00 0. -1.
          2   -1    0    0  502    0 -0.00000000000E+00 -0.00000000000E+00 -0.94504604174E+02  0.94504604174E+02  0.00000000000E+00 0. -1.
         23    2    1    2    0    0  0.74915792717E+02 -0.10323914399E+03  0.54257143456E+02  0.16562599488E+03  0.90650072885E+02 0.  0.
         23    2    1    2    0    0 -0.74157792805E+02  0.73452114455E+01  0.10988269569E+03  0.16203653603E+03  0.92888652865E+02 0.  0.
        -11    1    3    3    0    0  0.31351683726E+02 -0.16905445916E+02  0.58877468012E+02  0.68813359267E+02  0.00000000000E+00 0. -1.
         11    1    3    3    0    0  0.43564108991E+02 -0.86333698077E+02 -0.46203245563E+01  0.96812635615E+02  0.00000000000E+00 0.  1.
        -13    1    4    4    0    0 -0.61199364472E+01 -0.34042386849E+02  0.56215647842E+02  0.66004066441E+02  0.00000000000E+00 0.  1.
         13    1    4    4    0    0 -0.68037856358E+02  0.41387598294E+02  0.53667047847E+02  0.96032469587E+02  0.00000000000E+00 0. -1.
          2    1    1    2  501    0 -0.75799991192E+00  0.95893932547E+02  0.16767019352E+03  0.19315671011E+03  0.00000000000E+00 0. -1.
<scales pt_clust_5="13000.00000" pt_clust_6="13000.00000" pt_clust_7="13000.00000" pt_clust_8="13000.00000" pt_clust_9="13000.00000"></scales>
<clustering>
<clus scale="   90.650">  5  6 -1 -1</clus>
<clus scale="   92.889">  7  8 -1 -1</clus>
<clus scale="   95.897">  7  9 -1 -1</clus>
<clus scale="  156.487">  2  5  1 -1</clus>
<clus scale="  221.645">  1  5  2 -1</clus>
</clustering>
</event>
<event>
 9    1  0.6399313E-006  0.3597613E+03  0.7546771E-02  0.1062810E+00
          1   -1    0    0  502    0 -0.00000000000E+00  0.00000000000E+00  0.19984493926E+04  0.19984493926E+04  0.00000000000E+00 0. -1.
         21   -1    0    0  501  502  0.00000000000E+00 -0.00000000000E+00 -0.60544770756E+02  0.60544770756E+02  0.00000000000E+00 0. -1.
         23    2    1    2    0    0 -0.13802343904E+03 -0.27440001021E+03  0.70048887712E+03  0.77034141683E+03  0.91626394583E+02 0.  0.
         23    2    1    2    0    0  0.86685343065E+02  0.13723036692E+03  0.44054604365E+03  0.47843522534E+03  0.92048497899E+02 0.  0.
        -11    1    3    3    0    0 -0.79931606999E+02 -0.11850680536E+03  0.22478439549E+03  0.26638496423E+03  0.00000000000E+00 0.  1.
         11    1    3    3    0    0 -0.58091832045E+02 -0.15589320485E+03  0.47570448163E+03  0.50395645260E+03  0.00000000000E+00 0. -1.
        -11    1    4    4    0    0  0.51169217228E+02  0.10277654363E+03  0.18192651016E+03  0.21512452629E+03  0.00000000000E+00 0. -1.
         11    1    4    4    0    0  0.35516125837E+02  0.34453823293E+02  0.25861953348E+03  0.26331069905E+03  0.00000000000E+00 0.  1.
          1    1    1    2  501    0  0.51338095979E+02  0.13716964329E+03  0.79686970104E+03  0.81021752115E+03  0.00000000000E+00 0. -1.
<scales pt_clust_5="13000.00000" pt_clust_6="13000.00000" pt_clust_7="13000.00000" pt_clust_8="13000.00000" pt_clust_9="13000.00000"></scales>
<clustering>
<clus scale="   91.626">  5  6 -1 -1</clus>
<clus scale="   92.048">  7  8 -1 -1</clus>
<clus scale="  146.462">  7  9 -1 -1</clus>
<clus scale="  320.533">  1  5  2 -1</clus>
<clus scale="  359.761">  2  5  1 -1</clus>
</clustering>
</event>
<event>
 9    1  0.6399313E-006  0.2802254E+03  0.7546771E-02  0.1103942E+00
         21   -1    0    0  501  502  0.00000000000E+00  0.00000000000E+00  0.22898010060E+03  0.22898010060E+03  0.00000000000E+00 0. -1.
          2   -1    0    0  502    0 -0.00000000000E+00 -0.00000000000E+00 -0.28648925857E+03  0.28648925857E+03  0.00000000000E+00 0. -1.
         23    2    1    2    0    0 -0.20114664784E+03  0.42411026764E+02 -0.66604180450E+02  0.23509637109E+03  0.92604091261E+02 0.  0.
         23    2    1    2    0    0  0.30727180943E+02 -0.24202635004E+02 -0.23534185152E+02  0.10590521049E+03  0.95562171121E+02 0.  0.
        -11    1    4    4    0    0  0.34201321861E+02 -0.57445007873E+02 -0.35210331189E+01  0.66948166672E+02  0.00000000000E+00 0.  1.
         11    1    4    4    0    0 -0.34741409180E+01  0.33242372869E+02 -0.20013152033E+02  0.38957043822E+02  0.00000000000E+00 0. -1.
        -13    1    3    3    0    0 -0.15492726519E+03  0.71468404424E+02 -0.55191147002E+02  0.17932164687E+03  0.00000000000E+00 0. -1.
         13    1    3    3    0    0 -0.46219382649E+02 -0.29057377660E+02 -0.11413033448E+02  0.55774724216E+02  0.00000000000E+00 0.  1.
          2    1    1    2  501    0  0.17041946689E+03 -0.18208391760E+02  0.32629207632E+02  0.17446777759E+03  0.00000000000E+00 0. -1.
<scales pt_clust_5="13000.00000" pt_clust_6="13000.00000" pt_clust_7="13000.00000" pt_clust_8="13000.00000" pt_clust_9="13000.00000"></scales>
<clustering>
<clus scale="   92.604">  7  8 -1 -1</clus>
<clus scale="   95.562">  5  6 -1 -1</clus>
<clus scale="  171.390">  5  9 -1 -1</clus>
<clus scale="  225.464">  2  7  1 -1</clus>
<clus scale="  280.225">  1  5  2 -1</clus>
</clustering>
</event>
<event>
 9    1  0.6399313E-006  0.5828467E+03  0.7546771E-02  0.1044956E+00
         21   -1    0    0  501  502  0.00000000000E+00  0.00000000000E+00  0.44766541278E+03  0.44766541278E+03  0.00000000000E+00 0. -1.
          2   -1    0    0  502    0 -0.00000000000E+00 -0.00000000000E+00 -0.43238252080E+03  0.43238252080E+03  0.00000000000E+00 0. -1.
         23    2    1    2    0    0 -0.30740908097E+01  0.85245263886E+02 -0.21877823314E+03  0.25195968006E+03  0.91343089655E+02 0.  0.
         23    2    1    2    0    0 -0.43271103241E+02 -0.35386643813E+02 -0.17974964879E+03  0.20871596591E+03  0.90154396731E+02 0.  0.
        -11    1    4    4    0    0  0.14989395249E+02 -0.43918088338E+02 -0.92007020610E+02  0.10304742740E+03  0.00000000000E+00 0.  1.
         11    1    4    4    0    0 -0.58260498490E+02  0.85314445255E+01 -0.87742628181E+02  0.10566853851E+03  0.00000000000E+00 0. -1.
        -11    1    3    3    0    0  0.22570481935E+02  0.68836104245E+02 -0.20700987905E+03  0.21931923292E+03  0.00000000000E+00 0. -1.
         11    1    3    3    0    0 -0.25644572745E+02  0.16409159640E+02 -0.11768354090E+02  0.32640447138E+02  0.00000000000E+00 0.  1.
          2    1    1    2  501    0  0.46345194051E+02 -0.49858620073E+02  0.41381077392E+03  0.41937228761E+03  0.00000000000E+00 0. -1.
<scales pt_clust_5="13000.00000" pt_clust_6="13000.00000" pt_clust_7="13000.00000" pt_clust_8="13000.00000" pt_clust_9="13000.00000"></scales>
<clustering>
<clus scale="   90.154">  5  6 -1 -1</clus>
<clus scale="   68.072">  5  9 -1 -1</clus>
<clus scale="   91.343">  7  8 -1 -1</clus>
<clus scale="  124.979">  2  7  1 -1</clus>
<clus scale="  582.847">  1  5  2 -1</clus>
</clustering>
</event>
<event>
 9    1  0.6399313E-006  0.1557330E+03  0.7546771E-02  0.1211306E+00
          1   -1    0    0  502    0 -0.00000000000E+00  0.00000000000E+00  0.29596761401E+03  0.29596761401E+03  0.00000000000E+00 0. -1.
         21   -1    0    0  501  502  0.00000000000E+00 -0.00000000000E+00 -0.62908594242E+02  0.62908594242E+02  0.00000000000E+00 0.  1.
         23    2    1    2    0    0 -0.48005705833E+02 -0.10689711345E+02  0.14578342290E+03  0.18035503840E+03  0.94108000527E+02 0.  0.
         23    2    1    2    0    0  0.58979913652E+02  0.30458473563E+02  0.31425900969E+02  0.11826815558E+03  0.92700704130E+02 0.  0.
        -11    1    3    3    0    0  0.23004897479E+02 -0.24585934800E+02  0.50931999309E+02  0.61055401494E+02  0.00000000000E+00 0. -1.
         11    1    3    3    0    0 -0.71010603311E+02  0.13896223455E+02  0.94851423594E+02  0.11929963691E+03  0.00000000000E+00 0.  1.
        -13    1    4    4    0    0  0.14817519650E+01  0.47609658152E+02 -0.52879959823E+01  0.47925338181E+02  0.00000000000E+00 0.  1.
         13    1    4    4    0    0  0.57498161687E+02 -0.17151184589E+02  0.36713896952E+02  0.70342817399E+02  0.00000000000E+00 0. -1.
          1    1    1    2  501    0 -0.10974207819E+02 -0.19768762217E+02  0.55849695896E+02  0.60253014269E+02  0.00000000000E+00 0. -1.
<scales pt_clust_5="13000.00000" pt_clust_6="13000.00000" pt_clust_7="13000.00000" pt_clust_8="13000.00000" pt_clust_9="13000.00000"></scales>
<clustering>
<clus scale="   92.701">  7  8 -1 -1</clus>
<clus scale="   22.611">  7  9 -1 -1</clus>
<clus scale="   94.108">  5  6 -1 -1</clus>
<clus scale="  106.184">  1  5  2 -1</clus>
<clus scale="  155.733">  2  5  1 -1</clus>
</clustering>
</event>
<event>
 9    1  0.6399313E-006  0.4046889E+03  0.7546771E-02  0.1071891E+00
         -2   -1    0    0    0  501 -0.00000000000E+00  0.00000000000E+00  0.18109772603E+03  0.18109772603E+03  0.00000000000E+00 0.  1.
         21   -1    0    0  501  502  0.00000000000E+00 -0.00000000000E+00 -0.61539646729E+03  0.61539646729E+03  0.00000000000E+00 0. -1.
         23    2    1    2    0    0  0.14849842122E+03 -0.80743379517E+01  0.32957562645E+02  0.17835056854E+03  0.92767172673E+02 0.  0.
         23    2    1    2    0    0 -0.26235345402E+03 -0.11645741869E+02 -0.24925922215E+03  0.37141588475E+03  0.82792762231E+02 0.  0.
        -11    1    3    3    0    0  0.88072565833E+02  0.41109468757E+02  0.22217598749E+02  0.99701489297E+02  0.00000000000E+00 0.  1.
         11    1    3    3    0    0  0.60425855382E+02 -0.49183806709E+02  0.10739963897E+02  0.78649079241E+02  0.00000000000E+00 0. -1.
        -11    1    4    4    0    0 -0.82377095081E+02 -0.12852776531E+02 -0.13358711308E+03  0.15746966832E+03  0.00000000000E+00 0.  1.
         11    1    4    4    0    0 -0.17997635894E+03  0.12070346624E+01 -0.11567210907E+03  0.21394621643E+03  0.00000000000E+00 0. -1.
         -2    1    1    2    0  502  0.11385503281E+03  0.19720079821E+02 -0.21799708177E+03  0.24672774003E+03  0.00000000000E+00 0.  1.
<scales pt_clust_5="13000.00000" pt_clust_6="13000.00000" pt_clust_7="13000.00000" pt_clust_8="13000.00000" pt_clust_9="13000.00000"></scales>
<clustering>
<clus scale="   82.793">  7  8 -1 -1</clus>
<clus scale="   92.767">  5  6 -1 -1</clus>
<clus scale="  115.550">  7  9 -1 -1</clus>
<clus scale="  175.279">  1  5  2 -1</clus>
<clus scale="  404.689">  2  5  1 -1</clus>
</clustering>
</event>
<event>
 9    1  0.6399313E-006  0.1817921E+03  0.7546771E-02  0.1184802E+00
         21   -1    0    0  501  502  0.00000000000E+00  0.00000000000E+00  0.29224965055E+02  0.29224965055E+02  0.00000000000E+00 0.  1.
          1   -1    0    0  502    0 -0.00000000000E+00 -0.00000000000E+00 -0.81952993082E+03  0.81952993082E+03  0.00000000000E+00 0. -1.
         23    2    1    2    0    0 -0.66264092272E+01  0.71062218521E+02 -0.41550257525E+03  0.43219131586E+03  0.95148280414E+02 0.  0.
         23    2    1    2    0    0  0.33237349306E+02 -0.10043792042E+03 -0.26054072403E+03  0.29562226192E+03  0.91206116124E+02 0.  0.
        -11    1    3    3    0    0 -0.21823551014E+02 -0.14000337234E+02 -0.46839506844E+02  0.53537054672E+02  0.00000000000E+00 0.  1.
         11    1    3    3    0    0  0.15197141786E+02  0.85062555756E+02 -0.36866306841E+03  0.37865426119E+03  0.00000000000E+00 0. -1.
        -13    1    4    4    0    0  0.17450952682E+02 -0.66426883684E+02 -0.24599631257E+03  0.25540409634E+03  0.00000000000E+00 0. -1.
         13    1    4    4    0    0  0.15786396624E+02 -0.34011036737E+02 -0.14544411453E+02  0.40218165582E+02  0.00000000000E+00 0.  1.
          1    1    1    2  501    0 -0.26610940078E+02  0.29375701900E+02 -0.11426166649E+03  0.12094131810E+03  0.00000000000E+00 0. -1.
<scales pt_clust_5="13000.00000" pt_clust_6="13000.00000" pt_clust_7="13000.00000" pt_clust_8="13000.00000" pt_clust_9="13000.00000"></scales>
<clustering>
<clus scale="   91.206">  7  8 -1 -1</clus>
<clus scale="   39.637">  7  9 -1 -1</clus>
<clus scale="   95.148">  5  6 -1 -1</clus>
<clus scale="  118.941">  2  5  1 -1</clus>
<clus scale="  181.792">  1  5  2 -1</clus>
</clustering>
</event>
<event>
 9    1  0.6399313E-006  0.4566053E+03  0.7546771E-02  0.1068038E+00
          4   -1    0    0  502    0 -0.00000000000E+00  0.00000000000E+00  0.15802531716E+03  0.15802531716E+03  0.00000000000E+00 0. -1.
         21   -1    0    0  501  502  0.00000000000E+00 -0.00000000000E+00 -0.58381812039E+03  0.58381812039E+03  0.00000000000E+00 0. -1.
         23    2    1    2    0    0  0.77735198846E+02  0.13325724790E+02 -0.33161397277E+02  0.13964099598E+03  0.11036119521E+03 0.  0.
         23    2    1    2    0    0 -0.10345739158E+02  0.15464478017E+03 -0.12312144227E+02  0.18101581945E+03  0.92698951695E+02 0.  0.
        -11    1    3    3    0    0  0.10418847537E+03  0.87729950015E+01 -0.39990126761E+02  0.11194379876E+03  0.00000000000E+00 0.  1.
         11    1    3    3    0    0 -0.26453276528E+02  0.45527297889E+01  0.68287294842E+01  0.27697197222E+02  0.00000000000E+00 0. -1.
        -13    1    4    4    0    0 -0.74083716775E+01  0.89857921760E+02 -0.52873820776E+02  0.10452258606E+03  0.00000000000E+00 0.  1.
         13    1    4    4    0    0 -0.29373674803E+01  0.64786858405E+02  0.40561676549E+02  0.76493233388E+02  0.00000000000E+00 0. -1.
          4    1    1    2  501    0 -0.67389459688E+02 -0.16797050496E+03 -0.38031926173E+03  0.42118662212E+03  0.00000000000E+00 0. -1.
<scales pt_clust_5="13000.00000" pt_clust_6="13000.00000" pt_clust_7="13000.00000" pt_clust_8="13000.00000" pt_clust_9="13000.00000"></scales>
<clustering>
<clus scale="   92.699">  7  8 -1 -1</clus>
<clus scale="  110.361">  5  6 -1 -1</clus>
<clus scale="  135.646">  1  5  2 -1</clus>
<clus scale="  173.424">  7  9 -1 -1</clus>
<clus scale="  456.605">  2  5  1 -1</clus>
</clustering>
</event>
<event>
 9    1  0.6399313E-006  0.2304638E+03  0.7546771E-02  0.1161785E+00
         21   -1    0    0  501  502  0.00000000000E+00  0.00000000000E+00  0.22868077640E+03  0.22868077640E+03  0.00000000000E+00 0. -1.
          2   -1    0    0  502    0 -0.00000000000E+00 -0.00000000000E+00 -0.27254002423E+03  0.27254002423E+03  0.00000000000E+00 0. -1.
         23    2    1    2    0    0 -0.23710206993E+02  0.92898201002E+01 -0.19992192788E+03  0.22288806072E+03  0.95193674640E+02 0.  0.
         23    2    1    2    0    0 -0.78076711035E+02  0.74277812855E+01  0.41810076484E+02  0.12440511957E+03  0.87048300039E+02 0.  0.
        -13    1    4    4    0    0 -0.51112754580E+02  0.21373632862E+01 -0.21421310739E+02  0.55461288809E+02  0.00000000000E+00 0. -1.
         13    1    4    4    0    0 -0.26963956455E+02  0.52904179993E+01  0.63231387223E+02  0.68943830764E+02  0.00000000000E+00 0.  1.
        -13    1    3    3    0    0 -0.57130299163E+02 -0.20205763110E+01 -0.83171942084E+02  0.10092336578E+03  0.00000000000E+00 0. -1.
         13    1    3    3    0    0  0.33420092170E+02  0.11310396411E+02 -0.11674998580E+03  0.12196469494E+03  0.00000000000E+00 0.  1.
          2    1    1    2  501    0  0.10178691803E+03 -0.16717601386E+02  0.11425260357E+03  0.15392762033E+03  0.00000000000E+00 0. -1.
<scales pt_clust_5="13000.00000" pt_clust_6="13000.00000" pt_clust_7="13000.00000" pt_clust_8="13000.00000" pt_clust_9="13000.00000"></scales>
<clustering>
<clus scale="   87.048">  5  6 -1 -1</clus>
<clus scale="   95.194">  7  8 -1 -1</clus>
<clus scale="   98.541">  2  7  1 -1</clus>
<clus scale="   95.086">  5  9 -1 -1</clus>
<clus scale="  230.464">  1  5  2 -1</clus>
</clustering>
</event>
<event>
 9    1  0.6399313E-006  0.7720505E+03  0.7546771E-02  0.1005403E+00
          1   -1    0    0  502    0 -0.00000000000E+00  0.00000000000E+00  0.48353958060E+03  0.48353958060E+03  0.00000000000E+00 0. -1.
         21   -1    0    0  501  502  0.00000000000E+00 -0.00000000000E+00 -0.52430296323E+03  0.52430296323E+03  0.00000000000E+00 0. -1.
         23    2    1    2    0    0 -0.60911260165E+02 -0.13737786169E+03  0.12797799835E+03  0.21756684122E+03  0.91510129708E+02 0.  0.
         23    2    1    2    0    0  0.75905640048E+02  0.41980405083E+03 -0.24103788195E+03  0.49835761857E+03  0.90906260327E+02 0.  0.
        -11    1    4    4    0    0  0.86353147573E+02  0.40254262398E+03 -0.21222158687E+03  0.46317969747E+03  0.00000000000E+00 0. -1.
         11    1    4    4    0    0 -0.10447507524E+02  0.17261426842E+02 -0.28816295081E+02  0.35177921091E+02  0.00000000000E+00 0.  1.
        -13    1    3    3    0    0 -0.82765868724E+02 -0.88327359479E+02  0.76587779854E+02  0.14323965750E+03  0.00000000000E+00 0.  1.
         13    1    3    3    0    0  0.21854608559E+02 -0.49050502209E+02  0.51390218497E+02  0.74327183717E+02  0.00000000000E+00 0. -1.
          1    1    1    2  501    0 -0.14994379884E+02 -0.28242618914E+03  0.72296500973E+02  0.29191808404E+03  0.00000000000E+00 0. -1.
<scales pt_clust_5="13000.00000" pt_clust_6="13000.00000" pt_clust_7="13000.00000" pt_clust_8="13000.00000" pt_clust_9="13000.00000"></scales>
<clustering>
<clus scale="   90.906">  5  6 -1 -1</clus>
<clus scale="   91.510">  7  8 -1 -1</clus>
<clus scale="  175.946">  1  7  2 -1</clus>
<clus scale="  366.451">  5  9 -1 -1</clus>
<clus scale="  772.051">  2  5  1 -1</clus>
</clustering>
</event>
<event>
 9    1  0.6399313E-006  0.4126009E+03  0.7546771E-02  0.1082796E+00
          1   -1    0    0  502    0 -0.00000000000E+00  0.00000000000E+00  0.68738372661E+03  0.68738372661E+03  0.00000000000E+00 0. -1.
         21   -1    0    0  501  502  0.00000000000E+00 -0.00000000000E+00 -0.10477891311E+03  0.10477891311E+03  0.00000000000E+00 0. -1.
         23    2    1    2    0    0 -0.82435211249E+02  0.85807724219E+01  0.11376395606E+03  0.16762178085E+03  0.91025436042E+02 0.  0.
         23    2    1    2    0    0 -0.35065185100E+02 -0.60464807747E+02  0.48177314565E+03  0.49544577630E+03  0.92062984973E+02 0.  0.
        -11    1    3    3    0    0 -0.25800810672E+02  0.41191584581E+02  0.18309338719E+02  0.51939006113E+02  0.00000000000E+00 0.  1.
         11    1    3    3    0    0 -0.56634400577E+02 -0.32610812159E+02  0.95454617341E+02  0.11568277473E+03  0.00000000000E+00 0. -1.
        -11    1    4    4    0    0  0.22893121701E+01 -0.74463532712E+02  0.34623248179E+03  0.35415673098E+03  0.00000000000E+00 0. -1.
         11    1    4    4    0    0 -0.37354497271E+02  0.13998724965E+02  0.13554066387E+03  0.14128904532E+03  0.00000000000E+00 0.  1.
          1    1    1    2  501    0  0.11750039635E+03  0.51884035325E+02 -0.12932288215E+02  0.12909508256E+03  0.00000000000E+00 0. -1.
<scales pt_clust_5="13000.00000" pt_clust_6="13000.00000" pt_clust_7="13000.00000" pt_clust_8="13000.00000" pt_clust_9="13000.00000"></scales>
<clustering>
<clus scale="   91.025">  5  6 -1 -1</clus>
<clus scale="   92.063">  7  8 -1 -1</clus>
<clus scale="  123.105">  1  5  2 -1</clus>
<clus scale="  120.881">  7  9 -1 -1</clus>
<clus scale="  412.601">  2  5  1 -1</clus>
</clustering>
</event>
<event>
 9    1  0.6399313E-006  0.1398962E+03  0.7546771E-02  0.1229898E+00
          1   -1    0    0  502    0 -0.00000000000E+00  0.00000000000E+00  0.21374075093E+03  0.21374075093E+03  0.00000000000E+00 0. -1.
         21   -1    0    0  501  502  0.00000000000E+00 -0.00000000000E+00 -0.67257519220E+02  0.67257519220E+02  0.00000000000E+00 0.  1.
         23    2    1    2    0    0 -0.38754060811E+01  0.33131625684E+02  0.50085811457E+02  0.11110591382E+03  0.93398138016E+02 0.  0.
         23    2    1    2    0    0  0.82469662032E+01 -0.59132383744E+02  0.68158003284E+02  0.13125798525E+03  0.94965751833E+02 0.  0.
        -11    1    3    3    0    0  0.42929006146E+02  0.26715404478E+02  0.16669261282E+02  0.53239803500E+02  0.00000000000E+00 0. -1.
         11    1    3    3    0    0 -0.46804412227E+02  0.64162212059E+01  0.33416550175E+02  0.57866110325E+02  0.00000000000E+00 0.  1.
        -13    1    4    4    0    0 -0.15739086609E+02 -0.40890817304E+02 -0.12161356735E+02  0.45471709718E+02  0.00000000000E+00 0.  1.
         13    1    4    4    0    0  0.23986052812E+02 -0.18241566440E+02  0.80319360019E+02  0.85786275532E+02  0.00000000000E+00 0. -1.
          1    1    1    2  501    0 -0.43715601221E+01  0.26000758061E+02  0.28239416966E+02  0.38634371073E+02  0.00000000000E+00 0. -1.
<scales pt_clust_5="13000.00000" pt_clust_6="13000.00000" pt_clust_7="13000.00000" pt_clust_8="13000.00000" pt_clust_9="13000.00000"></scales>
<clustering>
<clus scale="   93.398">  5  6 -1 -1</clus>
<clus scale="   94.966">  7  8 -1 -1</clus>
<clus scale="   26.366">  7  9 -1 -1</clus>
<clus scale="   99.176">  1  5  2 -1</clus>
<clus scale="  139.896">  2  5  1 -1</clus>
</clustering>
</event>
<event>
 9    1  0.6399313E-006  0.4355319E+03  0.7546771E-02  0.1069176E+00
          1   -1    0    0  502    0 -0.00000000000E+00  0.00000000000E+00  0.93209105015E+03  0.93209105015E+03  0.00000000000E+00 0. -1.
         21   -1    0    0  501  502  0.00000000000E+00 -0.00000000000E+00 -0.10307706052E+03  0.10307706052E+03  0.00000000000E+00 0. -1.
         23    2    1    2    0    0 -0.12022114783E+03  0.43390927391E+01  0.86763004780E+02  0.17457265642E+03  0.92064332185E+02 0.  0.
         23    2    1    2    0    0  0.19670266848E+03  0.13241325478E+03  0.59458477617E+03  0.64529116552E+03  0.81513326664E+02 0.  0.
        -11    1    4    4    0    0  0.10753438061E+02  0.22934585879E+02  0.22562048622E+02  0.33921640550E+02  0.00000000000E+00 0.  1.
         11    1    4    4    0    0  0.18594923042E+03  0.10947866890E+03  0.57202272754E+03  0.61136952497E+03  0.00000000000E+00 0. -1.
        -13    1    3    3    0    0 -0.36391900480E+02  0.34652130420E+02  0.10459644172E+00  0.50250885600E+02  0.00000000000E+00 0. -1.
         13    1    3    3    0    0 -0.83829247352E+02 -0.30313037681E+02  0.86658408338E+02  0.12432177082E+03  0.00000000000E+00 0.  1.
          1    1    1    2  501    0 -0.76481520648E+02 -0.13675234752E+03  0.14766620869E+03  0.21530428872E+03  0.00000000000E+00 0. -1.
<scales pt_clust_5="13000.00000" pt_clust_6="13000.00000" pt_clust_7="13000.00000" pt_clust_8="13000.00000" pt_clust_9="13000.00000"></scales>
<clustering>
<clus scale="   81.513">  5  6 -1 -1</clus>
<clus scale="   92.064">  7  8 -1 -1</clus>
<clus scale="  151.485">  1  7  2 -1</clus>
<clus scale="  170.846">  5  9 -1 -1</clus>
<clus scale="  435.532">  2  5  1 -1</clus>
</clustering>
</event>
<event>
 9    1  0.6399313E-006  0.2086520E+03  0.7546771E-02  0.1176252E+00
         21   -1    0    0  501  502  0.00000000000E+00  0.00000000000E+00  0.14253644559E+03  0.14253644559E+03  0.00000000000E+00 0.  1.
          1   -1    0    0  502    0 -0.00000000000E+00 -0.00000000000E+00 -0.16432659906E+03  0.16432659906E+03  0.00000000000E+00 0. -1.
         23    2    1    2    0    0 -0.20955390427E+01  0.24474327738E+02  0.98359836331E+01  0.95827814905E+02  0.92102331856E+02 0.  0.
         23    2    1    2    0    0  0.34550149674E+02  0.42607343851E+02 -0.66394929453E+02  0.12880311110E+03  0.95775029003E+02 0.  0.
        -11    1    4    4    0    0  0.23972211030E+02 -0.20246210859E+02 -0.56044758279E+02  0.64230762773E+02  0.00000000000E+00 0. -1.
         11    1    4    4    0    0  0.10577938644E+02  0.62853554711E+02 -0.10350171175E+02  0.64572348332E+02  0.00000000000E+00 0.  1.
        -13    1    3    3    0    0 -0.43745192375E+02  0.20207185669E+02  0.20898165889E+02  0.52523380947E+02  0.00000000000E+00 0.  1.
         13    1    3    3    0    0  0.41649653332E+02  0.42671420688E+01 -0.11062182256E+02  0.43304433958E+02  0.00000000000E+00 0. -1.
          1    1    1    2  501    0 -0.32454610631E+02 -0.67081671589E+02  0.34768792347E+02  0.82232118638E+02  0.00000000000E+00 0. -1.
<scales pt_clust_5="13000.00000" pt_clust_6="13000.00000" pt_clust_7="13000.00000" pt_clust_8="13000.00000" pt_clust_9="13000.00000"></scales>
<clustering>
<clus scale="   92.102">  7  8 -1 -1</clus>
<clus scale="   95.322">  2  7  1 -1</clus>
<clus scale="   95.775">  5  6 -1 -1</clus>
<clus scale="   70.432">  5  9 -1 -1</clus>
<clus scale="  208.652">  1  5  2 -1</clus>
</clustering>
</event>
<event>
 9    1  0.6399313E-006  0.1410994E+03  0.7546771E-02  0.1221564E+00
         21   -1    0    0  501  502  0.00000000000E+00  0.00000000000E+00  0.13275060742E+03  0.13275060742E+03  0.00000000000E+00 0.  1.
          4   -1    0    0  502    0 -0.00000000000E+00 -0.00000000000E+00 -0.27570762486E+03  0.27570762486E+03  0.00000000000E+00 0.  1.
         23    2    1    2    0    0  0.72991883209E+02  0.85927275295E+01 -0.21961396118E+03  0.24788013302E+03  0.88389017534E+02 0.  0.
         23    2    1    2    0    0 -0.39175708624E+02  0.88614663579E+01  0.43206889173E+02  0.10991165377E+03  0.92738743960E+02 0.  0.
        -11    1    3    3    0    0  0.48788048231E+02  0.34274970747E+02 -0.19733464140E+03  0.20614559895E+03  0.00000000000E+00 0.  1.
         11    1    3    3    0    0  0.24203834978E+02 -0.25682243217E+02 -0.22279319780E+02  0.41734534071E+02  0.00000000000E+00 0. -1.
        -11    1    4    4    0    0 -0.60535627442E+02  0.18171908108E+01 -0.71368620299E+00  0.60567100973E+02  0.00000000000E+00 0. -1.
         11    1    4    4    0    0  0.21359918817E+02  0.70442755471E+01  0.43920575376E+02  0.49344552802E+02  0.00000000000E+00 0.  1.
          4    1    1    2  501    0 -0.33816174584E+02 -0.17454193887E+02  0.33450054568E+02  0.50666445488E+02  0.00000000000E+00 0.  1.
<scales pt_clust_5="13000.00000" pt_clust_6="13000.00000" pt_clust_7="13000.00000" pt_clust_8="13000.00000" pt_clust_9="13000.00000"></scales>
<clustering>
<clus scale="   88.389">  5  6 -1 -1</clus>
<clus scale="   92.739">  7  8 -1 -1</clus>
<clus scale="   38.055">  7  9 -1 -1</clus>
<clus scale="  114.953">  2  5  1 -1</clus>
<clus scale="  141.099">  1  5  2 -1</clus>
</clustering>
</event>
<event>
 9    1  0.6399313E-006  0.4294985E+03  0.7546771E-02  0.1086059E+00
         21   -1    0    0  501  502  0.00000000000E+00  0.00000000000E+00  0.89463007157E+03  0.89463007157E+03  0.00000000000E+00 0. -1.
          1   -1    0    0  502    0 -0.00000000000E+00 -0.00000000000E+00 -0.17178945045E+03  0.17178945045E+03  0.00000000000E+00 0. -1.
         23    2    1    2    0    0 -0.13189968170E+02  0.37820489365E+02 -0.97979790526E+02  0.14002053597E+03  0.91658859177E+02 0.  0.
         23    2    1    2    0    0 -0.16985073074E+03 -0.97233935559E+02  0.57542866715E+03  0.61454811894E+03  0.90815915768E+02 0.  0.
        -11    1    3    3    0    0 -0.49752104693E+02  0.25017265493E+02 -0.79591604263E+02  0.97138864329E+02  0.00000000000E+00 0. -1.
         11    1    3    3    0    0  0.36562136523E+02  0.12803223872E+02 -0.18388186263E+02  0.42881671641E+02  0.00000000000E+00 0.  1.
        -13    1    4    4    0    0 -0.80614815461E+02 -0.97508799648E+02  0.33912234319E+03  0.36195397239E+03  0.00000000000E+00 0.  1.
         13    1    4    4    0    0 -0.89235915279E+02  0.27486408872E+00  0.23630632396E+03  0.25259414655E+03  0.00000000000E+00 0. -1.
          1    1    1    2  501    0  0.18304069891E+03  0.59413446194E+02  0.24539174450E+03  0.31185086711E+03  0.00000000000E+00 0. -1.
<scales pt_clust_5="13000.00000" pt_clust_6="13000.00000" pt_clust_7="13000.00000" pt_clust_8="13000.00000" pt_clust_9="13000.00000"></scales>
<clustering>
<clus scale="   90.816">  7  8 -1 -1</clus>
<clus scale="   91.659">  5  6 -1 -1</clus>
<clus scale="  100.029">  2  5  1 -1</clus>
<clus scale="  193.543">  7  9 -1 -1</clus>
<clus scale="  429.498">  1  5  2 -1</clus>
</clustering>
</event>
<event>
 9    1  0.1624587E-005  0.6689520E+03  0.7546771E-02  0.9794155E-01
         21   -1    0    0  501  502  0.00000000000E+00  0.00000000000E+00  0.10139350834E+03  0.10139350834E+03  0.00000000000E+00 0.  1.
          2   -1    0    0  502    0 -0.00000000000E+00 -0.00000000000E+00 -0.41353261602E+04  0.41353261602E+04  0.00000000000E+00 0. -1.
         23    2    1    2    0    0  0.37674841199E+03  0.48571012515E+03 -0.21209310128E+04  0.22101284314E+04  0.92008860079E+02 0.  0.
         23    2    1    2    0    0 -0.25707454574E+03 -0.14864991945E+03 -0.90817385422E+03  0.96000308159E+03  0.92962608351E+02 0.  0.
        -11    1    3    3    0    0  0.30133276730E+03  0.42904455816E+03 -0.18679056232E+04  0.19400907419E+04  0.00000000000E+00 0.  1.
         11    1    3    3    0    0  0.75415644687E+02  0.56665566991E+02 -0.25302538961E+03  0.27003768947E+03  0.00000000000E+00 0. -1.
        -11    1    4    4    0    0 -0.62033746776E+02 -0.54989520349E+02 -0.14797003489E+03  0.16960885682E+03  0.00000000000E+00 0.  1.
         11    1    4    4    0    0 -0.19504079896E+03 -0.93660399102E+02 -0.76020381933E+03  0.79039422476E+03  0.00000000000E+00 0. -1.
          2    1    1    2  501    0 -0.11967386625E+03 -0.33706020570E+03 -0.10048277848E+04  0.10665881556E+04  0.00000000000E+00 0. -1.
<scales pt_clust_5="13000.00000" pt_clust_6="13000.00000" pt_clust_7="13000.00000" pt_clust_8="13000.00000" pt_clust_9="13000.00000"></scales>
<clustering>
<clus scale="   92.009">  5  6 -1 -1</clus>
<clus scale="   92.963">  7  8 -1 -1</clus>
<clus scale="  357.675">  7  9 -1 -1</clus>
<clus scale="  621.546">  2  5  1 -1</clus>
<clus scale="  668.952">  1  5  2 -1</clus>
</clustering>
</event>
<event>
 9    1  0.6399313E-006  0.2298228E+03  0.7546771E-02  0.1165431E+00
          1   -1    0    0  502    0 -0.00000000000E+00  0.00000000000E+00  0.32656847483E+03  0.32656847483E+03  0.00000000000E+00 0. -1.
         21   -1    0    0  501  502  0.00000000000E+00 -0.00000000000E+00 -0.81542775694E+02  0.81542775694E+02  0.00000000000E+00 0.  1.
         23    2    1    2    0    0  0.10818088100E+02  0.71605055274E+01  0.10426340727E+03  0.13860698107E+03  0.90403170500E+02 0.  0.
         23    2    1    2    0    0  0.72053113613E+02 -0.40568604448E+02  0.13024432952E+03  0.17953558224E+03  0.91825797407E+02 0.  0.
        -13    1    3    3    0    0  0.29506376447E+02 -0.24643150747E+02  0.13687476480E+02  0.40807574568E+02  0.00000000000E+00 0.  1.
         13    1    3    3    0    0 -0.18688288347E+02  0.31803656275E+02  0.90575930788E+02  0.97799406500E+02  0.00000000000E+00 0. -1.
        -13    1    4    4    0    0  0.54356850122E+02 -0.73320904282E+01  0.12966068180E+02  0.56360851921E+02  0.00000000000E+00 0.  1.
         13    1    4    4    0    0  0.17696263491E+02 -0.33236514020E+02  0.11727826134E+03  0.12317473032E+03  0.00000000000E+00 0. -1.
          1    1    1    2  501    0 -0.82871201712E+02  0.33408098921E+02  0.10517962344E+02  0.89968687212E+02  0.00000000000E+00 0. -1.
<scales pt_clust_5="13000.00000" pt_clust_6="13000.00000" pt_clust_7="13000.00000" pt_clust_8="13000.00000" pt_clust_9="13000.00000"></scales>
<clustering>
<clus scale="   90.403">  5  6 -1 -1</clus>
<clus scale="   91.329">  1  5  2 -1</clus>
<clus scale="   91.826">  7  8 -1 -1</clus>
<clus scale="   87.589">  7  9 -1 -1</clus>
<clus scale="  229.823">  2  5  1 -1</clus>
</clustering>
</event>
<event>
 9    1  0.6399313E-006  0.3180856E+03  0.7546771E-02  0.1109789E+00
         -1   -1    0    0    0  501 -0.00000000000E+00  0.00000000000E+00  0.94766103255E+02  0.94766103255E+02  0.00000000000E+00 0.  1.
         21   -1    0    0  501  502  0.00000000000E+00 -0.00000000000E+00 -0.58428253620E+03  0.58428253620E+03  0.00000000000E+00 0.  1.
         23    2    1    2    0    0  0.97063382903E+02  0.98826054909E+00 -0.62800232167E+02  0.14682204844E+03  0.90501755726E+02 0.  0.
         23    2    1    2    0    0 -0.58883600643E+02 -0.11811151340E+03 -0.35373111383E+03  0.38904008659E+03  0.93855634131E+02 0.  0.
        -11    1    3    3    0    0  0.26732129247E+02 -0.39125352503E+02 -0.56585655533E+01  0.47722314557E+02  0.00000000000E+00 0.  1.
         11    1    3    3    0    0  0.70331253656E+02  0.40113613052E+02 -0.57141666614E+02  0.99099733887E+02  0.00000000000E+00 0. -1.
        -13    1    4    4    0    0 -0.48049381613E+01 -0.55063180595E+02 -0.51303391681E+02  0.75412726286E+02  0.00000000000E+00 0.  1.
         13    1    4    4    0    0 -0.54078662481E+02 -0.63048332807E+02 -0.30242772215E+03  0.31362736030E+03  0.00000000000E+00 0. -1.
         -1    1    1    2    0  502 -0.38179782261E+02  0.11712325285E+03 -0.72985086949E+02  0.14318650442E+03  0.00000000000E+00 0.  1.
<scales pt_clust_5="13000.00000" pt_clust_6="13000.00000" pt_clust_7="13000.00000" pt_clust_8="13000.00000" pt_clust_9="13000.00000"></scales>
<clustering>
<clus scale="   90.502">  5  6 -1 -1</clus>
<clus scale="   93.856">  7  8 -1 -1</clus>
<clus scale="  123.189">  7  9 -1 -1</clus>
<clus scale="  132.713">  1  5  2 -1</clus>
<clus scale="  318.086">  2  5  1 -1</clus>
</clustering>
</event>
<event>
 9    1  0.6399313E-006  0.4093518E+03  0.7546771E-02  0.1092087E+00
         21   -1    0    0  501  502  0.00000000000E+00  0.00000000000E+00  0.61992718511E+03  0.61992718511E+03  0.00000000000E+00 0.  1.
         -1   -1    0    0    0  501 -0.00000000000E+00 -0.00000000000E+00 -0.11091780219E+03  0.11091780219E+03  0.00000000000E+00 0.  1.
         23    2    1    2    0    0 -0.26102615535E+02  0.29962950657E+02  0.18189383436E+03  0.20684742988E+03  0.90118629145E+02 0.  0.
         23    2    1    2    0    0  0.16171252651E+03  0.43187984624E+02  0.33132867148E+02  0.19208352601E+03  0.88216499767E+02 0.  0.
        -11    1    4    4    0    0  0.15010142774E+03  0.13652964325E+02  0.46377822159E+02  0.15769509958E+03  0.00000000000E+00 0.  1.
         11    1    4    4    0    0  0.11611098774E+02  0.29535020299E+02 -0.13244955011E+02  0.34388426426E+02  0.00000000000E+00 0. -1.
        -13    1    3    3    0    0 -0.14514043967E+02  0.58455106200E+02  0.78310286402E+02  0.98793511272E+02  0.00000000000E+00 0.  1.
         13    1    3    3    0    0 -0.11588571569E+02 -0.28492155542E+02  0.10358354796E+03  0.10805391861E+03  0.00000000000E+00 0. -1.
         -1    1    1    2    0  502 -0.13560991097E+03 -0.73150935281E+02  0.29398268140E+03  0.33191403142E+03  0.00000000000E+00 0.  1.
<scales pt_clust_5="13000.00000" pt_clust_6="13000.00000" pt_clust_7="13000.00000" pt_clust_8="13000.00000" pt_clust_9="13000.00000"></scales>
<clustering>
<clus scale="   88.216">  5  6 -1 -1</clus>
<clus scale="   90.119">  7  8 -1 -1</clus>
<clus scale="   98.491">  2  7  1 -1</clus>
<clus scale="  155.946">  5  9 -1 -1</clus>
<clus scale="  409.352">  1  5  2 -1</clus>
</clustering>
</event>
<event>
 9    1  0.6399313E-006  0.2314121E+03  0.7546771E-02  0.1154751E+00
          2   -1    0    0  502    0 -0.00000000000E+00  0.00000000000E+00  0.57410695021E+03  0.57410695021E+03  0.00000000000E+00 0. -1.
         21   -1    0    0  501  502  0.00000000000E+00 -0.00000000000E+00 -0.72708899613E+02  0.72708899613E+02  0.00000000000E+00 0. -1.
         23    2    1    2    0    0 -0.47126453514E+02 -0.52744090007E+02  0.35478834664E+03  0.37287062772E+03  0.90304443153E+02 0.  0.
         23    2    1    2    0    0 -0.19975588003E+02 -0.47979590768E+02  0.42327796697E+02  0.11418709234E+03  0.92444493815E+02 0.  0.
        -11    1    4    4    0    0 -0.51515493032E+02 -0.80277184183E+01  0.78901911580E+01  0.52730877120E+02  0.00000000000E+00 0.  1.
         11    1    4    4    0    0  0.31539905029E+02 -0.39951872349E+02  0.34437605539E+02  0.61456215217E+02  0.00000000000E+00 0. -1.
        -13    1    3    3    0    0 -0.61274401551E+02 -0.13133322725E+02  0.13166578436E+03  0.14581808949E+03  0.00000000000E+00 0. -1.
         13    1    3    3    0    0  0.14147948037E+02 -0.39610767282E+02  0.22312256229E+03  0.22705253824E+03  0.00000000000E+00 0.  1.
          2    1    1    2  501    0  0.67102041517E+02  0.10072368077E+03  0.10428190726E+03  0.15975812977E+03  0.00000000000E+00 0. -1.
<scales pt_clust_5="13000.00000" pt_clust_6="13000.00000" pt_clust_7="13000.00000" pt_clust_8="13000.00000" pt_clust_9="13000.00000"></scales>
<clustering>
<clus scale="   90.304">  7  8 -1 -1</clus>
<clus scale="   92.444">  5  6 -1 -1</clus>
<clus scale="  114.707">  1  7  2 -1</clus>
<clus scale="   77.319">  5  9 -1 -1</clus>
<clus scale="  231.412">  2  5  1 -1</clus>
</clustering>
</event>
<event>
 9    1  0.6399313E-006  0.3580169E+03  0.7546771E-02  0.1096568E+00
         21   -1    0    0  501  502  0.00000000000E+00  0.00000000000E+00  0.31638658213E+03  0.31638658213E+03  0.00000000000E+00 0.  1.
         -4   -1    0    0    0  501 -0.00000000000E+00 -0.00000000000E+00 -0.19314684592E+03  0.19314684592E+03  0.00000000000E+00 0.  1.
         23    2    1    2    0    0  0.89912121598E+02 -0.25651003389E+02  0.67245542099E+02  0.14716416778E+03  0.91614222477E+02 0.  0.
         23    2    1    2    0    0  0.60316287134E+02  0.13429235596E+03  0.23206487046E+02  0.17409671312E+03  0.89992405875E+02 0.  0.
        -11    1    3    3    0    0  0.79685176257E+02  0.11802522630E+02  0.14785790691E+02  0.81900222599E+02  0.00000000000E+00 0.  1.
         11    1    3    3    0    0  0.10226945341E+02 -0.37453526019E+02  0.52459751408E+02  0.65263945178E+02  0.00000000000E+00 0. -1.
        -13    1    4    4    0    0  0.13397202215E+02  0.11194961173E+03 -0.87543459974E+01  0.11308774986E+03  0.00000000000E+00 0.  1.
         13    1    4    4    0    0  0.46919084919E+02  0.22342744226E+02  0.31960833044E+02  0.61008963260E+02  0.00000000000E+00 0. -1.
         -4    1    1    2    0  502 -0.15022840873E+03 -0.10864135257E+03  0.32787707067E+02  0.18827254716E+03  0.00000000000E+00 0.  1.
<scales pt_clust_5="13000.00000" pt_clust_6="13000.00000" pt_clust_7="13000.00000" pt_clust_8="13000.00000" pt_clust_9="13000.00000"></scales>
<clustering>
<clus scale="   89.992">  7  8 -1 -1</clus>
<clus scale="   91.614">  5  6 -1 -1</clus>
<clus scale="  130.902">  2  5  1 -1</clus>
<clus scale="  160.442">  7  9 -1 -1</clus>
<clus scale="  358.017">  1  5  2 -1</clus>
</clustering>
</event>
<event>
 9    1  0.6399313E-006  0.3749490E+03  0.7546771E-02  0.1102201E+00
         -1   -1    0    0    0  501 -0.00000000000E+00  0.00000000000E+00  0.12187766676E+03  0.12187766676E+03  0.00000000000E+00 0.  1.
         21   -1    0    0  501  502  0.00000000000E+00 -0.00000000000E+00 -0.47145364937E+03  0.47145364937E+03  0.00000000000E+00 0.  1.
         23    2    1    2    0    0 -0.30165343823E+02  0.22926655333E+02 -0.36948771693E+02  0.10514843081E+03  0.90859238818E+02 0.  0.
         23    2    1    2    0    0  0.15250752204E+03 -0.18545211026E+02 -0.29090037605E+02  0.17934614159E+03  0.87842695111E+02 0.  0.
        -11    1    3    3    0    0 -0.41876694429E+02  0.48341625893E+02 -0.42269710682E+02  0.76663542649E+02  0.00000000000E+00 0.  1.
         11    1    3    3    0    0  0.11711350606E+02 -0.25414970560E+02  0.53209389896E+01  0.28484888157E+02  0.00000000000E+00 0. -1.
        -13    1    4    4    0    0  0.99785800758E+02 -0.65049802776E+01  0.24771826436E+02  0.10302021251E+03  0.00000000000E+00 0.  1.
         13    1    4    4    0    0  0.52721721287E+02 -0.12040230748E+02 -0.53861864041E+02  0.76325929080E+02  0.00000000000E+00 0. -1.
         -1    1    1    2    0  502 -0.12234217822E+03 -0.43814443079E+01 -0.28353717331E+03  0.30883674373E+03  0.00000000000E+00 0.  1.
<scales pt_clust_5="13000.00000" pt_clust_6="13000.00000" pt_clust_7="13000.00000" pt_clust_8="13000.00000" pt_clust_9="13000.00000"></scales>
<clustering>
<clus scale="   87.843">  7  8 -1 -1</clus>
<clus scale="   90.859">  5  6 -1 -1</clus>
<clus scale="   98.443">  1  5  2 -1</clus>
<clus scale="  126.694">  7  9 -1 -1</clus>
<clus scale="  374.949">  2  5  1 -1</clus>
</clustering>
</event>
<event>
 9    1  0.6399313E-006  0.2865646E+03  0.7546771E-02  0.1132029E+00
         21   -1    0    0  501  502  0.00000000000E+00  0.00000000000E+00  0.12055907178E+03  0.12055907178E+03  0.00000000000E+00 0.  1.
         -1   -1    0    0    0  501 -0.00000000000E+00 -0.00000000000E+00 -0.33721697836E+03  0.33721697836E+03  0.00000000000E+00 0.  1.
         23    2    1    2    0    0 -0.27142631527E+02  0.44970801164E+02 -0.11135748433E+03  0.15247711248E+03  0.89942676802E+02 0.  0.
         23    2    1    2    0    0  0.99786874221E+02 -0.10958402431E+03 -0.11165206144E+03  0.20786999985E+03  0.93689248922E+02 0.  0.
        -11    1    3    3    0    0 -0.14489916190E+02  0.69515861013E+02 -0.55355321564E+02  0.90036793751E+02  0.00000000000E+00 0. -1.
         11    1    3    3    0    0 -0.12652715337E+02 -0.24545059849E+02 -0.56002162767E+02  0.62440318729E+02  0.00000000000E+00 0.  1.
        -13    1    4    4    0    0  0.78225387687E+02 -0.27287935867E+02 -0.25240510504E+02  0.86607887015E+02  0.00000000000E+00 0.  1.
         13    1    4    4    0    0  0.21561486534E+02 -0.82296088440E+02 -0.86411550935E+02  0.12126211283E+03  0.00000000000E+00 0. -1.
         -1    1    1    2    0  502 -0.72644242695E+02  0.64613223144E+02  0.63516391948E+01  0.97428937807E+02  0.00000000000E+00 0.  1.
<scales pt_clust_5="13000.00000" pt_clust_6="13000.00000" pt_clust_7="13000.00000" pt_clust_8="13000.00000" pt_clust_9="13000.00000"></scales>
<clustering>
<clus scale="   89.943">  5  6 -1 -1</clus>
<clus scale="   93.689">  7  8 -1 -1</clus>
<clus scale="   97.222">  7  9 -1 -1</clus>
<clus scale="  104.157">  2  5  1 -1</clus>
<clus scale="  286.565">  1  5  2 -1</clus>
</clustering>
</event>
<event>
 9    1  0.6399313E-006  0.1714330E+03  0.7546771E-02  0.1202461E+00
          1   -1    0    0  502    0 -0.00000000000E+00  0.00000000000E+00  0.49468174074E+03  0.49468174074E+03  0.00000000000E+00 0. -1.
         21   -1    0    0  501  502  0.00000000000E+00 -0.00000000000E+00 -0.51134374150E+02  0.51134374150E+02  0.00000000000E+00 0.  1.
         23    2    1    2    0    0  0.63910347308E+01  0.27252351991E+02  0.32091464415E+03  0.33503644674E+03  0.92085155159E+02 0.  0.
         23    2    1    2    0    0 -0.54354602496E+02  0.63114927617E+01  0.10454569056E+03  0.14950833530E+03  0.91807859984E+02 0.  0.
        -13    1    3    3    0    0 -0.51979241564E+01  0.60425948079E+02  0.18706393402E+03  0.19665001659E+03  0.00000000000E+00 0.  1.
         13    1    3    3    0    0  0.11588958887E+02 -0.33173596087E+02  0.13385071014E+03  0.13838643015E+03  0.00000000000E+00 0. -1.
        -13    1    4    4    0    0  0.14289870588E+02  0.25978823459E+02  0.55364595832E+02  0.62803965969E+02  0.00000000000E+00 0.  1.
         13    1    4    4    0    0 -0.68644473084E+02 -0.19667330697E+02  0.49181094728E+02  0.86704369327E+02  0.00000000000E+00 0. -1.
          1    1    1    2  501    0  0.47963567765E+02 -0.33563844753E+02  0.18087031878E+02  0.61271332853E+02  0.00000000000E+00 0. -1.
<scales pt_clust_5="13000.00000" pt_clust_6="13000.00000" pt_clust_7="13000.00000" pt_clust_8="13000.00000" pt_clust_9="13000.00000"></scales>
<clustering>
<clus scale="   91.808">  7  8 -1 -1</clus>
<clus scale="   58.541">  7  9 -1 -1</clus>
<clus scale="   92.085">  5  6 -1 -1</clus>
<clus scale="   96.246">  1  5  2 -1</clus>
<clus scale="  171.433">  2  5  1 -1</clus>
</clustering>
</event>
<event>
 9    1  0.6399313E-006  0.1753450E+03  0.7546771E-02  0.1191094E+00
         21   -1    0    0  501  502  0.00000000000E+00  0.00000000000E+00  0.73853732938E+02  0.73853732938E+02  0.00000000000E+00 0. -1.
          3   -1    0    0  502    0 -0.00000000000E+00 -0.00000000000E+00 -0.44267204366E+03  0.44267204366E+03  0.00000000000E+00 0. -1.
         23    2    1    2    0    0  0.53620977461E+02  0.59165398326E+02 -0.31133986808E+03  0.33200030724E+03  0.83162112574E+02 0.  0.
         23    2    1    2    0    0 -0.60859340154E+02 -0.90732792850E+02 -0.51141393941E+02  0.15152467425E+03  0.91695069391E+02 0.  0.
        -11    1    4    4    0    0  0.24878784959E+01 -0.34302728938E+02  0.20884342341E+02  0.40237078759E+02  0.00000000000E+00 0.  1.
         11    1    4    4    0    0 -0.63347218649E+02 -0.56430063911E+02 -0.72025736282E+02  0.11128759549E+03  0.00000000000E+00 0. -1.
        -13    1    3    3    0    0  0.50832880779E+01  0.34498276428E+02 -0.31753834076E+02  0.47162239903E+02  0.00000000000E+00 0.  1.
         13    1    3    3    0    0  0.48537689383E+02  0.24667121898E+02 -0.27958603401E+03  0.28483806734E+03  0.00000000000E+00 0. -1.
          3    1    1    2  501    0  0.72383626923E+01  0.31567394524E+02 -0.63370487003E+01  0.33000795107E+02  0.00000000000E+00 0. -1.
<scales pt_clust_5="13000.00000" pt_clust_6="13000.00000" pt_clust_7="13000.00000" pt_clust_8="13000.00000" pt_clust_9="13000.00000"></scales>
<clustering>
<clus scale="   83.162">  7  8 -1 -1</clus>
<clus scale="   91.695">  5  6 -1 -1</clus>
<clus scale="   32.387">  5  9 -1 -1</clus>
<clus scale="  115.290">  2  7  1 -1</clus>
<clus scale="  175.345">  1  5  2 -1</clus>
</clustering>
</event>
<event>
 9    1  0.6399313E-006  0.1678968E+03  0.7546771E-02  0.1190017E+00
         -1   -1    0    0    0  501 -0.00000000000E+00  0.00000000000E+00  0.59388498748E+02  0.59388498748E+02  0.00000000000E+00 0.  1.
         21   -1    0    0  501  502  0.00000000000E+00 -0.00000000000E+00 -0.41147311995E+03  0.41147311995E+03  0.00000000000E+00 0. -1.
         23    2    1    2    0    0  0.98376199588E+02  0.71996369377E+00 -0.98359274847E+02  0.16661517919E+03  0.91693380316E+02 0.  0.
         23    2    1    2    0    0 -0.86021130703E+02 -0.36188248154E+02 -0.19054522675E+03  0.23074559297E+03  0.90701824704E+02 0.  0.
        -11    1    4    4    0    0 -0.82281025199E+02 -0.76856243858E+01 -0.18334819450E+03  0.20111140285E+03  0.00000000000E+00 0. -1.
         11    1    4    4    0    0 -0.37401055042E+01 -0.28502623768E+02 -0.71970322539E+01  0.29634190120E+02  0.00000000000E+00 0.  1.
        -13    1    3    3    0    0  0.32006776418E+01  0.32842716664E+02 -0.33631359223E+02  0.47116416443E+02  0.00000000000E+00 0. -1.
         13    1    3    3    0    0  0.95175521946E+02 -0.32122752970E+02 -0.64727915624E+02  0.11949876274E+03  0.00000000000E+00 0.  1.
         -1    1    1    2    0  502 -0.12355068885E+02  0.35468284460E+02 -0.63180119604E+02  0.73500846545E+02  0.00000000000E+00 0.  1.
<scales pt_clust_5="13000.00000" pt_clust_6="13000.00000" pt_clust_7="13000.00000" pt_clust_8="13000.00000" pt_clust_9="13000.00000"></scales>
<clustering>
<clus scale="   90.702">  5  6 -1 -1</clus>
<clus scale="   37.559">  5  9 -1 -1</clus>
<clus scale="   91.693">  7  8 -1 -1</clus>
<clus scale="  134.484">  1  7  2 -1</clus>
<clus scale="  167.897">  2  5  1 -1</clus>
</clustering>
</event>
<event>
 9    1  0.6399313E-006  0.2474335E+03  0.7546771E-02  0.1128661E+00
         21   -1    0    0  501  502  0.00000000000E+00  0.00000000000E+00  0.10161658933E+03  0.10161658933E+03  0.00000000000E+00 0.  1.
          1   -1    0    0  502    0 -0.00000000000E+00 -0.00000000000E+00 -0.46058997442E+03  0.46058997442E+03  0.00000000000E+00 0. -1.
         23    2    1    2    0    0  0.12376984410E+03  0.80795557169E+02 -0.92622033121E+02  0.19865962793E+03  0.95078443298E+02 0.  0.
         23    2    1    2    0    0  0.11149960678E+02 -0.76351021992E+01 -0.81316498363E+02  0.12314372673E+03  0.91484359966E+02 0.  0.
        -11    1    3    3    0    0  0.10317425106E+03  0.16725470022E+02 -0.35495242940E+02  0.11038378369E+03  0.00000000000E+00 0.  1.
         11    1    3    3    0    0  0.20595593044E+02  0.64070087147E+02 -0.57126790181E+02  0.88275844240E+02  0.00000000000E+00 0. -1.
        -11    1    4    4    0    0  0.28298091472E+02 -0.39521268803E+02 -0.69980893158E+02  0.85205857052E+02  0.00000000000E+00 0.  1.
         11    1    4    4    0    0 -0.17148130794E+02  0.31886166603E+02 -0.11335605204E+02  0.37937869679E+02  0.00000000000E+00 0. -1.
          1    1    1    2  501    0 -0.13491980478E+03 -0.73160454970E+02 -0.18503485361E+03  0.24040320910E+03  0.00000000000E+00 0. -1.
<scales pt_clust_5="13000.00000" pt_clust_6="13000.00000" pt_clust_7="13000.00000" pt_clust_8="13000.00000" pt_clust_9="13000.00000"></scales>
<clustering>
<clus scale="   91.484">  7  8 -1 -1</clus>
<clus scale="   95.078">  5  6 -1 -1</clus>
<clus scale="  153.479">  7  9 -1 -1</clus>
<clus scale="  175.747">  2  5  1 -1</clus>
<clus scale="  247.433">  1  5  2 -1</clus>
</clustering>
</event>
<event>
 9    1  0.6399313E-006  0.1396711E+03  0.7546771E-02  0.1225820E+00
          2   -1    0    0  502    0 -0.00000000000E+00  0.00000000000E+00  0.33033744296E+03  0.33033744296E+03  0.00000000000E+00 0. -1.
         21   -1    0    0  501  502  0.00000000000E+00 -0.00000000000E+00 -0.11224037593E+03  0.11224037593E+03  0.00000000000E+00 0.  1.
         23    2    1    2    0    0 -0.24537661026E+02 -0.52011514134E+02  0.27203530461E+03  0.29285352880E+03  0.91938500983E+02 0.  0.
         23    2    1    2    0    0  0.15130941967E+01  0.51421586054E+02 -0.64579620531E+02  0.12435269724E+03  0.92987079517E+02 0.  0.
        -11    1    3    3    0    0 -0.16962832859E+02 -0.77993937273E+02  0.22286788830E+03  0.23672956635E+03  0.00000000000E+00 0. -1.
         11    1    3    3    0    0 -0.75748281665E+01  0.25982423138E+02  0.49167416317E+02  0.56123962450E+02  0.00000000000E+00 0.  1.
        -13    1    4    4    0    0 -0.29572214558E+01 -0.25265731250E+02 -0.24520330073E+01  0.25556110819E+02  0.00000000000E+00 0. -1.
         13    1    4    4    0    0  0.44703156525E+01  0.76687317304E+02 -0.62127587524E+02  0.98796586423E+02  0.00000000000E+00 0.  1.
          2    1    1    2  501    0  0.23024566829E+02  0.58992808014E+00  0.10641382941E+02  0.25371592849E+02  0.00000000000E+00 0. -1.
<scales pt_clust_5="13000.00000" pt_clust_6="13000.00000" pt_clust_7="13000.00000" pt_clust_8="13000.00000" pt_clust_9="13000.00000"></scales>
<clustering>
<clus scale="   91.939">  5  6 -1 -1</clus>
<clus scale="   92.987">  7  8 -1 -1</clus>
<clus scale="   23.032">  7  9 -1 -1</clus>
<clus scale="  108.443">  1  5  2 -1</clus>
<clus scale="  139.671">  2  5  1 -1</clus>
</clustering>
</event>
<event>
 9    1  0.6399313E-006  0.4969654E+03  0.7546771E-02  0.1062506E+00
         21   -1    0    0  501  502  0.00000000000E+00  0.00000000000E+00  0.15061235267E+03  0.15061235267E+03  0.00000000000E+00 0. -1.
          1   -1    0    0  502    0 -0.00000000000E+00 -0.00000000000E+00 -0.69291130135E+03  0.69291130135E+03  0.00000000000E+00 0. -1.
         23    2    1    2    0    0  0.19690730113E+02  0.82270989061E+02 -0.21793757844E+03  0.25007197528E+03  0.88786058766E+02 0.  0.
         23    2    1    2    0    0  0.18101864874E+03 -0.68319978007E+02 -0.32881240247E+03  0.39220879772E+03  0.90965786962E+02 0.  0.
        -11    1    3    3    0    0 -0.32042221078E+02  0.40950410171E+02 -0.63722448983E+02  0.82244699094E+02  0.00000000000E+00 0.  1.
         11    1    3    3    0    0  0.51732951191E+02  0.41320578890E+02 -0.15421512946E+03  0.16782727619E+03  0.00000000000E+00 0. -1.
        -11    1    4    4    0    0  0.17434921370E+03 -0.40896117437E+02 -0.24289763268E+03  0.30177707120E+03  0.00000000000E+00 0. -1.
         11    1    4    4    0    0  0.66694350440E+01 -0.27423860571E+02 -0.85914769794E+02  0.90431726519E+02  0.00000000000E+00 0.  1.
          1    1    1    2  501    0 -0.20070937886E+03 -0.13951011054E+02  0.44510322376E+01  0.20124288101E+03  0.00000000000E+00 0. -1.
<scales pt_clust_5="13000.00000" pt_clust_6="13000.00000" pt_clust_7="13000.00000" pt_clust_8="13000.00000" pt_clust_9="13000.00000"></scales>
<clustering>
<clus scale="   88.786">  5  6 -1 -1</clus>
<clus scale="   90.966">  7  8 -1 -1</clus>
<clus scale="  122.634">  2  5  1 -1</clus>
<clus scale="  196.522">  7  9 -1 -1</clus>
<clus scale="  496.965">  1  5  2 -1</clus>
</clustering>
</event>
<event>
 9    1  0.6399313E-006  0.1985902E+03  0.7546771E-02  0.1166982E+00
         21   -1    0    0  501  502  0.00000000000E+00  0.00000000000E+00  0.13030136682E+03  0.13030136682E+03  0.00000000000E+00 0. -1.
          1   -1    0    0  502    0 -0.00000000000E+00 -0.00000000000E+00 -0.21899985877E+03  0.21899985877E+03  0.00000000000E+00 0. -1.
         23    2    1    2    0    0  0.85025674155E+02 -0.54652850234E+02 -0.57839291386E+02  0.14832774598E+03  0.91866410042E+02 0.  0.
         23    2    1    2    0    0 -0.66668002583E+02  0.46165247561E+02 -0.81156848381E+02  0.14676188601E+03  0.91524666053E+02 0.  0.
        -11    1    4    4    0    0  0.28576450785E+01  0.52034608549E+02 -0.40568027384E+02  0.66041891766E+02  0.00000000000E+00 0. -1.
         11    1    4    4    0    0 -0.69525647662E+02 -0.58693609883E+01 -0.40588820997E+02  0.80719994246E+02  0.00000000000E+00 0.  1.
        -11    1    3    3    0    0  0.26608587909E+02 -0.52121813888E+02 -0.67201766011E+02  0.89111041900E+02  0.00000000000E+00 0. -1.
         11    1    3    3    0    0  0.58417086246E+02 -0.25310363457E+01  0.93624746252E+01  0.59216704076E+02  0.00000000000E+00 0.  1.
          1    1    1    2  501    0 -0.18357671572E+02  0.84876026724E+01  0.50297647816E+02  0.54211593599E+02  0.00000000000E+00 0. -1.
<scales pt_clust_5="13000.00000" pt_clust_6="13000.00000" pt_clust_7="13000.00000" pt_clust_8="13000.00000" pt_clust_9="13000.00000"></scales>
<clustering>
<clus scale="   91.525">  5  6 -1 -1</clus>
<clus scale="   20.225">  5  9 -1 -1</clus>
<clus scale="   91.866">  7  8 -1 -1</clus>
<clus scale="  136.586">  2  7  1 -1</clus>
<clus scale="  198.590">  1  5  2 -1</clus>
</clustering>
</event>
<event>
 9    1  0.6399313E-006  0.1517824E+03  0.7546771E-02  0.1207795E+00
          4   -1    0    0  502    0 -0.00000000000E+00  0.00000000000E+00  0.13403596713E+03  0.13403596713E+03  0.00000000000E+00 0. -1.
         21   -1    0    0  501  502  0.00000000000E+00 -0.00000000000E+00 -0.15048606394E+03  0.15048606394E+03  0.00000000000E+00 0. -1.
         23    2    1    2    0    0 -0.25549167870E+02  0.77163840284E+02  0.27204440083E+02  0.12658655827E+03  0.93150721672E+02 0.  0.
         23    2    1    2    0    0 -0.61687469244E+01 -0.90022037674E+02 -0.25459313238E+02  0.11917433861E+03  0.73568509892E+02 0.  0.
        -13    1    3    3    0    0 -0.29859394430E+02 -0.81291478862E+01  0.27175637822E+02  0.41184727413E+02  0.00000000000E+00 0.  1.
         13    1    3    3    0    0  0.43102265593E+01  0.85292988171E+02  0.28802260672E-01  0.85401830856E+02  0.00000000000E+00 0. -1.
        -13    1    4    4    0    0 -0.28262986762E+02 -0.16455073143E+02  0.10517005736E+02  0.34353649915E+02  0.00000000000E+00 0. -1.
         13    1    4    4    0    0  0.22094239837E+02 -0.73566964531E+02 -0.35976318974E+02  0.84820688699E+02  0.00000000000E+00 0.  1.
          4    1    1    2  501    0  0.31717914795E+02  0.12858197390E+02 -0.18195223655E+02  0.38761134180E+02  0.00000000000E+00 0. -1.
<scales pt_clust_5="13000.00000" pt_clust_6="13000.00000" pt_clust_7="13000.00000" pt_clust_8="13000.00000" pt_clust_9="13000.00000"></scales>
<clustering>
<clus scale="   73.569">  7  8 -1 -1</clus>
<clus scale="   34.225">  7  9 -1 -1</clus>
<clus scale="   93.151">  5  6 -1 -1</clus>
<clus scale="  123.629">  1  5  2 -1</clus>
<clus scale="  151.782">  2  5  1 -1</clus>
</clustering>
</event>
<event>
 9    1  0.6399313E-006  0.2698933E+03  0.7546771E-02  0.1135376E+00
         21   -1    0    0  501  502  0.00000000000E+00  0.00000000000E+00  0.92365880362E+02  0.92365880362E+02  0.00000000000E+00 0.  1.
          2   -1    0    0  502    0 -0.00000000000E+00 -0.00000000000E+00 -0.55559155240E+03  0.55559155240E+03  0.00000000000E+00 0. -1.
         23    2    1    2    0    0  0.72642319497E+02  0.59380922506E+01 -0.32502901039E+03  0.34474019917E+03  0.88824432474E+02 0.  0.
         23    2    1    2    0    0  0.71192354144E+01 -0.44764468059E+02 -0.17470310935E+03  0.20728958468E+03  0.10194731182E+03 0.  0.
        -11    1    3    3    0    0  0.41692281618E+02 -0.39112204503E+02 -0.20557480266E+03  0.21337528061E+03  0.00000000000E+00 0.  1.
         11    1    3    3    0    0  0.30950037879E+02  0.45050296753E+02 -0.11945420773E+03  0.13136491856E+03  0.00000000000E+00 0. -1.
        -11    1    4    4    0    0  0.18634507889E+02 -0.74172625392E+02 -0.14500762014E+03  0.16393911413E+03  0.00000000000E+00 0.  1.
         11    1    4    4    0    0 -0.11515272474E+02  0.29408157333E+02 -0.29695489207E+02  0.43350470553E+02  0.00000000000E+00 0. -1.
          2    1    1    2  501    0 -0.79761554912E+02  0.38826375808E+02  0.36506447711E+02  0.95927648907E+02  0.00000000000E+00 0. -1.
<scales pt_clust_5="13000.00000" pt_clust_6="13000.00000" pt_clust_7="13000.00000" pt_clust_8="13000.00000" pt_clust_9="13000.00000"></scales>
<clustering>
<clus scale="   88.824">  5  6 -1 -1</clus>
<clus scale="  101.947">  7  8 -1 -1</clus>
<clus scale="   88.710">  7  9 -1 -1</clus>
<clus scale="  114.900">  2  5  1 -1</clus>
<clus scale="  269.893">  1  5  2 -1</clus>
</clustering>
</event>
<event>
 9    1  0.6399313E-006  0.2481348E+03  0.7546771E-02  0.1140461E+00
         21   -1    0    0  501  502  0.00000000000E+00  0.00000000000E+00  0.15186487782E+03  0.15186487782E+03  0.00000000000E+00 0.  1.
         -1   -1    0    0    0  501 -0.00000000000E+00 -0.00000000000E+00 -0.23683811634E+03  0.23683811634E+03  0.00000000000E+00 0.  1.
         23    2    1    2    0    0 -0.49754436103E+02  0.78638681763E+02 -0.38229200706E+02  0.13620369831E+03  0.91817370178E+02 0.  0.
         23    2    1    2    0    0  0.18108241714E+02 -0.10982322105E+02 -0.11639111905E+03  0.15037397799E+03  0.92827371208E+02 0.  0.
        -13    1    3    3    0    0 -0.22131290667E+02  0.89369706429E+02 -0.49459187588E+02  0.10451291638E+03  0.00000000000E+00 0.  1.
         13    1    3    3    0    0 -0.27623145436E+02 -0.10731024666E+02  0.11229986882E+02  0.31690781932E+02  0.00000000000E+00 0. -1.
        -13    1    4    4    0    0  0.38368777909E+02  0.29810498063E+02 -0.71304896965E+02  0.86285672299E+02  0.00000000000E+00 0.  1.
         13    1    4    4    0    0 -0.20260536194E+02 -0.40792820168E+02 -0.45086222085E+02  0.64088305688E+02  0.00000000000E+00 0. -1.
         -1    1    1    2    0  502  0.31646194389E+02 -0.67656359658E+02  0.69647081242E+02  0.10212531786E+03  0.00000000000E+00 0.  1.
<scales pt_clust_5="13000.00000" pt_clust_6="13000.00000" pt_clust_7="13000.00000" pt_clust_8="13000.00000" pt_clust_9="13000.00000"></scales>
<clustering>
<clus scale="   91.817">  5  6 -1 -1</clus>
<clus scale="   92.827">  7  8 -1 -1</clus>
<clus scale="   74.692">  7  9 -1 -1</clus>
<clus scale="  130.729">  2  5  1 -1</clus>
<clus scale="  248.135">  1  5  2 -1</clus>
</clustering>
</event>
<event>
 9    1  0.6399313E-006  0.1955216E+03  0.7546771E-02  0.1184753E+00
          1   -1    0    0  502    0 -0.00000000000E+00  0.00000000000E+00  0.21105626588E+03  0.21105626588E+03  0.00000000000E+00 0. -1.
         21   -1    0    0  501  502  0.00000000000E+00 -0.00000000000E+00 -0.10620701781E+03  0.10620701781E+03  0.00000000000E+00 0. -1.
         23    2    1    2    0    0  0.31551235889E+02 -0.17461908106E+02  0.65553855418E+00  0.95711884312E+02  0.88656282050E+02 0.  0.
         23    2    1    2    0    0  0.52547073648E+02 -0.19522034539E+02  0.75275414319E+02  0.12523626310E+03  0.82918205550E+02 0.  0.
        -11    1    4    4    0    0  0.67477836355E+00 -0.28126711015E+02 -0.56811291981E+01  0.28702655406E+02  0.00000000000E+00 0.  1.
         11    1    4    4    0    0  0.51872295285E+02  0.86046764761E+01  0.80956543517E+02  0.96533607690E+02  0.00000000000E+00 0. -1.
        -13    1    3    3    0    0  0.36625459786E+01  0.25304368774E+02 -0.27382424309E+02  0.37463615457E+02  0.00000000000E+00 0.  1.
         13    1    3    3    0    0  0.27888689910E+02 -0.42766276880E+02  0.28037962863E+02  0.58248268855E+02  0.00000000000E+00 0. -1.
          1    1    1    2  501    0 -0.84098309537E+02  0.36983942645E+02  0.28918295201E+02  0.96315136287E+02  0.00000000000E+00 0. -1.
<scales pt_clust_5="13000.00000" pt_clust_6="13000.00000" pt_clust_7="13000.00000" pt_clust_8="13000.00000" pt_clust_9="13000.00000"></scales>
<clustering>
<clus scale="   82.918">  5  6 -1 -1</clus>
<clus scale="   88.656">  7  8 -1 -1</clus>
<clus scale="   91.871">  5  9 -1 -1</clus>
<clus scale="   95.710">  1  7  2 -1</clus>
<clus scale="  195.522">  2  5  1 -1</clus>
</clustering>
</event>
<event>
 9    1  0.6399313E-006  0.3526726E+03  0.7546771E-02  0.1099553E+00
         21   -1    0    0  501  502  0.00000000000E+00  0.00000000000E+00  0.27738612854E+03  0.27738612854E+03  0.00000000000E+00 0. -1.
          2   -1    0    0  502    0 -0.00000000000E+00 -0.00000000000E+00 -0.23359395542E+03  0.23359395542E+03  0.00000000000E+00 0. -1.
         23    2    1    2    0    0  0.83353051365E+02  0.28945798589E+02 -0.64339819061E+02  0.14210276653E+03  0.90928507690E+02 0.  0.
         23    2    1    2    0    0 -0.93529622866E+02  0.13355237176E+03  0.83975818153E+02  0.20427859714E+03  0.89965442586E+02 0.  0.
        -11    1    4    4    0    0 -0.40634172797E+02  0.74114302513E+02 -0.53040687348E+01  0.84688836225E+02  0.00000000000E+00 0. -1.
         11    1    4    4    0    0 -0.52895450069E+02  0.59438069250E+02  0.89279886888E+02  0.11958976092E+03  0.00000000000E+00 0.  1.
        -13    1    3    3    0    0 -0.51016402162E+01 -0.21471799164E+02 -0.79139554110E+00  0.22083731549E+02  0.00000000000E+00 0.  1.
         13    1    3    3    0    0  0.88454691581E+02  0.50417597752E+02 -0.63548423520E+02  0.12001903498E+03  0.00000000000E+00 0. -1.
          2    1    1    2  501    0  0.10176571501E+02 -0.16249817035E+03  0.24156174034E+02  0.16459872028E+03  0.00000000000E+00 0. -1.
<scales pt_clust_5="13000.00000" pt_clust_6="13000.00000" pt_clust_7="13000.00000" pt_clust_8="13000.00000" pt_clust_9="13000.00000"></scales>
<clustering>
<clus scale="   89.965">  5  6 -1 -1</clus>
<clus scale="   90.929">  7  8 -1 -1</clus>
<clus scale="  126.703">  2  7  1 -1</clus>
<clus scale="  156.891">  5  9 -1 -1</clus>
<clus scale="  352.673">  1  5  2 -1</clus>
</clustering>
</event>
<event>
 9    1  0.6399313E-006  0.1910675E+03  0.7546771E-02  0.1185167E+00
         -2   -1    0    0    0  501 -0.00000000000E+00  0.00000000000E+00  0.74570937289E+02  0.74570937289E+02  0.00000000000E+00 0.  1.
         21   -1    0    0  501  502  0.00000000000E+00 -0.00000000000E+00 -0.41709853035E+03  0.41709853035E+03  0.00000000000E+00 0.  1.
         23    2    1    2    0    0 -0.36169186967E+02  0.20969139374E+00 -0.25142868635E+01  0.10164914216E+03  0.94963005469E+02 0.  0.
         23    2    1    2    0    0 -0.79287290017E+01 -0.36584298960E+02 -0.89420086312E+02  0.13298978231E+03  0.91044245773E+02 0.  0.
        -11    1    4    4    0    0 -0.25942417183E+02 -0.56768193732E+02 -0.33424305951E+02  0.70801278642E+02  0.00000000000E+00 0.  1.
         11    1    4    4    0    0  0.18013688182E+02  0.20183894773E+02 -0.55995780361E+02  0.62188503667E+02  0.00000000000E+00 0. -1.
        -11    1    3    3    0    0 -0.34521992973E+02 -0.24173009689E+02  0.36406892086E+02  0.55691688676E+02  0.00000000000E+00 0.  1.
         11    1    3    3    0    0 -0.16471939941E+01  0.24382701082E+02 -0.38921178950E+02  0.45957453487E+02  0.00000000000E+00 0. -1.
         -2    1    1    2    0  502  0.44097915969E+02  0.36374607566E+02 -0.25059321988E+03  0.25703054316E+03  0.00000000000E+00 0.  1.
<scales pt_clust_5="13000.00000" pt_clust_6="13000.00000" pt_clust_7="13000.00000" pt_clust_8="13000.00000" pt_clust_9="13000.00000"></scales>
<clustering>
<clus scale="   91.044">  5  6 -1 -1</clus>
<clus scale="   57.164">  5  9 -1 -1</clus>
<clus scale="   94.963">  7  8 -1 -1</clus>
<clus scale="  101.618">  1  7  2 -1</clus>
<clus scale="  191.068">  2  5  1 -1</clus>
</clustering>
</event>
<event>
 9    1  0.1479744E-005  0.5552605E+03  0.7546771E-02  0.1050501E+00
          1   -1    0    0  502    0 -0.00000000000E+00  0.00000000000E+00  0.59749319765E+03  0.59749319765E+03  0.00000000000E+00 0. -1.
         21   -1    0    0  501  502  0.00000000000E+00 -0.00000000000E+00 -0.19908148156E+03  0.19908148156E+03  0.00000000000E+00 0. -1.
         23    2    1    2    0    0 -0.10462302672E+03 -0.10283001010E+02  0.20725857465E+02  0.12503850194E+03  0.64446473672E+02 0.  0.
         23    2    1    2    0    0  0.18303866452E+03  0.10458713106E+03  0.46719770836E+03  0.51969859155E+03  0.85856314113E+02 0.  0.
        -11    1    3    3    0    0 -0.66118342957E+01 -0.21840788012E+02 -0.43077825549E+01  0.23222690720E+02  0.00000000000E+00 0. -1.
         11    1    3    3    0    0 -0.98011192428E+02  0.11557787001E+02  0.25033640020E+02  0.10181581122E+03  0.00000000000E+00 0.  1.
        -11    1    4    4    0    0  0.53800745453E+02  0.28622652664E+02  0.23913597849E+03  0.24677883351E+03  0.00000000000E+00 0. -1.
         11    1    4    4    0    0  0.12923791907E+03  0.75964478391E+02  0.22806172986E+03  0.27291975804E+03  0.00000000000E+00 0.  1.
          1    1    1    2  501    0 -0.78415637797E+02 -0.94304130045E+02 -0.89511849727E+02  0.15183758572E+03  0.00000000000E+00 0. -1.
<scales pt_clust_5="13000.00000" pt_clust_6="13000.00000" pt_clust_7="13000.00000" pt_clust_8="13000.00000" pt_clust_9="13000.00000"></scales>
<clustering>
<clus scale="   64.446">  5  6 -1 -1</clus>
<clus scale="   85.856">  7  8 -1 -1</clus>
<clus scale="  122.647">  7  9 -1 -1</clus>
<clus scale="  123.309">  1  5  2 -1</clus>
<clus scale="  555.261">  2  5  1 -1</clus>
</clustering>
</event>
<event>
 9    1  0.6399313E-006  0.1913786E+03  0.7546771E-02  0.1177997E+00
         21   -1    0    0  501  502  0.00000000000E+00  0.00000000000E+00  0.72932735224E+03  0.72932735224E+03  0.00000000000E+00 0. -1.
          2   -1    0    0  502    0 -0.00000000000E+00 -0.00000000000E+00 -0.32985903443E+02  0.32985903443E+02  0.00000000000E+00 0. -1.
         23    2    1    2    0    0 -0.50986652934E+02  0.57949646609E+02  0.27480364964E+03  0.29936630271E+03  0.90251520878E+02 0.  0.
         23    2    1    2    0    0 -0.34660240827E+00 -0.75944571755E+02  0.18049970139E+03  0.21584720589E+03  0.90786430575E+02 0.  0.
        -11    1    4    4    0    0 -0.23137521025E+02 -0.86970668923E-02  0.55830388045E+01  0.23801581399E+02  0.00000000000E+00 0.  1.
         11    1    4    4    0    0  0.22790918617E+02 -0.75935874689E+02  0.17491666259E+03  0.19204562449E+03  0.00000000000E+00 0. -1.
        -11    1    3    3    0    0 -0.62784256284E+02  0.40727775481E+01  0.16237403257E+03  0.17413723556E+03  0.00000000000E+00 0. -1.
         11    1    3    3    0    0  0.11797603350E+02  0.53876869061E+02  0.11242961707E+03  0.12522906715E+03  0.00000000000E+00 0.  1.
          2    1    1    2  501    0  0.51333255342E+02  0.17994925146E+02  0.24103809777E+03  0.24709974708E+03  0.00000000000E+00 0. -1.
<scales pt_clust_5="13000.00000" pt_clust_6="13000.00000" pt_clust_7="13000.00000" pt_clust_8="13000.00000" pt_clust_9="13000.00000"></scales>
<clustering>
<clus scale="   90.252">  7  8 -1 -1</clus>
<clus scale="   90.786">  5  6 -1 -1</clus>
<clus scale="   54.396">  5  9 -1 -1</clus>
<clus scale="  118.757">  2  7  1 -1</clus>
<clus scale="  191.379">  1  5  2 -1</clus>
</clustering>
</event>
<event>
 9    1  0.6399313E-006  0.6645652E+03  0.7546771E-02  0.1025713E+00
          2   -1    0    0  502    0 -0.00000000000E+00  0.00000000000E+00  0.12102380230E+04  0.12102380230E+04  0.00000000000E+00 0. -1.
         21   -1    0    0  501  502  0.00000000000E+00 -0.00000000000E+00 -0.14571929096E+03  0.14571929096E+03  0.00000000000E+00 0. -1.
         23    2    1    2    0    0  0.58546645623E+02 -0.98618579288E+02  0.81175792772E+02  0.16910844823E+03  0.94100074588E+02 0.  0.
         23    2    1    2    0    0 -0.23764480520E+03 -0.98103081237E+02  0.84299061616E+03  0.88605934283E+03  0.91480665149E+02 0.  0.
        -13    1    4    4    0    0 -0.42181888988E+02 -0.59025352485E+02  0.19269517962E+03  0.20589982089E+03  0.00000000000E+00 0.  1.
         13    1    4    4    0    0 -0.19546291621E+03 -0.39077728752E+02  0.65029543654E+03  0.68015952194E+03  0.00000000000E+00 0. -1.
        -13    1    3    3    0    0 -0.23527929348E+02 -0.32639897760E+02  0.84046799658E+01  0.41104318879E+02  0.00000000000E+00 0.  1.
         13    1    3    3    0    0  0.82074574971E+02 -0.65978681528E+02  0.72771112806E+02  0.12800412935E+03  0.00000000000E+00 0. -1.
          2    1    1    2  501    0  0.17909815957E+03  0.19672166052E+03  0.14035232310E+03  0.30078952289E+03  0.00000000000E+00 0. -1.
<scales pt_clust_5="13000.00000" pt_clust_6="13000.00000" pt_clust_7="13000.00000" pt_clust_8="13000.00000" pt_clust_9="13000.00000"></scales>
<clustering>
<clus scale="   91.481">  5  6 -1 -1</clus>
<clus scale="   94.100">  7  8 -1 -1</clus>
<clus scale="  148.352">  1  7  2 -1</clus>
<clus scale="  260.182">  5  9 -1 -1</clus>
<clus scale="  664.565">  2  5  1 -1</clus>
</clustering>
</event>
<event>
 9    1  0.6399313E-006  0.1676644E+03  0.7546771E-02  0.1198082E+00
          1   -1    0    0  502    0 -0.00000000000E+00  0.00000000000E+00  0.15559220373E+03  0.15559220373E+03  0.00000000000E+00 0. -1.
         21   -1    0    0  501  502  0.00000000000E+00 -0.00000000000E+00 -0.13395459874E+03  0.13395459874E+03  0.00000000000E+00 0. -1.
         23    2    1    2    0    0 -0.71400937068E+02  0.31681682507E+02 -0.24258805622E+02  0.11571402601E+03  0.81850005159E+02 0.  0.
         23    2    1    2    0    0  0.19374437729E+02  0.16341100636E+02  0.42932395140E+02  0.10296861259E+03  0.90094085366E+02 0.  0.
        -13    1    3    3    0    0 -0.62858130547E+01  0.36871473248E+02 -0.32911883042E+02  0.49821772656E+02  0.00000000000E+00 0.  1.
         13    1    3    3    0    0 -0.65115124013E+02 -0.51897907413E+01  0.86530774197E+01  0.65892253354E+02  0.00000000000E+00 0. -1.
        -13    1    4    4    0    0  0.42235269832E+02 -0.14870181567E+02  0.45955503075E+02  0.64162672797E+02  0.00000000000E+00 0.  1.
         13    1    4    4    0    0 -0.22860832103E+02  0.31211282204E+02 -0.30231079348E+01  0.38805939788E+02  0.00000000000E+00 0. -1.
          1    1    1    2  501    0  0.52026499339E+02 -0.48022783144E+02  0.29640154757E+01  0.70864163878E+02  0.00000000000E+00 0. -1.
<scales pt_clust_5="13000.00000" pt_clust_6="13000.00000" pt_clust_7="13000.00000" pt_clust_8="13000.00000" pt_clust_9="13000.00000"></scales>
<clustering>
<clus scale="   81.850">  5  6 -1 -1</clus>
<clus scale="   90.094">  7  8 -1 -1</clus>
<clus scale="   70.802">  7  9 -1 -1</clus>
<clus scale="  113.143">  1  5  2 -1</clus>
<clus scale="  167.664">  2  5  1 -1</clus>
</clustering>
</event>
<event>
 9    1  0.6399313E-006  0.2225172E+03  0.7546771E-02  0.1148554E+00
         21   -1    0    0  501  502  0.00000000000E+00  0.00000000000E+00  0.13565298772E+03  0.13565298772E+03  0.00000000000E+00 0. -1.
         -1   -1    0    0    0  501 -0.00000000000E+00 -0.00000000000E+00 -0.30516161753E+03  0.30516161753E+03  0.00000000000E+00 0.  1.
         23    2    1    2    0    0 -0.58631862058E+02 -0.10202102862E+03 -0.15885146337E+03  0.21804234212E+03  0.91992880221E+02 0.  0.
         23    2    1    2    0    0  0.31514227022E+02  0.29812162081E+02 -0.71643494014E+02  0.12444211166E+03  0.92038782080E+02 0.  0.
        -11    1    4    4    0    0  0.31738393826E+02  0.51152879564E+02 -0.12388205683E+02  0.61460640823E+02  0.00000000000E+00 0.  1.
         11    1    4    4    0    0 -0.22416680416E+00 -0.21340717483E+02 -0.59255288331E+02  0.62981470836E+02  0.00000000000E+00 0. -1.
        -13    1    3    3    0    0 -0.40210427324E+02 -0.61083641617E+02 -0.25680397220E+02  0.77508532047E+02  0.00000000000E+00 0. -1.
         13    1    3    3    0    0 -0.18421434734E+02 -0.40937387002E+02 -0.13317106616E+03  0.14053381007E+03  0.00000000000E+00 0.  1.
         -1    1    1    2    0  502  0.27117635036E+02  0.72208866539E+02  0.60986327575E+02  0.98330151469E+02  0.00000000000E+00 0.  1.
<scales pt_clust_5="13000.00000" pt_clust_6="13000.00000" pt_clust_7="13000.00000" pt_clust_8="13000.00000" pt_clust_9="13000.00000"></scales>
<clustering>
<clus scale="   91.993">  7  8 -1 -1</clus>
<clus scale="   92.039">  5  6 -1 -1</clus>
<clus scale="   77.133">  5  9 -1 -1</clus>
<clus scale="  149.361">  2  7  1 -1</clus>
<clus scale="  222.517">  1  5  2 -1</clus>
</clustering>
</event>
<event>
 9    1  0.6399313E-006  0.4608829E+03  0.7546771E-02  0.1037524E+00
         21   -1    0    0  501  502  0.00000000000E+00  0.00000000000E+00  0.24023747557E+03  0.24023747557E+03  0.00000000000E+00 0. -1.
          2   -1    0    0  502    0 -0.00000000000E+00 -0.00000000000E+00 -0.72374725453E+03  0.72374725453E+03  0.00000000000E+00 0. -1.
         23    2    1    2    0    0 -0.91282110302E+02  0.28563989376E+03 -0.26193486477E+02  0.31471494863E+03  0.91852205154E+02 0.  0.
         23    2    1    2    0    0 -0.16738665603E+02  0.48387239365E+02 -0.75638514701E+02  0.13069429059E+03  0.93478900436E+02 0.  0.
        -13    1    3    3    0    0 -0.41653039547E+02  0.28509066704E+02 -0.14759960339E+02  0.52588962882E+02  0.00000000000E+00 0.  1.
         13    1    3    3    0    0 -0.49629070755E+02  0.25713082706E+03 -0.11433526138E+02  0.26212598575E+03  0.00000000000E+00 0. -1.
        -13    1    4    4    0    0  0.17244639765E+02  0.35457156405E+02  0.73340524393E+01  0.40104561662E+02  0.00000000000E+00 0. -1.
         13    1    4    4    0    0 -0.33983305367E+02  0.12930082960E+02 -0.82972567140E+02  0.90589728926E+02  0.00000000000E+00 0.  1.
          2    1    1    2  501    0  0.10802077590E+03 -0.33402713312E+03 -0.38167777778E+03  0.51857549088E+03  0.00000000000E+00 0. -1.
<scales pt_clust_5="13000.00000" pt_clust_6="13000.00000" pt_clust_7="13000.00000" pt_clust_8="13000.00000" pt_clust_9="13000.00000"></scales>
<clustering>
<clus scale="   91.852">  5  6 -1 -1</clus>
<clus scale="   93.479">  7  8 -1 -1</clus>
<clus scale="  313.623">  2  5  1 -1</clus>
<clus scale="  107.107">  7  9 -1 -1</clus>
<clus scale="  460.883">  1  5  2 -1</clus>
</clustering>
</event>
<event>
 9    1  0.6399313E-006  0.2238784E+03  0.7546771E-02  0.1147544E+00
         -2   -1    0    0    0  501 -0.00000000000E+00  0.00000000000E+00  0.19330057642E+03  0.19330057642E+03  0.00000000000E+00 0. -1.
         21   -1    0    0  501  502  0.00000000000E+00 -0.00000000000E+00 -0.20585118423E+03  0.20585118423E+03  0.00000000000E+00 0.  1.
         23    2    1    2    0    0 -0.11360150948E+03  0.43175835985E+02  0.62964287288E+02  0.16288062883E+03  0.88295764366E+02 0.  0.
         23    2    1    2    0    0  0.12982778874E+03  0.95572650992E+01 -0.21133074361E+02  0.15880207661E+03  0.88458445945E+02 0.  0.
        -11    1    3    3    0    0 -0.67260001145E+02  0.66699664033E+02  0.23421637028E+02  0.97577282281E+02  0.00000000000E+00 0.  1.
         11    1    3    3    0    0 -0.46341508335E+02 -0.23523828049E+02  0.39542650260E+02  0.65303346549E+02  0.00000000000E+00 0. -1.
        -11    1    4    4    0    0  0.77091820451E+02  0.41790436788E+02 -0.36707623355E+02  0.95063342040E+02  0.00000000000E+00 0.  1.
         11    1    4    4    0    0  0.52735968285E+02 -0.32233171689E+02  0.15574548994E+02  0.63738734569E+02  0.00000000000E+00 0. -1.
         -2    1    1    2    0  502 -0.16226279256E+02 -0.52733101084E+02 -0.54381820735E+02  0.77469055208E+02  0.00000000000E+00 0. -1.
<scales pt_clust_5="13000.00000" pt_clust_6="13000.00000" pt_clust_7="13000.00000" pt_clust_8="13000.00000" pt_clust_9="13000.00000"></scales>
<clustering>
<clus scale="   88.296">  5  6 -1 -1</clus>
<clus scale="   88.458">  7  8 -1 -1</clus>
<clus scale="   55.173">  7  9 -1 -1</clus>
<clus scale="  150.219">  1  5  2 -1</clus>
<clus scale="  223.878">  2  5  1 -1</clus>
</clustering>
</event>
<event>
 9    1  0.6399313E-006  0.4486224E+03  0.7546771E-02  0.1055060E+00
          2   -1    0    0  502    0 -0.00000000000E+00  0.00000000000E+00  0.56352887082E+03  0.56352887082E+03  0.00000000000E+00 0. -1.
         21   -1    0    0  501  502  0.00000000000E+00 -0.00000000000E+00 -0.19650629177E+03  0.19650629177E+03  0.00000000000E+00 0. -1.
         23    2    1    2    0    0 -0.55377925553E+02 -0.16340419401E+03  0.18306752135E+03  0.27516249105E+03  0.11150351497E+03 0.  0.
         23    2    1    2    0    0 -0.22242913771E+02  0.12761156443E+02  0.27602257060E+03  0.29201327613E+03  0.91791609785E+02 0.  0.
        -13    1    4    4    0    0  0.13416677269E+01 -0.37178330638E+02  0.77744885364E+02  0.86187560248E+02  0.00000000000E+00 0.  1.
         13    1    4    4    0    0 -0.23584581498E+02  0.49939487081E+02  0.19827768524E+03  0.20582571588E+03  0.00000000000E+00 0. -1.
        -13    1    3    3    0    0 -0.58181411049E+02 -0.24716260755E+02  0.81976523106E+02  0.10351869627E+03  0.00000000000E+00 0.  1.
         13    1    3    3    0    0  0.28034854960E+01 -0.13868793325E+03  0.10109099824E+03  0.17164379478E+03  0.00000000000E+00 0. -1.
          2    1    1    2  501    0  0.77620839324E+02  0.15064303757E+03 -0.92067512902E+02  0.19285939541E+03  0.00000000000E+00 0. -1.
<scales pt_clust_5="13000.00000" pt_clust_6="13000.00000" pt_clust_7="13000.00000" pt_clust_8="13000.00000" pt_clust_9="13000.00000"></scales>
<clustering>
<clus scale="   91.792">  5  6 -1 -1</clus>
<clus scale="  111.504">  7  8 -1 -1</clus>
<clus scale="  169.465">  5  9 -1 -1</clus>
<clus scale="  205.428">  1  7  2 -1</clus>
<clus scale="  448.622">  2  5  1 -1</clus>
</clustering>
</event>
<event>
 9    1  0.6399313E-006  0.3038004E+03  0.7546771E-02  0.1127254E+00
         21   -1    0    0  501  502  0.00000000000E+00  0.00000000000E+00  0.15136833917E+03  0.15136833917E+03  0.00000000000E+00 0. -1.
          1   -1    0    0  502    0 -0.00000000000E+00 -0.00000000000E+00 -0.30229178684E+03  0.30229178684E+03  0.00000000000E+00 0. -1.
         23    2    1    2    0    0 -0.40506444444E+01 -0.32343231974E+02 -0.10933190250E+03  0.14702590115E+03  0.92739734365E+02 0.  0.
         23    2    1    2    0    0 -0.10223278042E+02 -0.40408479215E+02 -0.14652923395E+03  0.17814891493E+03  0.92351821222E+02 0.  0.
        -11    1    4    4    0    0  0.15314326773E+02  0.25737291346E+02 -0.51617966765E+02  0.59677058099E+02  0.00000000000E+00 0.  1.
         11    1    4    4    0    0 -0.25537604815E+02 -0.66145770561E+02 -0.94911267183E+02  0.11847185683E+03  0.00000000000E+00 0. -1.
        -11    1    3    3    0    0 -0.12957440709E+02  0.27038311755E+02 -0.67458556574E+02  0.73821558012E+02  0.00000000000E+00 0.  1.
         11    1    3    3    0    0  0.89067962643E+01 -0.59381543729E+02 -0.41873345922E+02  0.73204343136E+02  0.00000000000E+00 0. -1.
          1    1    1    2  501    0  0.14273922486E+02  0.72751711188E+02  0.10493768877E+03  0.12848530994E+03  0.00000000000E+00 0. -1.
<scales pt_clust_5="13000.00000" pt_clust_6="13000.00000" pt_clust_7="13000.00000" pt_clust_8="13000.00000" pt_clust_9="13000.00000"></scales>
<clustering>
<clus scale="   92.352">  5  6 -1 -1</clus>
<clus scale="   74.139">  5  9 -1 -1</clus>
<clus scale="   92.740">  7  8 -1 -1</clus>
<clus scale="   98.301">  2  7  1 -1</clus>
<clus scale="  303.800">  1  5  2 -1</clus>
</clustering>
</event>
<event>
 9    1  0.6399313E-006  0.1734651E+03  0.7546771E-02  0.1197839E+00
         -3   -1    0    0    0  501 -0.00000000000E+00  0.00000000000E+00  0.14688097270E+03  0.14688097270E+03  0.00000000000E+00 0.  1.
         21   -1    0    0  501  502  0.00000000000E+00 -0.00000000000E+00 -0.13217312750E+03  0.13217312750E+03  0.00000000000E+00 0.  1.
         23    2    1    2    0    0 -0.27220024661E+01  0.46031009075E+02  0.23512584129E+02  0.10536570860E+03  0.91775965492E+02 0.  0.
         23    2    1    2    0    0  0.12321437091E+02 -0.22961723265E+02  0.53402845006E+02  0.10665015928E+03  0.88562599744E+02 0.  0.
        -11    1    4    4    0    0  0.35486053990E+02  0.13714232404E+02  0.50428563145E+02  0.63169456061E+02  0.00000000000E+00 0.  1.
         11    1    4    4    0    0 -0.23164616898E+02 -0.36675955668E+02  0.29742818610E+01  0.43480703223E+02  0.00000000000E+00 0. -1.
        -11    1    3    3    0    0 -0.42709198220E+02  0.20184421417E+01  0.47972526590E+01  0.43025147930E+02  0.00000000000E+00 0. -1.
         11    1    3    3    0    0  0.39987195754E+02  0.44012566933E+02  0.18715331470E+02  0.62340560668E+02  0.00000000000E+00 0.  1.
         -3    1    1    2    0  502 -0.95994346253E+01 -0.23069285811E+02 -0.62207583935E+02  0.67038232315E+02  0.00000000000E+00 0.  1.
<scales pt_clust_5="13000.00000" pt_clust_6="13000.00000" pt_clust_7="13000.00000" pt_clust_8="13000.00000" pt_clust_9="13000.00000"></scales>
<clustering>
<clus scale="   88.563">  5  6 -1 -1</clus>
<clus scale="   24.987">  5  9 -1 -1</clus>
<clus scale="   91.776">  7  8 -1 -1</clus>
<clus scale="  102.709">  1  7  2 -1</clus>
<clus scale="  173.465">  2  5  1 -1</clus>
</clustering>
</event>
<event>
 9    1  0.6399313E-006  0.1868712E+03  0.7546771E-02  0.1184350E+00
          2   -1    0    0  502    0 -0.00000000000E+00  0.00000000000E+00  0.11209307917E+03  0.11209307917E+03  0.00000000000E+00 0. -1.
         21   -1    0    0  501  502  0.00000000000E+00 -0.00000000000E+00 -0.39450983570E+03  0.39450983570E+03  0.00000000000E+00 0. -1.
         23    2    1    2    0    0 -0.68466371849E+01 -0.67326910868E+01  0.52990285379E+02  0.12265143548E+03  0.11019618283E+03 0.  0.
         23    2    1    2    0    0  0.42268580061E+02  0.46275323883E+02 -0.10751083396E+03  0.14995358316E+03  0.83662770825E+02 0.  0.
        -11    1    4    4    0    0 -0.20540244129E+02 -0.50046741470E+01 -0.10770883762E+02  0.23726785058E+02  0.00000000000E+00 0.  1.
         11    1    4    4    0    0  0.62808824190E+02  0.51279998030E+02 -0.96739950200E+02  0.12622679810E+03  0.00000000000E+00 0. -1.
        -13    1    3    3    0    0 -0.54080524315E+02 -0.24592385025E+02  0.35514533084E+02  0.69215392591E+02  0.00000000000E+00 0.  1.
         13    1    3    3    0    0  0.47233887130E+02  0.17859693938E+02  0.17475752295E+02  0.53436042885E+02  0.00000000000E+00 0. -1.
          2    1    1    2  501    0 -0.35421942876E+02 -0.39542632796E+02 -0.22789620795E+03  0.23399789624E+03  0.00000000000E+00 0. -1.
<scales pt_clust_5="13000.00000" pt_clust_6="13000.00000" pt_clust_7="13000.00000" pt_clust_8="13000.00000" pt_clust_9="13000.00000"></scales>
<clustering>
<clus scale="   83.663">  5  6 -1 -1</clus>
<clus scale="   53.088">  5  9 -1 -1</clus>
<clus scale="  110.196">  7  8 -1 -1</clus>
<clus scale="  110.614">  1  7  2 -1</clus>
<clus scale="  186.871">  2  5  1 -1</clus>
</clustering>
</event>
<event>
 9    1  0.6399313E-006  0.1638879E+03  0.7546771E-02  0.1211020E+00
         21   -1    0    0  501  502  0.00000000000E+00  0.00000000000E+00  0.95842019487E+02  0.95842019487E+02  0.00000000000E+00 0.  1.
         -3   -1    0    0    0  501 -0.00000000000E+00 -0.00000000000E+00 -0.21138024502E+03  0.21138024502E+03  0.00000000000E+00 0.  1.
         23    2    1    2    0    0 -0.92761653016E+01 -0.95793136207E+01 -0.11007309754E+03  0.14324322533E+03  0.90690265784E+02 0.  0.
         23    2    1    2    0    0  0.38119178514E+02 -0.42503431020E+02  0.21321578287E+01  0.10396028834E+03  0.86853796894E+02 0.  0.
        -11    1    3    3    0    0  0.29462337752E+02 -0.37424125231E+01 -0.37530541804E+01  0.29935270385E+02  0.00000000000E+00 0.  1.
         11    1    3    3    0    0 -0.38738503054E+02 -0.58369010976E+01 -0.10632004336E+03  0.11330795494E+03  0.00000000000E+00 0. -1.
        -11    1    4    4    0    0  0.60372190175E+02 -0.43099757305E+02  0.18354873600E+02  0.76415259020E+02  0.00000000000E+00 0.  1.
         11    1    4    4    0    0 -0.22253011661E+02  0.59632628494E+00 -0.16222715771E+02  0.27545029316E+02  0.00000000000E+00 0. -1.
         -3    1    1    2    0  502 -0.28843013212E+02  0.52082744641E+02 -0.75972858177E+01  0.60018750839E+02  0.00000000000E+00 0.  1.
<scales pt_clust_5="13000.00000" pt_clust_6="13000.00000" pt_clust_7="13000.00000" pt_clust_8="13000.00000" pt_clust_9="13000.00000"></scales>
<clustering>
<clus scale="   86.854">  7  8 -1 -1</clus>
<clus scale="   59.536">  7  9 -1 -1</clus>
<clus scale="   90.690">  5  6 -1 -1</clus>
<clus scale="   91.665">  2  5  1 -1</clus>
<clus scale="  163.888">  1  5  2 -1</clus>
</clustering>
</event>
<event>
 9    1  0.6399313E-006  0.2067993E+03  0.7546771E-02  0.1172724E+00
         21   -1    0    0  501  502  0.00000000000E+00  0.00000000000E+00  0.75480691184E+02  0.75480691184E+02  0.00000000000E+00 0. -1.
          1   -1    0    0  502    0 -0.00000000000E+00 -0.00000000000E+00 -0.35582405654E+03  0.35582405654E+03  0.00000000000E+00 0. -1.
         23    2    1    2    0    0 -0.34791011295E+02  0.15485232767E+02 -0.16022473917E+03  0.19215119402E+03  0.98994481775E+02 0.  0.
         23    2    1    2    0    0  0.68669915200E+02  0.43562296655E+02 -0.12144924526E+03  0.17106419030E+03  0.88880858945E+02 0.  0.
        -11    1    4    4    0    0  0.59139958910E+01  0.52328133818E+02 -0.78453229832E+02  0.94488720001E+02  0.00000000000E+00 0.  1.
         11    1    4    4    0    0  0.62755919309E+02 -0.87658371631E+01 -0.42996015426E+02  0.76575470302E+02  0.00000000000E+00 0. -1.
        -11    1    3    3    0    0 -0.58502498889E+02 -0.67727291761E+01 -0.50085526617E+02  0.77310880303E+02  0.00000000000E+00 0.  1.
         11    1    3    3    0    0  0.23711487594E+02  0.22257961943E+02 -0.11013921255E+03  0.11484031372E+03  0.00000000000E+00 0. -1.
          1    1    1    2  501    0 -0.33878903905E+02 -0.59047529422E+02  0.13306190728E+01  0.68089363397E+02  0.00000000000E+00 0. -1.
<scales pt_clust_5="13000.00000" pt_clust_6="13000.00000" pt_clust_7="13000.00000" pt_clust_8="13000.00000" pt_clust_9="13000.00000"></scales>
<clustering>
<clus scale="   88.881">  5  6 -1 -1</clus>
<clus scale="   68.076">  5  9 -1 -1</clus>
<clus scale="   98.994">  7  8 -1 -1</clus>
<clus scale="  106.067">  2  7  1 -1</clus>
<clus scale="  206.799">  1  5  2 -1</clus>
</clustering>
</event>
<event>
 9    1  0.6399313E-006  0.4395401E+03  0.7546771E-02  0.1079551E+00
         21   -1    0    0  501  502  0.00000000000E+00  0.00000000000E+00  0.51107378192E+03  0.51107378192E+03  0.00000000000E+00 0. -1.
         -3   -1    0    0    0  501 -0.00000000000E+00 -0.00000000000E+00 -0.15170289284E+03  0.15170289284E+03  0.00000000000E+00 0.  1.
         23    2    1    2    0    0 -0.65413079543E+02  0.13672289272E+01  0.11484995074E+03  0.15979957044E+03  0.89803403263E+02 0.  0.
         23    2    1    2    0    0 -0.20532603627E+02 -0.17503205494E+03  0.85496651010E+01  0.19764355876E+03  0.89062177597E+02 0.  0.
        -11    1    3    3    0    0 -0.61256430319E+01  0.37061885969E+02  0.20510469254E+02  0.42799371994E+02  0.00000000000E+00 0.  1.
         11    1    3    3    0    0 -0.59287436511E+02 -0.35694657041E+02  0.94339481482E+02  0.11700019844E+03  0.00000000000E+00 0. -1.
        -13    1    4    4    0    0 -0.43506076393E+02 -0.42040690898E+02  0.15666171296E+02  0.62495018180E+02  0.00000000000E+00 0.  1.
         13    1    4    4    0    0  0.22973472766E+02 -0.13299136405E+03 -0.71165061951E+01  0.13514854058E+03  0.00000000000E+00 0. -1.
         -3    1    1    2    0  502  0.85945683170E+02  0.17366482602E+03  0.23597127324E+03  0.30533354556E+03  0.00000000000E+00 0.  1.
<scales pt_clust_5="13000.00000" pt_clust_6="13000.00000" pt_clust_7="13000.00000" pt_clust_8="13000.00000" pt_clust_9="13000.00000"></scales>
<clustering>
<clus scale="   89.062">  7  8 -1 -1</clus>
<clus scale="   89.803">  5  6 -1 -1</clus>
<clus scale="  111.110">  2  5  1 -1</clus>
<clus scale="  186.988">  7  9 -1 -1</clus>
<clus scale="  439.540">  1  5  2 -1</clus>
</clustering>
</event>
<event>
 9    1  0.6399313E-006  0.2945863E+03  0.7546771E-02  0.1130561E+00
          2   -1    0    0  502    0 -0.00000000000E+00  0.00000000000E+00  0.20371929922E+03  0.20371929922E+03  0.00000000000E+00 0. -1.
         21   -1    0    0  501  502  0.00000000000E+00 -0.00000000000E+00 -0.19050428708E+03  0.19050428708E+03  0.00000000000E+00 0.  1.
         23    2    1    2    0    0 -0.11247927804E+02 -0.34402135526E+02  0.14223519644E+01  0.99401370486E+02  0.92566660093E+02 0.  0.
         23    2    1    2    0    0  0.10031242431E+02 -0.77386276844E+00  0.13594998189E+03  0.16577233509E+03  0.94323087413E+02 0.  0.
        -13    1    3    3    0    0 -0.32234724974E+02  0.12083727341E+02 -0.24436866194E+02  0.42216754849E+02  0.00000000000E+00 0.  1.
         13    1    3    3    0    0  0.20986797170E+02 -0.46485862867E+02  0.25859218158E+02  0.57184615638E+02  0.00000000000E+00 0. -1.
        -13    1    4    4    0    0 -0.48570933730E+01  0.39372020940E+02  0.25109999313E+02  0.46949541579E+02  0.00000000000E+00 0.  1.
         13    1    4    4    0    0  0.14888335804E+02 -0.40145883709E+02  0.11083998257E+03  0.11882279352E+03  0.00000000000E+00 0. -1.
          2    1    1    2  501    0  0.12166853732E+01  0.35175998294E+02 -0.12415732171E+03  0.12904988072E+03  0.00000000000E+00 0. -1.
<scales pt_clust_5="13000.00000" pt_clust_6="13000.00000" pt_clust_7="13000.00000" pt_clust_8="13000.00000" pt_clust_9="13000.00000"></scales>
<clustering>
<clus scale="   92.567">  5  6 -1 -1</clus>
<clus scale="   94.323">  7  8 -1 -1</clus>
<clus scale="   35.197">  7  9 -1 -1</clus>
<clus scale="   99.391">  1  5  2 -1</clus>
<clus scale="  294.586">  2  5  1 -1</clus>
</clustering>
</event>
<event>
 9    1  0.6399313E-006  0.5784343E+03  0.7546771E-02  0.1014922E+00
          1   -1    0    0  502    0 -0.00000000000E+00  0.00000000000E+00  0.87068656322E+03  0.87068656322E+03  0.00000000000E+00 0. -1.
         21   -1    0    0  501  502  0.00000000000E+00 -0.00000000000E+00 -0.26905730758E+03  0.26905730758E+03  0.00000000000E+00 0. -1.
         23    2    1    2    0    0 -0.26202638071E+03 -0.14153971038E+03  0.43973998954E+03  0.53908225970E+03  0.92450584237E+02 0.  0.
         23    2    1    2    0    0  0.16058521100E+03  0.15163830143E+03  0.32758497398E+03  0.40611763133E+03  0.94009738041E+02 0.  0.
        -11    1    3    3    0    0 -0.99917204238E+02 -0.11021290237E+02  0.10870516896E+03  0.14805988755E+03  0.00000000000E+00 0.  1.
         11    1    3    3    0    0 -0.16210917647E+03 -0.13051842015E+03  0.33103482058E+03  0.39102237216E+03  0.00000000000E+00 0. -1.
        -13    1    4    4    0    0  0.17059553678E+03  0.12703768182E+03  0.28005699099E+03  0.35167218823E+03  0.00000000000E+00 0.  1.
         13    1    4    4    0    0 -0.10010325779E+02  0.24600619605E+02  0.47527982991E+02  0.54445443100E+02  0.00000000000E+00 0. -1.
          1    1    1    2  501    0  0.10144116971E+03 -0.10098591044E+02 -0.16569570788E+03  0.19454397976E+03  0.00000000000E+00 0. -1.
<scales pt_clust_5="13000.00000" pt_clust_6="13000.00000" pt_clust_7="13000.00000" pt_clust_8="13000.00000" pt_clust_9="13000.00000"></scales>
<clustering>
<clus scale="   92.451">  5  6 -1 -1</clus>
<clus scale="   94.010">  7  8 -1 -1</clus>
<clus scale="  101.943">  7  9 -1 -1</clus>
<clus scale="  311.831">  1  5  2 -1</clus>
<clus scale="  578.434">  2  5  1 -1</clus>
</clustering>
</event>
<event>
 9    1  0.6399313E-006  0.5463678E+03  0.7546771E-02  0.1048930E+00
         21   -1    0    0  501  502  0.00000000000E+00  0.00000000000E+00  0.14164643403E+03  0.14164643403E+03  0.00000000000E+00 0. -1.
          2   -1    0    0  502    0 -0.00000000000E+00 -0.00000000000E+00 -0.82257604463E+03  0.82257604463E+03  0.00000000000E+00 0. -1.
         23    2    1    2    0    0 -0.63858506462E+02  0.76424207348E+02 -0.11544950315E+03  0.17791114922E+03  0.91679991940E+02 0.  0.
         23    2    1    2    0    0 -0.15028330681E+03  0.29755730635E+02 -0.51074645685E+03  0.54110393166E+03  0.91983943478E+02 0.  0.
        -11    1    3    3    0    0 -0.85715134696E+02  0.52589710298E+02 -0.10088195452E+03  0.14244272777E+03  0.00000000000E+00 0. -1.
         11    1    3    3    0    0  0.21856628233E+02  0.23834497050E+02 -0.14567548631E+02  0.35468421454E+02  0.00000000000E+00 0.  1.
        -13    1    4    4    0    0 -0.10093458551E+02  0.31192772743E+02 -0.16100519357E+03  0.16430927951E+03  0.00000000000E+00 0.  1.
         13    1    4    4    0    0 -0.14018984826E+03 -0.14370421079E+01 -0.34974126328E+03  0.37679465215E+03  0.00000000000E+00 0. -1.
          2    1    1    2  501    0  0.21414181327E+03 -0.10617993798E+03 -0.54733650596E+02  0.24520739779E+03  0.00000000000E+00 0. -1.
<scales pt_clust_5="13000.00000" pt_clust_6="13000.00000" pt_clust_7="13000.00000" pt_clust_8="13000.00000" pt_clust_9="13000.00000"></scales>
<clustering>
<clus scale="   91.680">  5  6 -1 -1</clus>
<clus scale="   91.984">  7  8 -1 -1</clus>
<clus scale="  135.365">  2  5  1 -1</clus>
<clus scale="  218.974">  7  9 -1 -1</clus>
<clus scale="  546.368">  1  5  2 -1</clus>
</clustering>
</event>
<event>
 9    1  0.6399313E-006  0.2529152E+03  0.7546771E-02  0.1125401E+00
          2   -1    0    0  502    0 -0.00000000000E+00  0.00000000000E+00  0.13311695038E+04  0.13311695038E+04  0.00000000000E+00 0. -1.
         21   -1    0    0  501  502  0.00000000000E+00 -0.00000000000E+00 -0.45622934807E+02  0.45622934807E+02  0.00000000000E+00 0. -1.
         23    2    1    2    0    0 -0.41421857890E+02  0.14791457242E+03  0.88711123862E+03  0.90486361630E+03  0.90649453274E+02 0.  0.
         23    2    1    2    0    0  0.83035791790E+02 -0.22618332087E+02  0.18659804686E+03  0.22231732012E+03  0.84850622087E+02 0.  0.
        -11    1    4    4    0    0 -0.25178947152E+01  0.20862004933E+02  0.59189939294E+02  0.62809330177E+02  0.00000000000E+00 0.  1.
         11    1    4    4    0    0  0.85553686506E+02 -0.43480337020E+02  0.12740810757E+03  0.15950798994E+03  0.00000000000E+00 0. -1.
        -13    1    3    3    0    0 -0.57900936151E+02  0.43868236686E+02  0.33365922103E+03  0.34147535252E+03  0.00000000000E+00 0. -1.
         13    1    3    3    0    0  0.16479078261E+02  0.10404633573E+03  0.55345201758E+03  0.56338826378E+03  0.00000000000E+00 0.  1.
          2    1    1    2  501    0 -0.41613933901E+02 -0.12529624033E+03  0.21183728350E+03  0.24961150217E+03  0.00000000000E+00 0. -1.
<scales pt_clust_5="13000.00000" pt_clust_6="13000.00000" pt_clust_7="13000.00000" pt_clust_8="13000.00000" pt_clust_9="13000.00000"></scales>
<clustering>
<clus scale="   84.851">  5  6 -1 -1</clus>
<clus scale="   90.649">  7  8 -1 -1</clus>
<clus scale="  132.026">  5  9 -1 -1</clus>
<clus scale="  178.359">  1  7  2 -1</clus>
<clus scale="  252.915">  2  5  1 -1</clus>
</clustering>
</event>
<event>
 9    1  0.6399313E-006  0.3173442E+03  0.7546771E-02  0.1123207E+00
         21   -1    0    0  501  502  0.00000000000E+00  0.00000000000E+00  0.82652147435E+02  0.82652147435E+02  0.00000000000E+00 0. -1.
         -2   -1    0    0    0  501 -0.00000000000E+00 -0.00000000000E+00 -0.82715516110E+03  0.82715516110E+03  0.00000000000E+00 0.  1.
         23    2    1    2    0    0  0.71774300734E+01  0.28690140701E+02 -0.50050471198E+03  0.50950428628E+03  0.90636699780E+02 0.  0.
         23    2    1    2    0    0 -0.10315779425E+03 -0.10552621530E+03 -0.67237925185E+02  0.18498873251E+03  0.89008875644E+02 0.  0.
        -11    1    3    3    0    0 -0.28330952080E+02 -0.19591192024E+02 -0.14924270320E+03  0.15316606057E+03  0.00000000000E+00 0. -1.
         11    1    3    3    0    0  0.35508382153E+02  0.48281332725E+02 -0.35126200878E+03  0.35633822572E+03  0.00000000000E+00 0.  1.
        -13    1    4    4    0    0 -0.65663345681E+02 -0.14924541636E+02 -0.53445336232E+02  0.85969883529E+02  0.00000000000E+00 0. -1.
         13    1    4    4    0    0 -0.37494448570E+02 -0.90601673661E+02 -0.13792588953E+02  0.99018848982E+02  0.00000000000E+00 0.  1.
         -2    1    1    2    0  502  0.95980364178E+02  0.76836074596E+02 -0.17676037649E+03  0.21531428974E+03  0.00000000000E+00 0.  1.
<scales pt_clust_5="13000.00000" pt_clust_6="13000.00000" pt_clust_7="13000.00000" pt_clust_8="13000.00000" pt_clust_9="13000.00000"></scales>
<clustering>
<clus scale="   89.009">  7  8 -1 -1</clus>
<clus scale="   90.637">  5  6 -1 -1</clus>
<clus scale="   95.340">  2  5  1 -1</clus>
<clus scale="  137.700">  7  9 -1 -1</clus>
<clus scale="  317.344">  1  5  2 -1</clus>
</clustering>
</event>
<event>
 9    1  0.6399313E-006  0.3790135E+03  0.7546771E-02  0.1059026E+00
         21   -1    0    0  501  502  0.00000000000E+00  0.00000000000E+00  0.28705160111E+03  0.28705160111E+03  0.00000000000E+00 0.  1.
         -4   -1    0    0    0  501 -0.00000000000E+00 -0.00000000000E+00 -0.96006526587E+03  0.96006526587E+03  0.00000000000E+00 0.  1.
         23    2    1    2    0    0 -0.63954312559E+02 -0.28089750395E+03 -0.79303555353E+03  0.84955363423E+03  0.99209003938E+02 0.  0.
         23    2    1    2    0    0  0.33791648162E+02  0.16738699671E+02 -0.23355170350E+01  0.10488423632E+03  0.97842673901E+02 0.  0.
        -11    1    4    4    0    0  0.53059034456E+02  0.44027173536E+02 -0.12277113569E+02  0.70031283471E+02  0.00000000000E+00 0. -1.
         11    1    4    4    0    0 -0.19267386294E+02 -0.27288473865E+02  0.99415965341E+01  0.34852952847E+02  0.00000000000E+00 0.  1.
        -11    1    3    3    0    0  0.18438254392E+01 -0.83041241120E+02 -0.35265294512E+03  0.36230283896E+03  0.00000000000E+00 0. -1.
         11    1    3    3    0    0 -0.65798137998E+02 -0.19785626283E+03 -0.44038260841E+03  0.48725079527E+03  0.00000000000E+00 0.  1.
         -4    1    1    2    0  502  0.30162664397E+02  0.26415880428E+03  0.12235740580E+03  0.29267899644E+03  0.00000000000E+00 0.  1.
<scales pt_clust_5="13000.00000" pt_clust_6="13000.00000" pt_clust_7="13000.00000" pt_clust_8="13000.00000" pt_clust_9="13000.00000"></scales>
<clustering>
<clus scale="   97.843">  5  6 -1 -1</clus>
<clus scale="   99.209">  7  8 -1 -1</clus>
<clus scale="  265.875">  5  9 -1 -1</clus>
<clus scale="  304.690">  2  7  1 -1</clus>
<clus scale="  379.014">  1  5  2 -1</clus>
</clustering>
</event>
<event>
 9    1  0.6399313E-006  0.4898016E+03  0.7546771E-02  0.1062227E+00
         21   -1    0    0  501  502  0.00000000000E+00  0.00000000000E+00  0.66788528321E+03  0.66788528321E+03  0.00000000000E+00 0. -1.
          2   -1    0    0  502    0 -0.00000000000E+00 -0.00000000000E+00 -0.16049298699E+03  0.16049298699E+03  0.00000000000E+00 0. -1.
         23    2    1    2    0    0 -0.59724144281E+01 -0.91333342200E+02  0.87131739298E+01  0.12938867932E+03  0.91038792859E+02 0.  0.
         23    2    1    2    0    0  0.30808813389E+02 -0.18187249585E+03  0.28229475297E+03  0.34958943068E+03  0.92171876193E+02 0.  0.
        -11    1    4    4    0    0 -0.29392070796E+02 -0.29363454860E+02  0.69242438503E+02  0.80750365924E+02  0.00000000000E+00 0.  1.
         11    1    4    4    0    0  0.60200884185E+02 -0.15250904099E+03  0.21305231446E+03  0.26883906475E+03  0.00000000000E+00 0. -1.
        -13    1    3    3    0    0  0.24979833203E+02 -0.17009052917E+02 -0.27727982714E+02  0.41013911949E+02  0.00000000000E+00 0.  1.
         13    1    3    3    0    0 -0.30952247631E+02 -0.74324289283E+02  0.36441156643E+02  0.88374767373E+02  0.00000000000E+00 0. -1.
          2    1    1    2  501    0 -0.24836398961E+02  0.27320583805E+03  0.21638436932E+03  0.34940016020E+03  0.00000000000E+00 0. -1.
<scales pt_clust_5="13000.00000" pt_clust_6="13000.00000" pt_clust_7="13000.00000" pt_clust_8="13000.00000" pt_clust_9="13000.00000"></scales>
<clustering>
<clus scale="   91.039">  7  8 -1 -1</clus>
<clus scale="   92.172">  5  6 -1 -1</clus>
<clus scale="  129.095">  2  7  1 -1</clus>
<clus scale="  214.499">  5  9 -1 -1</clus>
<clus scale="  489.802">  1  5  2 -1</clus>
</clustering>
</event>
<event>
 9    1  0.6399313E-006  0.3674752E+03  0.7546771E-02  0.1082869E+00
         21   -1    0    0  501  502  0.00000000000E+00  0.00000000000E+00  0.61712345218E+02  0.61712345218E+02  0.00000000000E+00 0.  1.
          2   -1    0    0  502    0 -0.00000000000E+00 -0.00000000000E+00 -0.14038080970E+04  0.14038080970E+04  0.00000000000E+00 0. -1.
         23    2    1    2    0    0  0.12684547228E+03  0.73733908874E+02 -0.73984588927E+03  0.76001148916E+03  0.93375910297E+02 0.  0.
         23    2    1    2    0    0 -0.12411928979E+03 -0.27105838372E+02 -0.63144760689E+03  0.65042613083E+03  0.90486169328E+02 0.  0.
        -11    1    3    3    0    0  0.13258192940E+03  0.39406610964E+02 -0.61825209501E+03  0.63353492562E+03  0.00000000000E+00 0.  1.
         11    1    3    3    0    0 -0.57364571252E+01  0.34327297910E+02 -0.12159379426E+03  0.12647656354E+03  0.00000000000E+00 0. -1.
        -13    1    4    4    0    0 -0.76281133544E+02 -0.60115277165E+02 -0.36384448488E+03  0.37658394424E+03  0.00000000000E+00 0.  1.
         13    1    4    4    0    0 -0.47838156246E+02  0.33009438793E+02 -0.26760312201E+03  0.27384218658E+03  0.00000000000E+00 0. -1.
          2    1    1    2  501    0 -0.27261824866E+01 -0.46628070501E+02  0.29197744375E+02  0.55082822243E+02  0.00000000000E+00 0. -1.
<scales pt_clust_5="13000.00000" pt_clust_6="13000.00000" pt_clust_7="13000.00000" pt_clust_8="13000.00000" pt_clust_9="13000.00000"></scales>
<clustering>
<clus scale="   90.486">  7  8 -1 -1</clus>
<clus scale="   46.708">  7  9 -1 -1</clus>
<clus scale="   93.376">  5  6 -1 -1</clus>
<clus scale="  173.912">  2  5  1 -1</clus>
<clus scale="  367.475">  1  5  2 -1</clus>
</clustering>
</event>
<event>
 9    1  0.6399313E-006  0.2878300E+03  0.7546771E-02  0.1135902E+00
          1   -1    0    0  502    0 -0.00000000000E+00  0.00000000000E+00  0.20657755310E+03  0.20657755310E+03  0.00000000000E+00 0. -1.
         21   -1    0    0  501  502  0.00000000000E+00 -0.00000000000E+00 -0.19589340207E+03  0.19589340207E+03  0.00000000000E+00 0. -1.
         23    2    1    2    0    0 -0.30860320241E+01 -0.12046193909E+02  0.59045392903E+02  0.11060641882E+03  0.92697287336E+02 0.  0.
         23    2    1    2    0    0  0.10095256562E+03  0.73840492099E+02  0.22162487994E+02  0.15632859956E+03  0.91124181132E+02 0.  0.
        -13    1    3    3    0    0 -0.44539513250E+02  0.11290047582E+02  0.29768789596E+02  0.54748646093E+02  0.00000000000E+00 0.  1.
         13    1    3    3    0    0  0.41453481226E+02 -0.23336241491E+02  0.29276603307E+02  0.55857772726E+02  0.00000000000E+00 0. -1.
        -13    1    4    4    0    0  0.79105615029E+02  0.83463172931E+02  0.44815545393E+02  0.12341893159E+03  0.00000000000E+00 0. -1.
         13    1    4    4    0    0  0.21846950596E+02 -0.96226808319E+01 -0.22653057399E+02  0.32909667976E+02  0.00000000000E+00 0.  1.
          1    1    1    2  501    0 -0.97866533601E+02 -0.61794298189E+02 -0.70523729871E+02  0.13553593679E+03  0.00000000000E+00 0. -1.
<scales pt_clust_5="13000.00000" pt_clust_6="13000.00000" pt_clust_7="13000.00000" pt_clust_8="13000.00000" pt_clust_9="13000.00000"></scales>
<clustering>
<clus scale="   91.124">  7  8 -1 -1</clus>
<clus scale="   92.697">  5  6 -1 -1</clus>
<clus scale="   93.528">  1  5  2 -1</clus>
<clus scale="  118.179">  7  9 -1 -1</clus>
<clus scale="  287.830">  2  5  1 -1</clus>
</clustering>
</event>
<event>
 9    1  0.6399313E-006  0.2057623E+03  0.7546771E-02  0.1171969E+00
          1   -1    0    0  502    0 -0.00000000000E+00  0.00000000000E+00  0.96831355858E+02  0.96831355858E+02  0.00000000000E+00 0. -1.
         21   -1    0    0  501  502  0.00000000000E+00 -0.00000000000E+00 -0.27394964273E+03  0.27394964273E+03  0.00000000000E+00 0. -1.
         23    2    1    2    0    0  0.58697897189E+01  0.60298159712E+02 -0.18775122163E+02  0.11114533689E+03  0.91271343823E+02 0.  0.
         23    2    1    2    0    0 -0.73360301831E+02 -0.68653357414E+02 -0.11518715253E+03  0.17909238178E+03  0.93332650955E+02 0.  0.
        -11    1    4    4    0    0 -0.44988318059E+02 -0.79068410491E+02 -0.11770745127E+03  0.14876426447E+03  0.00000000000E+00 0. -1.
         11    1    4    4    0    0 -0.28371983772E+02  0.10415053078E+02  0.25202987372E+01  0.30328117309E+02  0.00000000000E+00 0.  1.
        -13    1    3    3    0    0  0.25623172674E+02 -0.63061448242E+01 -0.30888607375E+02  0.40625367764E+02  0.00000000000E+00 0.  1.
         13    1    3    3    0    0 -0.19753382955E+02  0.66604304536E+02  0.12113485213E+02  0.70519969121E+02  0.00000000000E+00 0. -1.
          1    1    1    2  501    0  0.67490512112E+02  0.83551977019E+01 -0.43156012182E+02  0.80543279926E+02  0.00000000000E+00 0. -1.
<scales pt_clust_5="13000.00000" pt_clust_6="13000.00000" pt_clust_7="13000.00000" pt_clust_8="13000.00000" pt_clust_9="13000.00000"></scales>
<clustering>
<clus scale="   91.271">  7  8 -1 -1</clus>
<clus scale="   93.333">  5  6 -1 -1</clus>
<clus scale="   68.006">  5  9 -1 -1</clus>
<clus scale="  109.548">  1  7  2 -1</clus>
<clus scale="  205.762">  2  5  1 -1</clus>
</clustering>
</event>
<event>
 9    1  0.6399313E-006  0.2648751E+03  0.7546771E-02  0.1132007E+00
         -2   -1    0    0    0  501 -0.00000000000E+00  0.00000000000E+00  0.16870789860E+03  0.16870789860E+03  0.00000000000E+00 0.  1.
         21   -1    0    0  501  502  0.00000000000E+00 -0.00000000000E+00 -0.30750452400E+03  0.30750452400E+03  0.00000000000E+00 0.  1.
         23    2    1    2    0    0  0.94886253058E+02  0.11791368387E+02  0.60066236398E+02  0.14499461540E+03  0.90956299141E+02 0.  0.
         23    2    1    2    0    0 -0.11645251289E+02 -0.84439466644E+02 -0.29183542555E+02  0.12873847014E+03  0.91958029197E+02 0.  0.
        -11    1    4    4    0    0  0.23969383694E+02 -0.24047111656E+02  0.23283105416E+02  0.41169138095E+02  0.00000000000E+00 0.  1.
         11    1    4    4    0    0 -0.35614634983E+02 -0.60392354988E+02 -0.52466647970E+02  0.87569332047E+02  0.00000000000E+00 0. -1.
        -13    1    3    3    0    0  0.41057649305E+02 -0.35263928689E+02  0.42472666954E+01  0.54289174864E+02  0.00000000000E+00 0. -1.
         13    1    3    3    0    0  0.53828603753E+02  0.47055297076E+02  0.55818969703E+02  0.90705440540E+02  0.00000000000E+00 0.  1.
         -2    1    1    2    0  502 -0.83241001768E+02  0.72648098257E+02 -0.16967931924E+03  0.20247933705E+03  0.00000000000E+00 0.  1.
<scales pt_clust_5="13000.00000" pt_clust_6="13000.00000" pt_clust_7="13000.00000" pt_clust_8="13000.00000" pt_clust_9="13000.00000"></scales>
<clustering>
<clus scale="   90.956">  7  8 -1 -1</clus>
<clus scale="   91.958">  5  6 -1 -1</clus>
<clus scale="  110.484">  5  9 -1 -1</clus>
<clus scale="  131.968">  1  7  2 -1</clus>
<clus scale="  264.875">  2  5  1 -1</clus>
</clustering>
</event>
<event>
 9    1  0.6399313E-006  0.2775572E+03  0.7546771E-02  0.1123213E+00
         -3   -1    0    0    0  501 -0.00000000000E+00  0.00000000000E+00  0.46187816509E+03  0.46187816509E+03  0.00000000000E+00 0.  1.
         21   -1    0    0  501  502  0.00000000000E+00 -0.00000000000E+00 -0.10032322427E+03  0.10032322427E+03  0.00000000000E+00 0.  1.
         23    2    1    2    0    0  0.59279721883E+02  0.78320393515E+02  0.18399430615E+03  0.23270817494E+03  0.10320378152E+03 0.  0.
         23    2    1    2    0    0 -0.36594232414E+02 -0.25609064144E+02  0.23049981691E+03  0.25141842532E+03  0.89922727845E+02 0.  0.
        -11    1    4    4    0    0 -0.88627370924E+01 -0.54556162153E+02  0.92904905308E+02  0.10810293413E+03  0.00000000000E+00 0.  1.
         11    1    4    4    0    0 -0.27731495322E+02  0.28947098009E+02  0.13759491161E+03  0.14331549119E+03  0.00000000000E+00 0. -1.
        -13    1    3    3    0    0  0.82550854823E+01  0.88892316878E+02  0.12969271612E+03  0.15744901095E+03  0.00000000000E+00 0.  1.
         13    1    3    3    0    0  0.51024636401E+02 -0.10571923362E+02  0.54301590031E+02  0.75259163982E+02  0.00000000000E+00 0. -1.
         -3    1    1    2    0  502 -0.22685489469E+02 -0.52711329372E+02 -0.52939182246E+02  0.78074789103E+02  0.00000000000E+00 0.  1.
<scales pt_clust_5="13000.00000" pt_clust_6="13000.00000" pt_clust_7="13000.00000" pt_clust_8="13000.00000" pt_clust_9="13000.00000"></scales>
<clustering>
<clus scale="   89.923">  5  6 -1 -1</clus>
<clus scale="   57.386">  5  9 -1 -1</clus>
<clus scale="  103.204">  7  8 -1 -1</clus>
<clus scale="  142.475">  1  7  2 -1</clus>
<clus scale="  277.557">  2  5  1 -1</clus>
</clustering>
</event>
<event>
 9    1  0.6399313E-006  0.3685582E+03  0.7546771E-02  0.1104806E+00
         -2   -1    0    0    0  501 -0.00000000000E+00  0.00000000000E+00  0.83144445596E+03  0.83144445596E+03  0.00000000000E+00 0.  1.
         21   -1    0    0  501  502  0.00000000000E+00 -0.00000000000E+00 -0.69396446448E+02  0.69396446448E+02  0.00000000000E+00 0.  1.
         23    2    1    2    0    0  0.13493637720E+02 -0.32442394013E+02  0.26419165121E+03  0.28140883984E+03  0.90327843896E+02 0.  0.
         23    2    1    2    0    0  0.74064199927E+02 -0.63168825573E+02  0.45575033544E+03  0.48312066390E+03  0.12736326553E+03 0.  0.
        -13    1    4    4    0    0  0.19730707702E+02 -0.95172115368E+02  0.27052737153E+03  0.28745798148E+03  0.00000000000E+00 0.  1.
         13    1    4    4    0    0  0.54333492225E+02  0.32003289795E+02  0.18522296390E+03  0.19566268242E+03  0.00000000000E+00 0. -1.
        -13    1    3    3    0    0  0.46639780888E+02 -0.84205765081E+00  0.17547614032E+03  0.18157052086E+03  0.00000000000E+00 0.  1.
         13    1    3    3    0    0 -0.33146143167E+02 -0.31600336362E+02  0.88715510887E+02  0.99838318981E+02  0.00000000000E+00 0. -1.
         -2    1    1    2    0  502 -0.87557837648E+02  0.95611219586E+02  0.42106022868E+02  0.13631139866E+03  0.00000000000E+00 0.  1.
<scales pt_clust_5="13000.00000" pt_clust_6="13000.00000" pt_clust_7="13000.00000" pt_clust_8="13000.00000" pt_clust_9="13000.00000"></scales>
<clustering>
<clus scale="   90.328">  7  8 -1 -1</clus>
<clus scale="   96.921">  1  7  2 -1</clus>
<clus scale="  127.363">  5  6 -1 -1</clus>
<clus scale="  124.384">  5  9 -1 -1</clus>
<clus scale="  368.558">  2  5  1 -1</clus>
</clustering>
</event>
<event>
 9    1  0.6399313E-006  0.2355581E+03  0.7546771E-02  0.1162471E+00
          1   -1    0    0  502    0 -0.00000000000E+00  0.00000000000E+00  0.35965967336E+02  0.35965967336E+02  0.00000000000E+00 0. -1.
         21   -1    0    0  501  502  0.00000000000E+00 -0.00000000000E+00 -0.75826256717E+03  0.75826256717E+03  0.00000000000E+00 0.  1.
         23    2    1    2    0    0 -0.15484690901E+02  0.46413960350E+01 -0.25943115180E+03  0.27487120978E+03  0.89377520848E+02 0.  0.
         23    2    1    2    0    0 -0.33127213803E+02 -0.35744060316E+02 -0.73389943232E+02  0.12562942141E+03  0.89563483713E+02 0.  0.
        -11    1    4    4    0    0 -0.64166093073E+02 -0.25273593214E+02 -0.45645313562E+02  0.82701491307E+02  0.00000000000E+00 0.  1.
         11    1    4    4    0    0  0.31038879270E+02 -0.10470467102E+02 -0.27744629669E+02  0.42927930106E+02  0.00000000000E+00 0. -1.
        -11    1    3    3    0    0 -0.51766421489E+02 -0.79520113006E+01 -0.15410618657E+03  0.16276275255E+03  0.00000000000E+00 0.  1.
         11    1    3    3    0    0  0.36281730588E+02  0.12593407336E+02 -0.10532496523E+03  0.11210845723E+03  0.00000000000E+00 0. -1.
          1    1    1    2  501    0  0.48611904704E+02  0.31102664281E+02 -0.38947550481E+03  0.39372790332E+03  0.00000000000E+00 0. -1.
<scales pt_clust_5="13000.00000" pt_clust_6="13000.00000" pt_clust_7="13000.00000" pt_clust_8="13000.00000" pt_clust_9="13000.00000"></scales>
<clustering>
<clus scale="   89.378">  7  8 -1 -1</clus>
<clus scale="   89.563">  5  6 -1 -1</clus>
<clus scale="   57.710">  5  9 -1 -1</clus>
<clus scale="   90.828">  1  7  2 -1</clus>
<clus scale="  235.558">  2  5  1 -1</clus>
</clustering>
</event>
<event>
 9    1  0.6399313E-006  0.4079655E+03  0.7546771E-02  0.1076612E+00
          1   -1    0    0  502    0 -0.00000000000E+00  0.00000000000E+00  0.67647595405E+02  0.67647595405E+02  0.00000000000E+00 0. -1.
         21   -1    0    0  501  502  0.00000000000E+00 -0.00000000000E+00 -0.11589396599E+04  0.11589396599E+04  0.00000000000E+00 0. -1.
         23    2    1    2    0    0 -0.65654021241E+02  0.98790836694E+02 -0.25447862214E+03  0.29562401770E+03  0.92542481031E+02 0.  0.
         23    2    1    2    0    0 -0.15201326137E+03 -0.28237487421E+02 -0.36987975957E+03  0.41097873290E+03  0.90482567509E+02 0.  0.
        -13    1    4    4    0    0 -0.50707260346E+02 -0.10794234906E+02 -0.40080230602E+02  0.65529891226E+02  0.00000000000E+00 0.  1.
         13    1    4    4    0    0 -0.10130600103E+03 -0.17443252514E+02 -0.32979952897E+03  0.34544884167E+03  0.00000000000E+00 0. -1.
        -13    1    3    3    0    0  0.23880852519E+02  0.22495586342E+02 -0.54394796789E+02  0.63522755290E+02  0.00000000000E+00 0.  1.
         13    1    3    3    0    0 -0.89534873760E+02  0.76295250352E+02 -0.20008382535E+03  0.23210126241E+03  0.00000000000E+00 0. -1.
          1    1    1    2  501    0  0.21766728261E+03 -0.70553349273E+02 -0.46693368274E+03  0.51998450466E+03  0.00000000000E+00 0. -1.
<scales pt_clust_5="13000.00000" pt_clust_6="13000.00000" pt_clust_7="13000.00000" pt_clust_8="13000.00000" pt_clust_9="13000.00000"></scales>
<clustering>
<clus scale="   90.483">  5  6 -1 -1</clus>
<clus scale="   92.542">  7  8 -1 -1</clus>
<clus scale="  150.447">  1  7  2 -1</clus>
<clus scale="  181.285">  5  9 -1 -1</clus>
<clus scale="  407.965">  2  5  1 -1</clus>
</clustering>
</event>
<event>
 9    1  0.6399313E-006  0.2916236E+03  0.7546771E-02  0.1092988E+00
          1   -1    0    0  502    0 -0.00000000000E+00  0.00000000000E+00  0.12737278651E+03  0.12737278651E+03  0.00000000000E+00 0. -1.
         21   -1    0    0  501  502  0.00000000000E+00 -0.00000000000E+00 -0.61256692196E+03  0.61256692196E+03  0.00000000000E+00 0. -1.
         23    2    1    2    0    0 -0.24837190910E+03 -0.27575295419E+02 -0.25371177832E+03  0.36761133555E+03  0.91210884345E+02 0.  0.
         23    2    1    2    0    0  0.11299582010E+03 -0.15574349246E+02 -0.86053030268E+02  0.16901023202E+03  0.90270254208E+02 0.  0.
        -13    1    3    3    0    0 -0.10097087779E+03  0.33586684336E+02 -0.10403844111E+03  0.14881928892E+03  0.00000000000E+00 0. -1.
         13    1    3    3    0    0 -0.14740103130E+03 -0.61161979755E+02 -0.14967333721E+03  0.21879204663E+03  0.00000000000E+00 0.  1.
        -13    1    4    4    0    0  0.88487113312E+02 -0.36239727202E+02 -0.23110231968E+02  0.98373623861E+02  0.00000000000E+00 0. -1.
         13    1    4    4    0    0  0.24508706791E+02  0.20665377956E+02 -0.62942798300E+02  0.70636608161E+02  0.00000000000E+00 0.  1.
          1    1    1    2  501    0  0.13537608899E+03  0.43149644665E+02 -0.14542932686E+03  0.20331814090E+03  0.00000000000E+00 0. -1.
<scales pt_clust_5="13000.00000" pt_clust_6="13000.00000" pt_clust_7="13000.00000" pt_clust_8="13000.00000" pt_clust_9="13000.00000"></scales>
<clustering>
<clus scale="   90.270">  7  8 -1 -1</clus>
<clus scale="   91.211">  5  6 -1 -1</clus>
<clus scale="  142.087">  7  9 -1 -1</clus>
<clus scale="  266.023">  1  5  2 -1</clus>
<clus scale="  291.624">  2  5  1 -1</clus>
</clustering>
</event>
<event>
 9    1  0.6399313E-006  0.1542449E+03  0.7546771E-02  0.1216161E+00
         21   -1    0    0  501  502  0.00000000000E+00  0.00000000000E+00  0.47060150866E+02  0.47060150866E+02  0.00000000000E+00 0. -1.
          3   -1    0    0  502    0 -0.00000000000E+00 -0.00000000000E+00 -0.36038400701E+03  0.36038400701E+03  0.00000000000E+00 0. -1.
         23    2    1    2    0    0 -0.19048215479E+02  0.30099556688E+02 -0.17197274761E+03  0.19822748782E+03  0.91927651898E+02 0.  0.
         23    2    1    2    0    0 -0.45584275837E+01  0.18230528126E+02 -0.59408440452E+02  0.11119793946E+03  0.92100420871E+02 0.  0.
        -13    1    4    4    0    0  0.28880945996E+02 -0.13664357973E+02 -0.56484029485E+02  0.64894293334E+02  0.00000000000E+00 0.  1.
         13    1    4    4    0    0 -0.33439373580E+02  0.31894886099E+02 -0.29244109666E+01  0.46303646122E+02  0.00000000000E+00 0. -1.
        -13    1    3    3    0    0  0.26432951625E+02 -0.32556135261E+01 -0.13179753688E+02  0.29715414490E+02  0.00000000000E+00 0.  1.
         13    1    3    3    0    0 -0.45481167104E+02  0.33355170214E+02 -0.15879299392E+03  0.16851207333E+03  0.00000000000E+00 0. -1.
          3    1    1    2  501    0  0.23606643062E+02 -0.48330084814E+02 -0.81942668087E+02  0.98018730598E+02  0.00000000000E+00 0. -1.
<scales pt_clust_5="13000.00000" pt_clust_6="13000.00000" pt_clust_7="13000.00000" pt_clust_8="13000.00000" pt_clust_9="13000.00000"></scales>
<clustering>
<clus scale="   91.928">  7  8 -1 -1</clus>
<clus scale="   92.100">  5  6 -1 -1</clus>
<clus scale="   53.787">  5  9 -1 -1</clus>
<clus scale="   98.588">  2  7  1 -1</clus>
<clus scale="  154.245">  1  5  2 -1</clus>
</clustering>
</event>
<event>
 9    1  0.6399313E-006  0.3530041E+03  0.7546771E-02  0.1110655E+00
         21   -1    0    0  501  502  0.00000000000E+00  0.00000000000E+00  0.28223684789E+03  0.28223684789E+03  0.00000000000E+00 0.  1.
          1   -1    0    0  502    0 -0.00000000000E+00 -0.00000000000E+00 -0.26104342463E+03  0.26104342463E+03  0.00000000000E+00 0. -1.
         23    2    1    2    0    0  0.15367404555E+02 -0.25863461782E+02 -0.12854745089E+03  0.15982989447E+03  0.90089246076E+02 0.  0.
         23    2    1    2    0    0 -0.16208293396E+03  0.57485706082E+02  0.12497386851E+03  0.23133589001E+03  0.91226872761E+02 0.  0.
        -11    1    4    4    0    0 -0.10169641829E+03  0.71927085970E+02  0.11283798875E+03  0.16807164810E+03  0.00000000000E+00 0. -1.
         11    1    4    4    0    0 -0.60386515670E+02 -0.14441379888E+02  0.12135879760E+02  0.63264241917E+02  0.00000000000E+00 0.  1.
        -13    1    3    3    0    0  0.47361028707E+02  0.83846336820E+01 -0.66532904682E+02  0.82097481859E+02  0.00000000000E+00 0. -1.
         13    1    3    3    0    0 -0.31993624152E+02 -0.34248095464E+02 -0.62014546210E+02  0.77732412615E+02  0.00000000000E+00 0.  1.
          1    1    1    2  501    0  0.14671552940E+03 -0.31622244300E+02  0.24767005640E+02  0.15211448804E+03  0.00000000000E+00 0. -1.
<scales pt_clust_5="13000.00000" pt_clust_6="13000.00000" pt_clust_7="13000.00000" pt_clust_8="13000.00000" pt_clust_9="13000.00000"></scales>
<clustering>
<clus scale="   90.089">  7  8 -1 -1</clus>
<clus scale="   91.227">  5  6 -1 -1</clus>
<clus scale="   94.980">  2  7  1 -1</clus>
<clus scale="  161.687">  5  9 -1 -1</clus>
<clus scale="  353.004">  1  5  2 -1</clus>
</clustering>
</event>
<event>
 9    1  0.6399313E-006  0.1178272E+03  0.7546771E-02  0.1250915E+00
         -1   -1    0    0    0  501 -0.00000000000E+00  0.00000000000E+00  0.70266240199E+02  0.70266240199E+02  0.00000000000E+00 0.  1.
         21   -1    0    0  501  502  0.00000000000E+00 -0.00000000000E+00 -0.18564766665E+03  0.18564766665E+03  0.00000000000E+00 0. -1.
         23    2    1    2    0    0 -0.37660026432E+01  0.55424225582E+02 -0.73231217006E+02  0.13077439921E+03  0.93022066126E+02 0.  0.
         23    2    1    2    0    0  0.14832351034E+02 -0.37058747229E+02 -0.18833113756E+02  0.93462357942E+02  0.82384323721E+02 0.  0.
        -13    1    4    4    0    0  0.18568309220E+02 -0.61904198136E+02 -0.51016200443E+01  0.64830073124E+02  0.00000000000E+00 0. -1.
         13    1    4    4    0    0 -0.37359581863E+01  0.24845450907E+02 -0.13731493712E+02  0.28632284818E+02  0.00000000000E+00 0.  1.
        -13    1    3    3    0    0 -0.42288168665E+02  0.32421098846E+02 -0.11588301130E+02  0.54531693376E+02  0.00000000000E+00 0.  1.
         13    1    3    3    0    0  0.38522166021E+02  0.23003126737E+02 -0.61642915876E+02  0.76242705830E+02  0.00000000000E+00 0. -1.
         -1    1    1    2    0  502 -0.11066348390E+02 -0.18365478353E+02 -0.23317095694E+02  0.31677149705E+02  0.00000000000E+00 0.  1.
<scales pt_clust_5="13000.00000" pt_clust_6="13000.00000" pt_clust_7="13000.00000" pt_clust_8="13000.00000" pt_clust_9="13000.00000"></scales>
<clustering>
<clus scale="   82.384">  5  6 -1 -1</clus>
<clus scale="   21.442">  5  9 -1 -1</clus>
<clus scale="   93.022">  7  8 -1 -1</clus>
<clus scale="  108.347">  1  7  2 -1</clus>
<clus scale="  117.827">  2  5  1 -1</clus>
</clustering>
</event>
<event>
 9    1  0.6399313E-006  0.1670908E+03  0.7546771E-02  0.1203849E+00
         21   -1    0    0  501  502  0.00000000000E+00  0.00000000000E+00  0.10133134032E+03  0.10133134032E+03  0.00000000000E+00 0.  1.
          1   -1    0    0  502    0 -0.00000000000E+00 -0.00000000000E+00 -0.38663396928E+03  0.38663396928E+03  0.00000000000E+00 0. -1.
         23    2    1    2    0    0 -0.33166533238E+02  0.23642399089E+02 -0.30355866570E+03  0.31988018371E+03  0.92284811565E+02 0.  0.
         23    2    1    2    0    0  0.17163874201E+02  0.93610589237E+01  0.59377048287E+02  0.11298293966E+03  0.94113138237E+02 0.  0.
        -11    1    4    4    0    0  0.46485632524E+02  0.24725285839E+02  0.60061478963E+02  0.79872617625E+02  0.00000000000E+00 0.  1.
         11    1    4    4    0    0 -0.29321758323E+02 -0.15364226915E+02 -0.68443067579E+00  0.33110322034E+02  0.00000000000E+00 0. -1.
        -13    1    3    3    0    0  0.20965714432E+01  0.52273677538E+02 -0.12235692522E+03  0.13307197347E+03  0.00000000000E+00 0.  1.
         13    1    3    3    0    0 -0.35263104681E+02 -0.28631278449E+02 -0.18120174048E+03  0.18680821023E+03  0.00000000000E+00 0. -1.
          1    1    1    2  501    0  0.16002659037E+02 -0.33003458013E+02 -0.41121011545E+02  0.55102186232E+02  0.00000000000E+00 0. -1.
<scales pt_clust_5="13000.00000" pt_clust_6="13000.00000" pt_clust_7="13000.00000" pt_clust_8="13000.00000" pt_clust_9="13000.00000"></scales>
<clustering>
<clus scale="   92.285">  7  8 -1 -1</clus>
<clus scale="   94.113">  5  6 -1 -1</clus>
<clus scale="   36.679">  5  9 -1 -1</clus>
<clus scale="  100.874">  2  7  1 -1</clus>
<clus scale="  167.091">  1  5  2 -1</clus>
</clustering>
</event>
<event>
 9    1  0.6399313E-006  0.3615966E+03  0.7546771E-02  0.1101112E+00
          1   -1    0    0  502    0 -0.00000000000E+00  0.00000000000E+00  0.36261243561E+03  0.36261243561E+03  0.00000000000E+00 0. -1.
         21   -1    0    0  501  502  0.00000000000E+00 -0.00000000000E+00 -0.15579742841E+03  0.15579742841E+03  0.00000000000E+00 0. -1.
         23    2    1    2    0    0  0.24710767194E+02 -0.61232890735E+02  0.62845603723E+02  0.12920646889E+03  0.91567749627E+02 0.  0.
         23    2    1    2    0    0 -0.61903807671E+02  0.24500483807E+02  0.25212203105E+03  0.26908019659E+03  0.66379805247E+02 0.  0.
        -11    1    4    4    0    0 -0.40363923778E+02  0.45044179892E+02  0.12997621082E+03  0.14335982653E+03  0.00000000000E+00 0. -1.
         11    1    4    4    0    0 -0.21539883893E+02 -0.20543696085E+02  0.12214582023E+03  0.12572037006E+03  0.00000000000E+00 0.  1.
        -13    1    3    3    0    0 -0.12224616528E+02 -0.38886300582E+02 -0.12270330944E+02  0.42569315753E+02  0.00000000000E+00 0.  1.
         13    1    3    3    0    0  0.36935383722E+02 -0.22346590153E+02  0.75115934667E+02  0.86637153133E+02  0.00000000000E+00 0. -1.
          1    1    1    2  501    0  0.37193040477E+02  0.36732406928E+02 -0.10815262757E+03  0.12012319855E+03  0.00000000000E+00 0. -1.
<scales pt_clust_5="13000.00000" pt_clust_6="13000.00000" pt_clust_7="13000.00000" pt_clust_8="13000.00000" pt_clust_9="13000.00000"></scales>
<clustering>
<clus scale="   66.380">  5  6 -1 -1</clus>
<clus scale="   52.274">  5  9 -1 -1</clus>
<clus scale="   91.568">  7  8 -1 -1</clus>
<clus scale="  112.893">  1  7  2 -1</clus>
<clus scale="  361.597">  2  5  1 -1</clus>
</clustering>
</event>
<event>
 9    1  0.6399313E-006  0.2889866E+03  0.7546771E-02  0.1118948E+00
         21   -1    0    0  501  502  0.00000000000E+00  0.00000000000E+00  0.55603402731E+02  0.55603402731E+02  0.00000000000E+00 0. -1.
          1   -1    0    0  502    0 -0.00000000000E+00 -0.00000000000E+00 -0.82955384118E+03  0.82955384118E+03  0.00000000000E+00 0. -1.
         23    2    1    2    0    0 -0.10484254310E+03 -0.55019725673E+01 -0.26389242416E+03  0.29892143308E+03  0.93234012449E+02 0.  0.
         23    2    1    2    0    0  0.18186906764E+03  0.32701012307E+02 -0.33497063389E+03  0.39303005517E+03  0.90119835385E+02 0.  0.
        -13    1    4    4    0    0  0.83275931938E+02 -0.28664073375E+01 -0.72665090496E+02  0.11055909057E+03  0.00000000000E+00 0.  1.
         13    1    4    4    0    0  0.98593135705E+02  0.35567419645E+02 -0.26230554339E+03  0.28247096460E+03  0.00000000000E+00 0. -1.
        -13    1    3    3    0    0 -0.10357410015E+03  0.17105701994E+02 -0.25275304972E+03  0.27368650570E+03  0.00000000000E+00 0.  1.
         13    1    3    3    0    0 -0.12684429562E+01 -0.22607674561E+02 -0.11139374440E+02  0.25234927373E+02  0.00000000000E+00 0. -1.
          1    1    1    2  501    0 -0.77026524538E+02 -0.27199039740E+02 -0.17508738040E+03  0.19320575566E+03  0.00000000000E+00 0. -1.
<scales pt_clust_5="13000.00000" pt_clust_6="13000.00000" pt_clust_7="13000.00000" pt_clust_8="13000.00000" pt_clust_9="13000.00000"></scales>
<clustering>
<clus scale="   90.120">  5  6 -1 -1</clus>
<clus scale="   81.688">  5  9 -1 -1</clus>
<clus scale="   93.234">  7  8 -1 -1</clus>
<clus scale="  140.409">  2  7  1 -1</clus>
<clus scale="  288.987">  1  5  2 -1</clus>
</clustering>
</event>
<event>
 9    1  0.6399313E-006  0.1539103E+03  0.7546771E-02  0.1209872E+00
         21   -1    0    0  501  502  0.00000000000E+00  0.00000000000E+00  0.43391670260E+02  0.43391670260E+02  0.00000000000E+00 0. -1.
          2   -1    0    0  502    0 -0.00000000000E+00 -0.00000000000E+00 -0.51475787360E+03  0.51475787360E+03  0.00000000000E+00 0. -1.
         23    2    1    2    0    0 -0.20072292116E+02 -0.56155038797E+02 -0.33082237716E+03  0.34972464425E+03  0.96475884423E+02 0.  0.
         23    2    1    2    0    0 -0.15148054921E+02  0.78891184189E+01 -0.76321281616E+02  0.12070598976E+03  0.91941808651E+02 0.  0.
        -11    1    3    3    0    0  0.11623542243E+02  0.23566527558E+02 -0.56745486550E+02  0.62534296184E+02  0.00000000000E+00 0.  1.
         11    1    3    3    0    0 -0.31695834360E+02 -0.79721566355E+02 -0.27407689061E+03  0.28719034807E+03  0.00000000000E+00 0. -1.
        -13    1    4    4    0    0  0.61704766765E+01 -0.39896939053E+02 -0.25426893772E+02  0.47711292742E+02  0.00000000000E+00 0. -1.
         13    1    4    4    0    0 -0.21318531597E+02  0.47786057472E+02 -0.50894387844E+02  0.72994697014E+02  0.00000000000E+00 0.  1.
          2    1    1    2  501    0  0.35220347037E+02  0.48265920378E+02 -0.64222544569E+02  0.87718909855E+02  0.00000000000E+00 0. -1.
<scales pt_clust_5="13000.00000" pt_clust_6="13000.00000" pt_clust_7="13000.00000" pt_clust_8="13000.00000" pt_clust_9="13000.00000"></scales>
<clustering>
<clus scale="   91.942">  7  8 -1 -1</clus>
<clus scale="   59.750">  7  9 -1 -1</clus>
<clus scale="   96.476">  5  6 -1 -1</clus>
<clus scale="  113.419">  2  5  1 -1</clus>
<clus scale="  153.910">  1  5  2 -1</clus>
</clustering>
</event>
<event>
 9    1  0.6399313E-006  0.1335726E+03  0.7546771E-02  0.1240085E+00
         21   -1    0    0  501  502  0.00000000000E+00  0.00000000000E+00  0.31342406980E+03  0.31342406980E+03  0.00000000000E+00 0.  1.
          1   -1    0    0  502    0 -0.00000000000E+00 -0.00000000000E+00 -0.40762673453E+02  0.40762673453E+02  0.00000000000E+00 0. -1.
         23    2    1    2    0    0 -0.14107857354E+02  0.18826500561E+02  0.11275668198E+03  0.14583327228E+03  0.89441630177E+02 0.  0.
         23    2    1    2    0    0  0.12707213578E+02  0.16266441646E+02  0.85100677568E+02  0.12571497924E+03  0.90200112426E+02 0.  0.
        -11    1    3    3    0    0 -0.48591708642E+02  0.70159934414E+01  0.36059665428E+02  0.60915332909E+02  0.00000000000E+00 0.  1.
         11    1    3    3    0    0  0.34483851288E+02  0.11810507120E+02  0.76697016554E+02  0.84917939367E+02  0.00000000000E+00 0. -1.
        -11    1    4    4    0    0  0.31953975688E+02 -0.28873808455E+02  0.34027516209E+02  0.54887386860E+02  0.00000000000E+00 0. -1.
         11    1    4    4    0    0 -0.19246762111E+02  0.45140250100E+02  0.51073161358E+02  0.70827592378E+02  0.00000000000E+00 0.  1.
          1    1    1    2  501    0  0.14006437762E+01 -0.35092942207E+02  0.74804036798E+02  0.82638491739E+02  0.00000000000E+00 0. -1.
<scales pt_clust_5="13000.00000" pt_clust_6="13000.00000" pt_clust_7="13000.00000" pt_clust_8="13000.00000" pt_clust_9="13000.00000"></scales>
<clustering>
<clus scale="   89.442">  5  6 -1 -1</clus>
<clus scale="   90.200">  7  8 -1 -1</clus>
<clus scale="   35.121">  7  9 -1 -1</clus>
<clus scale="   92.484">  2  5  1 -1</clus>
<clus scale="  133.573">  1  5  2 -1</clus>
</clustering>
</event>
<event>
 9    1  0.6399313E-006  0.2033423E+03  0.7546771E-02  0.1181901E+00
         21   -1    0    0  501  502  0.00000000000E+00  0.00000000000E+00  0.13176967116E+03  0.13176967116E+03  0.00000000000E+00 0.  1.
          2   -1    0    0  502    0 -0.00000000000E+00 -0.00000000000E+00 -0.16444188570E+03  0.16444188570E+03  0.00000000000E+00 0. -1.
         23    2    1    2    0    0 -0.35139971375E+00 -0.11733215515E+02 -0.17011738079E+02  0.92267126254E+02  0.89922363885E+02 0.  0.
         23    2    1    2    0    0 -0.13485817535E+02  0.82106080211E+02 -0.36553397315E+02  0.12924287234E+03  0.91892837110E+02 0.  0.
        -13    1    3    3    0    0 -0.40996276812E+02  0.94144772767E+01  0.32100437049E+01  0.42185678558E+02  0.00000000000E+00 0.  1.
         13    1    3    3    0    0  0.40644877098E+02 -0.21147692792E+02 -0.20221781784E+02  0.50081447696E+02  0.00000000000E+00 0. -1.
        -13    1    4    4    0    0 -0.52213939019E+02  0.55910064396E+02 -0.15930419114E+02  0.78140955854E+02  0.00000000000E+00 0.  1.
         13    1    4    4    0    0  0.38728121484E+02  0.26196015816E+02 -0.20622978201E+02  0.51101916482E+02  0.00000000000E+00 0. -1.
          2    1    1    2  501    0  0.13837217249E+02 -0.70372864696E+02  0.20892920849E+02  0.74701558273E+02  0.00000000000E+00 0. -1.
<scales pt_clust_5="13000.00000" pt_clust_6="13000.00000" pt_clust_7="13000.00000" pt_clust_8="13000.00000" pt_clust_9="13000.00000"></scales>
<clustering>
<clus scale="   89.922">  5  6 -1 -1</clus>
<clus scale="   90.685">  2  5  1 -1</clus>
<clus scale="   91.893">  7  8 -1 -1</clus>
<clus scale="   74.527">  7  9 -1 -1</clus>
<clus scale="  203.342">  1  5  2 -1</clus>
</clustering>
</event>
<event>
 9    1  0.6399313E-006  0.4109562E+03  0.7546771E-02  0.1055391E+00
          1   -1    0    0  502    0 -0.00000000000E+00  0.00000000000E+00  0.47993641633E+03  0.47993641633E+03  0.00000000000E+00 0. -1.
         21   -1    0    0  501  502  0.00000000000E+00 -0.00000000000E+00 -0.31380436731E+03  0.31380436731E+03  0.00000000000E+00 0. -1.
         23    2    1    2    0    0  0.24541342532E+03  0.39959404027E+02  0.26121467254E+03  0.37192841687E+03  0.90956796484E+02 0.  0.
         23    2    1    2    0    0 -0.77967558364E+01  0.33526173780E+02  0.76189657357E+02  0.11982560224E+03  0.85840068348E+02 0.  0.
        -11    1    3    3    0    0  0.13172063924E+03 -0.23936862365E+02  0.12130800912E+03  0.18066248437E+03  0.00000000000E+00 0. -1.
         11    1    3    3    0    0  0.11369278607E+03  0.63896266392E+02  0.13990666341E+03  0.19126593249E+03  0.00000000000E+00 0.  1.
        -13    1    4    4    0    0 -0.73673426549E+01 -0.26196210900E+02  0.44640282393E+02  0.52280723172E+02  0.00000000000E+00 0.  1.
         13    1    4    4    0    0 -0.42941318147E+00  0.59722384680E+02  0.31549374965E+02  0.67544879067E+02  0.00000000000E+00 0. -1.
          1    1    1    2  501    0 -0.23761666948E+03 -0.73485577807E+02 -0.17127228087E+03  0.30198676454E+03  0.00000000000E+00 0. -1.
<scales pt_clust_5="13000.00000" pt_clust_6="13000.00000" pt_clust_7="13000.00000" pt_clust_8="13000.00000" pt_clust_9="13000.00000"></scales>
<clustering>
<clus scale="   85.840">  7  8 -1 -1</clus>
<clus scale="   90.957">  5  6 -1 -1</clus>
<clus scale="  248.720">  7  9 -1 -1</clus>
<clus scale="  264.760">  1  5  2 -1</clus>
<clus scale="  410.956">  2  5  1 -1</clus>
</clustering>
</event>
<event>
 9    1  0.6399313E-006  0.1616081E+03  0.7546771E-02  0.1214502E+00
         21   -1    0    0  501  502  0.00000000000E+00  0.00000000000E+00  0.31669682412E+03  0.31669682412E+03  0.00000000000E+00 0. -1.
          4   -1    0    0  502    0 -0.00000000000E+00 -0.00000000000E+00 -0.74648170787E+02  0.74648170787E+02  0.00000000000E+00 0. -1.
         23    2    1    2    0    0  0.37848102181E+01 -0.58296542114E+01  0.20804857696E+03  0.22619907670E+03  0.88507074678E+02 0.  0.
         23    2    1    2    0    0 -0.90912655471E+01  0.50171464209E+02 -0.74803425467E+01  0.10419528461E+03  0.90558681972E+02 0.  0.
        -11    1    4    4    0    0  0.31092119978E+02 -0.28811477990E+01  0.14058044906E+02  0.34243971206E+02  0.00000000000E+00 0.  1.
         11    1    4    4    0    0 -0.40183385525E+02  0.53052612008E+02 -0.21538387453E+02  0.69951313406E+02  0.00000000000E+00 0. -1.
        -13    1    3    3    0    0 -0.41109846103E+02 -0.85023587439E+01  0.77783236308E+02  0.88388581849E+02  0.00000000000E+00 0. -1.
         13    1    3    3    0    0  0.44894656321E+02  0.26727045325E+01  0.13026534065E+03  0.13781049485E+03  0.00000000000E+00 0.  1.
          4    1    1    2  501    0  0.53064553289E+01 -0.44341809998E+02  0.41480418918E+02  0.60950633595E+02  0.00000000000E+00 0. -1.
<scales pt_clust_5="13000.00000" pt_clust_6="13000.00000" pt_clust_7="13000.00000" pt_clust_8="13000.00000" pt_clust_9="13000.00000"></scales>
<clustering>
<clus scale="   88.507">  7  8 -1 -1</clus>
<clus scale="   88.780">  2  7  1 -1</clus>
<clus scale="   90.559">  5  6 -1 -1</clus>
<clus scale="   45.587">  5  9 -1 -1</clus>
<clus scale="  161.608">  1  5  2 -1</clus>
</clustering>
</event>
<event>
 9    1  0.6399313E-006  0.2187887E+03  0.7546771E-02  0.1156759E+00
         21   -1    0    0  501  502  0.00000000000E+00  0.00000000000E+00  0.16329511426E+03  0.16329511426E+03  0.00000000000E+00 0.  1.
         -2   -1    0    0    0  501 -0.00000000000E+00 -0.00000000000E+00 -0.33395515467E+03  0.33395515467E+03  0.00000000000E+00 0.  1.
         23    2    1    2    0    0  0.13234246512E+02  0.90005671399E+02 -0.23576327821E+03  0.26898081725E+03  0.92142229911E+02 0.  0.
         23    2    1    2    0    0  0.49730037851E+02 -0.49040115317E+02 -0.18009609358E+02  0.11624078011E+03  0.91156806422E+02 0.  0.
        -11    1    3    3    0    0  0.42709099547E+02  0.14463954209E+02 -0.56946108185E+02  0.72636990527E+02  0.00000000000E+00 0. -1.
         11    1    3    3    0    0 -0.29474853035E+02  0.75541717190E+02 -0.17881717002E+03  0.19634382672E+03  0.00000000000E+00 0.  1.
        -13    1    4    4    0    0  0.10909386740E+02  0.23402564691E+02 -0.22047812215E+02  0.33952920001E+02  0.00000000000E+00 0.  1.
         13    1    4    4    0    0  0.38820651111E+02 -0.72442680008E+02  0.40382028568E+01  0.82287860112E+02  0.00000000000E+00 0. -1.
         -2    1    1    2    0  502 -0.62964284363E+02 -0.40965556082E+02  0.83112847156E+02  0.11202867157E+03  0.00000000000E+00 0.  1.
<scales pt_clust_5="13000.00000" pt_clust_6="13000.00000" pt_clust_7="13000.00000" pt_clust_8="13000.00000" pt_clust_9="13000.00000"></scales>
<clustering>
<clus scale="   91.157">  7  8 -1 -1</clus>
<clus scale="   75.118">  7  9 -1 -1</clus>
<clus scale="   92.142">  5  6 -1 -1</clus>
<clus scale="  129.485">  2  5  1 -1</clus>
<clus scale="  218.789">  1  5  2 -1</clus>
</clustering>
</event>
<event>
 9    1  0.6399313E-006  0.2170230E+03  0.7546771E-02  0.1168348E+00
         21   -1    0    0  501  502  0.00000000000E+00  0.00000000000E+00  0.16352970435E+03  0.16352970435E+03  0.00000000000E+00 0.  1.
          1   -1    0    0  502    0 -0.00000000000E+00 -0.00000000000E+00 -0.49118365131E+03  0.49118365131E+03  0.00000000000E+00 0. -1.
         23    2    1    2    0    0  0.16771124485E+02 -0.41274426600E+02 -0.41017672514E+03  0.42253021953E+03  0.91115265809E+02 0.  0.
         23    2    1    2    0    0  0.28845408031E+01  0.73325152907E+02  0.52675156862E+01  0.14626474568E+03  0.12641491400E+03 0.  0.
        -11    1    4    4    0    0 -0.46192272951E+02 -0.11228112121E+02  0.92102585199E+01  0.48421332532E+02  0.00000000000E+00 0.  1.
         11    1    4    4    0    0  0.49076813755E+02  0.84553265028E+02 -0.39427428338E+01  0.97843413147E+02  0.00000000000E+00 0. -1.
        -11    1    3    3    0    0 -0.12136371970E+02 -0.59035643133E+02 -0.33018686033E+03  0.33564246069E+03  0.00000000000E+00 0.  1.
         11    1    3    3    0    0  0.28907496455E+02  0.17761216533E+02 -0.79989864816E+02  0.86887758846E+02  0.00000000000E+00 0. -1.
          1    1    1    2  501    0 -0.19655665288E+02 -0.32050726307E+02  0.77255262490E+02  0.85918390447E+02  0.00000000000E+00 0. -1.
<scales pt_clust_5="13000.00000" pt_clust_6="13000.00000" pt_clust_7="13000.00000" pt_clust_8="13000.00000" pt_clust_9="13000.00000"></scales>
<clustering>
<clus scale="   91.115">  7  8 -1 -1</clus>
<clus scale="  101.424">  2  7  1 -1</clus>
<clus scale="  126.415">  5  6 -1 -1</clus>
<clus scale="   39.182">  5  9 -1 -1</clus>
<clus scale="  217.023">  1  5  2 -1</clus>
</clustering>
</event>
<event>
 9    1  0.6399313E-006  0.2203595E+03  0.7546771E-02  0.1169364E+00
         -1   -1    0    0    0  501 -0.00000000000E+00  0.00000000000E+00  0.87008603242E+02  0.87008603242E+02  0.00000000000E+00 0.  1.
         21   -1    0    0  501  502  0.00000000000E+00 -0.00000000000E+00 -0.30269011072E+03  0.30269011072E+03  0.00000000000E+00 0. -1.
         23    2    1    2    0    0 -0.21045961448E+02 -0.18457074955E+02 -0.24037180373E+02  0.97661321733E+02  0.90423180729E+02 0.  0.
         23    2    1    2    0    0 -0.62702242362E+02  0.59076995304E+02 -0.12619807428E+03  0.17825272024E+03  0.91795510509E+02 0.  0.
        -13    1    3    3    0    0 -0.40942496381E+02 -0.40730802242E+02  0.23619958065E+01  0.57800218731E+02  0.00000000000E+00 0.  1.
         13    1    3    3    0    0  0.19896534933E+02  0.22273727287E+02 -0.26399176179E+02  0.39861103002E+02  0.00000000000E+00 0. -1.
        -13    1    4    4    0    0 -0.26731369295E+02  0.60009332260E+02 -0.12619429596E+03  0.14226976628E+03  0.00000000000E+00 0. -1.
         13    1    4    4    0    0 -0.35970873067E+02 -0.93233695640E+00 -0.37783115965E-02  0.35982953960E+02  0.00000000000E+00 0.  1.
         -1    1    1    2    0  502  0.83748203810E+02 -0.40619920349E+02 -0.65446252828E+02  0.11378467199E+03  0.00000000000E+00 0.  1.
<scales pt_clust_5="13000.00000" pt_clust_6="13000.00000" pt_clust_7="13000.00000" pt_clust_8="13000.00000" pt_clust_9="13000.00000"></scales>
<clustering>
<clus scale="   90.423">  5  6 -1 -1</clus>
<clus scale="   91.796">  7  8 -1 -1</clus>
<clus scale="   93.079">  7  9 -1 -1</clus>
<clus scale="   94.657">  1  5  2 -1</clus>
<clus scale="  220.359">  2  5  1 -1</clus>
</clustering>
</event>
<event>
 9    1  0.6399313E-006  0.2013641E+03  0.7546771E-02  0.1182886E+00
         21   -1    0    0  501  502  0.00000000000E+00  0.00000000000E+00  0.44304668661E+03  0.44304668661E+03  0.00000000000E+00 0. -1.
          4   -1    0    0  502    0 -0.00000000000E+00 -0.00000000000E+00 -0.49541676287E+02  0.49541676287E+02  0.00000000000E+00 0. -1.
         23    2    1    2    0    0 -0.83472012658E+01  0.18535945823E+01  0.89073787821E+02  0.12758714761E+03  0.90946297219E+02 0.  0.
         23    2    1    2    0    0  0.23877437089E+02 -0.65697125813E+02  0.74848654867E+02  0.12620142452E+03  0.73744383340E+02 0.  0.
        -11    1    4    4    0    0 -0.23230864225E+02 -0.10087812857E+02  0.34804993777E+02  0.43044449267E+02  0.00000000000E+00 0.  1.
         11    1    4    4    0    0  0.47108301314E+02 -0.55609312956E+02  0.40043661090E+02  0.83156975255E+02  0.00000000000E+00 0. -1.
        -11    1    3    3    0    0 -0.32212125297E+02 -0.32544367798E+02  0.28438507751E+02  0.53902742181E+02  0.00000000000E+00 0. -1.
         11    1    3    3    0    0  0.23864924032E+02  0.34397962380E+02  0.60635280070E+02  0.73684405433E+02  0.00000000000E+00 0.  1.
          4    1    1    2  501    0 -0.15530235823E+02  0.63843531231E+02  0.22958256763E+03  0.23879979076E+03  0.00000000000E+00 0. -1.
<scales pt_clust_5="13000.00000" pt_clust_6="13000.00000" pt_clust_7="13000.00000" pt_clust_8="13000.00000" pt_clust_9="13000.00000"></scales>
<clustering>
<clus scale="   73.744">  5  6 -1 -1</clus>
<clus scale="   65.705">  5  9 -1 -1</clus>
<clus scale="   90.946">  7  8 -1 -1</clus>
<clus scale="   91.347">  2  7  1 -1</clus>
<clus scale="  201.364">  1  5  2 -1</clus>
</clustering>
</event>
<event>
 9    1  0.6399313E-006  0.2274081E+03  0.7546771E-02  0.1149770E+00
          2   -1    0    0  502    0 -0.00000000000E+00  0.00000000000E+00  0.76260416900E+03  0.76260416900E+03  0.00000000000E+00 0. -1.
         21   -1    0    0  501  502  0.00000000000E+00 -0.00000000000E+00 -0.47146483788E+02  0.47146483788E+02  0.00000000000E+00 0. -1.
         23    2    1    2    0    0  0.23293762814E+02  0.98440300208E+02  0.38755341471E+03  0.41070720627E+03  0.90827682686E+02 0.  0.
         23    2    1    2    0    0  0.31886762683E+02  0.14862878697E+02  0.18776417638E+03  0.21057130872E+03  0.88584532097E+02 0.  0.
        -11    1    3    3    0    0  0.47035079445E+02  0.16566232399E+02  0.12168711415E+03  0.13150852636E+03  0.00000000000E+00 0.  1.
         11    1    3    3    0    0 -0.23741316632E+02  0.81874067810E+02  0.26586630056E+03  0.27919867992E+03  0.00000000000E+00 0. -1.
        -13    1    4    4    0    0  0.29253126809E+01  0.48972530961E+02  0.11670204988E+03  0.12659476564E+03  0.00000000000E+00 0. -1.
         13    1    4    4    0    0  0.28961450003E+02 -0.34109652264E+02  0.71062126501E+02  0.83976543074E+02  0.00000000000E+00 0.  1.
          2    1    1    2  501    0 -0.55180525497E+02 -0.11330317890E+03  0.14014009413E+03  0.18847213780E+03  0.00000000000E+00 0. -1.
<scales pt_clust_5="13000.00000" pt_clust_6="13000.00000" pt_clust_7="13000.00000" pt_clust_8="13000.00000" pt_clust_9="13000.00000"></scales>
<clustering>
<clus scale="   88.585">  7  8 -1 -1</clus>
<clus scale="   90.828">  5  6 -1 -1</clus>
<clus scale="  126.026">  7  9 -1 -1</clus>
<clus scale="  135.951">  1  5  2 -1</clus>
<clus scale="  227.408">  2  5  1 -1</clus>
</clustering>
</event>
<event>
 9    1  0.6399313E-006  0.2192687E+03  0.7546771E-02  0.1158509E+00
          1   -1    0    0  502    0 -0.00000000000E+00  0.00000000000E+00  0.70653681701E+03  0.70653681701E+03  0.00000000000E+00 0. -1.
         21   -1    0    0  501  502  0.00000000000E+00 -0.00000000000E+00 -0.41569032816E+02  0.41569032816E+02  0.00000000000E+00 0. -1.
         23    2    1    2    0    0 -0.23551135783E+02  0.75996447857E+02  0.23808183603E+03  0.26819922659E+03  0.94433830873E+02 0.  0.
         23    2    1    2    0    0 -0.40021752296E+02  0.31275682126E+01  0.10208836008E+03  0.13961910474E+03  0.86370937271E+02 0.  0.
        -13    1    3    3    0    0 -0.45503088104E+02  0.83803779758E+02  0.15566037627E+03  0.18254795882E+03  0.00000000000E+00 0. -1.
         13    1    3    3    0    0  0.21951952321E+02 -0.78073319003E+01  0.82421459754E+02  0.85651267767E+02  0.00000000000E+00 0.  1.
        -13    1    4    4    0    0 -0.30221945414E+02 -0.22564206431E+02  0.10537938090E+03  0.11192552575E+03  0.00000000000E+00 0.  1.
         13    1    4    4    0    0 -0.97998068818E+01  0.25691774644E+02 -0.32910208162E+01  0.27693578990E+02  0.00000000000E+00 0. -1.
          1    1    1    2  501    0  0.63572888079E+02 -0.79124016070E+02  0.32479758809E+03  0.34028751850E+03  0.00000000000E+00 0. -1.
<scales pt_clust_5="13000.00000" pt_clust_6="13000.00000" pt_clust_7="13000.00000" pt_clust_8="13000.00000" pt_clust_9="13000.00000"></scales>
<clustering>
<clus scale="   86.371">  7  8 -1 -1</clus>
<clus scale="   94.434">  5  6 -1 -1</clus>
<clus scale="  101.499">  7  9 -1 -1</clus>
<clus scale="  123.482">  1  5  2 -1</clus>
<clus scale="  219.269">  2  5  1 -1</clus>
</clustering>
</event>
<event>
 9    1  0.6399313E-006  0.2479473E+03  0.7546771E-02  0.1145382E+00
         21   -1    0    0  501  502  0.00000000000E+00  0.00000000000E+00  0.87348355314E+02  0.87348355314E+02  0.00000000000E+00 0.  1.
          1   -1    0    0  502    0 -0.00000000000E+00 -0.00000000000E+00 -0.38349574056E+03  0.38349574056E+03  0.00000000000E+00 0. -1.
         23    2    1    2    0    0  0.68156400893E+02  0.26872514108E+02 -0.11606337810E+03  0.16439977157E+03  0.90493923338E+02 0.  0.
         23    2    1    2    0    0  0.46481382958E+02 -0.62446180492E+02 -0.55022817795E+02  0.13310186468E+03  0.92889996677E+02 0.  0.
        -11    1    4    4    0    0  0.27257894724E+02  0.19309633995E+02 -0.13518284464E+01  0.33431754814E+02  0.00000000000E+00 0.  1.
         11    1    4    4    0    0  0.19223488234E+02 -0.81755814487E+02 -0.53670989349E+02  0.99670109863E+02  0.00000000000E+00 0. -1.
        -11    1    3    3    0    0  0.68452575661E+02 -0.89605979812E+01 -0.38708513175E+02  0.79147940106E+02  0.00000000000E+00 0. -1.
         11    1    3    3    0    0 -0.29617476822E+00  0.35833112089E+02 -0.77354864922E+02  0.85251831468E+02  0.00000000000E+00 0.  1.
          1    1    1    2  501    0 -0.11463778385E+03  0.35573666384E+02 -0.12506118936E+03  0.17334245963E+03  0.00000000000E+00 0. -1.
<scales pt_clust_5="13000.00000" pt_clust_6="13000.00000" pt_clust_7="13000.00000" pt_clust_8="13000.00000" pt_clust_9="13000.00000"></scales>
<clustering>
<clus scale="   90.494">  7  8 -1 -1</clus>
<clus scale="   92.890">  5  6 -1 -1</clus>
<clus scale="  116.433">  2  7  1 -1</clus>
<clus scale="   89.525">  5  9 -1 -1</clus>
<clus scale="  247.947">  1  5  2 -1</clus>
</clustering>
</event>
<event>
 9    1  0.6399313E-006  0.3251104E+03  0.7546771E-02  0.1116056E+00
         21   -1    0    0  501  502  0.00000000000E+00  0.00000000000E+00  0.38677224757E+03  0.38677224757E+03  0.00000000000E+00 0.  1.
          2   -1    0    0  502    0 -0.00000000000E+00 -0.00000000000E+00 -0.26924892304E+03  0.26924892304E+03  0.00000000000E+00 0. -1.
         23    2    1    2    0    0 -0.38258849078E+02  0.44678141494E+02 -0.18415430362E+03  0.21250546744E+03  0.88237691994E+02 0.  0.
         23    2    1    2    0    0  0.11165354957E+03 -0.12688636180E+03  0.10970935393E+03  0.22216351354E+03  0.93561853686E+02 0.  0.
        -11    1    3    3    0    0  0.20321058997E+02  0.21560581551E+02 -0.11593994978E+03  0.11966568459E+03  0.00000000000E+00 0.  1.
         11    1    3    3    0    0 -0.58579908074E+02  0.23117559942E+02 -0.68214353845E+02  0.92839782842E+02  0.00000000000E+00 0. -1.
        -13    1    4    4    0    0 -0.15529034374E+02 -0.25169543525E+02  0.24262968172E+02  0.38253737783E+02  0.00000000000E+00 0. -1.
         13    1    4    4    0    0  0.12718258395E+03 -0.10171681827E+03  0.85446385760E+02  0.18390977576E+03  0.00000000000E+00 0.  1.
          2    1    1    2  501    0 -0.73394700496E+02  0.82208220305E+02  0.19196827422E+03  0.22135218963E+03  0.00000000000E+00 0. -1.
<scales pt_clust_5="13000.00000" pt_clust_6="13000.00000" pt_clust_7="13000.00000" pt_clust_8="13000.00000" pt_clust_9="13000.00000"></scales>
<clustering>
<clus scale="   88.238">  5  6 -1 -1</clus>
<clus scale="   93.562">  7  8 -1 -1</clus>
<clus scale="  106.046">  2  5  1 -1</clus>
<clus scale="  122.388">  7  9 -1 -1</clus>
<clus scale="  325.110">  1  5  2 -1</clus>
</clustering>
</event>
<event>
 9    1  0.6399313E-006  0.2534467E+03  0.7546771E-02  0.1146654E+00
         -2   -1    0    0    0  501 -0.00000000000E+00  0.00000000000E+00  0.10208128330E+03  0.10208128330E+03  0.00000000000E+00 0.  1.
         21   -1    0    0  501  502  0.00000000000E+00 -0.00000000000E+00 -0.35450892219E+03  0.35450892219E+03  0.00000000000E+00 0. -1.
         23    2    1    2    0    0  0.43385382088E+02 -0.29777667533E+02 -0.10607374509E+02  0.10628706802E+03  0.91735617789E+02 0.  0.
         23    2    1    2    0    0  0.43819324675E+02  0.38501009677E+02 -0.23818673221E+03  0.26258791567E+03  0.93899057997E+02 0.  0.
        -11    1    4    4    0    0  0.27936490507E+02 -0.20696315069E+02 -0.31189439039E+02  0.46707237842E+02  0.00000000000E+00 0.  1.
         11    1    4    4    0    0  0.15882834168E+02  0.59197324746E+02 -0.20699729317E+03  0.21588067783E+03  0.00000000000E+00 0. -1.
        -11    1    3    3    0    0  0.24044601716E+01 -0.56329032873E+02 -0.30248453378E+00  0.56381139312E+02  0.00000000000E+00 0.  1.
         11    1    3    3    0    0  0.40980921916E+02  0.26551365341E+02 -0.10304889976E+02  0.49905928706E+02  0.00000000000E+00 0. -1.
         -2    1    1    2    0  502 -0.87204706763E+02 -0.87233421443E+01 -0.36335321734E+01  0.87715221803E+02  0.00000000000E+00 0.  1.
<scales pt_clust_5="13000.00000" pt_clust_6="13000.00000" pt_clust_7="13000.00000" pt_clust_8="13000.00000" pt_clust_9="13000.00000"></scales>
<clustering>
<clus scale="   91.736">  7  8 -1 -1</clus>
<clus scale="   93.899">  5  6 -1 -1</clus>
<clus scale="   87.640">  5  9 -1 -1</clus>
<clus scale="  105.756">  1  7  2 -1</clus>
<clus scale="  253.447">  2  5  1 -1</clus>
</clustering>
</event>
<event>
 9    1  0.6399313E-006  0.2677389E+03  0.7546771E-02  0.1143229E+00
          1   -1    0    0  502    0 -0.00000000000E+00  0.00000000000E+00  0.17784510097E+03  0.17784510097E+03  0.00000000000E+00 0. -1.
         21   -1    0    0  501  502  0.00000000000E+00 -0.00000000000E+00 -0.20492792759E+03  0.20492792759E+03  0.00000000000E+00 0. -1.
         23    2    1    2    0    0  0.26573684952E+02  0.24157909722E+02  0.42354791919E+02  0.10617641887E+03  0.90497172281E+02 0.  0.
         23    2    1    2    0    0  0.70544576364E+02 -0.78219326525E+02  0.13035341118E+02  0.13819002552E+03  0.88497247063E+02 0.  0.
        -11    1    3    3    0    0  0.15406812529E+02 -0.26040566971E+02 -0.10885398506E+02  0.32155449011E+02  0.00000000000E+00 0. -1.
         11    1    3    3    0    0  0.11166872423E+02  0.50198476693E+02  0.53240190424E+02  0.74020969856E+02  0.00000000000E+00 0.  1.
        -13    1    4    4    0    0  0.79321696623E+02 -0.50292557752E+02 -0.17886349034E+02  0.95609593673E+02  0.00000000000E+00 0. -1.
         13    1    4    4    0    0 -0.87771202593E+01 -0.27926768773E+02  0.30921690152E+02  0.42580431843E+02  0.00000000000E+00 0.  1.
          1    1    1    2  501    0 -0.97118261316E+02  0.54061416803E+02 -0.82472959665E+02  0.13840658418E+03  0.00000000000E+00 0. -1.
<scales pt_clust_5="13000.00000" pt_clust_6="13000.00000" pt_clust_7="13000.00000" pt_clust_8="13000.00000" pt_clust_9="13000.00000"></scales>
<clustering>
<clus scale="   88.497">  7  8 -1 -1</clus>
<clus scale="   90.497">  5  6 -1 -1</clus>
<clus scale="   97.363">  1  5  2 -1</clus>
<clus scale="  108.445">  7  9 -1 -1</clus>
<clus scale="  267.739">  2  5  1 -1</clus>
</clustering>
</event>
<event>
 9    1  0.6399313E-006  0.1173943E+03  0.7546771E-02  0.1260883E+00
         21   -1    0    0  501  502  0.00000000000E+00  0.00000000000E+00  0.44356828298E+02  0.44356828298E+02  0.00000000000E+00 0.  1.
          1   -1    0    0  502    0 -0.00000000000E+00 -0.00000000000E+00 -0.25314088694E+03  0.25314088694E+03  0.00000000000E+00 0. -1.
         23    2    1    2    0    0  0.89583089996E+01  0.10460377485E+02 -0.60620368252E+02  0.10846361327E+03  0.88881131627E+02 0.  0.
         23    2    1    2    0    0  0.92750933284E+01  0.30346707196E+01 -0.13331321237E+03  0.16192119021E+03  0.91382835721E+02 0.  0.
        -11    1    3    3    0    0  0.21418034937E+01  0.43357896440E+02 -0.52896394847E+01  0.43731850999E+02  0.00000000000E+00 0.  1.
         11    1    3    3    0    0  0.68165055060E+01 -0.32897518956E+02 -0.55330728767E+02  0.64731762271E+02  0.00000000000E+00 0. -1.
        -11    1    4    4    0    0  0.44117537704E+02 -0.17328424162E+02 -0.47558064195E+02  0.67144626643E+02  0.00000000000E+00 0.  1.
         11    1    4    4    0    0 -0.34842444376E+02  0.20363094882E+02 -0.85755148178E+02  0.94776563570E+02  0.00000000000E+00 0. -1.
          1    1    1    2  501    0 -0.18233402328E+02 -0.13495048204E+02 -0.14850478018E+02  0.27112911755E+02  0.00000000000E+00 0. -1.
<scales pt_clust_5="13000.00000" pt_clust_6="13000.00000" pt_clust_7="13000.00000" pt_clust_8="13000.00000" pt_clust_9="13000.00000"></scales>
<clustering>
<clus scale="   88.881">  5  6 -1 -1</clus>
<clus scale="   89.942">  2  5  1 -1</clus>
<clus scale="   91.383">  7  8 -1 -1</clus>
<clus scale="   21.017">  7  9 -1 -1</clus>
<clus scale="  117.394">  1  5  2 -1</clus>
</clustering>
</event>
<event>
 9    1  0.6399313E-006  0.5468932E+03  0.7546771E-02  0.1010707E+00
          2   -1    0    0  502    0 -0.00000000000E+00  0.00000000000E+00  0.14939954167E+04  0.14939954167E+04  0.00000000000E+00 0. -1.
         21   -1    0    0  501  502  0.00000000000E+00 -0.00000000000E+00 -0.15642598339E+03  0.15642598339E+03  0.00000000000E+00 0. -1.
         23    2    1    2    0    0  0.12941231894E+03 -0.38809696511E+03  0.58560641504E+03  0.72061469166E+03  0.94783215175E+02 0.  0.
         23    2    1    2    0    0 -0.26274521583E+02  0.13354296910E+03  0.58749514412E+03  0.60967419876E+03  0.89599158415E+02 0.  0.
        -11    1    3    3    0    0  0.84819533382E+02 -0.20504254041E+03  0.39212905497E+03  0.45055742406E+03  0.00000000000E+00 0. -1.
         11    1    3    3    0    0  0.44592785556E+02 -0.18305442470E+03  0.19347736007E+03  0.27005726760E+03  0.00000000000E+00 0.  1.
        -11    1    4    4    0    0 -0.58679828543E+02  0.70943852300E+02  0.35348784245E+03  0.36528072385E+03  0.00000000000E+00 0. -1.
         11    1    4    4    0    0  0.32405306960E+02  0.62599116802E+02  0.23400730167E+03  0.24439347491E+03  0.00000000000E+00 0.  1.
          2    1    1    2  501    0 -0.10313779735E+03  0.25455399601E+03  0.16446787416E+03  0.32013250969E+03  0.00000000000E+00 0. -1.
<scales pt_clust_5="13000.00000" pt_clust_6="13000.00000" pt_clust_7="13000.00000" pt_clust_8="13000.00000" pt_clust_9="13000.00000"></scales>
<clustering>
<clus scale="   89.599">  7  8 -1 -1</clus>
<clus scale="   94.783">  5  6 -1 -1</clus>
<clus scale="  274.655">  7  9 -1 -1</clus>
<clus scale="  419.941">  1  5  2 -1</clus>
<clus scale="  546.893">  2  5  1 -1</clus>
</clustering>
</event>
<event>
 9    1  0.6399313E-006  0.2173415E+03  0.7546771E-02  0.1163689E+00
         21   -1    0    0  501  502  0.00000000000E+00  0.00000000000E+00  0.73528982128E+02  0.73528982128E+02  0.00000000000E+00 0. -1.
          1   -1    0    0  502    0 -0.00000000000E+00 -0.00000000000E+00 -0.45389286188E+03  0.45389286188E+03  0.00000000000E+00 0. -1.
         23    2    1    2    0    0 -0.57819736341E+02  0.35829319237E+02 -0.24966802517E+03  0.27381042449E+03  0.89505104531E+02 0.  0.
         23    2    1    2    0    0  0.72612885770E+00  0.50987497809E+02 -0.84487831620E+02  0.13989237484E+03  0.99153571045E+02 0.  0.
        -11    1    3    3    0    0 -0.47467079524E+02  0.63622437809E+02 -0.14849290710E+03  0.16837779453E+03  0.00000000000E+00 0. -1.
         11    1    3    3    0    0 -0.10352656817E+02 -0.27793118572E+02 -0.10117511807E+03  0.10543262996E+03  0.00000000000E+00 0.  1.
        -13    1    4    4    0    0 -0.45665469087E+02  0.31040988461E+02 -0.66152799432E+02  0.86168851126E+02  0.00000000000E+00 0.  1.
         13    1    4    4    0    0  0.46391597945E+02  0.19946509347E+02 -0.18335032188E+02  0.53723523715E+02  0.00000000000E+00 0. -1.
          1    1    1    2  501    0  0.57093607484E+02 -0.86816817046E+02 -0.46208022963E+02  0.11371904468E+03  0.00000000000E+00 0. -1.
<scales pt_clust_5="13000.00000" pt_clust_6="13000.00000" pt_clust_7="13000.00000" pt_clust_8="13000.00000" pt_clust_9="13000.00000"></scales>
<clustering>
<clus scale="   89.505">  5  6 -1 -1</clus>
<clus scale="   99.154">  7  8 -1 -1</clus>
<clus scale="  103.908">  7  9 -1 -1</clus>
<clus scale="  112.419">  2  5  1 -1</clus>
<clus scale="  217.342">  1  5  2 -1</clus>
</clustering>
</event>
<event>
 9    1  0.6399313E-006  0.1453286E+03  0.7546771E-02  0.1225337E+00
         21   -1    0    0  501  502  0.00000000000E+00  0.00000000000E+00  0.23591394802E+03  0.23591394802E+03  0.00000000000E+00 0. -1.
         -4   -1    0    0    0  501 -0.00000000000E+00 -0.00000000000E+00 -0.70540567540E+02  0.70540567540E+02  0.00000000000E+00 0.  1.
         23    2    1    2    0    0  0.42180430822E+02 -0.10710359389E+02  0.16904132195E+02  0.98696182649E+02  0.86955656755E+02 0.  0.
         23    2    1    2    0    0  0.32011910609E+01  0.27401020188E+02  0.11091627959E+03  0.14653501039E+03  0.91700734240E+02 0.  0.
        -11    1    4    4    0    0 -0.24342440611E+02  0.43571616275E+01 -0.49596554606E+01  0.25221765495E+02  0.00000000000E+00 0.  1.
         11    1    4    4    0    0  0.27543631672E+02  0.23043858560E+02  0.11587593505E+03  0.12131324490E+03  0.00000000000E+00 0. -1.
        -13    1    3    3    0    0  0.27113656347E+02 -0.39805643528E+02  0.36578284995E+02  0.60478182433E+02  0.00000000000E+00 0.  1.
         13    1    3    3    0    0  0.15066774474E+02  0.29095284138E+02 -0.19674152800E+02  0.38218000217E+02  0.00000000000E+00 0. -1.
         -4    1    1    2    0  502 -0.45381621883E+02 -0.16690660798E+02  0.37552968691E+02  0.61223322518E+02  0.00000000000E+00 0.  1.
<scales pt_clust_5="13000.00000" pt_clust_6="13000.00000" pt_clust_7="13000.00000" pt_clust_8="13000.00000" pt_clust_9="13000.00000"></scales>
<clustering>
<clus scale="   86.956">  7  8 -1 -1</clus>
<clus scale="   91.701">  5  6 -1 -1</clus>
<clus scale="   48.354">  5  9 -1 -1</clus>
<clus scale="   97.238">  2  7  1 -1</clus>
<clus scale="  145.329">  1  5  2 -1</clus>
</clustering>
</event>
<event>
 9    1  0.6399313E-006  0.1752757E+03  0.7546771E-02  0.1194524E+00
         21   -1    0    0  501  502  0.00000000000E+00  0.00000000000E+00  0.17056343502E+03  0.17056343502E+03  0.00000000000E+00 0.  1.
         -2   -1    0    0    0  501 -0.00000000000E+00 -0.00000000000E+00 -0.14837582157E+03  0.14837582157E+03  0.00000000000E+00 0.  1.
         23    2    1    2    0    0 -0.55891877561E+02  0.95267846243E+00 -0.62843633131E+02  0.12412681230E+03  0.91287095113E+02 0.  0.
         23    2    1    2    0    0  0.18038404182E+02 -0.19374540077E+02 -0.41701346008E+01  0.96176057303E+02  0.92367132397E+02 0.  0.
        -11    1    4    4    0    0  0.52633078886E+01 -0.56525219662E+02 -0.36467806292E+01  0.56886746055E+02  0.00000000000E+00 0.  1.
         11    1    4    4    0    0  0.12775096294E+02  0.37150679585E+02 -0.52335397161E+00  0.39289311248E+02  0.00000000000E+00 0. -1.
        -11    1    3    3    0    0 -0.74043348158E+02  0.18192940296E+02 -0.63286670972E+02  0.99088865195E+02  0.00000000000E+00 0.  1.
         11    1    3    3    0    0  0.18151470597E+02 -0.17240261833E+02  0.44303784130E+00  0.25037947109E+02  0.00000000000E+00 0. -1.
         -2    1    1    2    0  502  0.37853473379E+02  0.18421861614E+02  0.89201381179E+02  0.98636386979E+02  0.00000000000E+00 0.  1.
<scales pt_clust_5="13000.00000" pt_clust_6="13000.00000" pt_clust_7="13000.00000" pt_clust_8="13000.00000" pt_clust_9="13000.00000"></scales>
<clustering>
<clus scale="   91.287">  7  8 -1 -1</clus>
<clus scale="   92.367">  5  6 -1 -1</clus>
<clus scale="   42.098">  5  9 -1 -1</clus>
<clus scale="  107.043">  2  7  1 -1</clus>
<clus scale="  175.276">  1  5  2 -1</clus>
</clustering>
</event>
<event>
 9    1  0.6399313E-006  0.2175716E+03  0.7546771E-02  0.1146989E+00
         21   -1    0    0  501  502  0.00000000000E+00  0.00000000000E+00  0.78636661273E+02  0.78636661273E+02  0.00000000000E+00 0. -1.
          1   -1    0    0  502    0 -0.00000000000E+00 -0.00000000000E+00 -0.49278089489E+03  0.49278089489E+03  0.00000000000E+00 0. -1.
         23    2    1    2    0    0 -0.10494202408E+03  0.89882959643E+02 -0.24490339629E+03  0.29577306960E+03  0.91718375117E+02 0.  0.
         23    2    1    2    0    0  0.83098968310E+02 -0.12169151872E+03 -0.11894200984E+03  0.21224988456E+03  0.95856911758E+02 0.  0.
        -11    1    3    3    0    0 -0.24461198969E+02  0.32378677366E+02 -0.16109780318E+03  0.16613016340E+03  0.00000000000E+00 0.  1.
         11    1    3    3    0    0 -0.80480825113E+02  0.57504282277E+02 -0.83805593112E+02  0.12964290620E+03  0.00000000000E+00 0. -1.
        -13    1    4    4    0    0  0.92826874514E+02 -0.96080586778E+02 -0.12633699326E+03  0.18387317274E+03  0.00000000000E+00 0.  1.
         13    1    4    4    0    0 -0.97279062045E+01 -0.25610931937E+02  0.73949834274E+01  0.28376711820E+02  0.00000000000E+00 0. -1.
          1    1    1    2  501    0  0.21843055772E+02  0.31808559073E+02 -0.50298827491E+02  0.63394602000E+02  0.00000000000E+00 0. -1.
<scales pt_clust_5="13000.00000" pt_clust_6="13000.00000" pt_clust_7="13000.00000" pt_clust_8="13000.00000" pt_clust_9="13000.00000"></scales>
<clustering>
<clus scale="   91.718">  5  6 -1 -1</clus>
<clus scale="   95.857">  7  8 -1 -1</clus>
<clus scale="   38.586">  7  9 -1 -1</clus>
<clus scale="  165.843">  2  5  1 -1</clus>
<clus scale="  217.572">  1  5  2 -1</clus>
</clustering>
</event>
<event>
 9    1  0.6399313E-006  0.2071884E+03  0.7546771E-02  0.1165908E+00
          2   -1    0    0  502    0 -0.00000000000E+00  0.00000000000E+00  0.73473799837E+03  0.73473799837E+03  0.00000000000E+00 0. -1.
         21   -1    0    0  501  502  0.00000000000E+00 -0.00000000000E+00 -0.38136083410E+02  0.38136083410E+02  0.00000000000E+00 0.  1.
         23    2    1    2    0    0  0.79062551482E+02  0.19617240580E+02  0.32195792516E+03  0.34475595196E+03  0.92542085905E+02 0.  0.
         23    2    1    2    0    0 -0.88415278264E+01 -0.13196197338E+02  0.47514724758E+02  0.93475368048E+02  0.78915670968E+02 0.  0.
        -11    1    3    3    0    0  0.12035996063E+02  0.24204054814E+02  0.15793792086E+02  0.31307272943E+02  0.00000000000E+00 0. -1.
         11    1    3    3    0    0  0.67026555419E+02 -0.45868142346E+01  0.30616413308E+03  0.31344867902E+03  0.00000000000E+00 0.  1.
        -13    1    4    4    0    0  0.84772633459E+01 -0.44144263147E+02  0.24445073677E+02  0.51167778823E+02  0.00000000000E+00 0.  1.
         13    1    4    4    0    0 -0.17318791172E+02  0.30948065809E+02  0.23069651081E+02  0.42307589224E+02  0.00000000000E+00 0. -1.
          2    1    1    2  501    0 -0.70221023655E+02 -0.64210432415E+01  0.32712926504E+03  0.33464276177E+03  0.00000000000E+00 0. -1.
<scales pt_clust_5="13000.00000" pt_clust_6="13000.00000" pt_clust_7="13000.00000" pt_clust_8="13000.00000" pt_clust_9="13000.00000"></scales>
<clustering>
<clus scale="   78.916">  7  8 -1 -1</clus>
<clus scale="   70.514">  7  9 -1 -1</clus>
<clus scale="   92.542">  5  6 -1 -1</clus>
<clus scale="  123.287">  1  5  2 -1</clus>
<clus scale="  207.188">  2  5  1 -1</clus>
</clustering>
</event>
<event>
 9    1  0.6399313E-006  0.2873285E+03  0.7546771E-02  0.1137822E+00
         -1   -1    0    0    0  501 -0.00000000000E+00  0.00000000000E+00  0.18961410630E+03  0.18961410630E+03  0.00000000000E+00 0.  1.
         21   -1    0    0  501  502  0.00000000000E+00 -0.00000000000E+00 -0.25602337995E+03  0.25602337995E+03  0.00000000000E+00 0. -1.
         23    2    1    2    0    0  0.10781809899E+02  0.12643281644E+02  0.82602130536E+02  0.12196782041E+03  0.88186944898E+02 0.  0.
         23    2    1    2    0    0 -0.12807676910E+03  0.17784236796E+02 -0.47250609201E+02  0.16543186781E+03  0.91734099210E+02 0.  0.
        -11    1    4    4    0    0 -0.11159363307E+03  0.35809413299E+02 -0.58268481153E+01  0.11734310880E+03  0.00000000000E+00 0. -1.
         11    1    4    4    0    0 -0.16483136022E+02 -0.18025176503E+02 -0.41423761086E+02  0.48088759015E+02  0.00000000000E+00 0.  1.
        -13    1    3    3    0    0  0.31747225013E+01  0.48922034770E+02  0.29527431180E+02  0.57230355067E+02  0.00000000000E+00 0. -1.
         13    1    3    3    0    0  0.76070873976E+01 -0.36278753126E+02  0.53074699356E+02  0.64737465340E+02  0.00000000000E+00 0.  1.
         -1    1    1    2    0  502  0.11729495920E+03 -0.30427518440E+02 -0.10176079498E+03  0.15823779804E+03  0.00000000000E+00 0.  1.
<scales pt_clust_5="13000.00000" pt_clust_6="13000.00000" pt_clust_7="13000.00000" pt_clust_8="13000.00000" pt_clust_9="13000.00000"></scales>
<clustering>
<clus scale="   88.187">  7  8 -1 -1</clus>
<clus scale="   89.739">  1  7  2 -1</clus>
<clus scale="   91.734">  5  6 -1 -1</clus>
<clus scale="  123.620">  5  9 -1 -1</clus>
<clus scale="  287.328">  2  5  1 -1</clus>
</clustering>
</event>
<event>
 9    1  0.6399313E-006  0.1522120E+03  0.7546771E-02  0.1216341E+00
          2   -1    0    0  502    0 -0.00000000000E+00  0.00000000000E+00  0.15365061909E+03  0.15365061909E+03  0.00000000000E+00 0. -1.
         21   -1    0    0  501  502  0.00000000000E+00 -0.00000000000E+00 -0.16067577473E+03  0.16067577473E+03  0.00000000000E+00 0. -1.
         23    2    1    2    0    0 -0.38464068835E+02  0.18080907594E+02  0.88017501137E+02  0.13487838300E+03  0.92944574253E+02 0.  0.
         23    2    1    2    0    0 -0.14557333941E+02 -0.28402995479E+02 -0.68861836362E+02  0.11942093353E+03  0.92199570147E+02 0.  0.
        -13    1    3    3    0    0  0.23021974992E+02 -0.14454421458E+02  0.46513279015E+02  0.53874175232E+02  0.00000000000E+00 0.  1.
         13    1    3    3    0    0 -0.61486043827E+02  0.32535329051E+02  0.41504222122E+02  0.81004207767E+02  0.00000000000E+00 0. -1.
        -13    1    4    4    0    0 -0.29056856784E+02 -0.38436545986E+01  0.13493654476E+02  0.32266907474E+02  0.00000000000E+00 0. -1.
         13    1    4    4    0    0  0.14499522843E+02 -0.24559340881E+02 -0.82355490839E+02  0.87154026060E+02  0.00000000000E+00 0.  1.
          2    1    1    2  501    0  0.53021402776E+02  0.10322087886E+02 -0.26180820413E+02  0.60027077292E+02  0.00000000000E+00 0. -1.
<scales pt_clust_5="13000.00000" pt_clust_6="13000.00000" pt_clust_7="13000.00000" pt_clust_8="13000.00000" pt_clust_9="13000.00000"></scales>
<clustering>
<clus scale="   92.200">  7  8 -1 -1</clus>
<clus scale="   54.017">  7  9 -1 -1</clus>
<clus scale="   92.945">  5  6 -1 -1</clus>
<clus scale="  102.201">  1  5  2 -1</clus>
<clus scale="  152.212">  2  5  1 -1</clus>
</clustering>
</event>
<event>
 9    1  0.6399313E-006  0.2112710E+03  0.7546771E-02  0.1173428E+00
         21   -1    0    0  501  502  0.00000000000E+00  0.00000000000E+00  0.32655113366E+03  0.32655113366E+03  0.00000000000E+00 0.  1.
         -3   -1    0    0    0  501 -0.00000000000E+00 -0.00000000000E+00 -0.10145383084E+03  0.10145383084E+03  0.00000000000E+00 0.  1.
         23    2    1    2    0    0 -0.15915466969E+02  0.37460483158E+02 -0.24583531202E+02  0.10093317264E+03  0.89031261056E+02 0.  0.
         23    2    1    2    0    0  0.37595550367E+02  0.39140561352E+02  0.63383294844E+02  0.12447732220E+03  0.92367487385E+02 0.  0.
        -11    1    4    4    0    0  0.57339068009E+02  0.88022564952E+01  0.66380149969E+02  0.88156524145E+02  0.00000000000E+00 0. -1.
         11    1    4    4    0    0 -0.19743517642E+02  0.30338304857E+02 -0.29968551248E+01  0.36320798052E+02  0.00000000000E+00 0.  1.
        -11    1    3    3    0    0 -0.37033605469E+02  0.14436094231E+02  0.21551672561E+02  0.45214636357E+02  0.00000000000E+00 0. -1.
         11    1    3    3    0    0  0.21118138500E+02  0.23024388928E+02 -0.46135203763E+02  0.55718536282E+02  0.00000000000E+00 0.  1.
         -3    1    1    2    0  502 -0.21680083398E+02 -0.76601044511E+02  0.18629753917E+03  0.20259446966E+03  0.00000000000E+00 0.  1.
<scales pt_clust_5="13000.00000" pt_clust_6="13000.00000" pt_clust_7="13000.00000" pt_clust_8="13000.00000" pt_clust_9="13000.00000"></scales>
<clustering>
<clus scale="   89.031">  7  8 -1 -1</clus>
<clus scale="   92.367">  5  6 -1 -1</clus>
<clus scale="   79.610">  5  9 -1 -1</clus>
<clus scale="   97.894">  2  7  1 -1</clus>
<clus scale="  211.271">  1  5  2 -1</clus>
</clustering>
</event>
<event>
 9    1  0.6399313E-006  0.4181576E+03  0.7546771E-02  0.1077661E+00
         -2   -1    0    0    0  501 -0.00000000000E+00  0.00000000000E+00  0.16302588418E+03  0.16302588418E+03  0.00000000000E+00 0.  1.
         21   -1    0    0  501  502  0.00000000000E+00 -0.00000000000E+00 -0.55228337045E+03  0.55228337045E+03  0.00000000000E+00 0. -1.
         23    2    1    2    0    0 -0.61201573945E+02  0.78836084120E+02 -0.23148473612E+03  0.26837750192E+03  0.92089845625E+02 0.  0.
         23    2    1    2    0    0 -0.73118993441E+02 -0.10951822769E+03  0.71853923778E+02  0.17914112902E+03  0.97917967423E+02 0.  0.
        -11    1    3    3    0    0 -0.16366944583E+02  0.67354244237E+02 -0.63051602557E+02  0.93701524410E+02  0.00000000000E+00 0. -1.
         11    1    3    3    0    0 -0.44834629361E+02  0.11481839883E+02 -0.16843313356E+03  0.17467597751E+03  0.00000000000E+00 0.  1.
        -11    1    4    4    0    0 -0.27689817067E+02 -0.11307069375E+03  0.38293195276E+02  0.12254826216E+03  0.00000000000E+00 0.  1.
         11    1    4    4    0    0 -0.45429176374E+02  0.35524660591E+01  0.33560728503E+02  0.56592866854E+02  0.00000000000E+00 0. -1.
         -2    1    1    2    0  502  0.13432056739E+03  0.30682143573E+02 -0.22962667393E+03  0.26779062369E+03  0.00000000000E+00 0.  1.
<scales pt_clust_5="13000.00000" pt_clust_6="13000.00000" pt_clust_7="13000.00000" pt_clust_8="13000.00000" pt_clust_9="13000.00000"></scales>
<clustering>
<clus scale="   92.090">  5  6 -1 -1</clus>
<clus scale="   97.918">  7  8 -1 -1</clus>
<clus scale="  135.799">  1  5  2 -1</clus>
<clus scale="  132.761">  7  9 -1 -1</clus>
<clus scale="  418.158">  2  5  1 -1</clus>
</clustering>
</event>
<event>
 9    1  0.6399313E-006  0.3119319E+03  0.7546771E-02  0.1125039E+00
         21   -1    0    0  501  502  0.00000000000E+00  0.00000000000E+00  0.40173732788E+02  0.40173732788E+02  0.00000000000E+00 0. -1.
          2   -1    0    0  502    0 -0.00000000000E+00 -0.00000000000E+00 -0.10509974690E+04  0.10509974690E+04  0.00000000000E+00 0. -1.
         23    2    1    2    0    0 -0.17387749308E+02  0.18848344100E+02 -0.29872072936E+03  0.31374454888E+03  0.92433618869E+02 0.  0.
         23    2    1    2    0    0 -0.11995428716E+03 -0.88828418992E+01 -0.51334371875E+03  0.53562632037E+03  0.94370787898E+02 0.  0.
        -13    1    3    3    0    0 -0.47198334345E+02  0.35373554164E+02 -0.22367508855E+03  0.23132124056E+03  0.00000000000E+00 0. -1.
         13    1    3    3    0    0  0.29810585036E+02 -0.16525210064E+02 -0.75045640819E+02  0.82423308316E+02  0.00000000000E+00 0.  1.
        -13    1    4    4    0    0 -0.67600401637E+01 -0.32445078950E+02 -0.17394784152E+03  0.17707691227E+03  0.00000000000E+00 0.  1.
         13    1    4    4    0    0 -0.11319424699E+03  0.23562237051E+02 -0.33939587723E+03  0.35854940810E+03  0.00000000000E+00 0. -1.
          2    1    1    2  501    0  0.13734203646E+03 -0.99655022009E+01 -0.19875928814E+03  0.24180033258E+03  0.00000000000E+00 0. -1.
<scales pt_clust_5="13000.00000" pt_clust_6="13000.00000" pt_clust_7="13000.00000" pt_clust_8="13000.00000" pt_clust_9="13000.00000"></scales>
<clustering>
<clus scale="   92.434">  5  6 -1 -1</clus>
<clus scale="   94.371">  7  8 -1 -1</clus>
<clus scale="   95.925">  2  5  1 -1</clus>
<clus scale="  132.272">  7  9 -1 -1</clus>
<clus scale="  311.932">  1  5  2 -1</clus>
</clustering>
</event>
<event>
 9    1  0.6399313E-006  0.4338123E+03  0.7546771E-02  0.1068960E+00
         -3   -1    0    0    0  501 -0.00000000000E+00  0.00000000000E+00  0.55230421272E+03  0.55230421272E+03  0.00000000000E+00 0.  1.
         21   -1    0    0  501  502  0.00000000000E+00 -0.00000000000E+00 -0.16510398444E+03  0.16510398444E+03  0.00000000000E+00 0.  1.
         23    2    1    2    0    0 -0.10419369870E+03 -0.66037589779E+02  0.33799746173E+02  0.15786823247E+03  0.92534673866E+02 0.  0.
         23    2    1    2    0    0  0.18084900634E+03 -0.60829397298E+02  0.35225948416E+03  0.41130848869E+03  0.93173762493E+02 0.  0.
        -11    1    4    4    0    0  0.47217002147E+02 -0.62638766512E+02  0.12069477023E+03  0.14394543384E+03  0.00000000000E+00 0.  1.
         11    1    4    4    0    0  0.13363200420E+03  0.18093692140E+01  0.23156471393E+03  0.26736305485E+03  0.00000000000E+00 0. -1.
        -13    1    3    3    0    0  0.13739446957E+01 -0.30082787130E+02 -0.17805924631E+02  0.34984464517E+02  0.00000000000E+00 0. -1.
         13    1    3    3    0    0 -0.10556764340E+03 -0.35954802649E+02  0.51605670804E+02  0.12288376795E+03  0.00000000000E+00 0.  1.
         -3    1    1    2    0  502 -0.76655307640E+02  0.12686698708E+03  0.11409979461E+01  0.14823147600E+03  0.00000000000E+00 0.  1.
<scales pt_clust_5="13000.00000" pt_clust_6="13000.00000" pt_clust_7="13000.00000" pt_clust_8="13000.00000" pt_clust_9="13000.00000"></scales>
<clustering>
<clus scale="   92.535">  7  8 -1 -1</clus>
<clus scale="   93.174">  5  6 -1 -1</clus>
<clus scale="  148.227">  5  9 -1 -1</clus>
<clus scale="  154.208">  1  7  2 -1</clus>
<clus scale="  433.812">  2  5  1 -1</clus>
</clustering>
</event>
<event>
 9    1  0.6399313E-006  0.3887696E+03  0.7546771E-02  0.1051423E+00
          1   -1    0    0  502    0 -0.00000000000E+00  0.00000000000E+00  0.12300868715E+04  0.12300868715E+04  0.00000000000E+00 0. -1.
         21   -1    0    0  501  502  0.00000000000E+00 -0.00000000000E+00 -0.21127920984E+03  0.21127920984E+03  0.00000000000E+00 0. -1.
         23    2    1    2    0    0  0.30367496228E+03  0.14856435131E+03  0.99172050051E+03  0.10516540371E+04  0.90425734613E+02 0.  0.
         23    2    1    2    0    0 -0.61400715056E+02 -0.81890476098E+02  0.14522517704E+02  0.13811695924E+03  0.91593083931E+02 0.  0.
        -11    1    4    4    0    0 -0.63347523855E+02 -0.25294632939E+02  0.36511833263E+02  0.77368218296E+02  0.00000000000E+00 0.  1.
         11    1    4    4    0    0  0.19468087992E+01 -0.56595843158E+02 -0.21989315560E+02  0.60748740942E+02  0.00000000000E+00 0. -1.
        -13    1    3    3    0    0  0.28672231065E+03  0.10943731743E+03  0.88659369034E+03  0.93820817606E+03  0.00000000000E+00 0. -1.
         13    1    3    3    0    0  0.16952651624E+02  0.39127033875E+02  0.10512681017E+03  0.11344586107E+03  0.00000000000E+00 0.  1.
          1    1    1    2  501    0 -0.24227424722E+03 -0.66673875208E+02  0.12564643408E+02  0.25159508494E+03  0.00000000000E+00 0. -1.
<scales pt_clust_5="13000.00000" pt_clust_6="13000.00000" pt_clust_7="13000.00000" pt_clust_8="13000.00000" pt_clust_9="13000.00000"></scales>
<clustering>
<clus scale="   90.426">  7  8 -1 -1</clus>
<clus scale="   91.593">  5  6 -1 -1</clus>
<clus scale="  251.281">  5  9 -1 -1</clus>
<clus scale="  349.952">  1  7  2 -1</clus>
<clus scale="  388.770">  2  5  1 -1</clus>
</clustering>
</event>
<event>
 9    1  0.6399313E-006  0.1291296E+03  0.7546771E-02  0.1241357E+00
         21   -1    0    0  501  502  0.00000000000E+00  0.00000000000E+00  0.16658868243E+03  0.16658868243E+03  0.00000000000E+00 0. -1.
          2   -1    0    0  502    0 -0.00000000000E+00 -0.00000000000E+00 -0.12115631982E+03  0.12115631982E+03  0.00000000000E+00 0. -1.
         23    2    1    2    0    0  0.32188257113E+02  0.24257032225E+01 -0.63966574989E+02  0.11850383918E+03  0.94389984922E+02 0.  0.
         23    2    1    2    0    0  0.27834742425E+01 -0.12273895428E+02  0.77347044663E+02  0.12079188316E+03  0.91922344836E+02 0.  0.
        -11    1    4    4    0    0 -0.23702088296E+02 -0.43825235532E+02  0.53864565065E+02  0.73374597979E+02  0.00000000000E+00 0.  1.
         11    1    4    4    0    0  0.26485562539E+02  0.31551340104E+02  0.23482479598E+02  0.47417285176E+02  0.00000000000E+00 0. -1.
        -13    1    3    3    0    0  0.70849917882E+01  0.46060802406E+02 -0.16855315529E+02  0.49557000398E+02  0.00000000000E+00 0.  1.
         13    1    3    3    0    0  0.25103265325E+02 -0.43635099183E+02 -0.47111259460E+02  0.68946838787E+02  0.00000000000E+00 0. -1.
          2    1    1    2  501    0 -0.34971731356E+02  0.98481922053E+01  0.32051892932E+02  0.48449279915E+02  0.00000000000E+00 0. -1.
<scales pt_clust_5="13000.00000" pt_clust_6="13000.00000" pt_clust_7="13000.00000" pt_clust_8="13000.00000" pt_clust_9="13000.00000"></scales>
<clustering>
<clus scale="   91.922">  5  6 -1 -1</clus>
<clus scale="   36.332">  5  9 -1 -1</clus>
<clus scale="   94.390">  7  8 -1 -1</clus>
<clus scale="   99.757">  2  7  1 -1</clus>
<clus scale="  129.130">  1  5  2 -1</clus>
</clustering>
</event>
<event>
 9    1  0.6399313E-006  0.3085230E+03  0.7546771E-02  0.1096530E+00
          1   -1    0    0  502    0 -0.00000000000E+00  0.00000000000E+00  0.82945688556E+03  0.82945688556E+03  0.00000000000E+00 0. -1.
         21   -1    0    0  501  502  0.00000000000E+00 -0.00000000000E+00 -0.21754664259E+03  0.21754664259E+03  0.00000000000E+00 0. -1.
         23    2    1    2    0    0 -0.16837357921E+03  0.74021883553E+02  0.69741634927E+03  0.72685089527E+03  0.89965317219E+02 0.  0.
         23    2    1    2    0    0  0.38995954446E+02  0.38994511032E+02  0.30221261701E+02  0.11301958641E+03  0.93908710460E+02 0.  0.
        -11    1    4    4    0    0 -0.28038912037E+02  0.18419917719E+02  0.26584133956E+02  0.42804090169E+02  0.00000000000E+00 0.  1.
         11    1    4    4    0    0  0.67034866484E+02  0.20574593313E+02  0.36371277452E+01  0.70215496243E+02  0.00000000000E+00 0. -1.
        -13    1    3    3    0    0 -0.54013596520E+02  0.72376947316E+02  0.31707401097E+03  0.32968442417E+03  0.00000000000E+00 0.  1.
         13    1    3    3    0    0 -0.11435998269E+03  0.16449362368E+01  0.38034233830E+03  0.39716647110E+03  0.00000000000E+00 0. -1.
          1    1    1    2  501    0  0.12937762477E+03 -0.11301639458E+03 -0.11572736800E+03  0.20713304647E+03  0.00000000000E+00 0. -1.
<scales pt_clust_5="13000.00000" pt_clust_6="13000.00000" pt_clust_7="13000.00000" pt_clust_8="13000.00000" pt_clust_9="13000.00000"></scales>
<clustering>
<clus scale="   89.965">  7  8 -1 -1</clus>
<clus scale="   93.909">  5  6 -1 -1</clus>
<clus scale="  171.789">  5  9 -1 -1</clus>
<clus scale="  204.750">  1  7  2 -1</clus>
<clus scale="  308.523">  2  5  1 -1</clus>
</clustering>
</event>
<event>
 9    1  0.6399313E-006  0.1728444E+03  0.7546771E-02  0.1201208E+00
         21   -1    0    0  501  502  0.00000000000E+00  0.00000000000E+00  0.82558437219E+02  0.82558437219E+02  0.00000000000E+00 0. -1.
          4   -1    0    0  502    0 -0.00000000000E+00 -0.00000000000E+00 -0.22225306156E+03  0.22225306156E+03  0.00000000000E+00 0. -1.
         23    2    1    2    0    0 -0.23479966920E+02  0.18607944800E+02 -0.66055889940E+02  0.11693428726E+03  0.91720676434E+02 0.  0.
         23    2    1    2    0    0 -0.38131113401E+02 -0.19512291580E+02 -0.75052684794E+02  0.12624327348E+03  0.92031229878E+02 0.  0.
        -11    1    3    3    0    0 -0.31258055631E+01 -0.21670811456E+02  0.13318245904E+02  0.25627532139E+02  0.00000000000E+00 0.  1.
         11    1    3    3    0    0 -0.20354161356E+02  0.40278756256E+02 -0.79374135844E+02  0.91306755123E+02  0.00000000000E+00 0. -1.
        -11    1    4    4    0    0  0.14776558390E+02  0.27176619843E+02 -0.23852702790E+02  0.39062344711E+02  0.00000000000E+00 0.  1.
         11    1    4    4    0    0 -0.52907671792E+02 -0.46688911423E+02 -0.51199982004E+02  0.87180928771E+02  0.00000000000E+00 0. -1.
          4    1    1    2  501    0  0.61611080321E+02  0.90434677993E+00  0.14139503975E+01  0.61633938030E+02  0.00000000000E+00 0. -1.
<scales pt_clust_5="13000.00000" pt_clust_6="13000.00000" pt_clust_7="13000.00000" pt_clust_8="13000.00000" pt_clust_9="13000.00000"></scales>
<clustering>
<clus scale="   91.721">  5  6 -1 -1</clus>
<clus scale="   92.031">  7  8 -1 -1</clus>
<clus scale="   61.618">  7  9 -1 -1</clus>
<clus scale="   96.490">  2  5  1 -1</clus>
<clus scale="  172.844">  1  5  2 -1</clus>
</clustering>
</event>
<event>
 9    1  0.6399313E-006  0.3471315E+03  0.7546771E-02  0.1084141E+00
          1   -1    0    0  502    0 -0.00000000000E+00  0.00000000000E+00  0.53580189545E+03  0.53580189545E+03  0.00000000000E+00 0. -1.
         21   -1    0    0  501  502  0.00000000000E+00 -0.00000000000E+00 -0.14005957030E+03  0.14005957030E+03  0.00000000000E+00 0. -1.
         23    2    1    2    0    0 -0.17742861536E+03 -0.86267194593E+01  0.12190294237E+03  0.23372085422E+03  0.90607817021E+02 0.  0.
         23    2    1    2    0    0 -0.47799620845E+01  0.70788195363E+02  0.21023805441E+03  0.23938671205E+03  0.89845098613E+02 0.  0.
        -11    1    3    3    0    0 -0.19010784411E+02 -0.22950984976E+02 -0.50232113599E+01  0.30222347487E+02  0.00000000000E+00 0.  1.
         11    1    3    3    0    0 -0.15841783094E+03  0.14324265516E+02  0.12692615373E+03  0.20349850674E+03  0.00000000000E+00 0. -1.
        -11    1    4    4    0    0 -0.42095008842E+02  0.27073164102E+02  0.57713509470E+02  0.76392376317E+02  0.00000000000E+00 0.  1.
         11    1    4    4    0    0  0.37315046758E+02  0.43715031261E+02  0.15252454494E+03  0.16299433574E+03  0.00000000000E+00 0. -1.
          1    1    1    2  501    0  0.18220857744E+03 -0.62161475904E+02  0.63601328375E+02  0.20275389947E+03  0.00000000000E+00 0. -1.
<scales pt_clust_5="13000.00000" pt_clust_6="13000.00000" pt_clust_7="13000.00000" pt_clust_8="13000.00000" pt_clust_9="13000.00000"></scales>
<clustering>
<clus scale="   89.845">  7  8 -1 -1</clus>
<clus scale="   90.608">  5  6 -1 -1</clus>
<clus scale="  192.520">  7  9 -1 -1</clus>
<clus scale="  199.412">  1  5  2 -1</clus>
<clus scale="  347.132">  2  5  1 -1</clus>
</clustering>
</event>
<event>
 9    1  0.6399313E-006  0.2321302E+03  0.7546771E-02  0.1141827E+00
          3   -1    0    0  502    0 -0.00000000000E+00  0.00000000000E+00  0.25851989579E+03  0.25851989579E+03  0.00000000000E+00 0. -1.
         21   -1    0    0  501  502  0.00000000000E+00 -0.00000000000E+00 -0.14817141202E+03  0.14817141202E+03  0.00000000000E+00 0. -1.
         23    2    1    2    0    0  0.76482218110E+02  0.96854335339E+02  0.13266282160E+02  0.15507772265E+03  0.92966735222E+02 0.  0.
         23    2    1    2    0    0 -0.13483927412E+02 -0.91794195385E+02  0.12591507889E+03  0.18214615063E+03  0.93352142421E+02 0.  0.
        -11    1    3    3    0    0  0.46680572175E+02  0.83799142550E+02 -0.30397522111E+02  0.10062495447E+03  0.00000000000E+00 0.  1.
         11    1    3    3    0    0  0.29801645935E+02  0.13055192789E+02  0.43663804271E+02  0.54452768181E+02  0.00000000000E+00 0. -1.
        -13    1    4    4    0    0 -0.25339566420E+02 -0.31548388341E+02  0.11214186084E+03  0.11921908986E+03  0.00000000000E+00 0.  1.
         13    1    4    4    0    0  0.11855639008E+02 -0.60245807044E+02  0.13773218046E+02  0.62927060777E+02  0.00000000000E+00 0. -1.
          3    1    1    2  501    0 -0.62998290698E+02 -0.50601399538E+01 -0.28832877281E+02  0.69467434526E+02  0.00000000000E+00 0. -1.
<scales pt_clust_5="13000.00000" pt_clust_6="13000.00000" pt_clust_7="13000.00000" pt_clust_8="13000.00000" pt_clust_9="13000.00000"></scales>
<clustering>
<clus scale="   92.967">  5  6 -1 -1</clus>
<clus scale="   93.352">  7  8 -1 -1</clus>
<clus scale="   63.201">  7  9 -1 -1</clus>
<clus scale="  154.509">  1  5  2 -1</clus>
<clus scale="  232.130">  2  5  1 -1</clus>
</clustering>
</event>
<event>
 9    1  0.6399313E-006  0.3844557E+03  0.7546771E-02  0.1081552E+00
          2   -1    0    0  502    0 -0.00000000000E+00  0.00000000000E+00  0.69693861922E+03  0.69693861922E+03  0.00000000000E+00 0. -1.
         21   -1    0    0  501  502  0.00000000000E+00 -0.00000000000E+00 -0.21504102211E+03  0.21504102211E+03  0.00000000000E+00 0. -1.
         23    2    1    2    0    0 -0.11064442581E+02 -0.12847265456E+03  0.50291318452E+03  0.52694999343E+03  0.90149761809E+02 0.  0.
         23    2    1    2    0    0  0.18494842795E+02 -0.99776974663E+01  0.14237115171E+03  0.17074260362E+03  0.91879694134E+02 0.  0.
        -11    1    4    4    0    0 -0.33658421819E+02 -0.14650440051E+01  0.24775133027E+02  0.41819169405E+02  0.00000000000E+00 0.  1.
         11    1    4    4    0    0  0.52153264614E+02 -0.85126534612E+01  0.11759601869E+03  0.12892343421E+03  0.00000000000E+00 0. -1.
        -11    1    3    3    0    0 -0.39805975151E+02 -0.10999206478E+03  0.31635077064E+03  0.33728412363E+03  0.00000000000E+00 0.  1.
         11    1    3    3    0    0  0.28741532569E+02 -0.18480589785E+02  0.18656241388E+03  0.18966586980E+03  0.00000000000E+00 0. -1.
          2    1    1    2  501    0 -0.74304002139E+01  0.13845035203E+03 -0.16338673912E+03  0.21428704428E+03  0.00000000000E+00 0. -1.
<scales pt_clust_5="13000.00000" pt_clust_6="13000.00000" pt_clust_7="13000.00000" pt_clust_8="13000.00000" pt_clust_9="13000.00000"></scales>
<clustering>
<clus scale="   90.150">  7  8 -1 -1</clus>
<clus scale="   91.880">  5  6 -1 -1</clus>
<clus scale="  138.650">  5  9 -1 -1</clus>
<clus scale="  157.336">  1  7  2 -1</clus>
<clus scale="  384.456">  2  5  1 -1</clus>
</clustering>
</event>
<event>
 9    1  0.6399313E-006  0.4361381E+03  0.7546771E-02  0.1047758E+00
         21   -1    0    0  501  502  0.00000000000E+00  0.00000000000E+00  0.18658750988E+03  0.18658750988E+03  0.00000000000E+00 0.  1.
          2   -1    0    0  502    0 -0.00000000000E+00 -0.00000000000E+00 -0.12550080024E+04  0.12550080024E+04  0.00000000000E+00 0.  1.
         23    2    1    2    0    0 -0.27858329748E+02 -0.25836699583E+03 -0.95086761906E+03  0.98989300353E+03  0.90605399372E+02 0.  0.
         23    2    1    2    0    0  0.81059764473E+02  0.17623744187E+03 -0.21924973665E+03  0.31057168907E+03  0.10370152215E+03 0.  0.
        -11    1    4    4    0    0  0.23813198620E+02 -0.12230824475E+01 -0.62773958961E+02  0.67150087735E+02  0.00000000000E+00 0.  1.
         11    1    4    4    0    0  0.57246565852E+02  0.17746052432E+03 -0.15647577769E+03  0.24342160133E+03  0.00000000000E+00 0. -1.
        -11    1    3    3    0    0 -0.56896781328E+02 -0.21786464056E+03 -0.76360907512E+03  0.79611623834E+03  0.00000000000E+00 0.  1.
         11    1    3    3    0    0  0.29038451580E+02 -0.40502355264E+02 -0.18725854394E+03  0.19377676520E+03  0.00000000000E+00 0. -1.
          2    1    1    2  501    0 -0.53201434724E+02  0.82129553960E+02  0.10169686317E+03  0.14113081970E+03  0.00000000000E+00 0.  1.
<scales pt_clust_5="13000.00000" pt_clust_6="13000.00000" pt_clust_7="13000.00000" pt_clust_8="13000.00000" pt_clust_9="13000.00000"></scales>
<clustering>
<clus scale="   90.605">  7  8 -1 -1</clus>
<clus scale="  103.702">  5  6 -1 -1</clus>
<clus scale="   97.855">  5  9 -1 -1</clus>
<clus scale="  275.207">  2  7  1 -1</clus>
<clus scale="  436.138">  1  5  2 -1</clus>
</clustering>
</event>
<event>
 9    1  0.6399313E-006  0.4042494E+03  0.7546771E-02  0.1058523E+00
          1   -1    0    0  502    0 -0.00000000000E+00  0.00000000000E+00  0.78910914297E+03  0.78910914297E+03  0.00000000000E+00 0. -1.
         21   -1    0    0  501  502  0.00000000000E+00 -0.00000000000E+00 -0.21087517968E+03  0.21087517968E+03  0.00000000000E+00 0. -1.
         23    2    1    2    0    0  0.23676073538E+03 -0.33754965880E+02  0.53612956660E+03  0.59354815647E+03  0.87575443600E+02 0.  0.
         23    2    1    2    0    0 -0.81773026354E+02  0.11961851861E+03 -0.82213438004E+02  0.18999064495E+03  0.91334429136E+02 0.  0.
        -11    1    3    3    0    0  0.21917426984E+03 -0.36661844677E+01  0.47600379603E+03  0.52405192042E+03  0.00000000000E+00 0. -1.
         11    1    3    3    0    0  0.17586465548E+02 -0.30088781412E+02  0.60125770572E+02  0.69496236043E+02  0.00000000000E+00 0.  1.
        -13    1    4    4    0    0 -0.47469019148E+02  0.32267689349E+01 -0.37835248756E+02  0.60788369489E+02  0.00000000000E+00 0.  1.
         13    1    4    4    0    0 -0.34304007206E+02  0.11639174967E+03 -0.44378189248E+02  0.12920227546E+03  0.00000000000E+00 0. -1.
          1    1    1    2  501    0 -0.15498770903E+03 -0.85863552729E+02  0.12431783470E+03  0.21644552123E+03  0.00000000000E+00 0. -1.
<scales pt_clust_5="13000.00000" pt_clust_6="13000.00000" pt_clust_7="13000.00000" pt_clust_8="13000.00000" pt_clust_9="13000.00000"></scales>
<clustering>
<clus scale="   87.575">  5  6 -1 -1</clus>
<clus scale="   91.334">  7  8 -1 -1</clus>
<clus scale="  177.183">  7  9 -1 -1</clus>
<clus scale="  254.685">  1  5  2 -1</clus>
<clus scale="  404.249">  2  5  1 -1</clus>
</clustering>
</event>
<event>
 9    1  0.6399313E-006  0.2076344E+03  0.7546771E-02  0.1176383E+00
         21   -1    0    0  501  502  0.00000000000E+00  0.00000000000E+00  0.65404344283E+02  0.65404344283E+02  0.00000000000E+00 0.  1.
          2   -1    0    0  502    0 -0.00000000000E+00 -0.00000000000E+00 -0.37385017329E+03  0.37385017329E+03  0.00000000000E+00 0. -1.
         23    2    1    2    0    0  0.35366248345E+02 -0.87030088224E+00 -0.14888548510E+03  0.17739285315E+03  0.89720720736E+02 0.  0.
         23    2    1    2    0    0  0.97192474262E+00 -0.45417946165E+02 -0.17884109510E+03  0.19993580549E+03  0.76983469330E+02 0.  0.
        -11    1    4    4    0    0 -0.28048003436E+02 -0.61484721760E+01 -0.12041951729E+03  0.12379561523E+03  0.00000000000E+00 0. -1.
         11    1    4    4    0    0  0.29019928179E+02 -0.39269473989E+02 -0.58421577809E+02  0.76140190258E+02  0.00000000000E+00 0.  1.
        -13    1    3    3    0    0 -0.16917390131E+02 -0.16859865856E+02 -0.63245601563E+01  0.24707351673E+02  0.00000000000E+00 0.  1.
         13    1    3    3    0    0  0.52283638476E+02  0.15989564973E+02 -0.14256092494E+03  0.15268550148E+03  0.00000000000E+00 0. -1.
          2    1    1    2  501    0 -0.36338173087E+02  0.46288247047E+02  0.19280751190E+02  0.61925858932E+02  0.00000000000E+00 0. -1.
<scales pt_clust_5="13000.00000" pt_clust_6="13000.00000" pt_clust_7="13000.00000" pt_clust_8="13000.00000" pt_clust_9="13000.00000"></scales>
<clustering>
<clus scale="   76.983">  5  6 -1 -1</clus>
<clus scale="   58.848">  5  9 -1 -1</clus>
<clus scale="   89.721">  7  8 -1 -1</clus>
<clus scale="   96.443">  2  7  1 -1</clus>
<clus scale="  207.634">  1  5  2 -1</clus>
</clustering>
</event>
<event>
 9    1  0.6399313E-006  0.1882095E+03  0.7546771E-02  0.1176280E+00
         21   -1    0    0  501  502  0.00000000000E+00  0.00000000000E+00  0.13784600269E+03  0.13784600269E+03  0.00000000000E+00 0.  1.
         -1   -1    0    0    0  501 -0.00000000000E+00 -0.00000000000E+00 -0.54041838628E+03  0.54041838628E+03  0.00000000000E+00 0.  1.
         23    2    1    2    0    0 -0.71534268700E+02 -0.59479361182E+02 -0.46279788178E+03  0.48065382901E+03  0.90505679170E+02 0.  0.
         23    2    1    2    0    0  0.10178631147E+03  0.36036448871E+02  0.69589348486E+02  0.15820957112E+03  0.92349943809E+02 0.  0.
        -11    1    4    4    0    0  0.65494760741E+02  0.48602621906E+02  0.84102053845E+02  0.11715346346E+03  0.00000000000E+00 0.  1.
         11    1    4    4    0    0  0.36291550726E+02 -0.12566173035E+02 -0.14512705360E+02  0.41056107654E+02  0.00000000000E+00 0. -1.
        -11    1    3    3    0    0 -0.81582306945E+02 -0.14943923303E+02 -0.32846743284E+03  0.33877698872E+03  0.00000000000E+00 0.  1.
         11    1    3    3    0    0  0.10048038245E+02 -0.44535437879E+02 -0.13433044894E+03  0.14187684030E+03  0.00000000000E+00 0. -1.
         -1    1    1    2    0  502 -0.30252042767E+02  0.23442912311E+02 -0.93638502913E+01  0.39400988839E+02  0.00000000000E+00 0.  1.
<scales pt_clust_5="13000.00000" pt_clust_6="13000.00000" pt_clust_7="13000.00000" pt_clust_8="13000.00000" pt_clust_9="13000.00000"></scales>
<clustering>
<clus scale="   90.506">  7  8 -1 -1</clus>
<clus scale="   92.350">  5  6 -1 -1</clus>
<clus scale="   38.272">  5  9 -1 -1</clus>
<clus scale="  129.793">  2  7  1 -1</clus>
<clus scale="  188.210">  1  5  2 -1</clus>
</clustering>
</event>
<event>
 9    1  0.6399313E-006  0.2158778E+03  0.7546771E-02  0.1162821E+00
          3   -1    0    0  502    0 -0.00000000000E+00  0.00000000000E+00  0.24398365993E+03  0.24398365993E+03  0.00000000000E+00 0. -1.
         21   -1    0    0  501  502  0.00000000000E+00 -0.00000000000E+00 -0.14326014572E+03  0.14326014572E+03  0.00000000000E+00 0.  1.
         23    2    1    2    0    0  0.66049545775E+02 -0.30222473070E+02  0.12351686543E+03  0.17016607091E+03  0.91783088136E+02 0.  0.
         23    2    1    2    0    0  0.20558501221E+02  0.56449973528E+01  0.42071982375E+02  0.10611595024E+03  0.95058009793E+02 0.  0.
        -11    1    3    3    0    0  0.32505322347E+02 -0.35381280858E+02  0.12725422969E+03  0.13602231431E+03  0.00000000000E+00 0. -1.
         11    1    3    3    0    0  0.33544223428E+02  0.51588077878E+01 -0.37373642608E+01  0.34143756600E+02  0.00000000000E+00 0.  1.
        -13    1    4    4    0    0  0.19229051154E+02  0.47885642163E+02  0.37117579790E+02  0.63564973555E+02  0.00000000000E+00 0.  1.
         13    1    4    4    0    0  0.13294500665E+01 -0.42240644810E+02  0.49544025850E+01  0.42550976680E+02  0.00000000000E+00 0. -1.
          3    1    1    2  501    0 -0.86608046996E+02  0.24577475717E+02 -0.64865333594E+02  0.11096178450E+03  0.00000000000E+00 0. -1.
<scales pt_clust_5="13000.00000" pt_clust_6="13000.00000" pt_clust_7="13000.00000" pt_clust_8="13000.00000" pt_clust_9="13000.00000"></scales>
<clustering>
<clus scale="   91.783">  5  6 -1 -1</clus>
<clus scale="   95.058">  7  8 -1 -1</clus>
<clus scale="   90.028">  7  9 -1 -1</clus>
<clus scale="  117.047">  1  5  2 -1</clus>
<clus scale="  215.878">  2  5  1 -1</clus>
</clustering>
</event>
<event>
 9    1  0.6405857E-006  0.7383811E+03  0.7546771E-02  0.1013069E+00
         21   -1    0    0  501  502  0.00000000000E+00  0.00000000000E+00  0.42558385830E+03  0.42558385830E+03  0.00000000000E+00 0.  1.
         -2   -1    0    0    0  501 -0.00000000000E+00 -0.00000000000E+00 -0.49874239646E+03  0.49874239646E+03  0.00000000000E+00 0.  1.
         23    2    1    2    0    0  0.69679903188E+02  0.11043113087E+03  0.67907610102E+02  0.17259071776E+03  0.90143157105E+02 0.  0.
         23    2    1    2    0    0 -0.52932753898E+02 -0.51556567783E+02 -0.43546675725E+03  0.45103901266E+03  0.91350633025E+02 0.  0.
        -11    1    4    4    0    0 -0.54287584149E+02  0.22393060050E+00 -0.12498436819E+03  0.13626549170E+03  0.00000000000E+00 0.  1.
         11    1    4    4    0    0  0.13548302507E+01 -0.51780498383E+02 -0.31048238906E+03  0.31477352095E+03  0.00000000000E+00 0. -1.
        -13    1    3    3    0    0 -0.20241318078E+02  0.25138741885E+02  0.22946266553E+01  0.32356338059E+02  0.00000000000E+00 0.  1.
         13    1    3    3    0    0  0.89921221266E+02  0.85292388985E+02  0.65612983447E+02  0.14023437970E+03  0.00000000000E+00 0. -1.
         -2    1    1    2    0  502 -0.16747149290E+02 -0.58874563087E+02  0.29440060898E+03  0.30069652435E+03  0.00000000000E+00 0.  1.
<scales pt_clust_5="13000.00000" pt_clust_6="13000.00000" pt_clust_7="13000.00000" pt_clust_8="13000.00000" pt_clust_9="13000.00000"></scales>
<clustering>
<clus scale="   90.143">  7  8 -1 -1</clus>
<clus scale="   91.351">  5  6 -1 -1</clus>
<clus scale="   61.210">  5  9 -1 -1</clus>
<clus scale="  158.670">  2  7  1 -1</clus>
<clus scale="  738.381">  1  5  2 -1</clus>
</clustering>
</event>
<event>
 9    1  0.6399313E-006  0.2724032E+03  0.7546771E-02  0.1140931E+00
          1   -1    0    0  502    0 -0.00000000000E+00  0.00000000000E+00  0.57277481686E+03  0.57277481686E+03  0.00000000000E+00 0. -1.
         21   -1    0    0  501  502  0.00000000000E+00 -0.00000000000E+00 -0.97806285167E+02  0.97806285167E+02  0.00000000000E+00 0. -1.
         23    2    1    2    0    0  0.12048038475E+02 -0.30466810664E+02 -0.25332455524E+02  0.10092805556E+03  0.92039976711E+02 0.  0.
         23    2    1    2    0    0  0.83968464839E+02  0.39690033735E+02  0.43031888912E+03  0.45048203151E+03  0.95570458374E+02 0.  0.
        -11    1    4    4    0    0  0.10502491323E+03  0.36895127589E+02  0.37689773017E+03  0.39299285216E+03  0.00000000000E+00 0. -1.
         11    1    4    4    0    0 -0.21056448389E+02  0.27949061462E+01  0.53421158949E+02  0.57489179352E+02  0.00000000000E+00 0.  1.
        -11    1    3    3    0    0  0.34193471808E+02  0.18912412528E+02 -0.25771451637E+02  0.46808552438E+02  0.00000000000E+00 0. -1.
         11    1    3    3    0    0 -0.22145433332E+02 -0.49379223192E+02  0.43899611285E+00  0.54119503121E+02  0.00000000000E+00 0.  1.
          1    1    1    2  501    0 -0.96016503314E+02 -0.92232230714E+01  0.69982098100E+02  0.11917101496E+03  0.00000000000E+00 0. -1.
<scales pt_clust_5="13000.00000" pt_clust_6="13000.00000" pt_clust_7="13000.00000" pt_clust_8="13000.00000" pt_clust_9="13000.00000"></scales>
<clustering>
<clus scale="   92.040">  7  8 -1 -1</clus>
<clus scale="   95.570">  5  6 -1 -1</clus>
<clus scale="   96.459">  5  9 -1 -1</clus>
<clus scale="   97.697">  1  7  2 -1</clus>
<clus scale="  272.403">  2  5  1 -1</clus>
</clustering>
</event>
<event>
 9    1  0.6399313E-006  0.1034100E+04  0.7546771E-02  0.9512161E-01
          2   -1    0    0  502    0 -0.00000000000E+00  0.00000000000E+00  0.18677085370E+04  0.18677085370E+04  0.00000000000E+00 0. -1.
         21   -1    0    0  501  502  0.00000000000E+00 -0.00000000000E+00 -0.38661587111E+03  0.38661587111E+03  0.00000000000E+00 0. -1.
         23    2    1    2    0    0  0.33771904808E+03 -0.26346646854E+03  0.10435035855E+04  0.11314498244E+04  0.88375543341E+02 0.  0.
         23    2    1    2    0    0 -0.44919991834E+02 -0.10202838931E+03  0.60816767381E+03  0.62446226956E+03  0.87507763979E+02 0.  0.
        -11    1    4    4    0    0  0.39787555332E+01 -0.91591571502E+02  0.38602935552E+03  0.39676631635E+03  0.00000000000E+00 0.  1.
         11    1    4    4    0    0 -0.48898747367E+02 -0.10436817804E+02  0.22213831829E+03  0.22769595322E+03  0.00000000000E+00 0. -1.
        -13    1    3    3    0    0  0.11423656218E+03 -0.14229264833E+03  0.46693705515E+03  0.50132564605E+03  0.00000000000E+00 0.  1.
         13    1    3    3    0    0  0.22348248590E+03 -0.12117382021E+03  0.57656653032E+03  0.63012417831E+03  0.00000000000E+00 0. -1.
          2    1    1    2  501    0 -0.29279905624E+03  0.36549485784E+03 -0.17057859337E+03  0.49841231422E+03  0.00000000000E+00 0. -1.
<scales pt_clust_5="13000.00000" pt_clust_6="13000.00000" pt_clust_7="13000.00000" pt_clust_8="13000.00000" pt_clust_9="13000.00000"></scales>
<clustering>
<clus scale="   87.508">  5  6 -1 -1</clus>
<clus scale="   88.376">  7  8 -1 -1</clus>
<clus scale="  437.355">  1  7  2 -1</clus>
<clus scale="  381.322">  5  9 -1 -1</clus>
<clus scale=" 1034.100">  2  5  1 -1</clus>
</clustering>
</event>
<event>
 9    1  0.6399313E-006  0.5054516E+03  0.7546771E-02  0.1066588E+00
         21   -1    0    0  501  502  0.00000000000E+00  0.00000000000E+00  0.49497518038E+03  0.49497518038E+03  0.00000000000E+00 0.  1.
         -3   -1    0    0    0  501 -0.00000000000E+00 -0.00000000000E+00 -0.18770922693E+03  0.18770922693E+03  0.00000000000E+00 0.  1.
         23    2    1    2    0    0 -0.25106474275E+02 -0.56402661827E+02  0.57047825394E+02  0.11868938116E+03  0.83792120784E+02 0.  0.
         23    2    1    2    0    0 -0.18300820830E+03  0.13159164374E+03  0.24092686770E+03  0.34251944821E+03  0.92007889958E+02 0.  0.
        -11    1    4    4    0    0 -0.15042601432E+03  0.12524069152E+03  0.23947555004E+03  0.30929234659E+03  0.00000000000E+00 0.  1.
         11    1    4    4    0    0 -0.32582193982E+02  0.63509522197E+01  0.14513176623E+01  0.33227101615E+02  0.00000000000E+00 0. -1.
        -11    1    3    3    0    0 -0.55195809012E+02 -0.29507926876E+02  0.43088388799E+02  0.75986211449E+02  0.00000000000E+00 0.  1.
         11    1    3    3    0    0  0.30089334738E+02 -0.26894734951E+02  0.13959436595E+02  0.42703169708E+02  0.00000000000E+00 0. -1.
         -3    1    1    2    0  502  0.20811468257E+03 -0.75188981917E+02  0.92912603609E+01  0.22147557794E+03  0.00000000000E+00 0.  1.
<scales pt_clust_5="13000.00000" pt_clust_6="13000.00000" pt_clust_7="13000.00000" pt_clust_8="13000.00000" pt_clust_9="13000.00000"></scales>
<clustering>
<clus scale="   83.792">  7  8 -1 -1</clus>
<clus scale="   92.008">  5  6 -1 -1</clus>
<clus scale="  104.080">  2  7  1 -1</clus>
<clus scale="  222.210">  5  9 -1 -1</clus>
<clus scale="  505.452">  1  5  2 -1</clus>
</clustering>
</event>
<event>
 9    1  0.6399313E-006  0.3661630E+03  0.7546771E-02  0.1060068E+00
         21   -1    0    0  501  502  0.00000000000E+00  0.00000000000E+00  0.33764252726E+03  0.33764252726E+03  0.00000000000E+00 0.  1.
          3   -1    0    0  502    0 -0.00000000000E+00 -0.00000000000E+00 -0.38757306829E+03  0.38757306829E+03  0.00000000000E+00 0. -1.
         23    2    1    2    0    0  0.76228171895E+02 -0.30716068466E+03  0.78028902634E+02  0.33733806891E+03  0.86890981682E+02 0.  0.
         23    2    1    2    0    0 -0.57586024048E+02  0.22847115393E+03 -0.16195893030E+03  0.30015331667E+03  0.91356992410E+02 0.  0.
        -11    1    4    4    0    0 -0.79973049138E+02  0.20213265757E+03 -0.13134093996E+03  0.25397586963E+03  0.00000000000E+00 0. -1.
         11    1    4    4    0    0  0.22387025090E+02  0.26338496355E+02 -0.30617990341E+02  0.46177447040E+02  0.00000000000E+00 0.  1.
        -13    1    3    3    0    0  0.39548417633E+02 -0.27867365072E+03  0.71801292275E+02  0.29047978675E+03  0.00000000000E+00 0.  1.
         13    1    3    3    0    0  0.36679754262E+02 -0.28487033944E+02  0.62276103593E+01  0.46858282154E+02  0.00000000000E+00 0. -1.
          3    1    1    2  501    0 -0.18642147848E+02  0.78689530734E+02  0.33999486641E+02  0.87724209973E+02  0.00000000000E+00 0. -1.
<scales pt_clust_5="13000.00000" pt_clust_6="13000.00000" pt_clust_7="13000.00000" pt_clust_8="13000.00000" pt_clust_9="13000.00000"></scales>
<clustering>
<clus scale="   86.891">  7  8 -1 -1</clus>
<clus scale="   91.357">  5  6 -1 -1</clus>
<clus scale="   80.868">  5  9 -1 -1</clus>
<clus scale="  328.190">  2  7  1 -1</clus>
<clus scale="  366.163">  1  5  2 -1</clus>
</clustering>
</event>
<event>
 9    1  0.6399313E-006  0.3044682E+03  0.7546771E-02  0.1101657E+00
          2   -1    0    0  502    0 -0.00000000000E+00  0.00000000000E+00  0.98004395599E+03  0.98004395599E+03  0.00000000000E+00 0.  1.
         21   -1    0    0  501  502  0.00000000000E+00 -0.00000000000E+00 -0.68325175764E+02  0.68325175764E+02  0.00000000000E+00 0.  1.
         23    2    1    2    0    0 -0.10440010367E+03  0.12590034233E+03  0.51881277506E+03  0.55130169128E+03  0.89535363906E+02 0.  0.
         23    2    1    2    0    0  0.81485967811E+01  0.18942183570E+02  0.16384121767E+02  0.82323617663E+02  0.77997003988E+02 0.  0.
        -11    1    3    3    0    0 -0.18226821792E+02  0.69266423931E+02  0.31313702009E+03  0.32122398396E+03  0.00000000000E+00 0.  1.
         11    1    3    3    0    0 -0.86173281873E+02  0.56633918401E+02  0.20567575497E+03  0.23007770732E+03  0.00000000000E+00 0. -1.
        -13    1    4    4    0    0  0.99684400431E+00  0.42874342229E+02  0.31424729582E+02  0.53166874545E+02  0.00000000000E+00 0.  1.
         13    1    4    4    0    0  0.71517527768E+01 -0.23932158659E+02 -0.15040607814E+02  0.29156743118E+02  0.00000000000E+00 0. -1.
          2    1    1    2  501    0  0.96251506884E+02 -0.14484252590E+03  0.37652188339E+03  0.41474382281E+03  0.00000000000E+00 0.  1.
<scales pt_clust_5="13000.00000" pt_clust_6="13000.00000" pt_clust_7="13000.00000" pt_clust_8="13000.00000" pt_clust_9="13000.00000"></scales>
<clustering>
<clus scale="   77.997">  7  8 -1 -1</clus>
<clus scale="   89.535">  5  6 -1 -1</clus>
<clus scale="  173.907">  7  9 -1 -1</clus>
<clus scale="  186.459">  1  5  2 -1</clus>
<clus scale="  304.468">  2  5  1 -1</clus>
</clustering>
</event>
<event>
 9    1  0.6399313E-006  0.1558890E+03  0.7546771E-02  0.1213575E+00
         -3   -1    0    0    0  501 -0.00000000000E+00  0.00000000000E+00  0.68257104706E+03  0.68257104706E+03  0.00000000000E+00 0.  1.
         21   -1    0    0  501  502  0.00000000000E+00 -0.00000000000E+00 -0.29408563224E+02  0.29408563224E+02  0.00000000000E+00 0. -1.
         23    2    1    2    0    0 -0.36101535540E+02  0.13566176385E+02  0.41683726063E+03  0.42887012515E+03  0.93214378650E+02 0.  0.
         23    2    1    2    0    0 -0.20705744686E+02 -0.15790340430E+02  0.93364166609E+02  0.12925930575E+03  0.85516301389E+02 0.  0.
        -13    1    4    4    0    0 -0.35144501986E+02 -0.31387104645E+02  0.96866002090E+02  0.10771865539E+03  0.00000000000E+00 0.  1.
         13    1    4    4    0    0  0.14438757300E+02  0.15596764216E+02 -0.35018354810E+01  0.21540650364E+02  0.00000000000E+00 0. -1.
        -13    1    3    3    0    0  0.30063178426E+02 -0.39858505475E+01  0.91005024578E+02  0.95924950874E+02  0.00000000000E+00 0. -1.
         13    1    3    3    0    0 -0.66164713966E+02  0.17552026932E+02  0.32583223606E+03  0.33294517428E+03  0.00000000000E+00 0.  1.
         -3    1    1    2    0  502  0.56807280226E+02  0.22241640447E+01  0.14296105660E+03  0.15385017938E+03  0.00000000000E+00 0.  1.
<scales pt_clust_5="13000.00000" pt_clust_6="13000.00000" pt_clust_7="13000.00000" pt_clust_8="13000.00000" pt_clust_9="13000.00000"></scales>
<clustering>
<clus scale="   85.516">  5  6 -1 -1</clus>
<clus scale="   56.851">  5  9 -1 -1</clus>
<clus scale="   93.214">  7  8 -1 -1</clus>
<clus scale="  100.878">  1  7  2 -1</clus>
<clus scale="  155.889">  2  5  1 -1</clus>
</clustering>
</event>
<event>
 9    1  0.6399313E-006  0.4208100E+03  0.7546771E-02  0.1089872E+00
         21   -1    0    0  501  502  0.00000000000E+00  0.00000000000E+00  0.10327373104E+03  0.10327373104E+03  0.00000000000E+00 0. -1.
          2   -1    0    0  502    0 -0.00000000000E+00 -0.00000000000E+00 -0.74999299139E+03  0.74999299139E+03  0.00000000000E+00 0. -1.
         23    2    1    2    0    0  0.11134114667E+02 -0.28816404534E+02 -0.19683785459E+02  0.98114729644E+02  0.91020300392E+02 0.  0.
         23    2    1    2    0    0 -0.11857401205E+03  0.73002289284E+02 -0.61667743927E+03  0.63852003807E+03  0.89597122336E+02 0.  0.
        -11    1    3    3    0    0 -0.14860600246E+02 -0.52453725305E+02  0.56338374412E+01  0.54808492612E+02  0.00000000000E+00 0. -1.
         11    1    3    3    0    0  0.25994714913E+02  0.23637320771E+02 -0.25317622900E+02  0.43306237033E+02  0.00000000000E+00 0.  1.
        -13    1    4    4    0    0 -0.10115141982E+03  0.15612955699E+02 -0.32479843917E+03  0.34054280231E+03  0.00000000000E+00 0. -1.
         13    1    4    4    0    0 -0.17422592233E+02  0.57389333586E+02 -0.29187900010E+03  0.29797723575E+03  0.00000000000E+00 0.  1.
          2    1    1    2  501    0  0.10743989739E+03 -0.44185884750E+02 -0.10358035619E+02  0.11663195473E+03  0.00000000000E+00 0. -1.
<scales pt_clust_5="13000.00000" pt_clust_6="13000.00000" pt_clust_7="13000.00000" pt_clust_8="13000.00000" pt_clust_9="13000.00000"></scales>
<clustering>
<clus scale="   89.597">  7  8 -1 -1</clus>
<clus scale="   91.020">  5  6 -1 -1</clus>
<clus scale="   96.120">  2  5  1 -1</clus>
<clus scale="  118.142">  7  9 -1 -1</clus>
<clus scale="  420.810">  1  5  2 -1</clus>
</clustering>
</event>
<event>
 9    1  0.6399313E-006  0.1548684E+03  0.7546771E-02  0.1210900E+00
          2   -1    0    0  502    0 -0.00000000000E+00  0.00000000000E+00  0.99016391508E+03  0.99016391508E+03  0.00000000000E+00 0. -1.
         21   -1    0    0  501  502  0.00000000000E+00 -0.00000000000E+00 -0.18208444494E+02  0.18208444494E+02  0.00000000000E+00 0. -1.
         23    2    1    2    0    0  0.40915626372E+01  0.59700418705E+02  0.31109201796E+03  0.32960529255E+03  0.90997386582E+02 0.  0.
         23    2    1    2    0    0  0.25378427654E+02 -0.11246679311E+02  0.48820541557E+03  0.49703362774E+03  0.89035649783E+02 0.  0.
        -11    1    3    3    0    0 -0.24568789342E+02  0.72871390593E+02  0.23390495210E+03  0.24622224025E+03  0.00000000000E+00 0. -1.
         11    1    3    3    0    0  0.28660351979E+02 -0.13170971888E+02  0.77187065854E+02  0.83383052302E+02  0.00000000000E+00 0.  1.
        -11    1    4    4    0    0  0.46467687051E+02 -0.37112590649E+02  0.33470456239E+03  0.33994666407E+03  0.00000000000E+00 0. -1.
         11    1    4    4    0    0 -0.21089259397E+02  0.25865911338E+02  0.15350085318E+03  0.15708696368E+03  0.00000000000E+00 0.  1.
          2    1    1    2  501    0 -0.29469990291E+02 -0.48453739394E+02  0.17265803706E+03  0.18173343927E+03  0.00000000000E+00 0. -1.
<scales pt_clust_5="13000.00000" pt_clust_6="13000.00000" pt_clust_7="13000.00000" pt_clust_8="13000.00000" pt_clust_9="13000.00000"></scales>
<clustering>
<clus scale="   89.036">  7  8 -1 -1</clus>
<clus scale="   56.712">  7  9 -1 -1</clus>
<clus scale="   90.997">  5  6 -1 -1</clus>
<clus scale="  108.910">  1  5  2 -1</clus>
<clus scale="  154.868">  2  5  1 -1</clus>
</clustering>
</event>
<event>
 9    1  0.6399313E-006  0.2980018E+03  0.7546771E-02  0.1131471E+00
         21   -1    0    0  501  502  0.00000000000E+00  0.00000000000E+00  0.12391040494E+04  0.12391040494E+04  0.00000000000E+00 0. -1.
          4   -1    0    0  502    0 -0.00000000000E+00 -0.00000000000E+00 -0.33159490576E+02  0.33159490576E+02  0.00000000000E+00 0. -1.
         23    2    1    2    0    0 -0.11691528265E+02 -0.16543320520E+02  0.16881770751E+03  0.19317263849E+03  0.91683567806E+02 0.  0.
         23    2    1    2    0    0  0.13416122718E+03  0.50578464281E+02  0.63348985952E+03  0.65591240569E+03  0.91401673333E+02 0.  0.
        -11    1    4    4    0    0  0.16759642463E+02 -0.25095582650E+02  0.12451910260E+03  0.12812369335E+03  0.00000000000E+00 0.  1.
         11    1    4    4    0    0  0.11740158472E+03  0.75674046931E+02  0.50897075692E+03  0.52778871234E+03  0.00000000000E+00 0. -1.
        -13    1    3    3    0    0 -0.49218379101E+02 -0.20301356430E+02  0.74281607743E+02  0.91391198499E+02  0.00000000000E+00 0.  1.
         13    1    3    3    0    0  0.37526850836E+02  0.37580359107E+01  0.94536099771E+02  0.10178144000E+03  0.00000000000E+00 0. -1.
          4    1    1    2  501    0 -0.12246969891E+03 -0.34035143761E+02  0.40363699176E+03  0.42317849577E+03  0.00000000000E+00 0. -1.
<scales pt_clust_5="13000.00000" pt_clust_6="13000.00000" pt_clust_7="13000.00000" pt_clust_8="13000.00000" pt_clust_9="13000.00000"></scales>
<clustering>
<clus scale="   91.402">  5  6 -1 -1</clus>
<clus scale="   91.684">  7  8 -1 -1</clus>
<clus scale="   93.895">  2  7  1 -1</clus>
<clus scale="  134.552">  5  9 -1 -1</clus>
<clus scale="  298.002">  1  5  2 -1</clus>
</clustering>
</event>
<event>
 9    1  0.6399313E-006  0.3235763E+03  0.7546771E-02  0.1110015E+00
         -2   -1    0    0    0  501 -0.00000000000E+00  0.00000000000E+00  0.12146148794E+03  0.12146148794E+03  0.00000000000E+00 0.  1.
         21   -1    0    0  501  502  0.00000000000E+00 -0.00000000000E+00 -0.52474393853E+03  0.52474393853E+03  0.00000000000E+00 0.  1.
         23    2    1    2    0    0 -0.72685075189E+02 -0.48736941539E+02  0.47604308122E+01  0.12543619847E+03  0.89739448177E+02 0.  0.
         23    2    1    2    0    0 -0.10550717164E+03  0.62322528181E+01 -0.19993988932E+03  0.24352208067E+03  0.90313012279E+02 0.  0.
        -13    1    4    4    0    0 -0.66463361600E+02 -0.10089683332E+02 -0.18784161389E+03  0.19950852627E+03  0.00000000000E+00 0.  1.
         13    1    4    4    0    0 -0.39043810044E+02  0.16321936150E+02 -0.12098275432E+02  0.44013554400E+02  0.00000000000E+00 0. -1.
        -13    1    3    3    0    0 -0.65559211228E+02 -0.67577979429E+02 -0.17118395320E+02  0.95696567017E+02  0.00000000000E+00 0.  1.
         13    1    3    3    0    0 -0.71258639608E+01  0.18841037890E+02  0.21878826132E+02  0.29739631452E+02  0.00000000000E+00 0. -1.
         -2    1    1    2    0  502  0.17819224683E+03  0.42504688720E+02 -0.20810299208E+03  0.27724714734E+03  0.00000000000E+00 0.  1.
<scales pt_clust_5="13000.00000" pt_clust_6="13000.00000" pt_clust_7="13000.00000" pt_clust_8="13000.00000" pt_clust_9="13000.00000"></scales>
<clustering>
<clus scale="   89.739">  7  8 -1 -1</clus>
<clus scale="   90.313">  5  6 -1 -1</clus>
<clus scale="  125.346">  1  7  2 -1</clus>
<clus scale="  134.202">  5  9 -1 -1</clus>
<clus scale="  323.576">  2  5  1 -1</clus>
</clustering>
</event>
<event>
 9    1  0.6399313E-006  0.2306975E+03  0.7546771E-02  0.1163743E+00
         21   -1    0    0  501  502  0.00000000000E+00  0.00000000000E+00  0.28366897249E+03  0.28366897249E+03  0.00000000000E+00 0.  1.
         -1   -1    0    0    0  501 -0.00000000000E+00 -0.00000000000E+00 -0.97797341950E+02  0.97797341950E+02  0.00000000000E+00 0.  1.
         23    2    1    2    0    0 -0.25337304637E+02  0.10143955104E+02  0.16627637409E+02  0.95345917561E+02  0.89830322488E+02 0.  0.
         23    2    1    2    0    0 -0.61084680604E+02  0.14972267715E+02  0.21848719266E+02  0.11342137853E+03  0.91823393362E+02 0.  0.
        -11    1    3    3    0    0 -0.15691390423E+02 -0.38478909681E+02  0.19055530888E+02  0.45716074647E+02  0.00000000000E+00 0.  1.
         11    1    3    3    0    0 -0.96459142135E+01  0.48622864785E+02 -0.24278934792E+01  0.49629842914E+02  0.00000000000E+00 0. -1.
        -13    1    4    4    0    0 -0.70068816714E+02  0.37386661202E+02  0.33997126902E+02  0.86389849804E+02  0.00000000000E+00 0.  1.
         13    1    4    4    0    0  0.89841361104E+01 -0.22414393487E+02 -0.12148407636E+02  0.27031528723E+02  0.00000000000E+00 0. -1.
         -1    1    1    2    0  502  0.86421985240E+02 -0.25116222819E+02  0.14739527386E+03  0.17269901835E+03  0.00000000000E+00 0.  1.
<scales pt_clust_5="13000.00000" pt_clust_6="13000.00000" pt_clust_7="13000.00000" pt_clust_8="13000.00000" pt_clust_9="13000.00000"></scales>
<clustering>
<clus scale="   89.830">  5  6 -1 -1</clus>
<clus scale="   91.823">  7  8 -1 -1</clus>
<clus scale="   89.998">  7  9 -1 -1</clus>
<clus scale="   93.885">  2  5  1 -1</clus>
<clus scale="  230.698">  1  5  2 -1</clus>
</clustering>
</event>
<event>
 9    1  0.6399313E-006  0.3833165E+03  0.7546771E-02  0.1053227E+00
         21   -1    0    0  501  502  0.00000000000E+00  0.00000000000E+00  0.12327555692E+03  0.12327555692E+03  0.00000000000E+00 0. -1.
          2   -1    0    0  502    0 -0.00000000000E+00 -0.00000000000E+00 -0.12275427146E+04  0.12275427146E+04  0.00000000000E+00 0. -1.
         23    2    1    2    0    0 -0.30234136429E+03 -0.14299903323E+03 -0.76076795090E+03  0.83611131722E+03  0.91952355078E+02 0.  0.
         23    2    1    2    0    0  0.17201018086E+03  0.47772214848E+02 -0.27253608797E+03  0.33838302356E+03  0.91419169514E+02 0.  0.
        -13    1    3    3    0    0 -0.17797794092E+03 -0.10376308876E+03 -0.56015629980E+03  0.59684001730E+03  0.00000000000E+00 0.  1.
         13    1    3    3    0    0 -0.12436342336E+03 -0.39235944470E+02 -0.20061165110E+03  0.23927129992E+03  0.00000000000E+00 0. -1.
        -13    1    4    4    0    0  0.14044733276E+03  0.58545668036E+02 -0.26274480544E+03  0.30362457297E+03  0.00000000000E+00 0.  1.
         13    1    4    4    0    0  0.31562848093E+02 -0.10773453187E+02 -0.97912825273E+01  0.34758450582E+02  0.00000000000E+00 0. -1.
          2    1    1    2  501    0  0.13033118343E+03  0.95226818380E+02 -0.70963118763E+02  0.17632393070E+03  0.00000000000E+00 0. -1.
<scales pt_clust_5="13000.00000" pt_clust_6="13000.00000" pt_clust_7="13000.00000" pt_clust_8="13000.00000" pt_clust_9="13000.00000"></scales>
<clustering>
<clus scale="   91.419">  7  8 -1 -1</clus>
<clus scale="   91.952">  5  6 -1 -1</clus>
<clus scale="  161.414">  7  9 -1 -1</clus>
<clus scale="  346.863">  2  5  1 -1</clus>
<clus scale="  383.317">  1  5  2 -1</clus>
</clustering>
</event>
<event>
 9    1  0.6399313E-006  0.4180851E+03  0.7546771E-02  0.1061066E+00
         21   -1    0    0  501  502  0.00000000000E+00  0.00000000000E+00  0.16104823515E+03  0.16104823515E+03  0.00000000000E+00 0.  1.
          2   -1    0    0  502    0 -0.00000000000E+00 -0.00000000000E+00 -0.62657488976E+03  0.62657488976E+03  0.00000000000E+00 0. -1.
         23    2    1    2    0    0 -0.17489098004E+03  0.84886140200E+02 -0.19366432539E+03  0.28892050260E+03  0.90424964459E+02 0.  0.
         23    2    1    2    0    0  0.11556256373E+03  0.66124042030E+02 -0.29353958759E+03  0.33501438313E+03  0.91334836426E+02 0.  0.
        -11    1    3    3    0    0 -0.93834207814E+02  0.34525599049E+02 -0.39278398454E+02  0.10742284734E+03  0.00000000000E+00 0.  1.
         11    1    3    3    0    0 -0.81056772224E+02  0.50360541151E+02 -0.15438592694E+03  0.18149765526E+03  0.00000000000E+00 0. -1.
        -13    1    4    4    0    0 -0.84552513300E+01  0.29708506598E+02 -0.41148910460E+02  0.51452108522E+02  0.00000000000E+00 0.  1.
         13    1    4    4    0    0  0.12401781506E+03  0.36415535431E+02 -0.25239067713E+03  0.28356227460E+03  0.00000000000E+00 0. -1.
          2    1    1    2  501    0  0.59328416306E+02 -0.15101018223E+03  0.21677258377E+02  0.16368823919E+03  0.00000000000E+00 0. -1.
<scales pt_clust_5="13000.00000" pt_clust_6="13000.00000" pt_clust_7="13000.00000" pt_clust_8="13000.00000" pt_clust_9="13000.00000"></scales>
<clustering>
<clus scale="   90.425">  5  6 -1 -1</clus>
<clus scale="   91.335">  7  8 -1 -1</clus>
<clus scale="  162.247">  7  9 -1 -1</clus>
<clus scale="  214.404">  2  5  1 -1</clus>
<clus scale="  418.085">  1  5  2 -1</clus>
</clustering>
</event>
<event>
 9    1  0.6399313E-006  0.1662365E+03  0.7546771E-02  0.1197849E+00
         -4   -1    0    0    0  501 -0.00000000000E+00  0.00000000000E+00  0.13208699303E+03  0.13208699303E+03  0.00000000000E+00 0.  1.
         21   -1    0    0  501  502  0.00000000000E+00 -0.00000000000E+00 -0.17778447918E+03  0.17778447918E+03  0.00000000000E+00 0. -1.
         23    2    1    2    0    0 -0.62519467725E+02  0.38820378270E+02  0.39366656532E+02  0.12313508106E+03  0.90536229912E+02 0.  0.
         23    2    1    2    0    0  0.16233720253E+02 -0.19392291901E+02 -0.26073318174E+02  0.10927841328E+03  0.10306482926E+03 0.  0.
        -13    1    4    4    0    0  0.16810728433E+02 -0.44935428296E+02  0.23564026372E+02  0.53451441940E+02  0.00000000000E+00 0.  1.
         13    1    4    4    0    0 -0.57700817928E+00  0.25543136395E+02 -0.49637344546E+02  0.55826971340E+02  0.00000000000E+00 0. -1.
        -13    1    3    3    0    0  0.22712348619E+02  0.14680153451E+02  0.24104338503E+01  0.27150835649E+02  0.00000000000E+00 0.  1.
         13    1    3    3    0    0 -0.85231816343E+02  0.24140224819E+02  0.36956222682E+02  0.95984245407E+02  0.00000000000E+00 0. -1.
         -4    1    1    2    0  502  0.46285747471E+02 -0.19428086369E+02 -0.58990824507E+02  0.77457977865E+02  0.00000000000E+00 0.  1.
<scales pt_clust_5="13000.00000" pt_clust_6="13000.00000" pt_clust_7="13000.00000" pt_clust_8="13000.00000" pt_clust_9="13000.00000"></scales>
<clustering>
<clus scale="   90.536">  7  8 -1 -1</clus>
<clus scale="  103.065">  5  6 -1 -1</clus>
<clus scale="   50.198">  5  9 -1 -1</clus>
<clus scale="  116.673">  1  7  2 -1</clus>
<clus scale="  166.236">  2  5  1 -1</clus>
</clustering>
</event>
<event>
 9    1  0.6399313E-006  0.5472167E+03  0.7546771E-02  0.1030157E+00
         21   -1    0    0  501  502  0.00000000000E+00  0.00000000000E+00  0.13052734329E+03  0.13052734329E+03  0.00000000000E+00 0. -1.
          2   -1    0    0  502    0 -0.00000000000E+00 -0.00000000000E+00 -0.11663889979E+04  0.11663889979E+04  0.00000000000E+00 0. -1.
         23    2    1    2    0    0 -0.12179587177E+03 -0.17391481877E+03 -0.29063999554E+03  0.37236159198E+03  0.95398897282E+02 0.  0.
         23    2    1    2    0    0 -0.13150612696E+03  0.23658632328E+03 -0.39912574566E+03  0.49111271006E+03  0.92862173876E+02 0.  0.
        -11    1    4    4    0    0 -0.21466405996E+02  0.12271905812E+02 -0.91624090138E+02  0.94901950202E+02  0.00000000000E+00 0.  1.
         11    1    4    4    0    0 -0.11003972097E+03  0.22431441746E+03 -0.30750165553E+03  0.39621075986E+03  0.00000000000E+00 0. -1.
        -13    1    3    3    0    0  0.38564106694E+01 -0.53547213749E+02 -0.10496376707E+03  0.11789643082E+03  0.00000000000E+00 0.  1.
         13    1    3    3    0    0 -0.12565228244E+03 -0.12036760502E+03 -0.18567622847E+03  0.25446516116E+03  0.00000000000E+00 0. -1.
          2    1    1    2  501    0  0.25330199874E+03 -0.62671504505E+02 -0.34609591341E+03  0.43344203917E+03  0.00000000000E+00 0. -1.
<scales pt_clust_5="13000.00000" pt_clust_6="13000.00000" pt_clust_7="13000.00000" pt_clust_8="13000.00000" pt_clust_9="13000.00000"></scales>
<clustering>
<clus scale="   92.862">  5  6 -1 -1</clus>
<clus scale="   95.399">  7  8 -1 -1</clus>
<clus scale="  232.769">  2  7  1 -1</clus>
<clus scale="  243.487">  5  9 -1 -1</clus>
<clus scale="  547.217">  1  5  2 -1</clus>
</clustering>
</event>
<event>
 9    1  0.6399313E-006  0.4111044E+03  0.7546771E-02  0.1046836E+00
         21   -1    0    0  501  502  0.00000000000E+00  0.00000000000E+00  0.50147655397E+03  0.50147655397E+03  0.00000000000E+00 0. -1.
         -1   -1    0    0    0  501 -0.00000000000E+00 -0.00000000000E+00 -0.28382918502E+03  0.28382918502E+03  0.00000000000E+00 0.  1.
         23    2    1    2    0    0 -0.26034006035E+03  0.19416486409E+03  0.49006370996E+02  0.34095613038E+03  0.91501458865E+02 0.  0.
         23    2    1    2    0    0  0.24833055802E+03 -0.68246550429E+02  0.16041939019E+03  0.31759297290E+03  0.93836336236E+02 0.  0.
        -13    1    4    4    0    0  0.45000182259E+02 -0.46283249716E+02  0.13959791565E+02  0.66045676529E+02  0.00000000000E+00 0.  1.
         13    1    4    4    0    0  0.20333037576E+03 -0.21963300713E+02  0.14645959862E+03  0.25154729637E+03  0.00000000000E+00 0. -1.
        -13    1    3    3    0    0 -0.45573711891E+02  0.50315571996E+02  0.46802282385E+02  0.82456495422E+02  0.00000000000E+00 0. -1.
         13    1    3    3    0    0 -0.21476634846E+03  0.14384929210E+03  0.22040886116E+01  0.25849963496E+03  0.00000000000E+00 0.  1.
         -1    1    1    2    0  502  0.12009502330E+02 -0.12591831366E+03  0.82216077746E+01  0.12675663571E+03  0.00000000000E+00 0.  1.
<scales pt_clust_5="13000.00000" pt_clust_6="13000.00000" pt_clust_7="13000.00000" pt_clust_8="13000.00000" pt_clust_9="13000.00000"></scales>
<clustering>
<clus scale="   91.501">  7  8 -1 -1</clus>
<clus scale="   93.836">  5  6 -1 -1</clus>
<clus scale="  126.490">  5  9 -1 -1</clus>
<clus scale="  337.416">  2  7  1 -1</clus>
<clus scale="  411.104">  1  5  2 -1</clus>
</clustering>
</event>
<event>
 9    1  0.6399313E-006  0.1803689E+03  0.7546771E-02  0.1180776E+00
         21   -1    0    0  501  502  0.00000000000E+00  0.00000000000E+00  0.89733974044E+02  0.89733974044E+02  0.00000000000E+00 0. -1.
         -3   -1    0    0    0  501 -0.00000000000E+00 -0.00000000000E+00 -0.43670937337E+03  0.43670937337E+03  0.00000000000E+00 0.  1.
         23    2    1    2    0    0  0.96170070034E+02 -0.14376145324E+02 -0.31664476844E+03  0.34354206057E+03  0.91114664431E+02 0.  0.
         23    2    1    2    0    0 -0.63372437272E+02 -0.21101435389E+02 -0.59454650144E+02  0.12648717562E+03  0.89458447282E+02 0.  0.
        -13    1    3    3    0    0  0.12158310853E+02 -0.39060992864E+02 -0.62158825616E+02  0.74413072025E+02  0.00000000000E+00 0.  1.
         13    1    3    3    0    0  0.84011759182E+02  0.24684847540E+02 -0.25448594283E+03  0.26912898855E+03  0.00000000000E+00 0. -1.
        -13    1    4    4    0    0  0.16261999330E+02  0.11938003254E+02  0.24879364566E+01  0.20326297541E+02  0.00000000000E+00 0. -1.
         13    1    4    4    0    0 -0.79634436602E+02 -0.33039438643E+02 -0.61942586601E+02  0.10616087807E+03  0.00000000000E+00 0.  1.
         -3    1    1    2    0  502 -0.32797632763E+02  0.35477580713E+02  0.29124019259E+02  0.56414111230E+02  0.00000000000E+00 0.  1.
<scales pt_clust_5="13000.00000" pt_clust_6="13000.00000" pt_clust_7="13000.00000" pt_clust_8="13000.00000" pt_clust_9="13000.00000"></scales>
<clustering>
<clus scale="   89.458">  7  8 -1 -1</clus>
<clus scale="   48.315">  7  9 -1 -1</clus>
<clus scale="   91.115">  5  6 -1 -1</clus>
<clus scale="  133.256">  2  5  1 -1</clus>
<clus scale="  180.369">  1  5  2 -1</clus>
</clustering>
</event>
<event>
 9    1  0.7589611E-006  0.5696212E+03  0.7546771E-02  0.1023738E+00
         21   -1    0    0  501  502  0.00000000000E+00  0.00000000000E+00  0.15643089224E+04  0.15643089224E+04  0.00000000000E+00 0. -1.
          1   -1    0    0  502    0 -0.00000000000E+00 -0.00000000000E+00 -0.12343405487E+03  0.12343405487E+03  0.00000000000E+00 0. -1.
         23    2    1    2    0    0 -0.14601308218E+03 -0.18325059836E+03  0.75981291820E+03  0.79987266034E+03  0.87063196181E+02 0.  0.
         23    2    1    2    0    0  0.30533474731E+02  0.38261057046E+02 -0.63749259593E+02  0.12034100560E+03  0.89564434703E+02 0.  0.
        -11    1    4    4    0    0  0.54911641854E+02  0.49636445402E+02 -0.38447215559E+02  0.83410152305E+02  0.00000000000E+00 0. -1.
         11    1    4    4    0    0 -0.24378167123E+02 -0.11375388355E+02 -0.25302044035E+02  0.36930853292E+02  0.00000000000E+00 0.  1.
        -11    1    3    3    0    0 -0.18217737338E+02 -0.58843359995E+02  0.30865038578E+03  0.31473717228E+03  0.00000000000E+00 0.  1.
         11    1    3    3    0    0 -0.12779534484E+03 -0.12440723837E+03  0.45116253242E+03  0.48513548806E+03  0.00000000000E+00 0. -1.
          1    1    1    2  501    0  0.11547960745E+03  0.14498954132E+03  0.74481120896E+03  0.76752931137E+03  0.00000000000E+00 0. -1.
<scales pt_clust_5="13000.00000" pt_clust_6="13000.00000" pt_clust_7="13000.00000" pt_clust_8="13000.00000" pt_clust_9="13000.00000"></scales>
<clustering>
<clus scale="   87.063">  7  8 -1 -1</clus>
<clus scale="   89.564">  5  6 -1 -1</clus>
<clus scale="  185.358">  5  9 -1 -1</clus>
<clus scale="  249.961">  2  7  1 -1</clus>
<clus scale="  569.621">  1  5  2 -1</clus>
</clustering>
</event>
<event>
 9    1  0.6399313E-006  0.1503443E+03  0.7546771E-02  0.1210000E+00
          1   -1    0    0  502    0 -0.00000000000E+00  0.00000000000E+00  0.14607235365E+03  0.14607235365E+03  0.00000000000E+00 0. -1.
         21   -1    0    0  501  502  0.00000000000E+00 -0.00000000000E+00 -0.25561880675E+03  0.25561880675E+03  0.00000000000E+00 0.  1.
         23    2    1    2    0    0  0.78777878660E+02  0.77532290701E+01  0.90548841350E+02  0.15140824797E+03  0.91974442958E+02 0.  0.
         23    2    1    2    0    0 -0.60242853159E+02 -0.21524330510E+02 -0.10478248482E+03  0.15221292678E+03  0.89982819430E+02 0.  0.
        -11    1    4    4    0    0  0.32671504120E+01 -0.28901365820E+02 -0.77353089650E+02  0.82640569314E+02  0.00000000000E+00 0.  1.
         11    1    4    4    0    0 -0.63510003571E+02  0.73770353107E+01 -0.27429395168E+02  0.69572357462E+02  0.00000000000E+00 0. -1.
        -13    1    3    3    0    0 -0.73078464760E+01 -0.25681985947E+02  0.33570728218E+02  0.42894787741E+02  0.00000000000E+00 0. -1.
         13    1    3    3    0    0  0.86085725136E+02  0.33435215017E+02  0.56978113132E+02  0.10851346023E+03  0.00000000000E+00 0.  1.
          1    1    1    2  501    0 -0.18535025501E+02  0.13771101439E+02 -0.95312809629E+02  0.98069985646E+02  0.00000000000E+00 0. -1.
<scales pt_clust_5="13000.00000" pt_clust_6="13000.00000" pt_clust_7="13000.00000" pt_clust_8="13000.00000" pt_clust_9="13000.00000"></scales>
<clustering>
<clus scale="   89.983">  5  6 -1 -1</clus>
<clus scale="   23.091">  5  9 -1 -1</clus>
<clus scale="   91.974">  7  8 -1 -1</clus>
<clus scale="  121.348">  1  7  2 -1</clus>
<clus scale="  150.344">  2  5  1 -1</clus>
</clustering>
</event>
<event>
 9    1  0.6399313E-006  0.3566530E+03  0.7546771E-02  0.1109508E+00
          2   -1    0    0  502    0 -0.00000000000E+00  0.00000000000E+00  0.45605561228E+03  0.45605561228E+03  0.00000000000E+00 0. -1.
         21   -1    0    0  501  502  0.00000000000E+00 -0.00000000000E+00 -0.11917020353E+03  0.11917020353E+03  0.00000000000E+00 0. -1.
         23    2    1    2    0    0  0.19743351232E+02 -0.14461982775E+02  0.13628905274E+03  0.16603118269E+03  0.91611674287E+02 0.  0.
         23    2    1    2    0    0  0.20182648633E+02 -0.43552631101E+02  0.28415473044E+03  0.29991616851E+03  0.83076027353E+02 0.  0.
        -11    1    3    3    0    0  0.89457389022E+01  0.33520245841E+02  0.20664922317E+02  0.40381581694E+02  0.00000000000E+00 0.  1.
         11    1    3    3    0    0  0.10797612330E+02 -0.47982228616E+02  0.11562413042E+03  0.12564960099E+03  0.00000000000E+00 0. -1.
        -13    1    4    4    0    0  0.41060942786E+02 -0.25986324894E+01  0.19836434078E+03  0.20258619303E+03  0.00000000000E+00 0. -1.
         13    1    4    4    0    0 -0.20878294153E+02 -0.40953998612E+02  0.85790389665E+02  0.97329975485E+02  0.00000000000E+00 0.  1.
          2    1    1    2  501    0 -0.39925999865E+02  0.58014613876E+02 -0.83558374430E+02  0.10927846460E+03  0.00000000000E+00 0. -1.
<scales pt_clust_5="13000.00000" pt_clust_6="13000.00000" pt_clust_7="13000.00000" pt_clust_8="13000.00000" pt_clust_9="13000.00000"></scales>
<clustering>
<clus scale="   83.076">  7  8 -1 -1</clus>
<clus scale="   70.426">  7  9 -1 -1</clus>
<clus scale="   91.612">  5  6 -1 -1</clus>
<clus scale="   94.824">  1  5  2 -1</clus>
<clus scale="  356.653">  2  5  1 -1</clus>
</clustering>
</event>
<event>
 9    1  0.6399313E-006  0.1809451E+03  0.7546771E-02  0.1167277E+00
         21   -1    0    0  501  502  0.00000000000E+00  0.00000000000E+00  0.14891385583E+03  0.14891385583E+03  0.00000000000E+00 0. -1.
          2   -1    0    0  502    0 -0.00000000000E+00 -0.00000000000E+00 -0.11068847533E+04  0.11068847533E+04  0.00000000000E+00 0. -1.
         23    2    1    2    0    0  0.12118338669E+03 -0.65029666667E+02 -0.10412683683E+04  0.10566012649E+04  0.11511797109E+03 0.  0.
         23    2    1    2    0    0 -0.83898454287E+02  0.68496589903E+02  0.53448283181E+02  0.15131039671E+03  0.91144850200E+02 0.  0.
        -11    1    3    3    0    0  0.14140900540E+03 -0.70473110459E+02 -0.94054575067E+03  0.95372389884E+03  0.00000000000E+00 0. -1.
         11    1    3    3    0    0 -0.20225618707E+02  0.54434437920E+01 -0.10072261767E+03  0.10287736604E+03  0.00000000000E+00 0.  1.
        -11    1    4    4    0    0 -0.36037450343E+02  0.83720011061E+02  0.38146147336E+02  0.98807219553E+02  0.00000000000E+00 0.  1.
         11    1    4    4    0    0 -0.47861003944E+02 -0.15223421159E+02  0.15302135845E+02  0.52503177159E+02  0.00000000000E+00 0. -1.
          2    1    1    2  501    0 -0.37284932405E+02 -0.34669232353E+01  0.29849187678E+02  0.47886947556E+02  0.00000000000E+00 0. -1.
<scales pt_clust_5="13000.00000" pt_clust_6="13000.00000" pt_clust_7="13000.00000" pt_clust_8="13000.00000" pt_clust_9="13000.00000"></scales>
<clustering>
<clus scale="   91.145">  7  8 -1 -1</clus>
<clus scale="   37.446">  7  9 -1 -1</clus>
<clus scale="  115.118">  5  6 -1 -1</clus>
<clus scale="  179.350">  2  5  1 -1</clus>
<clus scale="  180.945">  1  5  2 -1</clus>
</clustering>
</event>
<event>
 9    1  0.6399313E-006  0.3230652E+03  0.7546771E-02  0.1123399E+00
          2   -1    0    0  502    0 -0.00000000000E+00  0.00000000000E+00  0.25236974774E+03  0.25236974774E+03  0.00000000000E+00 0. -1.
         21   -1    0    0  501  502  0.00000000000E+00 -0.00000000000E+00 -0.23554104315E+03  0.23554104315E+03  0.00000000000E+00 0. -1.
         23    2    1    2    0    0 -0.91335460901E+01 -0.10851128929E+02  0.11892171767E+03  0.14909796216E+03  0.88806861926E+02 0.  0.
         23    2    1    2    0    0 -0.59442656919E+02  0.10145684029E+03  0.39133972290E+02  0.15754741021E+03  0.97276917993E+02 0.  0.
        -11    1    4    4    0    0 -0.34000982741E+02 -0.78065591124E+01  0.28146195504E+02  0.44824296022E+02  0.00000000000E+00 0.  1.
         11    1    4    4    0    0 -0.25441674178E+02  0.10926339941E+03  0.10987776786E+02  0.11272311419E+03  0.00000000000E+00 0. -1.
        -11    1    3    3    0    0  0.17064364543E+02 -0.41709738807E+02  0.85315968441E+02  0.96486834955E+02  0.00000000000E+00 0.  1.
         11    1    3    3    0    0 -0.26197910633E+02  0.30858609878E+02  0.33605749228E+02  0.52611127210E+02  0.00000000000E+00 0. -1.
          2    1    1    2  501    0  0.68576203009E+02 -0.90605711364E+02 -0.14122698537E+03  0.18126541851E+03  0.00000000000E+00 0. -1.
<scales pt_clust_5="13000.00000" pt_clust_6="13000.00000" pt_clust_7="13000.00000" pt_clust_8="13000.00000" pt_clust_9="13000.00000"></scales>
<clustering>
<clus scale="   88.807">  7  8 -1 -1</clus>
<clus scale="   89.932">  1  7  2 -1</clus>
<clus scale="   97.277">  5  6 -1 -1</clus>
<clus scale="  114.187">  5  9 -1 -1</clus>
<clus scale="  323.065">  2  5  1 -1</clus>
</clustering>
</event>
<event>
 9    1  0.6399313E-006  0.1856462E+03  0.7546771E-02  0.1182858E+00
          1   -1    0    0  502    0 -0.00000000000E+00  0.00000000000E+00  0.10244533318E+04  0.10244533318E+04  0.00000000000E+00 0. -1.
         21   -1    0    0  501  502  0.00000000000E+00 -0.00000000000E+00 -0.23254776733E+02  0.23254776733E+02  0.00000000000E+00 0.  1.
         23    2    1    2    0    0 -0.12841878415E+02 -0.70345870552E+02  0.28753243920E+03  0.31029111022E+03  0.92153210174E+02 0.  0.
         23    2    1    2    0    0 -0.34410656148E+02  0.17840892189E+01  0.48315117820E+03  0.49232383975E+03  0.88093279905E+02 0.  0.
        -11    1    3    3    0    0 -0.32719377417E+02  0.20673421967E+01  0.40548518090E+02  0.52144164406E+02  0.00000000000E+00 0.  1.
         11    1    3    3    0    0  0.19877499002E+02 -0.72413212748E+02  0.24698392111E+03  0.25814694581E+03  0.00000000000E+00 0. -1.
        -13    1    4    4    0    0 -0.63725943762E+02 -0.62844492158E+01  0.34035446270E+03  0.34632593101E+03  0.00000000000E+00 0.  1.
         13    1    4    4    0    0  0.29315287613E+02  0.80685384347E+01  0.14279671549E+03  0.14599790874E+03  0.00000000000E+00 0. -1.
          1    1    1    2  501    0  0.47252534564E+02  0.68561781333E+02  0.23051493765E+03  0.24509315854E+03  0.00000000000E+00 0. -1.
<scales pt_clust_5="13000.00000" pt_clust_6="13000.00000" pt_clust_7="13000.00000" pt_clust_8="13000.00000" pt_clust_9="13000.00000"></scales>
<clustering>
<clus scale="   88.093">  7  8 -1 -1</clus>
<clus scale="   83.268">  7  9 -1 -1</clus>
<clus scale="   92.153">  5  6 -1 -1</clus>
<clus scale="  116.643">  1  5  2 -1</clus>
<clus scale="  185.646">  2  5  1 -1</clus>
</clustering>
</event>
<event>
 9    1  0.6399313E-006  0.2629315E+03  0.7546771E-02  0.1118191E+00
          3   -1    0    0  502    0 -0.00000000000E+00  0.00000000000E+00  0.79417156239E+02  0.79417156239E+02  0.00000000000E+00 0. -1.
         21   -1    0    0  501  502  0.00000000000E+00 -0.00000000000E+00 -0.87293081916E+03  0.87293081916E+03  0.00000000000E+00 0. -1.
         23    2    1    2    0    0 -0.16284077172E+03 -0.33973631187E+02 -0.10893237713E+03  0.21901006888E+03  0.91803174959E+02 0.  0.
         23    2    1    2    0    0  0.91387417937E+01 -0.66310964329E+01 -0.15242275992E+03  0.17794097228E+03  0.91119722522E+02 0.  0.
        -11    1    4    4    0    0 -0.94996519229E+01 -0.45720549077E+02 -0.61384804631E+02  0.77127856408E+02  0.00000000000E+00 0. -1.
         11    1    4    4    0    0  0.18638393717E+02  0.39089452644E+02 -0.91037955293E+02  0.10081311587E+03  0.00000000000E+00 0.  1.
        -13    1    3    3    0    0 -0.15193457731E+03 -0.11642878773E+02 -0.11782016296E+03  0.19261688194E+03  0.00000000000E+00 0.  1.
         13    1    3    3    0    0 -0.10906194410E+02 -0.22330752414E+02  0.88877858275E+01  0.26393186939E+02  0.00000000000E+00 0. -1.
          3    1    1    2  501    0  0.15370202993E+03  0.40604727620E+02 -0.53215852587E+03  0.55539693424E+03  0.00000000000E+00 0. -1.
<scales pt_clust_5="13000.00000" pt_clust_6="13000.00000" pt_clust_7="13000.00000" pt_clust_8="13000.00000" pt_clust_9="13000.00000"></scales>
<clustering>
<clus scale="   91.120">  5  6 -1 -1</clus>
<clus scale="   91.803">  7  8 -1 -1</clus>
<clus scale="  158.975">  5  9 -1 -1</clus>
<clus scale="  189.998">  1  7  2 -1</clus>
<clus scale="  262.931">  2  5  1 -1</clus>
</clustering>
</event>
<event>
 9    1  0.6399313E-006  0.2528124E+03  0.7546771E-02  0.1148120E+00
          1   -1    0    0  502    0 -0.00000000000E+00  0.00000000000E+00  0.36968981839E+03  0.36968981839E+03  0.00000000000E+00 0. -1.
         21   -1    0    0  501  502  0.00000000000E+00 -0.00000000000E+00 -0.98185527340E+02  0.98185527340E+02  0.00000000000E+00 0. -1.
         23    2    1    2    0    0 -0.27107410461E+02  0.16503900706E+02  0.87908320013E+01  0.10327631941E+03  0.97885284819E+02 0.  0.
         23    2    1    2    0    0  0.69268314816E+02  0.27676297709E+02  0.27668375070E+03  0.30195239163E+03  0.95169701147E+02 0.  0.
        -11    1    3    3    0    0 -0.49486536148E+02  0.42351782675E+02 -0.71998941636E+01  0.65531894766E+02  0.00000000000E+00 0.  1.
         11    1    3    3    0    0  0.22379125688E+02 -0.25847881968E+02  0.15990726165E+02  0.37744424649E+02  0.00000000000E+00 0. -1.
        -13    1    4    4    0    0  0.56837099781E+02  0.59449657374E+02  0.22897810561E+03  0.24330164512E+03  0.00000000000E+00 0. -1.
         13    1    4    4    0    0  0.12431215036E+02 -0.31773359665E+02  0.47705645095E+02  0.58650746505E+02  0.00000000000E+00 0.  1.
          1    1    1    2  501    0 -0.42160904355E+02 -0.44180198415E+02 -0.13970291656E+02  0.62646634682E+02  0.00000000000E+00 0. -1.
<scales pt_clust_5="13000.00000" pt_clust_6="13000.00000" pt_clust_7="13000.00000" pt_clust_8="13000.00000" pt_clust_9="13000.00000"></scales>
<clustering>
<clus scale="   95.170">  7  8 -1 -1</clus>
<clus scale="   61.069">  7  9 -1 -1</clus>
<clus scale="   97.885">  5  6 -1 -1</clus>
<clus scale="  102.902">  1  5  2 -1</clus>
<clus scale="  252.812">  2  5  1 -1</clus>
</clustering>
</event>
<event>
 9    1  0.6399313E-006  0.1283918E+03  0.7546771E-02  0.1237747E+00
         21   -1    0    0  501  502  0.00000000000E+00  0.00000000000E+00  0.21818416727E+03  0.21818416727E+03  0.00000000000E+00 0. -1.
          1   -1    0    0  502    0 -0.00000000000E+00 -0.00000000000E+00 -0.65519229375E+02  0.65519229375E+02  0.00000000000E+00 0. -1.
         23    2    1    2    0    0 -0.28051590300E+02 -0.56007494988E+02  0.86177190388E+02  0.13911753924E+03  0.89462005161E+02 0.  0.
         23    2    1    2    0    0  0.16309800683E+02  0.21909693011E+02  0.48771789910E+02  0.10440644879E+03  0.88181487922E+02 0.  0.
        -13    1    3    3    0    0  0.29465307556E+02 -0.27581789390E+02  0.53791079205E+02  0.67249086666E+02  0.00000000000E+00 0.  1.
         13    1    3    3    0    0 -0.57516897856E+02 -0.28425705598E+02  0.32386111183E+02  0.71868452573E+02  0.00000000000E+00 0. -1.
        -13    1    4    4    0    0  0.28723079240E+02  0.52093817765E+02  0.28259884892E+02  0.65858957055E+02  0.00000000000E+00 0.  1.
         13    1    4    4    0    0 -0.12413278557E+02 -0.30184124754E+02  0.20511905018E+02  0.38547491736E+02  0.00000000000E+00 0. -1.
          1    1    1    2  501    0  0.11741789617E+02  0.34097801977E+02  0.17715957597E+02  0.40179408615E+02  0.00000000000E+00 0. -1.
<scales pt_clust_5="13000.00000" pt_clust_6="13000.00000" pt_clust_7="13000.00000" pt_clust_8="13000.00000" pt_clust_9="13000.00000"></scales>
<clustering>
<clus scale="   88.181">  7  8 -1 -1</clus>
<clus scale="   36.063">  7  9 -1 -1</clus>
<clus scale="   89.462">  5  6 -1 -1</clus>
<clus scale="  109.212">  2  5  1 -1</clus>
<clus scale="  128.392">  1  5  2 -1</clus>
</clustering>
</event>
<event>
 9    1  0.6399313E-006  0.1874470E+03  0.7546771E-02  0.1186264E+00
         21   -1    0    0  501  502  0.00000000000E+00  0.00000000000E+00  0.40738920546E+03  0.40738920546E+03  0.00000000000E+00 0.  1.
          1   -1    0    0  502    0 -0.00000000000E+00 -0.00000000000E+00 -0.53885740283E+02  0.53885740283E+02  0.00000000000E+00 0. -1.
         23    2    1    2    0    0 -0.41831848528E+02 -0.32428223776E+02  0.92602894227E+02  0.14001884627E+03  0.90711013899E+02 0.  0.
         23    2    1    2    0    0  0.72006435651E+02  0.64191076911E+02  0.14196484334E+03  0.19450795610E+03  0.91509054800E+02 0.  0.
        -11    1    4    4    0    0  0.46792241746E+02  0.82327705177E+02  0.13084665689E+03  0.16151845885E+03  0.00000000000E+00 0.  1.
         11    1    4    4    0    0  0.25214193905E+02 -0.18136628266E+02  0.11118186447E+02  0.32989497253E+02  0.00000000000E+00 0. -1.
        -13    1    3    3    0    0  0.14871658061E+02 -0.42867938526E+02  0.27508751461E+02  0.53061829726E+02  0.00000000000E+00 0. -1.
         13    1    3    3    0    0 -0.56703506588E+02  0.10439714750E+02  0.65094142766E+02  0.86957016542E+02  0.00000000000E+00 0.  1.
          1    1    1    2  501    0 -0.30174587124E+02 -0.31762853135E+02  0.11893572761E+03  0.12674814337E+03  0.00000000000E+00 0. -1.
<scales pt_clust_5="13000.00000" pt_clust_6="13000.00000" pt_clust_7="13000.00000" pt_clust_8="13000.00000" pt_clust_9="13000.00000"></scales>
<clustering>
<clus scale="   90.711">  7  8 -1 -1</clus>
<clus scale="   91.509">  5  6 -1 -1</clus>
<clus scale="   43.811">  5  9 -1 -1</clus>
<clus scale="  105.024">  2  7  1 -1</clus>
<clus scale="  187.447">  1  5  2 -1</clus>
</clustering>
</event>
<event>
 9    1  0.6399313E-006  0.4813368E+03  0.7546771E-02  0.1060255E+00
         21   -1    0    0  501  502  0.00000000000E+00  0.00000000000E+00  0.15247038949E+03  0.15247038949E+03  0.00000000000E+00 0. -1.
          2   -1    0    0  502    0 -0.00000000000E+00 -0.00000000000E+00 -0.65049862410E+03  0.65049862410E+03  0.00000000000E+00 0. -1.
         23    2    1    2    0    0 -0.22416953159E+02 -0.10871388961E+03 -0.15832984752E+03  0.21383397283E+03  0.91298399416E+02 0.  0.
         23    2    1    2    0    0 -0.47649298844E+02  0.15555213107E+03 -0.42784619716E+03  0.46717956958E+03  0.93474384968E+02 0.  0.
        -11    1    4    4    0    0 -0.28045779641E+02  0.61850581565E+01 -0.13312883785E+03  0.13619143940E+03  0.00000000000E+00 0.  1.
         11    1    4    4    0    0 -0.19603519203E+02  0.14936707291E+03 -0.29471735931E+03  0.33098813017E+03  0.00000000000E+00 0. -1.
        -13    1    3    3    0    0 -0.25009311138E+02 -0.25457067482E+02 -0.86766940170E+00  0.35697069607E+02  0.00000000000E+00 0.  1.
         13    1    3    3    0    0  0.25923579787E+01 -0.83256822131E+02 -0.15746217812E+03  0.17813690322E+03  0.00000000000E+00 0. -1.
          2    1    1    2  501    0  0.70066252003E+02 -0.46838241457E+02  0.88147810064E+02  0.12195547118E+03  0.00000000000E+00 0. -1.
<scales pt_clust_5="13000.00000" pt_clust_6="13000.00000" pt_clust_7="13000.00000" pt_clust_8="13000.00000" pt_clust_9="13000.00000"></scales>
<clustering>
<clus scale="   91.298">  7  8 -1 -1</clus>
<clus scale="   93.474">  5  6 -1 -1</clus>
<clus scale="   84.280">  5  9 -1 -1</clus>
<clus scale="  143.724">  2  7  1 -1</clus>
<clus scale="  481.337">  1  5  2 -1</clus>
</clustering>
</event>
<event>
 9    1  0.6399313E-006  0.1983036E+03  0.7546771E-02  0.1177654E+00
         21   -1    0    0  501  502  0.00000000000E+00  0.00000000000E+00  0.11528372744E+03  0.11528372744E+03  0.00000000000E+00 0. -1.
          2   -1    0    0  502    0 -0.00000000000E+00 -0.00000000000E+00 -0.26123601372E+03  0.26123601372E+03  0.00000000000E+00 0. -1.
         23    2    1    2    0    0  0.81219011819E+01 -0.50100851105E+02 -0.14203957005E+03  0.17817755416E+03  0.94846933463E+02 0.  0.
         23    2    1    2    0    0  0.51930421966E+02  0.38997841520E+02  0.45341344777E+02  0.11988505945E+03  0.89994386294E+02 0.  0.
        -11    1    4    4    0    0  0.19701646553E+02 -0.18629607257E+02 -0.14523215855E+02  0.30759404127E+02  0.00000000000E+00 0.  1.
         11    1    4    4    0    0  0.32228775413E+02  0.57627448778E+02  0.59864560632E+02  0.89125655324E+02  0.00000000000E+00 0. -1.
        -13    1    3    3    0    0 -0.19538057003E+02 -0.32899851965E+02 -0.14044736154E+03  0.14556647037E+03  0.00000000000E+00 0. -1.
         13    1    3    3    0    0  0.27659958185E+02 -0.17200999141E+02 -0.15922085031E+01  0.32611083793E+02  0.00000000000E+00 0.  1.
          2    1    1    2  501    0 -0.60052323148E+02  0.11103009585E+02 -0.49254061013E+02  0.78457127551E+02  0.00000000000E+00 0. -1.
<scales pt_clust_5="13000.00000" pt_clust_6="13000.00000" pt_clust_7="13000.00000" pt_clust_8="13000.00000" pt_clust_9="13000.00000"></scales>
<clustering>
<clus scale="   89.994">  5  6 -1 -1</clus>
<clus scale="   61.070">  5  9 -1 -1</clus>
<clus scale="   94.847">  7  8 -1 -1</clus>
<clus scale="  107.573">  2  7  1 -1</clus>
<clus scale="  198.304">  1  5  2 -1</clus>
</clustering>
</event>
<event>
 9    1  0.6399313E-006  0.1863420E+03  0.7546771E-02  0.1193233E+00
         21   -1    0    0  501  502  0.00000000000E+00  0.00000000000E+00  0.19299443308E+03  0.19299443308E+03  0.00000000000E+00 0.  1.
         -1   -1    0    0    0  501 -0.00000000000E+00 -0.00000000000E+00 -0.19160970233E+03  0.19160970233E+03  0.00000000000E+00 0.  1.
         23    2    1    2    0    0  0.12033501994E+02 -0.71555371080E+01 -0.12823472737E+03  0.15761393622E+03  0.90564897749E+02 0.  0.
         23    2    1    2    0    0  0.21623520333E+02  0.62173194726E+02  0.11212401517E+03  0.16016334587E+03  0.93527641937E+02 0.  0.
        -11    1    3    3    0    0 -0.39718372600E+01 -0.47052467009E+02 -0.80900420345E+02  0.93672771683E+02  0.00000000000E+00 0. -1.
         11    1    3    3    0    0  0.16005339254E+02  0.39896929901E+02 -0.47334307027E+02  0.63941164534E+02  0.00000000000E+00 0.  1.
        -11    1    4    4    0    0  0.54317739483E+02  0.14189499437E+02  0.59435903211E+02  0.81758090165E+02  0.00000000000E+00 0.  1.
         11    1    4    4    0    0 -0.32694219150E+02  0.47983695289E+02  0.52688111961E+02  0.78405255700E+02  0.00000000000E+00 0. -1.
         -1    1    1    2    0  502 -0.33657022327E+02 -0.55017657618E+02  0.17495442957E+02  0.66826853330E+02  0.00000000000E+00 0.  1.
<scales pt_clust_5="13000.00000" pt_clust_6="13000.00000" pt_clust_7="13000.00000" pt_clust_8="13000.00000" pt_clust_9="13000.00000"></scales>
<clustering>
<clus scale="   90.565">  5  6 -1 -1</clus>
<clus scale="   91.641">  2  5  1 -1</clus>
<clus scale="   93.528">  7  8 -1 -1</clus>
<clus scale="   64.796">  7  9 -1 -1</clus>
<clus scale="  186.342">  1  5  2 -1</clus>
</clustering>
</event>
<event>
 9    1  0.6399313E-006  0.2875093E+03  0.7546771E-02  0.1131891E+00
         21   -1    0    0  501  502  0.00000000000E+00  0.00000000000E+00  0.17302632941E+03  0.17302632941E+03  0.00000000000E+00 0. -1.
          2   -1    0    0  502    0 -0.00000000000E+00 -0.00000000000E+00 -0.27402692936E+03  0.27402692936E+03  0.00000000000E+00 0. -1.
         23    2    1    2    0    0  0.39490018154E+02  0.23133627533E+02 -0.12055580577E+03  0.15887967308E+03  0.92813910354E+02 0.  0.
         23    2    1    2    0    0  0.45329092897E+02  0.44804916117E+02 -0.83132039799E+02  0.13865904551E+03  0.90847056584E+02 0.  0.
        -11    1    3    3    0    0  0.19645234178E+02  0.44732359658E+02 -0.11997666569E+03  0.12954273248E+03  0.00000000000E+00 0. -1.
         11    1    3    3    0    0  0.19844783976E+02 -0.21598732126E+02 -0.57914007615E+00  0.29336940599E+02  0.00000000000E+00 0.  1.
        -11    1    4    4    0    0 -0.10693832121E+02  0.48732719824E+02 -0.18936426729E+02  0.53365009923E+02  0.00000000000E+00 0. -1.
         11    1    4    4    0    0  0.56022925017E+02 -0.39278037066E+01 -0.64195613070E+02  0.85294035588E+02  0.00000000000E+00 0.  1.
          2    1    1    2  501    0 -0.84819111050E+02 -0.67938543650E+02  0.10268724562E+03  0.14951454018E+03  0.00000000000E+00 0. -1.
<scales pt_clust_5="13000.00000" pt_clust_6="13000.00000" pt_clust_7="13000.00000" pt_clust_8="13000.00000" pt_clust_9="13000.00000"></scales>
<clustering>
<clus scale="   90.847">  7  8 -1 -1</clus>
<clus scale="   92.814">  5  6 -1 -1</clus>
<clus scale="  103.485">  2  5  1 -1</clus>
<clus scale="  100.786">  7  9 -1 -1</clus>
<clus scale="  287.509">  1  5  2 -1</clus>
</clustering>
</event>
<event>
 9    1  0.6399313E-006  0.3405547E+03  0.7546771E-02  0.1108632E+00
          2   -1    0    0  502    0 -0.00000000000E+00  0.00000000000E+00  0.33311986491E+03  0.33311986491E+03  0.00000000000E+00 0. -1.
         21   -1    0    0  501  502  0.00000000000E+00 -0.00000000000E+00 -0.15360247930E+03  0.15360247930E+03  0.00000000000E+00 0.  1.
         23    2    1    2    0    0 -0.26706775531E+02 -0.54234590120E+02  0.53929345219E+02  0.12374875247E+03  0.93545373143E+02 0.  0.
         23    2    1    2    0    0  0.19260113947E+02 -0.51110953717E+02  0.20429301173E+03  0.23126326987E+03  0.93615083040E+02 0.  0.
        -13    1    3    3    0    0  0.11034269887E+02 -0.66656444414E+02  0.49528694604E+02  0.83773076123E+02  0.00000000000E+00 0.  1.
         13    1    3    3    0    0 -0.37741045418E+02  0.12421854294E+02  0.44006506150E+01  0.39975676344E+02  0.00000000000E+00 0. -1.
        -13    1    4    4    0    0 -0.36489154500E+02 -0.14329359909E+02  0.53355608259E+02  0.66208835394E+02  0.00000000000E+00 0.  1.
         13    1    4    4    0    0  0.55749268447E+02 -0.36781593808E+02  0.15093740347E+03  0.16505443448E+03  0.00000000000E+00 0. -1.
          2    1    1    2  501    0  0.74466615833E+01  0.10534554384E+03 -0.78704971332E+02  0.13171032187E+03  0.00000000000E+00 0. -1.
<scales pt_clust_5="13000.00000" pt_clust_6="13000.00000" pt_clust_7="13000.00000" pt_clust_8="13000.00000" pt_clust_9="13000.00000"></scales>
<clustering>
<clus scale="   93.545">  5  6 -1 -1</clus>
<clus scale="   93.615">  7  8 -1 -1</clus>
<clus scale="  105.608">  7  9 -1 -1</clus>
<clus scale="  111.379">  1  5  2 -1</clus>
<clus scale="  340.555">  2  5  1 -1</clus>
</clustering>
</event>
<event>
 9    1  0.6399313E-006  0.1827551E+03  0.7546771E-02  0.1195388E+00
         -1   -1    0    0    0  501 -0.00000000000E+00  0.00000000000E+00  0.16515365983E+03  0.16515365983E+03  0.00000000000E+00 0.  1.
         21   -1    0    0  501  502  0.00000000000E+00 -0.00000000000E+00 -0.14078267744E+03  0.14078267744E+03  0.00000000000E+00 0.  1.
         23    2    1    2    0    0 -0.37392215617E+02  0.74554534734E+01  0.71690028560E+02  0.11715469843E+03  0.84451178762E+02 0.  0.
         23    2    1    2    0    0 -0.33896782964E+02 -0.32745957387E+02 -0.67817111348E+01  0.10296202314E+03  0.91290180104E+02 0.  0.
        -11    1    3    3    0    0 -0.20188643228E+02  0.17726720094E+02  0.87563469234E+02  0.91592461835E+02  0.00000000000E+00 0.  1.
         11    1    3    3    0    0 -0.17203572389E+02 -0.10271266621E+02 -0.15873440674E+02  0.25562236595E+02  0.00000000000E+00 0. -1.
        -13    1    4    4    0    0 -0.50301569645E+02  0.33373255366E+01  0.20944485899E+02  0.54589899616E+02  0.00000000000E+00 0. -1.
         13    1    4    4    0    0  0.16404786681E+02 -0.36083282924E+02 -0.27726197034E+02  0.48372123528E+02  0.00000000000E+00 0.  1.
         -1    1    1    2    0  502  0.71288998580E+02  0.25290503914E+02 -0.40537335032E+02  0.85819615696E+02  0.00000000000E+00 0.  1.
<scales pt_clust_5="13000.00000" pt_clust_6="13000.00000" pt_clust_7="13000.00000" pt_clust_8="13000.00000" pt_clust_9="13000.00000"></scales>
<clustering>
<clus scale="   84.451">  5  6 -1 -1</clus>
<clus scale="   91.290">  7  8 -1 -1</clus>
<clus scale="   75.642">  7  9 -1 -1</clus>
<clus scale="   92.659">  1  5  2 -1</clus>
<clus scale="  182.755">  2  5  1 -1</clus>
</clustering>
</event>
<event>
 9    1  0.6399313E-006  0.1887085E+03  0.7546771E-02  0.1187132E+00
         -1   -1    0    0    0  501 -0.00000000000E+00  0.00000000000E+00  0.20720457894E+03  0.20720457894E+03  0.00000000000E+00 0.  1.
         21   -1    0    0  501  502  0.00000000000E+00 -0.00000000000E+00 -0.13060771132E+03  0.13060771132E+03  0.00000000000E+00 0.  1.
         23    2    1    2    0    0 -0.21655228450E+02 -0.33952666740E+02  0.10649561772E+03  0.14674987594E+03  0.92587671945E+02 0.  0.
         23    2    1    2    0    0 -0.38683075409E+02  0.11262727527E+02  0.28157723789E+02  0.10430932552E+03  0.92001894695E+02 0.  0.
        -11    1    3    3    0    0 -0.49146123957E+02 -0.42601647980E+02  0.96246968672E+02  0.11616247625E+03  0.00000000000E+00 0.  1.
         11    1    3    3    0    0  0.27490895507E+02  0.86489812399E+01  0.10248649052E+02  0.30587399688E+02  0.00000000000E+00 0. -1.
        -11    1    4    4    0    0 -0.48120387242E+02 -0.29646372939E+02  0.26154831553E+02  0.62278040354E+02  0.00000000000E+00 0.  1.
         11    1    4    4    0    0  0.94373118329E+01  0.40909100466E+02  0.20028922355E+01  0.42031285168E+02  0.00000000000E+00 0. -1.
         -1    1    1    2    0  502  0.60338303858E+02  0.22689939213E+02 -0.58056473891E+02  0.86753088790E+02  0.00000000000E+00 0.  1.
<scales pt_clust_5="13000.00000" pt_clust_6="13000.00000" pt_clust_7="13000.00000" pt_clust_8="13000.00000" pt_clust_9="13000.00000"></scales>
<clustering>
<clus scale="   92.002">  7  8 -1 -1</clus>
<clus scale="   64.464">  7  9 -1 -1</clus>
<clus scale="   92.588">  5  6 -1 -1</clus>
<clus scale="  100.966">  1  5  2 -1</clus>
<clus scale="  188.709">  2  5  1 -1</clus>
</clustering>
</event>
<event>
 9    1  0.6399313E-006  0.2879936E+03  0.7546771E-02  0.1098122E+00
         21   -1    0    0  501  502  0.00000000000E+00  0.00000000000E+00  0.47616900477E+02  0.47616900477E+02  0.00000000000E+00 0. -1.
          2   -1    0    0  502    0 -0.00000000000E+00 -0.00000000000E+00 -0.14918940234E+04  0.14918940234E+04  0.00000000000E+00 0. -1.
         23    2    1    2    0    0  0.15893981797E+03 -0.15699432740E+03 -0.57086430724E+03  0.61984236141E+03  0.91702841543E+02 0.  0.
         23    2    1    2    0    0 -0.74172743618E+02  0.10628378903E+02 -0.38875552414E+03  0.40634494327E+03  0.91492059988E+02 0.  0.
        -13    1    3    3    0    0  0.14756192601E+03 -0.11420369435E+03 -0.37280289514E+03  0.41689207768E+03  0.00000000000E+00 0. -1.
         13    1    3    3    0    0  0.11377891961E+02 -0.42790633056E+02 -0.19806141209E+03  0.20295028372E+03  0.00000000000E+00 0.  1.
        -13    1    4    4    0    0  0.36779052906E+00  0.35073884813E+02 -0.17890889010E+03  0.18231484751E+03  0.00000000000E+00 0.  1.
         13    1    4    4    0    0 -0.74540534147E+02 -0.24445505909E+02 -0.20984663404E+03  0.22403009576E+03  0.00000000000E+00 0. -1.
          2    1    1    2  501    0 -0.84767074353E+02  0.14636594850E+03 -0.48465729157E+03  0.51332361922E+03  0.00000000000E+00 0. -1.
<scales pt_clust_5="13000.00000" pt_clust_6="13000.00000" pt_clust_7="13000.00000" pt_clust_8="13000.00000" pt_clust_9="13000.00000"></scales>
<clustering>
<clus scale="   91.492">  7  8 -1 -1</clus>
<clus scale="   91.703">  5  6 -1 -1</clus>
<clus scale="  169.140">  7  9 -1 -1</clus>
<clus scale="  241.492">  2  5  1 -1</clus>
<clus scale="  287.994">  1  5  2 -1</clus>
</clustering>
</event>
<event>
 9    1  0.6399313E-006  0.2398782E+03  0.7546771E-02  0.1146578E+00
         21   -1    0    0  501  502  0.00000000000E+00  0.00000000000E+00  0.59548305802E+03  0.59548305802E+03  0.00000000000E+00 0.  1.
          1   -1    0    0  502    0 -0.00000000000E+00 -0.00000000000E+00 -0.75175217352E+02  0.75175217352E+02  0.00000000000E+00 0. -1.
         23    2    1    2    0    0  0.11583110147E+02 -0.82925455489E+02  0.35752235530E+02  0.12997752228E+03  0.92763863347E+02 0.  0.
         23    2    1    2    0    0  0.56779791873E+02  0.98452739903E+02  0.31049662733E+03  0.35303451495E+03  0.12372682168E+03 0.  0.
        -11    1    3    3    0    0  0.40892553124E+02 -0.34705599701E+02 -0.13244164513E+02  0.55245700694E+02  0.00000000000E+00 0. -1.
         11    1    3    3    0    0 -0.29309442977E+02 -0.48219855788E+02  0.48996400042E+02  0.74731821582E+02  0.00000000000E+00 0.  1.
        -13    1    4    4    0    0  0.95336208349E+02  0.82016846595E+02  0.22300283016E+03  0.25601956567E+03  0.00000000000E+00 0.  1.
         13    1    4    4    0    0 -0.38556416476E+02  0.16435893308E+02  0.87493797165E+02  0.97014949274E+02  0.00000000000E+00 0. -1.
          1    1    1    2  501    0 -0.68362902020E+02 -0.15527284414E+02  0.17405897781E+03  0.18764623815E+03  0.00000000000E+00 0. -1.
<scales pt_clust_5="13000.00000" pt_clust_6="13000.00000" pt_clust_7="13000.00000" pt_clust_8="13000.00000" pt_clust_9="13000.00000"></scales>
<clustering>
<clus scale="   92.764">  5  6 -1 -1</clus>
<clus scale="  123.727">  7  8 -1 -1</clus>
<clus scale="   70.104">  7  9 -1 -1</clus>
<clus scale="  124.964">  2  5  1 -1</clus>
<clus scale="  239.878">  1  5  2 -1</clus>
</clustering>
</event>
<event>
 9    1  0.6399313E-006  0.2683349E+03  0.7546771E-02  0.1125214E+00
         -1   -1    0    0    0  501 -0.00000000000E+00  0.00000000000E+00  0.10989009757E+03  0.10989009757E+03  0.00000000000E+00 0.  1.
         21   -1    0    0  501  502  0.00000000000E+00 -0.00000000000E+00 -0.40792046194E+03  0.40792046194E+03  0.00000000000E+00 0.  1.
         23    2    1    2    0    0  0.10577255459E+03  0.58076271589E+02 -0.14624275971E+03  0.20951995667E+03  0.89168272670E+02 0.  0.
         23    2    1    2    0    0 -0.15040246939E+03  0.11761683791E+02 -0.59226932176E+02  0.18404629755E+03  0.87212213258E+02 0.  0.
        -11    1    4    4    0    0 -0.61684707741E+02  0.70052982267E+01 -0.71125138564E+02  0.94407958923E+02  0.00000000000E+00 0.  1.
         11    1    4    4    0    0 -0.88717761654E+02  0.47563855641E+01  0.11898206388E+02  0.89638338627E+02  0.00000000000E+00 0. -1.
        -11    1    3    3    0    0  0.66069451783E+02  0.80059126808E+02 -0.91140675054E+02  0.13813493003E+03  0.00000000000E+00 0.  1.
         11    1    3    3    0    0  0.39703102805E+02 -0.21982855219E+02 -0.55102084655E+02  0.71385026645E+02  0.00000000000E+00 0. -1.
         -1    1    1    2    0  502  0.44629914808E+02 -0.69837955380E+02 -0.92560672479E+02  0.12424430529E+03  0.00000000000E+00 0.  1.
<scales pt_clust_5="13000.00000" pt_clust_6="13000.00000" pt_clust_7="13000.00000" pt_clust_8="13000.00000" pt_clust_9="13000.00000"></scales>
<clustering>
<clus scale="   87.212">  5  6 -1 -1</clus>
<clus scale="   82.880">  5  9 -1 -1</clus>
<clus scale="   89.168">  7  8 -1 -1</clus>
<clus scale="  150.039">  1  7  2 -1</clus>
<clus scale="  268.335">  2  5  1 -1</clus>
</clustering>
</event>
<event>
 9    1  0.6399313E-006  0.9036624E+03  0.7546771E-02  0.9982416E-01
         21   -1    0    0  501  502  0.00000000000E+00  0.00000000000E+00  0.36239255494E+03  0.36239255494E+03  0.00000000000E+00 0. -1.
          3   -1    0    0  502    0 -0.00000000000E+00 -0.00000000000E+00 -0.74780178356E+03  0.74780178356E+03  0.00000000000E+00 0. -1.
         23    2    1    2    0    0  0.99097306915E+01 -0.10144123659E+03 -0.45820519562E+02  0.14483109362E+03  0.92130333893E+02 0.  0.
         23    2    1    2    0    0 -0.55513750947E+02  0.48937772387E+03 -0.11285490150E+03  0.51371884459E+03  0.92728039615E+02 0.  0.
        -11    1    3    3    0    0 -0.20240873720E+02 -0.94581051436E+02 -0.56622338659E+02  0.11207746203E+03  0.00000000000E+00 0.  1.
         11    1    3    3    0    0  0.30150604412E+02 -0.68601851559E+01  0.10801819096E+02  0.32753631594E+02  0.00000000000E+00 0. -1.
        -13    1    4    4    0    0 -0.65762596820E+02  0.35675001498E+03 -0.11539288245E+03  0.38067152461E+03  0.00000000000E+00 0. -1.
         13    1    4    4    0    0  0.10248845874E+02  0.13262770889E+03  0.25379809455E+01  0.13304731998E+03  0.00000000000E+00 0.  1.
          3    1    1    2  501    0  0.45604020255E+02 -0.38793648727E+03 -0.22673380756E+03  0.45164440029E+03  0.00000000000E+00 0. -1.
<scales pt_clust_5="13000.00000" pt_clust_6="13000.00000" pt_clust_7="13000.00000" pt_clust_8="13000.00000" pt_clust_9="13000.00000"></scales>
<clustering>
<clus scale="   92.130">  5  6 -1 -1</clus>
<clus scale="   92.728">  7  8 -1 -1</clus>
<clus scale="  137.392">  2  5  1 -1</clus>
<clus scale="  443.584">  7  9 -1 -1</clus>
<clus scale="  903.662">  1  5  2 -1</clus>
</clustering>
</event>
<event>
 9    1  0.6399313E-006  0.2907047E+03  0.7546771E-02  0.1097667E+00
         21   -1    0    0  501  502  0.00000000000E+00  0.00000000000E+00  0.51449315002E+02  0.51449315002E+02  0.00000000000E+00 0.  1.
          2   -1    0    0  502    0 -0.00000000000E+00 -0.00000000000E+00 -0.13972270884E+04  0.13972270884E+04  0.00000000000E+00 0. -1.
         23    2    1    2    0    0 -0.60753453508E+02  0.20721643227E+03 -0.48377421073E+03  0.53897351575E+03  0.99122811677E+02 0.  0.
         23    2    1    2    0    0  0.90080324310E+02 -0.10359057322E+03 -0.35693414663E+03  0.39327912849E+03  0.91766094963E+02 0.  0.
        -11    1    3    3    0    0 -0.38656527472E+02  0.61921433768E+02 -0.26900800384E+03  0.27873625025E+03  0.00000000000E+00 0.  1.
         11    1    3    3    0    0 -0.22096926037E+02  0.14529499850E+03 -0.21476620689E+03  0.26023726550E+03  0.00000000000E+00 0. -1.
        -11    1    4    4    0    0  0.39778983357E+02 -0.11821196562E+01 -0.16729435308E+03  0.17196268635E+03  0.00000000000E+00 0. -1.
         11    1    4    4    0    0  0.50301340953E+02 -0.10240845356E+03 -0.18963979355E+03  0.22131644213E+03  0.00000000000E+00 0.  1.
          2    1    1    2  501    0 -0.29326870802E+02 -0.10362585905E+03 -0.50506941604E+03  0.51642375917E+03  0.00000000000E+00 0. -1.
<scales pt_clust_5="13000.00000" pt_clust_6="13000.00000" pt_clust_7="13000.00000" pt_clust_8="13000.00000" pt_clust_9="13000.00000"></scales>
<clustering>
<clus scale="   91.766">  7  8 -1 -1</clus>
<clus scale="   99.123">  5  6 -1 -1</clus>
<clus scale="  107.696">  7  9 -1 -1</clus>
<clus scale="  237.603">  2  5  1 -1</clus>
<clus scale="  290.705">  1  5  2 -1</clus>
</clustering>
</event>
<event>
 9    1  0.6399313E-006  0.5886873E+03  0.7546771E-02  0.1023790E+00
          2   -1    0    0  502    0 -0.00000000000E+00  0.00000000000E+00  0.35293869069E+03  0.35293869069E+03  0.00000000000E+00 0. -1.
         21   -1    0    0  501  502  0.00000000000E+00 -0.00000000000E+00 -0.56745594665E+03  0.56745594665E+03  0.00000000000E+00 0. -1.
         23    2    1    2    0    0  0.18376517901E+03  0.95471892324E+02  0.10643980018E+03  0.24989767091E+03  0.90746303626E+02 0.  0.
         23    2    1    2    0    0 -0.54073065815E+02 -0.13183424725E+02  0.14714694596E+03  0.17783806524E+03  0.82924390917E+02 0.  0.
        -11    1    3    3    0    0  0.57168986219E+02 -0.13605693796E+02  0.22862416148E+02  0.63056307861E+02  0.00000000000E+00 0.  1.
         11    1    3    3    0    0  0.12659619279E+03  0.10907758612E+03  0.83577384036E+02  0.18684136305E+03  0.00000000000E+00 0. -1.
        -13    1    4    4    0    0 -0.37582065209E+02 -0.32871154596E+02  0.30743500580E+02  0.58635204935E+02  0.00000000000E+00 0.  1.
         13    1    4    4    0    0 -0.16491000606E+02  0.19687729871E+02  0.11640344538E+03  0.11920286031E+03  0.00000000000E+00 0. -1.
          2    1    1    2  501    0 -0.12969211319E+03 -0.82288467599E+02 -0.46810400212E+03  0.49265890119E+03  0.00000000000E+00 0. -1.
<scales pt_clust_5="13000.00000" pt_clust_6="13000.00000" pt_clust_7="13000.00000" pt_clust_8="13000.00000" pt_clust_9="13000.00000"></scales>
<clustering>
<clus scale="   82.924">  7  8 -1 -1</clus>
<clus scale="   90.746">  5  6 -1 -1</clus>
<clus scale="  153.595">  7  9 -1 -1</clus>
<clus scale="  226.096">  1  5  2 -1</clus>
<clus scale="  588.687">  2  5  1 -1</clus>
</clustering>
</event>
<event>
 9    1  0.6399313E-006  0.3900426E+03  0.7546771E-02  0.1076626E+00
         21   -1    0    0  501  502  0.00000000000E+00  0.00000000000E+00  0.12926686124E+03  0.12926686124E+03  0.00000000000E+00 0. -1.
          1   -1    0    0  502    0 -0.00000000000E+00 -0.00000000000E+00 -0.62845385922E+03  0.62845385922E+03  0.00000000000E+00 0. -1.
         23    2    1    2    0    0 -0.64194770886E+02 -0.13031647063E+03 -0.21362152105E+03  0.27431521744E+03  0.92256886659E+02 0.  0.
         23    2    1    2    0    0  0.24444100380E+02 -0.57454039087E+02 -0.26964277327E+03  0.29081419321E+03  0.89259112378E+02 0.  0.
        -13    1    3    3    0    0  0.17524143906E+02 -0.48503539494E+02 -0.98285442774E+02  0.11099422158E+03  0.00000000000E+00 0.  1.
         13    1    3    3    0    0 -0.81718914792E+02 -0.81812931133E+02 -0.11533607828E+03  0.16332099586E+03  0.00000000000E+00 0. -1.
        -13    1    4    4    0    0 -0.47832782337E+01 -0.21632335263E+02 -0.57318217202E+01  0.22884305972E+02  0.00000000000E+00 0.  1.
         13    1    4    4    0    0  0.29227378614E+02 -0.35821703825E+02 -0.26391095155E+03  0.26792988723E+03  0.00000000000E+00 0. -1.
          1    1    1    2  501    0  0.39750670506E+02  0.18777050971E+03 -0.15922703667E+02  0.19259130981E+03  0.00000000000E+00 0. -1.
<scales pt_clust_5="13000.00000" pt_clust_6="13000.00000" pt_clust_7="13000.00000" pt_clust_8="13000.00000" pt_clust_9="13000.00000"></scales>
<clustering>
<clus scale="   89.259">  7  8 -1 -1</clus>
<clus scale="   92.257">  5  6 -1 -1</clus>
<clus scale="  172.089">  2  5  1 -1</clus>
<clus scale="  154.063">  7  9 -1 -1</clus>
<clus scale="  390.043">  1  5  2 -1</clus>
</clustering>
</event>
<event>
 9    1  0.6399313E-006  0.2590658E+03  0.7546771E-02  0.1149406E+00
          3   -1    0    0  502    0 -0.00000000000E+00  0.00000000000E+00  0.48798250391E+03  0.48798250391E+03  0.00000000000E+00 0. -1.
         21   -1    0    0  501  502  0.00000000000E+00 -0.00000000000E+00 -0.68481021392E+02  0.68481021392E+02  0.00000000000E+00 0. -1.
         23    2    1    2    0    0 -0.17453271924E+02  0.19118773314E+02  0.50519298516E+02  0.10561659306E+03  0.89064701274E+02 0.  0.
         23    2    1    2    0    0  0.11970961460E+03  0.65737214928E+01  0.25167390217E+03  0.29312027979E+03  0.90587746119E+02 0.  0.
        -11    1    4    4    0    0 -0.76598218249E+01  0.19356180722E+02  0.51114222257E+02  0.55190563682E+02  0.00000000000E+00 0.  1.
         11    1    4    4    0    0  0.12736943643E+03 -0.12782459229E+02  0.20055967992E+03  0.23792971611E+03  0.00000000000E+00 0. -1.
        -11    1    3    3    0    0  0.36180199363E+02  0.29450562236E+01  0.14942101661E+02  0.39254892487E+02  0.00000000000E+00 0. -1.
         11    1    3    3    0    0 -0.53633471287E+02  0.16173717091E+02  0.35577196854E+02  0.66361700572E+02  0.00000000000E+00 0.  1.
          3    1    1    2  501    0 -0.10225634268E+03 -0.25692494807E+02  0.11730828182E+03  0.15772665245E+03  0.00000000000E+00 0. -1.
<scales pt_clust_5="13000.00000" pt_clust_6="13000.00000" pt_clust_7="13000.00000" pt_clust_8="13000.00000" pt_clust_9="13000.00000"></scales>
<clustering>
<clus scale="   89.065">  7  8 -1 -1</clus>
<clus scale="   90.588">  5  6 -1 -1</clus>
<clus scale="   92.751">  1  7  2 -1</clus>
<clus scale="  109.817">  5  9 -1 -1</clus>
<clus scale="  259.066">  2  5  1 -1</clus>
</clustering>
</event>
<event>
 9    1  0.6399313E-006  0.4965701E+03  0.7546771E-02  0.1033929E+00
         21   -1    0    0  501  502  0.00000000000E+00  0.00000000000E+00  0.26391668639E+03  0.26391668639E+03  0.00000000000E+00 0. -1.
          1   -1    0    0  502    0 -0.00000000000E+00 -0.00000000000E+00 -0.63780788352E+03  0.63780788352E+03  0.00000000000E+00 0. -1.
         23    2    1    2    0    0  0.26315591838E+03 -0.71609652968E+01  0.24482854130E+01  0.27865695273E+03  0.91331190718E+02 0.  0.
         23    2    1    2    0    0 -0.81733071638E+02 -0.25838716459E+02 -0.41592714012E+03  0.43446642167E+03  0.91748304644E+02 0.  0.
        -11    1    3    3    0    0  0.13603619040E+03 -0.23777753613E+01 -0.44364270998E+02  0.14310725857E+03  0.00000000000E+00 0. -1.
         11    1    3    3    0    0  0.12711972798E+03 -0.47831899355E+01  0.46812556411E+02  0.13554969415E+03  0.00000000000E+00 0.  1.
        -13    1    4    4    0    0 -0.10187121467E+03 -0.25001056374E+02 -0.33328404297E+03  0.34940098812E+03  0.00000000000E+00 0. -1.
         13    1    4    4    0    0  0.20138143037E+02 -0.83766008481E+00 -0.82643097148E+02  0.85065433553E+02  0.00000000000E+00 0.  1.
          1    1    1    2  501    0 -0.18142284674E+03  0.32999681756E+02  0.39587657574E+02  0.18860119551E+03  0.00000000000E+00 0. -1.
<scales pt_clust_5="13000.00000" pt_clust_6="13000.00000" pt_clust_7="13000.00000" pt_clust_8="13000.00000" pt_clust_9="13000.00000"></scales>
<clustering>
<clus scale="   91.331">  5  6 -1 -1</clus>
<clus scale="   91.748">  7  8 -1 -1</clus>
<clus scale="  184.400">  7  9 -1 -1</clus>
<clus scale="  278.646">  2  5  1 -1</clus>
<clus scale="  496.570">  1  5  2 -1</clus>
</clustering>
</event>
<event>
 9    1  0.6399313E-006  0.1802091E+03  0.7546771E-02  0.1196176E+00
         21   -1    0    0  501  502  0.00000000000E+00  0.00000000000E+00  0.19718425426E+03  0.19718425426E+03  0.00000000000E+00 0. -1.
          2   -1    0    0  502    0 -0.00000000000E+00 -0.00000000000E+00 -0.10844035925E+03  0.10844035925E+03  0.00000000000E+00 0. -1.
         23    2    1    2    0    0  0.15588799232E+02  0.30056579268E+02 -0.17265822210E+02  0.96547128433E+02  0.88751511386E+02 0.  0.
         23    2    1    2    0    0  0.47823252328E+01 -0.63284197789E+02  0.16353384454E+02  0.11131596223E+03  0.89978052546E+02 0.  0.
        -11    1    3    3    0    0 -0.36148437703E+02  0.22462175559E+02 -0.10357639808E+02  0.43801136761E+02  0.00000000000E+00 0.  1.
         11    1    3    3    0    0  0.51737236935E+02  0.75944037087E+01 -0.69081824021E+01  0.52745991672E+02  0.00000000000E+00 0. -1.
        -13    1    4    4    0    0  0.23835618999E+02  0.14617299186E+02  0.13545803854E+02  0.31069132119E+02  0.00000000000E+00 0.  1.
         13    1    4    4    0    0 -0.19053293766E+02 -0.77901496976E+02  0.28075805997E+01  0.80246830113E+02  0.00000000000E+00 0. -1.
          2    1    1    2  501    0 -0.20371124464E+02  0.33227618522E+02  0.89656332768E+02  0.97761522850E+02  0.00000000000E+00 0. -1.
<scales pt_clust_5="13000.00000" pt_clust_6="13000.00000" pt_clust_7="13000.00000" pt_clust_8="13000.00000" pt_clust_9="13000.00000"></scales>
<clustering>
<clus scale="   88.752">  5  6 -1 -1</clus>
<clus scale="   89.978">  7  8 -1 -1</clus>
<clus scale="   38.975">  7  9 -1 -1</clus>
<clus scale="   94.991">  2  5  1 -1</clus>
<clus scale="  180.209">  1  5  2 -1</clus>
</clustering>
</event>
<event>
 9    1  0.6399313E-006  0.1257125E+03  0.7546771E-02  0.1245480E+00
         -3   -1    0    0    0  501 -0.00000000000E+00  0.00000000000E+00  0.74220429944E+02  0.74220429944E+02  0.00000000000E+00 0.  1.
         21   -1    0    0  501  502  0.00000000000E+00 -0.00000000000E+00 -0.22008000588E+03  0.22008000588E+03  0.00000000000E+00 0.  1.
         23    2    1    2    0    0  0.26171068779E+01  0.42141187324E+02  0.29230046076E+01  0.99518780284E+02  0.90070609834E+02 0.  0.
         23    2    1    2    0    0 -0.17313129804E+02 -0.20965419665E+02 -0.94146631231E+02  0.13437078580E+03  0.91938167364E+02 0.  0.
        -13    1    4    4    0    0  0.36781617978E+02 -0.19764076396E+02 -0.42022843157E+02  0.59240404150E+02  0.00000000000E+00 0.  1.
         13    1    4    4    0    0 -0.54094747782E+02 -0.12013432685E+01 -0.52123788074E+02  0.75130381647E+02  0.00000000000E+00 0. -1.
        -13    1    3    3    0    0 -0.32010552139E+02  0.52990263058E+02  0.95215888533E+01  0.62636284065E+02  0.00000000000E+00 0.  1.
         13    1    3    3    0    0  0.34627659017E+02 -0.10849075734E+02 -0.65985842457E+01  0.36882496219E+02  0.00000000000E+00 0. -1.
         -3    1    1    2    0  502  0.14696022926E+02 -0.21175767659E+02 -0.54635949314E+02  0.60410869744E+02  0.00000000000E+00 0.  1.
<scales pt_clust_5="13000.00000" pt_clust_6="13000.00000" pt_clust_7="13000.00000" pt_clust_8="13000.00000" pt_clust_9="13000.00000"></scales>
<clustering>
<clus scale="   90.071">  7  8 -1 -1</clus>
<clus scale="   91.938">  5  6 -1 -1</clus>
<clus scale="   25.776">  5  9 -1 -1</clus>
<clus scale="   99.476">  1  7  2 -1</clus>
<clus scale="  125.713">  2  5  1 -1</clus>
</clustering>
</event>
<event>
 9    1  0.6399313E-006  0.3834762E+03  0.7546771E-02  0.1099368E+00
          3   -1    0    0  502    0 -0.00000000000E+00  0.00000000000E+00  0.88205979185E+02  0.88205979185E+02  0.00000000000E+00 0. -1.
         21   -1    0    0  501  502  0.00000000000E+00 -0.00000000000E+00 -0.67301297003E+03  0.67301297003E+03  0.00000000000E+00 0.  1.
         23    2    1    2    0    0 -0.12645640156E+02 -0.36101163947E+02 -0.80183714805E+02  0.12742193080E+03  0.91343932887E+02 0.  0.
         23    2    1    2    0    0 -0.61499931148E+02 -0.14663475250E+03 -0.28378285174E+03  0.33772190310E+03  0.90771056629E+02 0.  0.
        -11    1    4    4    0    0 -0.35675363807E+02 -0.15064698284E+03 -0.22210695662E+03  0.27073741005E+03  0.00000000000E+00 0.  1.
         11    1    4    4    0    0 -0.25824567341E+02  0.40122303399E+01 -0.61675895120E+02  0.66984493053E+02  0.00000000000E+00 0. -1.
        -13    1    3    3    0    0 -0.26863740750E+02 -0.55252662192E+02 -0.23242310225E+02  0.65686545281E+02  0.00000000000E+00 0.  1.
         13    1    3    3    0    0  0.14218100594E+02  0.19151498244E+02 -0.56941404580E+02  0.61735385517E+02  0.00000000000E+00 0. -1.
          3    1    1    2  501    0  0.74145571303E+02  0.18273591645E+03 -0.22084042431E+03  0.29607511532E+03  0.00000000000E+00 0. -1.
<scales pt_clust_5="13000.00000" pt_clust_6="13000.00000" pt_clust_7="13000.00000" pt_clust_8="13000.00000" pt_clust_9="13000.00000"></scales>
<clustering>
<clus scale="   90.771">  5  6 -1 -1</clus>
<clus scale="   91.344">  7  8 -1 -1</clus>
<clus scale="   99.030">  1  7  2 -1</clus>
<clus scale="  174.956">  5  9 -1 -1</clus>
<clus scale="  383.476">  2  5  1 -1</clus>
</clustering>
</event>
<event>
 9    1  0.6399313E-006  0.2118708E+03  0.7546771E-02  0.1152451E+00
          1   -1    0    0  502    0 -0.00000000000E+00  0.00000000000E+00  0.11017851981E+03  0.11017851981E+03  0.00000000000E+00 0. -1.
         21   -1    0    0  501  502  0.00000000000E+00 -0.00000000000E+00 -0.31010393603E+03  0.31010393603E+03  0.00000000000E+00 0. -1.
         23    2    1    2    0    0 -0.28457811259E+02  0.12455236591E+03 -0.82583966160E+02  0.17808779827E+03  0.92585169188E+02 0.  0.
         23    2    1    2    0    0 -0.15119494730E+02 -0.11553759500E+03 -0.40887500786E+02  0.15373306110E+03  0.91567086745E+02 0.  0.
        -11    1    3    3    0    0  0.20613834119E+02  0.58642032909E+02 -0.72185818533E+02  0.95260750459E+02  0.00000000000E+00 0.  1.
         11    1    3    3    0    0 -0.49071645378E+02  0.65910332996E+02 -0.10398147626E+02  0.82827047815E+02  0.00000000000E+00 0. -1.
        -11    1    4    4    0    0 -0.39540473439E+02 -0.21756647517E+02  0.69459261034E+01  0.45662310940E+02  0.00000000000E+00 0.  1.
         11    1    4    4    0    0  0.24420978709E+02 -0.93780947480E+02 -0.47833426890E+02  0.10807075016E+03  0.00000000000E+00 0. -1.
          1    1    1    2  501    0  0.43577305989E+02 -0.90147709073E+01 -0.76453949274E+02  0.88461596477E+02  0.00000000000E+00 0. -1.
<scales pt_clust_5="13000.00000" pt_clust_6="13000.00000" pt_clust_7="13000.00000" pt_clust_8="13000.00000" pt_clust_9="13000.00000"></scales>
<clustering>
<clus scale="   91.567">  7  8 -1 -1</clus>
<clus scale="   44.500">  7  9 -1 -1</clus>
<clus scale="   92.585">  5  6 -1 -1</clus>
<clus scale="  157.782">  1  5  2 -1</clus>
<clus scale="  211.871">  2  5  1 -1</clus>
</clustering>
</event>
<event>
 9    1  0.6399313E-006  0.1433777E+03  0.7546771E-02  0.1214421E+00
         21   -1    0    0  501  502  0.00000000000E+00  0.00000000000E+00  0.29149028905E+02  0.29149028905E+02  0.00000000000E+00 0. -1.
         -1   -1    0    0    0  501 -0.00000000000E+00 -0.00000000000E+00 -0.63511907525E+03  0.63511907525E+03  0.00000000000E+00 0.  1.
         23    2    1    2    0    0 -0.59314060947E+02  0.65767328935E+02 -0.25168798064E+03  0.28207318489E+03  0.91514712792E+02 0.  0.
         23    2    1    2    0    0  0.31024664900E+02 -0.47015377978E+02 -0.30277983771E+03  0.32051505964E+03  0.88776673388E+02 0.  0.
        -13    1    4    4    0    0  0.27607963675E+02  0.21426723402E+02 -0.76885462206E+02  0.84455185942E+02  0.00000000000E+00 0. -1.
         13    1    4    4    0    0  0.34167012254E+01 -0.68442101379E+02 -0.22589437550E+03  0.23605987370E+03  0.00000000000E+00 0.  1.
        -13    1    3    3    0    0 -0.81941689345E+02  0.64524306883E+02 -0.21476214286E+03  0.23874799399E+03  0.00000000000E+00 0.  1.
         13    1    3    3    0    0  0.22627628398E+02  0.12430220524E+01 -0.36925837779E+02  0.43325190899E+02  0.00000000000E+00 0. -1.
         -1    1    1    2    0  502  0.28289396047E+02 -0.18751950958E+02 -0.51502227999E+02  0.61679859616E+02  0.00000000000E+00 0.  1.
<scales pt_clust_5="13000.00000" pt_clust_6="13000.00000" pt_clust_7="13000.00000" pt_clust_8="13000.00000" pt_clust_9="13000.00000"></scales>
<clustering>
<clus scale="   88.777">  5  6 -1 -1</clus>
<clus scale="   33.940">  5  9 -1 -1</clus>
<clus scale="   91.515">  7  8 -1 -1</clus>
<clus scale="  127.352">  2  7  1 -1</clus>
<clus scale="  143.378">  1  5  2 -1</clus>
</clustering>
</event>
<event>
 9    1  0.6399313E-006  0.2842422E+03  0.7546771E-02  0.1128032E+00
         -1   -1    0    0    0  501 -0.00000000000E+00  0.00000000000E+00  0.85788811572E+03  0.85788811572E+03  0.00000000000E+00 0.  1.
         21   -1    0    0  501  502  0.00000000000E+00 -0.00000000000E+00 -0.51998248375E+02  0.51998248375E+02  0.00000000000E+00 0.  1.
         23    2    1    2    0    0  0.50590441590E+02 -0.56855680395E+02  0.38026744210E+03  0.39807774137E+03  0.89836515268E+02 0.  0.
         23    2    1    2    0    0 -0.18168491118E+02 -0.88722596319E+02  0.25520401455E+03  0.28534305752E+03  0.89943194647E+02 0.  0.
        -13    1    3    3    0    0  0.34579004380E+02  0.17150102817E+02  0.86718134480E+02  0.94920326686E+02  0.00000000000E+00 0.  1.
         13    1    3    3    0    0  0.16011437210E+02 -0.74005783213E+02  0.29354930762E+03  0.30315741468E+03  0.00000000000E+00 0. -1.
        -13    1    4    4    0    0  0.23217840259E+02  0.15937866967E+01  0.86348016404E+02  0.89429235707E+02  0.00000000000E+00 0. -1.
         13    1    4    4    0    0 -0.41386331378E+02 -0.90316383015E+02  0.16885599815E+03  0.19591382181E+03  0.00000000000E+00 0.  1.
         -1    1    1    2    0  502 -0.32421950472E+02  0.14557827671E+03  0.17041841069E+03  0.22646556521E+03  0.00000000000E+00 0.  1.
<scales pt_clust_5="13000.00000" pt_clust_6="13000.00000" pt_clust_7="13000.00000" pt_clust_8="13000.00000" pt_clust_9="13000.00000"></scales>
<clustering>
<clus scale="   89.837">  5  6 -1 -1</clus>
<clus scale="   89.943">  7  8 -1 -1</clus>
<clus scale="  117.739">  1  5  2 -1</clus>
<clus scale="  122.004">  7  9 -1 -1</clus>
<clus scale="  284.242">  2  5  1 -1</clus>
</clustering>
</event>
<event>
 9    1  0.6399313E-006  0.2955627E+03  0.7546771E-02  0.1122195E+00
         21   -1    0    0  501  502  0.00000000000E+00  0.00000000000E+00  0.38497478742E+03  0.38497478742E+03  0.00000000000E+00 0.  1.
         -1   -1    0    0    0  501 -0.00000000000E+00 -0.00000000000E+00 -0.11433236411E+03  0.11433236411E+03  0.00000000000E+00 0.  1.
         23    2    1    2    0    0 -0.76377374159E+02 -0.95400951038E+01  0.52265950793E+02  0.13182166988E+03  0.93384722193E+02 0.  0.
         23    2    1    2    0    0 -0.21176742888E+02 -0.56465427974E+02 -0.69901800315E+01  0.11319497277E+03  0.95537637856E+02 0.  0.
        -13    1    4    4    0    0 -0.58068591349E+02 -0.40341672114E+02 -0.14657913754E+02  0.72209876373E+02  0.00000000000E+00 0. -1.
         13    1    4    4    0    0  0.36891848461E+02 -0.16123755860E+02  0.76677337222E+01  0.40985096393E+02  0.00000000000E+00 0.  1.
        -13    1    3    3    0    0 -0.95642312154E+02 -0.16374595556E+02  0.29932435959E+02  0.10154570388E+03  0.00000000000E+00 0.  1.
         13    1    3    3    0    0  0.19264937994E+02  0.68345004518E+01  0.22333514834E+02  0.30275965999E+02  0.00000000000E+00 0. -1.
         -1    1    1    2    0  502  0.97554117047E+02  0.66005523078E+02  0.22536665255E+03  0.25429050889E+03  0.00000000000E+00 0.  1.
<scales pt_clust_5="13000.00000" pt_clust_6="13000.00000" pt_clust_7="13000.00000" pt_clust_8="13000.00000" pt_clust_9="13000.00000"></scales>
<clustering>
<clus scale="   93.385">  7  8 -1 -1</clus>
<clus scale="   95.538">  5  6 -1 -1</clus>
<clus scale="  117.786">  5  9 -1 -1</clus>
<clus scale="  121.017">  2  7  1 -1</clus>
<clus scale="  295.563">  1  5  2 -1</clus>
</clustering>
</event>
<event>
 9    1  0.6399313E-006  0.2535329E+03  0.7546771E-02  0.1133778E+00
         21   -1    0    0  501  502  0.00000000000E+00  0.00000000000E+00  0.36225596396E+03  0.36225596396E+03  0.00000000000E+00 0. -1.
          2   -1    0    0  502    0 -0.00000000000E+00 -0.00000000000E+00 -0.57245465826E+03  0.57245465826E+03  0.00000000000E+00 0. -1.
         23    2    1    2    0    0 -0.11336956321E+02  0.11193677586E+03 -0.51699931321E+03  0.53670869598E+03  0.90053129433E+02 0.  0.
         23    2    1    2    0    0 -0.47396753155E+02 -0.26601224820E+02  0.43330391786E+02  0.11489705965E+03  0.91486250842E+02 0.  0.
        -11    1    4    4    0    0  0.85741631761E+01 -0.46070862439E+02  0.23364107350E+02  0.52363366511E+02  0.00000000000E+00 0.  1.
         11    1    4    4    0    0 -0.55970916331E+02  0.19469637619E+02  0.19966284436E+02  0.62533693143E+02  0.00000000000E+00 0. -1.
        -13    1    3    3    0    0 -0.44373992959E+02  0.26528168864E+02 -0.15964574143E+03  0.16780809799E+03  0.00000000000E+00 0.  1.
         13    1    3    3    0    0  0.33037036638E+02  0.85408607001E+02 -0.35735357178E+03  0.36890059799E+03  0.00000000000E+00 0. -1.
          2    1    1    2  501    0  0.58733709475E+02 -0.85335551045E+02  0.26347022712E+03  0.28310486658E+03  0.00000000000E+00 0. -1.
<scales pt_clust_5="13000.00000" pt_clust_6="13000.00000" pt_clust_7="13000.00000" pt_clust_8="13000.00000" pt_clust_9="13000.00000"></scales>
<clustering>
<clus scale="   90.053">  7  8 -1 -1</clus>
<clus scale="   91.486">  5  6 -1 -1</clus>
<clus scale="  103.594">  5  9 -1 -1</clus>
<clus scale="  144.111">  2  7  1 -1</clus>
<clus scale="  253.533">  1  5  2 -1</clus>
</clustering>
</event>
<event>
 9    1  0.6399313E-006  0.1332793E+04  0.7546771E-02  0.9472332E-01
          2   -1    0    0  502    0 -0.00000000000E+00  0.00000000000E+00  0.14963518933E+04  0.14963518933E+04  0.00000000000E+00 0. -1.
         21   -1    0    0  501  502  0.00000000000E+00 -0.00000000000E+00 -0.42037473004E+03  0.42037473004E+03  0.00000000000E+00 0. -1.
         23    2    1    2    0    0  0.52121932608E+02  0.21121505168E+03  0.64505392339E+02  0.24358235602E+03  0.88560287984E+02 0.  0.
         23    2    1    2    0    0 -0.18675465160E+03  0.26873998822E+03  0.11130182895E+04  0.11644257746E+04  0.99895899590E+02 0.  0.
        -11    1    3    3    0    0  0.33737052230E+02  0.91642921916E+02 -0.15024973485E+02  0.98804674276E+02  0.00000000000E+00 0.  1.
         11    1    3    3    0    0  0.18384880378E+02  0.11957212976E+03  0.79530365823E+02  0.14477768174E+03  0.00000000000E+00 0. -1.
        -13    1    4    4    0    0 -0.23331606661E+02 -0.44980650798E+01  0.80904275638E+02  0.84321398680E+02  0.00000000000E+00 0.  1.
         13    1    4    4    0    0 -0.16342304494E+03  0.27323805330E+03  0.10321140138E+04  0.10801043759E+04  0.00000000000E+00 0. -1.
          2    1    1    2  501    0  0.13463271899E+03 -0.47995503990E+03 -0.10154651858E+03  0.50871849267E+03  0.00000000000E+00 0. -1.
<scales pt_clust_5="13000.00000" pt_clust_6="13000.00000" pt_clust_7="13000.00000" pt_clust_8="13000.00000" pt_clust_9="13000.00000"></scales>
<clustering>
<clus scale="   88.560">  5  6 -1 -1</clus>
<clus scale="   99.896">  7  8 -1 -1</clus>
<clus scale="  234.886">  1  5  2 -1</clus>
<clus scale="  470.053">  7  9 -1 -1</clus>
<clus scale=" 1332.793">  2  5  1 -1</clus>
</clustering>
</event>
<event>
 9    1  0.6399313E-006  0.1782536E+03  0.7546771E-02  0.1191396E+00
         21   -1    0    0  501  502  0.00000000000E+00  0.00000000000E+00  0.26662418824E+03  0.26662418824E+03  0.00000000000E+00 0. -1.
          3   -1    0    0  502    0 -0.00000000000E+00 -0.00000000000E+00 -0.79074514239E+02  0.79074514239E+02  0.00000000000E+00 0. -1.
         23    2    1    2    0    0 -0.25048958627E+02  0.53603257460E+02  0.96265790156E+02  0.14543117636E+03  0.91555257431E+02 0.  0.
         23    2    1    2    0    0  0.29763308803E+02 -0.81825693259E+02  0.39760978667E+02  0.14133247087E+03  0.10398381253E+03 0.  0.
        -11    1    4    4    0    0  0.54597144208E+02 -0.67808098238E+01  0.58787634588E+01  0.55329805687E+02  0.00000000000E+00 0.  1.
         11    1    4    4    0    0 -0.24833835405E+02 -0.75044883435E+02  0.33882215208E+02  0.86002665180E+02  0.00000000000E+00 0. -1.
        -13    1    3    3    0    0  0.18138182626E+02  0.54626749471E+02  0.81503449863E+02  0.99779195058E+02  0.00000000000E+00 0.  1.
         13    1    3    3    0    0 -0.43187141253E+02 -0.10234920106E+01  0.14762340293E+02  0.45651981298E+02  0.00000000000E+00 0. -1.
          3    1    1    2  501    0 -0.47143501763E+01  0.28222435798E+02  0.51522905174E+02  0.58935055252E+02  0.00000000000E+00 0. -1.
<scales pt_clust_5="13000.00000" pt_clust_6="13000.00000" pt_clust_7="13000.00000" pt_clust_8="13000.00000" pt_clust_9="13000.00000"></scales>
<clustering>
<clus scale="   91.555">  7  8 -1 -1</clus>
<clus scale="  103.984">  5  6 -1 -1</clus>
<clus scale="   28.613">  5  9 -1 -1</clus>
<clus scale="  109.010">  2  7  1 -1</clus>
<clus scale="  178.254">  1  5  2 -1</clus>
</clustering>
</event>
<event>
 9    1  0.6399313E-006  0.2222027E+03  0.7546771E-02  0.1152620E+00
          2   -1    0    0  502    0 -0.00000000000E+00  0.00000000000E+00  0.15563306714E+03  0.15563306714E+03  0.00000000000E+00 0. -1.
         21   -1    0    0  501  502  0.00000000000E+00 -0.00000000000E+00 -0.47397421540E+03  0.47397421540E+03  0.00000000000E+00 0. -1.
         23    2    1    2    0    0 -0.66038332654E+02  0.76279470522E+02 -0.37610509327E+03  0.40001915001E+03  0.91545945739E+02 0.  0.
         23    2    1    2    0    0  0.73211780830E+01  0.88959542615E+01 -0.27406111900E+02  0.95586282469E+02  0.90845499481E+02 0.  0.
        -11    1    3    3    0    0 -0.97266958392E+01  0.68139386202E+02 -0.27998787529E+03  0.28832411427E+03  0.00000000000E+00 0. -1.
         11    1    3    3    0    0 -0.56311636815E+02  0.81400843198E+01 -0.96117217989E+02  0.11169503573E+03  0.00000000000E+00 0.  1.
        -13    1    4    4    0    0 -0.14643786131E+02  0.36184236568E+02 -0.42266636706E+02  0.57534407329E+02  0.00000000000E+00 0. -1.
         13    1    4    4    0    0  0.21964964214E+02 -0.27288282307E+02  0.14860524806E+02  0.38051875140E+02  0.00000000000E+00 0.  1.
          2    1    1    2  501    0  0.58717154571E+02 -0.85175424784E+02  0.85170056916E+02  0.13400185007E+03  0.00000000000E+00 0. -1.
<scales pt_clust_5="13000.00000" pt_clust_6="13000.00000" pt_clust_7="13000.00000" pt_clust_8="13000.00000" pt_clust_9="13000.00000"></scales>
<clustering>
<clus scale="   90.845">  7  8 -1 -1</clus>
<clus scale="   91.546">  5  6 -1 -1</clus>
<clus scale="  103.453">  7  9 -1 -1</clus>
<clus scale="  136.236">  1  5  2 -1</clus>
<clus scale="  222.203">  2  5  1 -1</clus>
</clustering>
</event>
<event>
 9    1  0.6399313E-006  0.2254465E+03  0.7546771E-02  0.1166604E+00
         21   -1    0    0  501  502  0.00000000000E+00  0.00000000000E+00  0.30329768335E+03  0.30329768335E+03  0.00000000000E+00 0. -1.
          3   -1    0    0  502    0 -0.00000000000E+00 -0.00000000000E+00 -0.12250507852E+03  0.12250507852E+03  0.00000000000E+00 0. -1.
         23    2    1    2    0    0  0.23142647376E+02  0.25503503646E+01 -0.47051403261E+02  0.10527349891E+03  0.91250143065E+02 0.  0.
         23    2    1    2    0    0  0.41319754806E+02 -0.33782750528E+02  0.25053758154E+02  0.10546008900E+03  0.87438796901E+02 0.  0.
        -11    1    4    4    0    0  0.37646088983E+02 -0.12936408216E+02  0.55548356164E+02  0.68338850925E+02  0.00000000000E+00 0.  1.
         11    1    4    4    0    0  0.36736658229E+01 -0.20846342312E+02 -0.30494598010E+02  0.37121238074E+02  0.00000000000E+00 0. -1.
        -13    1    3    3    0    0 -0.22783898893E+02 -0.28712436622E+02 -0.84297080876E+01  0.37610770319E+02  0.00000000000E+00 0.  1.
         13    1    3    3    0    0  0.45926546269E+02  0.31262786986E+02 -0.38621695173E+02  0.67662728591E+02  0.00000000000E+00 0. -1.
          3    1    1    2  501    0 -0.64462402183E+02  0.31232400164E+02  0.20279024994E+03  0.21506917395E+03  0.00000000000E+00 0. -1.
<scales pt_clust_5="13000.00000" pt_clust_6="13000.00000" pt_clust_7="13000.00000" pt_clust_8="13000.00000" pt_clust_9="13000.00000"></scales>
<clustering>
<clus scale="   87.439">  5  6 -1 -1</clus>
<clus scale="   71.630">  5  9 -1 -1</clus>
<clus scale="   91.250">  7  8 -1 -1</clus>
<clus scale="   94.174">  2  7  1 -1</clus>
<clus scale="  225.446">  1  5  2 -1</clus>
</clustering>
</event>
<event>
 9    1  0.6399313E-006  0.1686087E+03  0.7546771E-02  0.1183404E+00
          2   -1    0    0  502    0 -0.00000000000E+00  0.00000000000E+00  0.83516532602E+03  0.83516532602E+03  0.00000000000E+00 0. -1.
         21   -1    0    0  501  502  0.00000000000E+00 -0.00000000000E+00 -0.32474724841E+02  0.32474724841E+02  0.00000000000E+00 0.  1.
         23    2    1    2    0    0  0.12363240945E+03 -0.50757738816E+01  0.29506121409E+03  0.33274148153E+03  0.91351175822E+02 0.  0.
         23    2    1    2    0    0 -0.76046752960E+02 -0.49859061808E+01  0.39466433489E+03  0.41190777648E+03  0.90000617715E+02 0.  0.
        -13    1    4    4    0    0  0.45559889633E+01 -0.24502503367E+02  0.36030880915E+02  0.43810433531E+02  0.00000000000E+00 0.  1.
         13    1    4    4    0    0 -0.80602741923E+02  0.19516597186E+02  0.35863345398E+03  0.36809734294E+03  0.00000000000E+00 0. -1.
        -13    1    3    3    0    0  0.31648055559E+02  0.18472963166E+02  0.17936905650E+03  0.18307405119E+03  0.00000000000E+00 0. -1.
         13    1    3    3    0    0  0.91984353891E+02 -0.23548737048E+02  0.11569215759E+03  0.14966743034E+03  0.00000000000E+00 0.  1.
          2    1    1    2  501    0 -0.47585656490E+02  0.10061680062E+02  0.11296505220E+03  0.12299079286E+03  0.00000000000E+00 0. -1.
<scales pt_clust_5="13000.00000" pt_clust_6="13000.00000" pt_clust_7="13000.00000" pt_clust_8="13000.00000" pt_clust_9="13000.00000"></scales>
<clustering>
<clus scale="   90.001">  5  6 -1 -1</clus>
<clus scale="   48.638">  5  9 -1 -1</clus>
<clus scale="   91.351">  7  8 -1 -1</clus>
<clus scale="  153.804">  1  7  2 -1</clus>
<clus scale="  168.609">  2  5  1 -1</clus>
</clustering>
</event>
<event>
 9    1  0.6399313E-006  0.2101983E+03  0.7546771E-02  0.1165638E+00
         21   -1    0    0  501  502  0.00000000000E+00  0.00000000000E+00  0.22244324788E+03  0.22244324788E+03  0.00000000000E+00 0. -1.
          2   -1    0    0  502    0 -0.00000000000E+00 -0.00000000000E+00 -0.22558809451E+03  0.22558809451E+03  0.00000000000E+00 0. -1.
         23    2    1    2    0    0  0.29528996146E+02 -0.71348579454E+02  0.14752185275E+03  0.18941238508E+03  0.90287170627E+02 0.  0.
         23    2    1    2    0    0 -0.86501725400E+02  0.21099803134E+02 -0.12484635070E+03  0.17838478874E+03  0.91141490996E+02 0.  0.
        -11    1    4    4    0    0 -0.56383866049E+02 -0.22574239986E+02 -0.25723731486E+02  0.65957918577E+02  0.00000000000E+00 0.  1.
         11    1    4    4    0    0 -0.30117859352E+02  0.43674043121E+02 -0.99122619215E+02  0.11242687016E+03  0.00000000000E+00 0. -1.
        -11    1    3    3    0    0 -0.37409612727E+01 -0.42453758085E+02  0.83469623091E+01  0.43427965029E+02  0.00000000000E+00 0.  1.
         11    1    3    3    0    0  0.33269957419E+02 -0.28894821369E+02  0.13917489044E+03  0.14598442005E+03  0.00000000000E+00 0. -1.
          2    1    1    2  501    0  0.56972729254E+02  0.50248776319E+02 -0.25820348686E+02  0.80234168572E+02  0.00000000000E+00 0. -1.
<scales pt_clust_5="13000.00000" pt_clust_6="13000.00000" pt_clust_7="13000.00000" pt_clust_8="13000.00000" pt_clust_9="13000.00000"></scales>
<clustering>
<clus scale="   90.287">  7  8 -1 -1</clus>
<clus scale="   91.141">  5  6 -1 -1</clus>
<clus scale="   75.966">  5  9 -1 -1</clus>
<clus scale="  118.804">  2  7  1 -1</clus>
<clus scale="  210.198">  1  5  2 -1</clus>
</clustering>
</event>
<event>
 9    1  0.6399313E-006  0.1707369E+03  0.7546771E-02  0.1198672E+00
         21   -1    0    0  501  502  0.00000000000E+00  0.00000000000E+00  0.16881606652E+03  0.16881606652E+03  0.00000000000E+00 0.  1.
         -3   -1    0    0    0  501 -0.00000000000E+00 -0.00000000000E+00 -0.11825865684E+03  0.11825865684E+03  0.00000000000E+00 0.  1.
         23    2    1    2    0    0 -0.34757115036E+02 -0.41553357162E+02 -0.92213485563E+01  0.10617530303E+03  0.90848352580E+02 0.  0.
         23    2    1    2    0    0 -0.72858061472E+01 -0.22242078325E+02  0.36061903898E+02  0.10089970789E+03  0.91282512677E+02 0.  0.
        -11    1    4    4    0    0 -0.35643822285E+02  0.19393051138E+02  0.30945125225E+01  0.40695804541E+02  0.00000000000E+00 0.  1.
         11    1    4    4    0    0  0.28358016137E+02 -0.41635129463E+02  0.32967391375E+02  0.60203903351E+02  0.00000000000E+00 0. -1.
        -11    1    3    3    0    0 -0.21101696002E+02  0.20602410197E+02  0.20522470814E+02  0.35929273419E+02  0.00000000000E+00 0. -1.
         11    1    3    3    0    0 -0.13655419034E+02 -0.62155767359E+02 -0.29743819370E+02  0.70246029608E+02  0.00000000000E+00 0.  1.
         -3    1    1    2    0  502  0.42042921183E+02  0.63795435487E+02  0.23716854336E+02  0.79999712439E+02  0.00000000000E+00 0.  1.
<scales pt_clust_5="13000.00000" pt_clust_6="13000.00000" pt_clust_7="13000.00000" pt_clust_8="13000.00000" pt_clust_9="13000.00000"></scales>
<clustering>
<clus scale="   90.848">  7  8 -1 -1</clus>
<clus scale="   91.283">  5  6 -1 -1</clus>
<clus scale="   76.403">  5  9 -1 -1</clus>
<clus scale="  105.774">  2  7  1 -1</clus>
<clus scale="  170.737">  1  5  2 -1</clus>
</clustering>
</event>
<event>
 9    1  0.6399313E-006  0.2835316E+03  0.7546771E-02  0.1135378E+00
         -1   -1    0    0    0  501 -0.00000000000E+00  0.00000000000E+00  0.14374034604E+03  0.14374034604E+03  0.00000000000E+00 0.  1.
         21   -1    0    0  501  502  0.00000000000E+00 -0.00000000000E+00 -0.28591013360E+03  0.28591013360E+03  0.00000000000E+00 0.  1.
         23    2    1    2    0    0  0.16108661137E+01 -0.38093655800E+02  0.22702368165E+02  0.10166727059E+03  0.91471934966E+02 0.  0.
         23    2    1    2    0    0  0.24673502093E+02 -0.10122208791E+03 -0.57225174814E+02  0.14997304935E+03  0.91446717353E+02 0.  0.
        -13    1    4    4    0    0 -0.31553531173E+02 -0.42738140267E+02 -0.47134536109E+01  0.53332828613E+02  0.00000000000E+00 0. -1.
         13    1    4    4    0    0  0.56227033265E+02 -0.58483947639E+02 -0.52511721204E+02  0.96640220742E+02  0.00000000000E+00 0.  1.
        -13    1    3    3    0    0 -0.30484856678E+02  0.17058337270E+02  0.39378759091E+01  0.35154234791E+02  0.00000000000E+00 0. -1.
         13    1    3    3    0    0  0.32095722792E+02 -0.55151993070E+02  0.18764492256E+02  0.66513035795E+02  0.00000000000E+00 0.  1.
         -1    1    1    2    0  502 -0.26284368207E+02  0.13931574371E+03 -0.10764698091E+03  0.17801015970E+03  0.00000000000E+00 0.  1.
<scales pt_clust_5="13000.00000" pt_clust_6="13000.00000" pt_clust_7="13000.00000" pt_clust_8="13000.00000" pt_clust_9="13000.00000"></scales>
<clustering>
<clus scale="   91.447">  5  6 -1 -1</clus>
<clus scale="   91.472">  7  8 -1 -1</clus>
<clus scale="   99.100">  1  7  2 -1</clus>
<clus scale="  125.519">  5  9 -1 -1</clus>
<clus scale="  283.532">  2  5  1 -1</clus>
</clustering>
</event>
<event>
 9    1  0.6399313E-006  0.1301100E+04  0.7546771E-02  0.9319097E-01
         21   -1    0    0  501  502  0.00000000000E+00  0.00000000000E+00  0.39587118473E+03  0.39587118473E+03  0.00000000000E+00 0. -1.
          1   -1    0    0  502    0 -0.00000000000E+00 -0.00000000000E+00 -0.19235137447E+04  0.19235137447E+04  0.00000000000E+00 0. -1.
         23    2    1    2    0    0  0.42625613074E+03  0.36656974733E+02 -0.29544306061E+03  0.52740951471E+03  0.88522151747E+02 0.  0.
         23    2    1    2    0    0  0.21445620299E+03  0.44368284086E+03 -0.49232945577E+03  0.70172484056E+03  0.84755722886E+02 0.  0.
        -13    1    4    4    0    0  0.20162856611E+02  0.29915566998E+02 -0.10525754310E+02  0.37580226707E+02  0.00000000000E+00 0.  1.
         13    1    4    4    0    0  0.19429334638E+03  0.41376727386E+03 -0.48180370146E+03  0.66414461385E+03  0.00000000000E+00 0. -1.
        -13    1    3    3    0    0  0.56691442473E+02 -0.24845669007E+02 -0.34718515842E+02  0.70969023245E+02  0.00000000000E+00 0.  1.
         13    1    3    3    0    0  0.36956468827E+03  0.61502643740E+02 -0.26072454477E+03  0.45644049146E+03  0.00000000000E+00 0. -1.
          1    1    1    2  501    0 -0.64071233374E+03 -0.48033981559E+03 -0.73987004353E+03  0.10902505741E+04  0.00000000000E+00 0. -1.
<scales pt_clust_5="13000.00000" pt_clust_6="13000.00000" pt_clust_7="13000.00000" pt_clust_8="13000.00000" pt_clust_9="13000.00000"></scales>
<clustering>
<clus scale="   84.756">  5  6 -1 -1</clus>
<clus scale="   88.522">  7  8 -1 -1</clus>
<clus scale="  436.892">  2  7  1 -1</clus>
<clus scale="  597.002">  5  9 -1 -1</clus>
<clus scale=" 1301.100">  1  5  2 -1</clus>
</clustering>
</event>
<event>
 9    1  0.6399313E-006  0.1862049E+03  0.7546771E-02  0.1187716E+00
         21   -1    0    0  501  502  0.00000000000E+00  0.00000000000E+00  0.87363425593E+02  0.87363425593E+02  0.00000000000E+00 0.  1.
          1   -1    0    0  502    0 -0.00000000000E+00 -0.00000000000E+00 -0.24575473212E+03  0.24575473212E+03  0.00000000000E+00 0. -1.
         23    2    1    2    0    0  0.19115396621E+02  0.21888904182E+02 -0.80358359486E+02  0.13122360312E+03  0.99587376525E+02 0.  0.
         23    2    1    2    0    0 -0.19392469324E+02 -0.59596911159E+02  0.45377137996E+01  0.11112074454E+03  0.91648073270E+02 0.  0.
        -11    1    3    3    0    0 -0.11829183897E+02  0.56136548528E+02 -0.48705444288E+02  0.75255976345E+02  0.00000000000E+00 0.  1.
         11    1    3    3    0    0  0.30944580518E+02 -0.34247644346E+02 -0.31652915198E+02  0.55967626778E+02  0.00000000000E+00 0. -1.
        -11    1    4    4    0    0 -0.26404833583E+02  0.79396941459E+01 -0.24864828739E+02  0.37128340764E+02  0.00000000000E+00 0. -1.
         11    1    4    4    0    0  0.70123642591E+01 -0.67536605305E+02  0.29402542539E+02  0.73992403775E+02  0.00000000000E+00 0.  1.
          1    1    1    2  501    0  0.27707270320E+00  0.37708006977E+02 -0.82570660845E+02  0.90773810055E+02  0.00000000000E+00 0. -1.
<scales pt_clust_5="13000.00000" pt_clust_6="13000.00000" pt_clust_7="13000.00000" pt_clust_8="13000.00000" pt_clust_9="13000.00000"></scales>
<clustering>
<clus scale="   91.648">  7  8 -1 -1</clus>
<clus scale="   37.709">  7  9 -1 -1</clus>
<clus scale="   99.587">  5  6 -1 -1</clus>
<clus scale="  103.741">  2  5  1 -1</clus>
<clus scale="  186.205">  1  5  2 -1</clus>
</clustering>
</event>
<event>
 9    1  0.6399313E-006  0.2116648E+03  0.7546771E-02  0.1169597E+00
          1   -1    0    0  502    0 -0.00000000000E+00  0.00000000000E+00  0.29576886085E+03  0.29576886085E+03  0.00000000000E+00 0. -1.
         21   -1    0    0  501  502  0.00000000000E+00 -0.00000000000E+00 -0.86113997377E+02  0.86113997377E+02  0.00000000000E+00 0. -1.
         23    2    1    2    0    0  0.41138349445E+02  0.36985872055E+02  0.54208042181E+02  0.11926967198E+03  0.90699637760E+02 0.  0.
         23    2    1    2    0    0 -0.90880619876E+01  0.50699695608E+02  0.12823039922E+03  0.16536755224E+03  0.90831382491E+02 0.  0.
        -11    1    3    3    0    0  0.25807879823E+02  0.23897228290E+02 -0.21298479762E+02  0.41118723485E+02  0.00000000000E+00 0. -1.
         11    1    3    3    0    0  0.15330469623E+02  0.13088643765E+02  0.75506521943E+02  0.78150948493E+02  0.00000000000E+00 0.  1.
        -13    1    4    4    0    0  0.21913774724E+02 -0.18376725754E+02  0.31896068204E+02  0.42840130006E+02  0.00000000000E+00 0.  1.
         13    1    4    4    0    0 -0.31001836711E+02  0.69076421362E+02  0.96334331015E+02  0.12252742224E+03  0.00000000000E+00 0. -1.
          1    1    1    2  501    0 -0.32050287458E+02 -0.87685567663E+02  0.27216422069E+02  0.97245634004E+02  0.00000000000E+00 0. -1.
<scales pt_clust_5="13000.00000" pt_clust_6="13000.00000" pt_clust_7="13000.00000" pt_clust_8="13000.00000" pt_clust_9="13000.00000"></scales>
<clustering>
<clus scale="   90.700">  5  6 -1 -1</clus>
<clus scale="   90.831">  7  8 -1 -1</clus>
<clus scale="   93.359">  7  9 -1 -1</clus>
<clus scale="  106.239">  1  5  2 -1</clus>
<clus scale="  211.665">  2  5  1 -1</clus>
</clustering>
</event>
<event>
 9    1  0.6399313E-006  0.4220292E+03  0.7546771E-02  0.1084045E+00
         21   -1    0    0  501  502  0.00000000000E+00  0.00000000000E+00  0.41526951339E+02  0.41526951339E+02  0.00000000000E+00 0.  1.
         -1   -1    0    0    0  501 -0.00000000000E+00 -0.00000000000E+00 -0.17673155283E+04  0.17673155283E+04  0.00000000000E+00 0.  1.
         23    2    1    2    0    0  0.69592660939E+00 -0.51092420395E+02 -0.50670499118E+03  0.51877527159E+03  0.98827701522E+02 0.  0.
         23    2    1    2    0    0 -0.19133016341E+03 -0.28715318320E+02 -0.57396282632E+03  0.61265191321E+03  0.92071927470E+02 0.  0.
        -11    1    4    4    0    0 -0.50919568719E+02 -0.26448779611E+02 -0.29281496390E+03  0.29838388614E+03  0.00000000000E+00 0. -1.
         11    1    4    4    0    0 -0.14041059469E+03 -0.22665387085E+01 -0.28114786241E+03  0.31426802707E+03  0.00000000000E+00 0.  1.
        -13    1    3    3    0    0 -0.99304975497E+01 -0.78524310565E+02 -0.41455985759E+03  0.42204805136E+03  0.00000000000E+00 0.  1.
         13    1    3    3    0    0  0.10626424159E+02  0.27431890170E+02 -0.92145133597E+02  0.96727220235E+02  0.00000000000E+00 0. -1.
         -1    1    1    2    0  502  0.19063423680E+03  0.79807738715E+02 -0.64512075949E+03  0.67741529487E+03  0.00000000000E+00 0.  1.
<scales pt_clust_5="13000.00000" pt_clust_6="13000.00000" pt_clust_7="13000.00000" pt_clust_8="13000.00000" pt_clust_9="13000.00000"></scales>
<clustering>
<clus scale="   92.072">  5  6 -1 -1</clus>
<clus scale="   98.828">  7  8 -1 -1</clus>
<clus scale="  111.256">  2  7  1 -1</clus>
<clus scale="  198.185">  5  9 -1 -1</clus>
<clus scale="  422.029">  1  5  2 -1</clus>
</clustering>
</event>
<event>
 9    1  0.6399313E-006  0.1586914E+03  0.7546771E-02  0.1206470E+00
         21   -1    0    0  501  502  0.00000000000E+00  0.00000000000E+00  0.14236054408E+03  0.14236054408E+03  0.00000000000E+00 0.  1.
          1   -1    0    0  502    0 -0.00000000000E+00 -0.00000000000E+00 -0.14212350757E+03  0.14212350757E+03  0.00000000000E+00 0. -1.
         23    2    1    2    0    0 -0.16472805989E+02 -0.52473142617E+02 -0.44104140708E+02  0.11971417329E+03  0.96754969003E+02 0.  0.
         23    2    1    2    0    0 -0.19261872863E+02  0.55151501525E+02 -0.15487569318E+01  0.10654594053E+03  0.89089454641E+02 0.  0.
        -13    1    3    3    0    0  0.26935304567E+02 -0.12825556497E+01 -0.45148797408E+02  0.52588682133E+02  0.00000000000E+00 0.  1.
         13    1    3    3    0    0 -0.43408110556E+02 -0.51190586967E+02  0.10446566998E+01  0.67125491161E+02  0.00000000000E+00 0. -1.
        -13    1    4    4    0    0 -0.47746185882E+02  0.91500868166E+01  0.13371048059E+02  0.50420306239E+02  0.00000000000E+00 0.  1.
         13    1    4    4    0    0  0.28484313019E+02  0.46001414708E+02 -0.14919804991E+02  0.56125634288E+02  0.00000000000E+00 0. -1.
          1    1    1    2  501    0  0.35734678851E+02 -0.26783589080E+01  0.45889934149E+02  0.58223937820E+02  0.00000000000E+00 0. -1.
<scales pt_clust_5="13000.00000" pt_clust_6="13000.00000" pt_clust_7="13000.00000" pt_clust_8="13000.00000" pt_clust_9="13000.00000"></scales>
<clustering>
<clus scale="   89.089">  7  8 -1 -1</clus>
<clus scale="   35.835">  7  9 -1 -1</clus>
<clus scale="   96.755">  5  6 -1 -1</clus>
<clus scale="  111.294">  2  5  1 -1</clus>
<clus scale="  158.691">  1  5  2 -1</clus>
</clustering>
</event>
<event>
 9    1  0.6399313E-006  0.2188268E+03  0.7546771E-02  0.1164429E+00
         21   -1    0    0  501  502  0.00000000000E+00  0.00000000000E+00  0.87461406287E+02  0.87461406287E+02  0.00000000000E+00 0. -1.
          2   -1    0    0  502    0 -0.00000000000E+00 -0.00000000000E+00 -0.33204063345E+03  0.33204063345E+03  0.00000000000E+00 0. -1.
         23    2    1    2    0    0 -0.49397248950E+02 -0.20737997886E+02 -0.28485223195E+02  0.11196053742E+03  0.94093577027E+02 0.  0.
         23    2    1    2    0    0  0.56946127345E+02  0.46340183474E+02 -0.24279964834E+03  0.26978373606E+03  0.91876661810E+02 0.  0.
        -11    1    3    3    0    0 -0.65612402577E+02  0.16256037607E+02 -0.13859541021E+02  0.69002413058E+02  0.00000000000E+00 0. -1.
         11    1    3    3    0    0  0.16215153627E+02 -0.36994035493E+02 -0.14625682174E+02  0.42958124357E+02  0.00000000000E+00 0.  1.
        -13    1    4    4    0    0 -0.24702300435E+02  0.24594514283E+01 -0.55715684210E+02  0.60995819652E+02  0.00000000000E+00 0.  1.
         13    1    4    4    0    0  0.81648427780E+02  0.43880732046E+02 -0.18708396413E+03  0.20878791641E+03  0.00000000000E+00 0. -1.
          2    1    1    2  501    0 -0.75488783944E+01 -0.25602185588E+02  0.26705644369E+02  0.37757766262E+02  0.00000000000E+00 0. -1.
<scales pt_clust_5="13000.00000" pt_clust_6="13000.00000" pt_clust_7="13000.00000" pt_clust_8="13000.00000" pt_clust_9="13000.00000"></scales>
<clustering>
<clus scale="   91.877">  7  8 -1 -1</clus>
<clus scale="   26.692">  7  9 -1 -1</clus>
<clus scale="   94.094">  5  6 -1 -1</clus>
<clus scale="  108.276">  2  5  1 -1</clus>
<clus scale="  218.827">  1  5  2 -1</clus>
</clustering>
</event>
<event>
 9    1  0.6399313E-006  0.2424902E+03  0.7546771E-02  0.1147523E+00
         -3   -1    0    0    0  501 -0.00000000000E+00  0.00000000000E+00  0.24942063654E+03  0.24942063654E+03  0.00000000000E+00 0.  1.
         21   -1    0    0  501  502  0.00000000000E+00 -0.00000000000E+00 -0.13472010680E+03  0.13472010680E+03  0.00000000000E+00 0.  1.
         23    2    1    2    0    0  0.70111711591E+02  0.19549203161E+02  0.70387202518E+02  0.13763480362E+03  0.93226377399E+02 0.  0.
         23    2    1    2    0    0 -0.49629085319E+01 -0.23995505026E+02  0.11623583822E+03  0.14936180079E+03  0.90541497268E+02 0.  0.
        -13    1    4    4    0    0  0.32390827994E+02  0.72030866709E+01  0.13771487265E+02  0.35926369942E+02  0.00000000000E+00 0.  1.
         13    1    4    4    0    0 -0.37353736526E+02 -0.31198591697E+02  0.10246435095E+03  0.11343543085E+03  0.00000000000E+00 0. -1.
        -13    1    3    3    0    0  0.29786049489E+02  0.41145831320E+02  0.76141273811E+02  0.91529676918E+02  0.00000000000E+00 0.  1.
         13    1    3    3    0    0  0.40325662102E+02 -0.21596628159E+02 -0.57540712926E+01  0.46105126702E+02  0.00000000000E+00 0. -1.
         -3    1    1    2    0  502 -0.65148803059E+02  0.44463018653E+01 -0.71922511000E+02  0.97144138932E+02  0.00000000000E+00 0.  1.
<scales pt_clust_5="13000.00000" pt_clust_6="13000.00000" pt_clust_7="13000.00000" pt_clust_8="13000.00000" pt_clust_9="13000.00000"></scales>
<clustering>
<clus scale="   90.541">  5  6 -1 -1</clus>
<clus scale="   65.300">  5  9 -1 -1</clus>
<clus scale="   93.226">  7  8 -1 -1</clus>
<clus scale="  118.275">  1  7  2 -1</clus>
<clus scale="  242.490">  2  5  1 -1</clus>
</clustering>
</event>
<event>
 9    1  0.6399313E-006  0.1402440E+03  0.7546771E-02  0.1232715E+00
          4   -1    0    0  502    0 -0.00000000000E+00  0.00000000000E+00  0.24295366506E+03  0.24295366506E+03  0.00000000000E+00 0. -1.
         21   -1    0    0  501  502  0.00000000000E+00 -0.00000000000E+00 -0.56009553998E+02  0.56009553998E+02  0.00000000000E+00 0.  1.
         23    2    1    2    0    0  0.46419222710E+00  0.16189754676E+02  0.80114572254E+02  0.12266533934E+03  0.91466481064E+02 0.  0.
         23    2    1    2    0    0 -0.42822037092E+01 -0.47840381310E+02  0.57710746278E+02  0.11774025717E+03  0.90692880485E+02 0.  0.
        -11    1    4    4    0    0 -0.17503550547E+02  0.10213984724E+02  0.54462586178E+02  0.58110868681E+02  0.00000000000E+00 0. -1.
         11    1    4    4    0    0  0.13221346838E+02 -0.58054366034E+02  0.32481601002E+01  0.59629388491E+02  0.00000000000E+00 0.  1.
        -11    1    3    3    0    0 -0.20560253321E+02 -0.31333331642E+02  0.17691158881E+02  0.41442475686E+02  0.00000000000E+00 0.  1.
         11    1    3    3    0    0  0.21024445548E+02  0.47523086318E+02  0.62423413373E+02  0.81222863659E+02  0.00000000000E+00 0. -1.
          4    1    1    2  501    0  0.38180114821E+01  0.31650626634E+02  0.49118792526E+02  0.58557622537E+02  0.00000000000E+00 0. -1.
<scales pt_clust_5="13000.00000" pt_clust_6="13000.00000" pt_clust_7="13000.00000" pt_clust_8="13000.00000" pt_clust_9="13000.00000"></scales>
<clustering>
<clus scale="   90.693">  5  6 -1 -1</clus>
<clus scale="   31.880">  5  9 -1 -1</clus>
<clus scale="   91.466">  7  8 -1 -1</clus>
<clus scale="   92.889">  1  7  2 -1</clus>
<clus scale="  140.244">  2  5  1 -1</clus>
</clustering>
</event>
<event>
 9    1  0.6399313E-006  0.2554211E+03  0.7546771E-02  0.1122051E+00
         21   -1    0    0  501  502  0.00000000000E+00  0.00000000000E+00  0.52633435584E+03  0.52633435584E+03  0.00000000000E+00 0.  1.
          4   -1    0    0  502    0 -0.00000000000E+00 -0.00000000000E+00 -0.10993509703E+03  0.10993509703E+03  0.00000000000E+00 0. -1.
         23    2    1    2    0    0  0.44534428744E+02 -0.15856088966E+03  0.30327728276E+03  0.35691927657E+03  0.91046079936E+02 0.  0.
         23    2    1    2    0    0 -0.28438716063E+02  0.25308612637E+02  0.10567156207E+03  0.14492268668E+03  0.91579580903E+02 0.  0.
        -13    1    3    3    0    0 -0.92623648698E+01 -0.22276295953E+02  0.50563921406E+01  0.24649378610E+02  0.00000000000E+00 0. -1.
         13    1    3    3    0    0  0.53796793614E+02 -0.13628459371E+03  0.29822089062E+03  0.33226989796E+03  0.00000000000E+00 0.  1.
        -13    1    4    4    0    0  0.26305142471E+02  0.87954899939E+01  0.36580173335E+01  0.27976816393E+02  0.00000000000E+00 0.  1.
         13    1    4    4    0    0 -0.54743858535E+02  0.16513122643E+02  0.10201354474E+03  0.11694587028E+03  0.00000000000E+00 0. -1.
          4    1    1    2  501    0 -0.16095712681E+02  0.13325227703E+03  0.74504139785E+01  0.13442748963E+03  0.00000000000E+00 0. -1.
<scales pt_clust_5="13000.00000" pt_clust_6="13000.00000" pt_clust_7="13000.00000" pt_clust_8="13000.00000" pt_clust_9="13000.00000"></scales>
<clustering>
<clus scale="   91.046">  5  6 -1 -1</clus>
<clus scale="   91.580">  7  8 -1 -1</clus>
<clus scale="  134.221">  7  9 -1 -1</clus>
<clus scale="  188.187">  2  5  1 -1</clus>
<clus scale="  255.421">  1  5  2 -1</clus>
</clustering>
</event>
<event>
 9    1  0.6399313E-006  0.1445740E+03  0.7546771E-02  0.1224966E+00
          3   -1    0    0  502    0 -0.00000000000E+00  0.00000000000E+00  0.16329429464E+03  0.16329429464E+03  0.00000000000E+00 0. -1.
         21   -1    0    0  501  502  0.00000000000E+00 -0.00000000000E+00 -0.13265769746E+03  0.13265769746E+03  0.00000000000E+00 0. -1.
         23    2    1    2    0    0  0.15721243516E+02 -0.36495042162E+02  0.95095609812E+02  0.13765922110E+03  0.91257002733E+02 0.  0.
         23    2    1    2    0    0 -0.36711128937E+02  0.54823284043E+02 -0.65890854544E+02  0.13039026374E+03  0.91141191036E+02 0.  0.
        -11    1    3    3    0    0  0.35299974256E+02  0.43239008794E+01  0.83749232636E+02  0.90987462149E+02  0.00000000000E+00 0.  1.
         11    1    3    3    0    0 -0.19578730741E+02 -0.40818943041E+02  0.11346377176E+02  0.46671758949E+02  0.00000000000E+00 0. -1.
        -13    1    4    4    0    0  0.25319822478E+02 -0.53921898782E+01 -0.12148312334E+02  0.28596339181E+02  0.00000000000E+00 0.  1.
         13    1    4    4    0    0 -0.62030951415E+02  0.60215473922E+02 -0.53742542210E+02  0.10179392455E+03  0.00000000000E+00 0. -1.
          3    1    1    2  501    0  0.20989885421E+02 -0.18328241882E+02  0.14318419096E+01  0.27902507266E+02  0.00000000000E+00 0. -1.
<scales pt_clust_5="13000.00000" pt_clust_6="13000.00000" pt_clust_7="13000.00000" pt_clust_8="13000.00000" pt_clust_9="13000.00000"></scales>
<clustering>
<clus scale="   91.141">  7  8 -1 -1</clus>
<clus scale="   27.866">  7  9 -1 -1</clus>
<clus scale="   91.257">  5  6 -1 -1</clus>
<clus scale="   99.533">  1  5  2 -1</clus>
<clus scale="  144.574">  2  5  1 -1</clus>
</clustering>
</event>
<event>
 9    1  0.6399313E-006  0.3732581E+03  0.7546771E-02  0.1069942E+00
          3   -1    0    0  502    0 -0.00000000000E+00  0.00000000000E+00  0.85471575480E+03  0.85471575480E+03  0.00000000000E+00 0. -1.
         21   -1    0    0  501  502  0.00000000000E+00 -0.00000000000E+00 -0.10938060970E+03  0.10938060970E+03  0.00000000000E+00 0. -1.
         23    2    1    2    0    0  0.12183543995E+03  0.17842268314E+03  0.24575709296E+03  0.34047802332E+03  0.94075540591E+02 0.  0.
         23    2    1    2    0    0  0.50380443977E+01 -0.14645696137E+03  0.45249781158E+03  0.48456713675E+03  0.92606787608E+02 0.  0.
        -13    1    4    4    0    0 -0.39776273603E+02 -0.36162679331E+02  0.12353889023E+03  0.13472842580E+03  0.00000000000E+00 0.  1.
         13    1    4    4    0    0  0.44814318001E+02 -0.11029428204E+03  0.32895892135E+03  0.34983871095E+03  0.00000000000E+00 0. -1.
        -13    1    3    3    0    0  0.51922022036E+02  0.15197726863E+03  0.15965401465E+03  0.22645615679E+03  0.00000000000E+00 0.  1.
         13    1    3    3    0    0  0.69913417918E+02  0.26445414507E+02  0.86103078313E+02  0.11402186654E+03  0.00000000000E+00 0. -1.
          3    1    1    2  501    0 -0.12687348435E+03 -0.31965721768E+02  0.47080240556E+02  0.13905120442E+03  0.00000000000E+00 0. -1.
<scales pt_clust_5="13000.00000" pt_clust_6="13000.00000" pt_clust_7="13000.00000" pt_clust_8="13000.00000" pt_clust_9="13000.00000"></scales>
<clustering>
<clus scale="   92.607">  5  6 -1 -1</clus>
<clus scale="   94.076">  7  8 -1 -1</clus>
<clus scale="  130.838">  5  9 -1 -1</clus>
<clus scale="  235.645">  1  7  2 -1</clus>
<clus scale="  373.258">  2  5  1 -1</clus>
</clustering>
</event>
<event>
 9    1  0.6399313E-006  0.1606697E+03  0.7546771E-02  0.1212911E+00
         -1   -1    0    0    0  501 -0.00000000000E+00  0.00000000000E+00  0.56075877006E+02  0.56075877006E+02  0.00000000000E+00 0.  1.
         21   -1    0    0  501  502  0.00000000000E+00 -0.00000000000E+00 -0.29198687522E+03  0.29198687522E+03  0.00000000000E+00 0. -1.
         23    2    1    2    0    0 -0.16852946968E+01  0.19442908862E+02 -0.10706928386E+03  0.14211387719E+03  0.91387393107E+02 0.  0.
         23    2    1    2    0    0 -0.36643658480E+02 -0.42888890889E+02 -0.11992395392E+03  0.16014113360E+03  0.89895568738E+02 0.  0.
        -13    1    3    3    0    0  0.29136629758E+02 -0.21650726852E+02 -0.21156234966E+02  0.42015276327E+02  0.00000000000E+00 0.  1.
         13    1    3    3    0    0 -0.30821924455E+02  0.41093635713E+02 -0.85913048896E+02  0.10009860086E+03  0.00000000000E+00 0. -1.
        -13    1    4    4    0    0 -0.23624484960E+02 -0.54565630663E+01  0.85371596322E+01  0.25705514286E+02  0.00000000000E+00 0.  1.
         13    1    4    4    0    0 -0.13019173520E+02 -0.37432327823E+02 -0.12846111355E+03  0.13443561932E+03  0.00000000000E+00 0. -1.
         -1    1    1    2    0  502  0.38328953177E+02  0.23445982027E+02 -0.89177604355E+01  0.45807741442E+02  0.00000000000E+00 0.  1.
<scales pt_clust_5="13000.00000" pt_clust_6="13000.00000" pt_clust_7="13000.00000" pt_clust_8="13000.00000" pt_clust_9="13000.00000"></scales>
<clustering>
<clus scale="   89.896">  7  8 -1 -1</clus>
<clus scale="   44.931">  7  9 -1 -1</clus>
<clus scale="   91.387">  5  6 -1 -1</clus>
<clus scale="   93.448">  1  5  2 -1</clus>
<clus scale="  160.670">  2  5  1 -1</clus>
</clustering>
</event>
<event>
 9    1  0.6399313E-006  0.1905246E+03  0.7546771E-02  0.1184821E+00
         21   -1    0    0  501  502  0.00000000000E+00  0.00000000000E+00  0.18353823376E+03  0.18353823376E+03  0.00000000000E+00 0.  1.
          1   -1    0    0  502    0 -0.00000000000E+00 -0.00000000000E+00 -0.15727104474E+03  0.15727104474E+03  0.00000000000E+00 0. -1.
         23    2    1    2    0    0  0.41725425803E+02  0.28074560230E+02  0.92953976380E+02  0.13895099683E+03  0.90209454628E+02 0.  0.
         23    2    1    2    0    0 -0.27676767061E+02 -0.64881014278E+02 -0.98243214644E+02  0.15138167347E+03  0.91044672506E+02 0.  0.
        -13    1    4    4    0    0  0.29560015212E+02 -0.13981007552E+01 -0.22504298536E+02  0.37177851440E+02  0.00000000000E+00 0.  1.
         13    1    4    4    0    0 -0.57236782273E+02 -0.63482913523E+02 -0.75738916108E+02  0.11420382204E+03  0.00000000000E+00 0. -1.
        -13    1    3    3    0    0 -0.28787292505E+01  0.50082711469E+02  0.64284193910E+02  0.81541539456E+02  0.00000000000E+00 0. -1.
         13    1    3    3    0    0  0.44604155054E+02 -0.22008151238E+02  0.28669782469E+02  0.57409457373E+02  0.00000000000E+00 0.  1.
          1    1    1    2  501    0 -0.14048658743E+02  0.36806454047E+02  0.31556427279E+02  0.50476608192E+02  0.00000000000E+00 0. -1.
<scales pt_clust_5="13000.00000" pt_clust_6="13000.00000" pt_clust_7="13000.00000" pt_clust_8="13000.00000" pt_clust_9="13000.00000"></scales>
<clustering>
<clus scale="   90.209">  7  8 -1 -1</clus>
<clus scale="   91.045">  5  6 -1 -1</clus>
<clus scale="   39.396">  5  9 -1 -1</clus>
<clus scale="  103.281">  2  7  1 -1</clus>
<clus scale="  190.525">  1  5  2 -1</clus>
</clustering>
</event>
<event>
 9    1  0.6399313E-006  0.3659702E+03  0.7546771E-02  0.1094083E+00
          2   -1    0    0  502    0 -0.00000000000E+00  0.00000000000E+00  0.75010741924E+03  0.75010741924E+03  0.00000000000E+00 0. -1.
         21   -1    0    0  501  502  0.00000000000E+00 -0.00000000000E+00 -0.10546843749E+03  0.10546843749E+03  0.00000000000E+00 0.  1.
         23    2    1    2    0    0 -0.72634685381E+02  0.57535895269E+02  0.38568107124E+03  0.40725303482E+03  0.92298260496E+02 0.  0.
         23    2    1    2    0    0 -0.31616929380E+02 -0.15931779022E+03  0.23585326908E+03  0.30080408487E+03  0.92057288874E+02 0.  0.
        -11    1    3    3    0    0 -0.84580915816E+02  0.18137523471E+02  0.21666687724E+03  0.23329688547E+03  0.00000000000E+00 0. -1.
         11    1    3    3    0    0  0.11946230434E+02  0.39398371797E+02  0.16901419400E+03  0.17395614934E+03  0.00000000000E+00 0.  1.
        -13    1    4    4    0    0 -0.37895495632E+01 -0.13712420427E+03  0.22512964038E+03  0.26362997375E+03  0.00000000000E+00 0.  1.
         13    1    4    4    0    0 -0.27827379817E+02 -0.22193585958E+02  0.10723628697E+02  0.37174111120E+02  0.00000000000E+00 0. -1.
          2    1    1    2  501    0  0.10425161476E+03  0.10178189496E+03  0.23104641429E+02  0.14751873704E+03  0.00000000000E+00 0. -1.
<scales pt_clust_5="13000.00000" pt_clust_6="13000.00000" pt_clust_7="13000.00000" pt_clust_8="13000.00000" pt_clust_9="13000.00000"></scales>
<clustering>
<clus scale="   92.057">  7  8 -1 -1</clus>
<clus scale="   92.298">  5  6 -1 -1</clus>
<clus scale="  130.787">  1  5  2 -1</clus>
<clus scale="  144.567">  7  9 -1 -1</clus>
<clus scale="  365.970">  2  5  1 -1</clus>
</clustering>
</event>
<event>
 9    1  0.6399313E-006  0.5388453E+03  0.7546771E-02  0.1058079E+00
         -4   -1    0    0    0  501 -0.00000000000E+00  0.00000000000E+00  0.49125030365E+03  0.49125030365E+03  0.00000000000E+00 0.  1.
         21   -1    0    0  501  502  0.00000000000E+00 -0.00000000000E+00 -0.30297832926E+03  0.30297832926E+03  0.00000000000E+00 0.  1.
         23    2    1    2    0    0 -0.63172700988E+02 -0.95619640871E+01  0.22928337067E+03  0.25382485903E+03  0.88170140567E+02 0.  0.
         23    2    1    2    0    0  0.55939863705E+01 -0.22918407001E+03  0.95386895447E+02  0.25947767834E+03  0.75321810272E+02 0.  0.
        -11    1    4    4    0    0 -0.11901133088E+02 -0.18000630188E+03  0.42848571300E+02  0.18541819152E+03  0.00000000000E+00 0.  1.
         11    1    4    4    0    0  0.17495119459E+02 -0.49177768132E+02  0.52538324147E+02  0.74059486816E+02  0.00000000000E+00 0. -1.
        -11    1    3    3    0    0 -0.11796013395E+02 -0.17706335440E+02  0.28174556171E+01  0.21461554065E+02  0.00000000000E+00 0.  1.
         11    1    3    3    0    0 -0.51376687593E+02  0.81443713529E+01  0.22646591505E+03  0.23236330496E+03  0.00000000000E+00 0. -1.
         -4    1    1    2    0  502  0.57578714618E+02  0.23874603410E+03 -0.13639829172E+03  0.28092609554E+03  0.00000000000E+00 0.  1.
<scales pt_clust_5="13000.00000" pt_clust_6="13000.00000" pt_clust_7="13000.00000" pt_clust_8="13000.00000" pt_clust_9="13000.00000"></scales>
<clustering>
<clus scale="   75.322">  5  6 -1 -1</clus>
<clus scale="   88.170">  7  8 -1 -1</clus>
<clus scale="  108.886">  1  7  2 -1</clus>
<clus scale="  239.228">  5  9 -1 -1</clus>
<clus scale="  538.845">  2  5  1 -1</clus>
</clustering>
</event>
<event>
 9    1  0.6399313E-006  0.1941076E+03  0.7546771E-02  0.1187861E+00
         21   -1    0    0  501  502  0.00000000000E+00  0.00000000000E+00  0.57390677484E+02  0.57390677484E+02  0.00000000000E+00 0. -1.
          1   -1    0    0  502    0 -0.00000000000E+00 -0.00000000000E+00 -0.37055780898E+03  0.37055780898E+03  0.00000000000E+00 0. -1.
         23    2    1    2    0    0 -0.27593917314E+00  0.16427118282E+02 -0.14386186169E+03  0.17037898296E+03  0.89793297250E+02 0.  0.
         23    2    1    2    0    0  0.30853988458E+02 -0.16175306388E+02 -0.19568657266E+03  0.21718319830E+03  0.87531124554E+02 0.  0.
        -11    1    3    3    0    0 -0.23203681028E+02 -0.30595561056E+02 -0.70429970375E+02  0.80217703137E+02  0.00000000000E+00 0.  1.
         11    1    3    3    0    0  0.22927741855E+02  0.47022679338E+02 -0.73431891311E+02  0.90161279828E+02  0.00000000000E+00 0. -1.
        -13    1    4    4    0    0  0.16486086144E+01  0.29096448665E+02 -0.25675368650E+02  0.38840002453E+02  0.00000000000E+00 0.  1.
         13    1    4    4    0    0  0.29205379844E+02 -0.45271755053E+02 -0.17001120401E+03  0.17834319585E+03  0.00000000000E+00 0. -1.
          1    1    1    2  501    0 -0.30578049285E+02 -0.25181189422E+00  0.26381302849E+02  0.40386305195E+02  0.00000000000E+00 0. -1.
<scales pt_clust_5="13000.00000" pt_clust_6="13000.00000" pt_clust_7="13000.00000" pt_clust_8="13000.00000" pt_clust_9="13000.00000"></scales>
<clustering>
<clus scale="   87.531">  7  8 -1 -1</clus>
<clus scale="   30.579">  7  9 -1 -1</clus>
<clus scale="   89.793">  5  6 -1 -1</clus>
<clus scale="   91.284">  2  5  1 -1</clus>
<clus scale="  194.108">  1  5  2 -1</clus>
</clustering>
</event>
<event>
 9    1  0.6399313E-006  0.1765430E+03  0.7546771E-02  0.1176112E+00
          1   -1    0    0  502    0 -0.00000000000E+00  0.00000000000E+00  0.43288132293E+03  0.43288132293E+03  0.00000000000E+00 0. -1.
         21   -1    0    0  501  502  0.00000000000E+00 -0.00000000000E+00 -0.24540916747E+03  0.24540916747E+03  0.00000000000E+00 0.  1.
         23    2    1    2    0    0  0.11756500852E+03 -0.52056056954E+02  0.38335785757E+03  0.41458870234E+03  0.91592471584E+02 0.  0.
         23    2    1    2    0    0 -0.84661126556E+02  0.14249637275E+02 -0.12170280250E+03  0.17417473399E+03  0.90303418050E+02 0.  0.
        -11    1    3    3    0    0  0.10511837012E+03 -0.68240354502E+02  0.36880162776E+03  0.38951413114E+03  0.00000000000E+00 0. -1.
         11    1    3    3    0    0  0.12446638391E+02  0.16184297548E+02  0.14556229813E+02  0.25074571197E+02  0.00000000000E+00 0.  1.
        -13    1    4    4    0    0 -0.63761410833E+01  0.32574182967E+02 -0.67129432099E+01  0.33864379186E+02  0.00000000000E+00 0. -1.
         13    1    4    4    0    0 -0.78284985472E+02 -0.18324545693E+02 -0.11498985929E+03  0.14031035480E+03  0.00000000000E+00 0.  1.
          1    1    1    2  501    0 -0.32903881959E+02  0.37806419679E+02 -0.74182899612E+02  0.89527054077E+02  0.00000000000E+00 0. -1.
<scales pt_clust_5="13000.00000" pt_clust_6="13000.00000" pt_clust_7="13000.00000" pt_clust_8="13000.00000" pt_clust_9="13000.00000"></scales>
<clustering>
<clus scale="   90.303">  7  8 -1 -1</clus>
<clus scale="   50.120">  7  9 -1 -1</clus>
<clus scale="   91.592">  5  6 -1 -1</clus>
<clus scale="  157.862">  1  5  2 -1</clus>
<clus scale="  176.543">  2  5  1 -1</clus>
</clustering>
</event>
<event>
 9    1  0.6399313E-006  0.1047780E+04  0.7546771E-02  0.9462627E-01
         21   -1    0    0  501  502  0.00000000000E+00  0.00000000000E+00  0.32280664649E+03  0.32280664649E+03  0.00000000000E+00 0. -1.
          2   -1    0    0  502    0 -0.00000000000E+00 -0.00000000000E+00 -0.24157893180E+04  0.24157893180E+04  0.00000000000E+00 0. -1.
         23    2    1    2    0    0 -0.38370484171E+03 -0.30792855360E+03 -0.13888589289E+04  0.14762037211E+04  0.90547789777E+02 0.  0.
         23    2    1    2    0    0 -0.16111473201E+03  0.12528648630E+03 -0.64732811403E+03  0.68497364648E+03  0.92198419951E+02 0.  0.
        -11    1    3    3    0    0 -0.85003265737E+02 -0.55637512780E+02 -0.19386213950E+03  0.21886894971E+03  0.00000000000E+00 0.  1.
         11    1    3    3    0    0 -0.29870157597E+03 -0.25229104082E+03 -0.11949967894E+04  0.12573347714E+04  0.00000000000E+00 0. -1.
        -11    1    4    4    0    0 -0.10169534062E+03  0.24917117892E+02 -0.35868738836E+03  0.37365685815E+03  0.00000000000E+00 0. -1.
         11    1    4    4    0    0 -0.59419391395E+02  0.10036936840E+03 -0.28864072567E+03  0.31131678834E+03  0.00000000000E+00 0.  1.
          2    1    1    2  501    0  0.54481957372E+03  0.18264206731E+03 -0.56795628645E+02  0.57741859694E+03  0.00000000000E+00 0. -1.
<scales pt_clust_5="13000.00000" pt_clust_6="13000.00000" pt_clust_7="13000.00000" pt_clust_8="13000.00000" pt_clust_9="13000.00000"></scales>
<clustering>
<clus scale="   90.548">  5  6 -1 -1</clus>
<clus scale="   92.198">  7  8 -1 -1</clus>
<clus scale="  500.248">  2  5  1 -1</clus>
<clus scale="  429.239">  7  9 -1 -1</clus>
<clus scale=" 1047.780">  1  5  2 -1</clus>
</clustering>
</event>
<event>
 9    1  0.6399313E-006  0.1758321E+03  0.7546771E-02  0.1184142E+00
         21   -1    0    0  501  502  0.00000000000E+00  0.00000000000E+00  0.10744515981E+03  0.10744515981E+03  0.00000000000E+00 0. -1.
          1   -1    0    0  502    0 -0.00000000000E+00 -0.00000000000E+00 -0.38448792064E+03  0.38448792064E+03  0.00000000000E+00 0. -1.
         23    2    1    2    0    0  0.79287878324E+02 -0.56891457252E+02 -0.28630372409E+03  0.31585728381E+03  0.90954910535E+02 0.  0.
         23    2    1    2    0    0 -0.18252778566E+02  0.63264961546E+02  0.37979179281E+01  0.11446613973E+03  0.93554549218E+02 0.  0.
        -11    1    3    3    0    0  0.26678529951E+01 -0.56715555263E+02 -0.12078534703E+03  0.13346487068E+03  0.00000000000E+00 0. -1.
         11    1    3    3    0    0  0.76620025329E+02 -0.17590198968E+00 -0.16551837706E+03  0.18239241313E+03  0.00000000000E+00 0.  1.
        -13    1    4    4    0    0  0.14425943654E-01  0.83396192884E+02  0.15579730969E+02  0.84838984039E+02  0.00000000000E+00 0. -1.
         13    1    4    4    0    0 -0.18267204509E+02 -0.20131231339E+02 -0.11781813041E+02  0.29627155691E+02  0.00000000000E+00 0.  1.
          1    1    1    2  501    0 -0.61035099758E+02 -0.63735042933E+01  0.54630453342E+01  0.61609656904E+02  0.00000000000E+00 0. -1.
<scales pt_clust_5="13000.00000" pt_clust_6="13000.00000" pt_clust_7="13000.00000" pt_clust_8="13000.00000" pt_clust_9="13000.00000"></scales>
<clustering>
<clus scale="   90.955">  5  6 -1 -1</clus>
<clus scale="   93.555">  7  8 -1 -1</clus>
<clus scale="   61.367">  7  9 -1 -1</clus>
<clus scale="  133.402">  2  5  1 -1</clus>
<clus scale="  175.832">  1  5  2 -1</clus>
</clustering>
</event>
<event>
 9    1  0.6399313E-006  0.1587985E+03  0.7546771E-02  0.1202635E+00
          2   -1    0    0  502    0 -0.00000000000E+00  0.00000000000E+00  0.48878408363E+03  0.48878408363E+03  0.00000000000E+00 0. -1.
         21   -1    0    0  501  502  0.00000000000E+00 -0.00000000000E+00 -0.45698449975E+02  0.45698449975E+02  0.00000000000E+00 0. -1.
         23    2    1    2    0    0  0.20685131024E+02  0.76977363412E+02  0.28920560371E+03  0.31335808536E+03  0.90553958058E+02 0.  0.
         23    2    1    2    0    0  0.12207458015E+02 -0.33694177291E+02  0.71249721684E+02  0.12221476996E+03  0.92604576251E+02 0.  0.
        -11    1    3    3    0    0 -0.23199807669E+02  0.32217275568E+02  0.20256613092E+03  0.20642001191E+03  0.00000000000E+00 0.  1.
         11    1    3    3    0    0  0.43884938693E+02  0.44760087845E+02  0.86639472788E+02  0.10693807345E+03  0.00000000000E+00 0. -1.
        -13    1    4    4    0    0 -0.32014884276E+02 -0.26443387969E+02  0.64767896402E+02  0.76935596357E+02  0.00000000000E+00 0.  1.
         13    1    4    4    0    0  0.44222342291E+02 -0.72507893226E+01  0.64818252819E+01  0.45279173606E+02  0.00000000000E+00 0. -1.
          2    1    1    2  501    0 -0.32892589039E+02 -0.43283186121E+02  0.82630308265E+02  0.98909678285E+02  0.00000000000E+00 0. -1.
<scales pt_clust_5="13000.00000" pt_clust_6="13000.00000" pt_clust_7="13000.00000" pt_clust_8="13000.00000" pt_clust_9="13000.00000"></scales>
<clustering>
<clus scale="   90.554">  5  6 -1 -1</clus>
<clus scale="   92.605">  7  8 -1 -1</clus>
<clus scale="   54.363">  7  9 -1 -1</clus>
<clus scale="  120.638">  1  5  2 -1</clus>
<clus scale="  158.798">  2  5  1 -1</clus>
</clustering>
</event>
<event>
 9    1  0.6399313E-006  0.1607829E+03  0.7546771E-02  0.1210860E+00
         21   -1    0    0  501  502  0.00000000000E+00  0.00000000000E+00  0.23606915603E+02  0.23606915603E+02  0.00000000000E+00 0.  1.
         -1   -1    0    0    0  501 -0.00000000000E+00 -0.00000000000E+00 -0.72586935369E+03  0.72586935369E+03  0.00000000000E+00 0.  1.
         23    2    1    2    0    0  0.23577539276E+02 -0.20026206583E+02 -0.32749074838E+03  0.34167120155E+03  0.92369206899E+02 0.  0.
         23    2    1    2    0    0 -0.41356614381E+02  0.62509726763E+02 -0.29186317846E+03  0.31296432631E+03  0.84526440307E+02 0.  0.
        -13    1    3    3    0    0  0.53212502457E+02  0.51271728639E+01 -0.24083315094E+03  0.24669508489E+03  0.00000000000E+00 0. -1.
         13    1    3    3    0    0 -0.29634963180E+02 -0.25153379447E+02 -0.86657597444E+02  0.94976116656E+02  0.00000000000E+00 0.  1.
        -13    1    4    4    0    0  0.15924855658E+02  0.22840773475E+02 -0.25906987879E+02  0.38032538459E+02  0.00000000000E+00 0. -1.
         13    1    4    4    0    0 -0.57281470039E+02  0.39668953288E+02 -0.26595619058E+03  0.27493178785E+03  0.00000000000E+00 0.  1.
         -1    1    1    2    0  502  0.17779075105E+02 -0.42483520180E+02 -0.82908511252E+02  0.94840741438E+02  0.00000000000E+00 0.  1.
<scales pt_clust_5="13000.00000" pt_clust_6="13000.00000" pt_clust_7="13000.00000" pt_clust_8="13000.00000" pt_clust_9="13000.00000"></scales>
<clustering>
<clus scale="   84.526">  7  8 -1 -1</clus>
<clus scale="   46.054">  7  9 -1 -1</clus>
<clus scale="   92.369">  5  6 -1 -1</clus>
<clus scale="   97.412">  2  5  1 -1</clus>
<clus scale="  160.783">  1  5  2 -1</clus>
</clustering>
</event>
<event>
 9    1  0.6399313E-006  0.4748938E+03  0.7546771E-02  0.1032371E+00
         21   -1    0    0  501  502  0.00000000000E+00  0.00000000000E+00  0.15887706016E+03  0.15887706016E+03  0.00000000000E+00 0. -1.
          2   -1    0    0  502    0 -0.00000000000E+00 -0.00000000000E+00 -0.22122939141E+04  0.22122939141E+04  0.00000000000E+00 0. -1.
         23    2    1    2    0    0  0.10796903714E+02 -0.32092145657E+03 -0.18043622015E+04  0.18349319006E+04  0.90249493362E+02 0.  0.
         23    2    1    2    0    0 -0.97003931777E+02  0.19990094530E+03 -0.29458237529E+03  0.38083511816E+03  0.94268025722E+02 0.  0.
        -13    1    3    3    0    0  0.22774892775E+02 -0.17537896960E+02 -0.11764818573E+03  0.12110891452E+03  0.00000000000E+00 0.  1.
         13    1    3    3    0    0 -0.11977989060E+02 -0.30338355961E+03 -0.16867140158E+04  0.17138229861E+04  0.00000000000E+00 0. -1.
        -13    1    4    4    0    0 -0.97382262392E+02  0.96245225999E+02 -0.18276896329E+03  0.22836580852E+03  0.00000000000E+00 0. -1.
         13    1    4    4    0    0  0.37833061462E+00  0.10365571931E+03 -0.11181341200E+03  0.15246930964E+03  0.00000000000E+00 0.  1.
          2    1    1    2  501    0  0.86207028062E+02  0.12102051126E+03  0.45527722903E+02  0.15540395551E+03  0.00000000000E+00 0. -1.
<scales pt_clust_5="13000.00000" pt_clust_6="13000.00000" pt_clust_7="13000.00000" pt_clust_8="13000.00000" pt_clust_9="13000.00000"></scales>
<clustering>
<clus scale="   90.249">  5  6 -1 -1</clus>
<clus scale="   94.268">  7  8 -1 -1</clus>
<clus scale="  148.585">  7  9 -1 -1</clus>
<clus scale="  333.545">  2  5  1 -1</clus>
<clus scale="  474.894">  1  5  2 -1</clus>
</clustering>
</event>
<event>
 9    1  0.6399313E-006  0.3577522E+03  0.7546771E-02  0.1104893E+00
          2   -1    0    0  502    0 -0.00000000000E+00  0.00000000000E+00  0.15014344420E+03  0.15014344420E+03  0.00000000000E+00 0. -1.
         21   -1    0    0  501  502  0.00000000000E+00 -0.00000000000E+00 -0.63056517058E+03  0.63056517058E+03  0.00000000000E+00 0. -1.
         23    2    1    2    0    0 -0.26573113433E+02 -0.46195154077E+02  0.68145920414E+02  0.12579405007E+03  0.91324443318E+02 0.  0.
         23    2    1    2    0    0  0.65688510101E+02 -0.18013576944E+02 -0.18273239501E+02  0.11931682965E+03  0.96245131009E+02 0.  0.
        -11    1    3    3    0    0 -0.41024355480E+02 -0.60744543791E+02  0.74312482882E+02  0.10438027809E+03  0.00000000000E+00 0. -1.
         11    1    3    3    0    0  0.14451242046E+02  0.14549389714E+02 -0.61665624687E+01  0.21413771980E+02  0.00000000000E+00 0.  1.
        -11    1    4    4    0    0  0.50686997316E+02 -0.56848771253E+02 -0.14310338965E+02  0.77496711486E+02  0.00000000000E+00 0. -1.
         11    1    4    4    0    0  0.15001512785E+02  0.38835194308E+02 -0.39629005363E+01  0.41820118166E+02  0.00000000000E+00 0.  1.
          2    1    1    2  501    0 -0.39115396667E+02  0.64208731021E+02 -0.53029440729E+03  0.53559773506E+03  0.00000000000E+00 0. -1.
<scales pt_clust_5="13000.00000" pt_clust_6="13000.00000" pt_clust_7="13000.00000" pt_clust_8="13000.00000" pt_clust_9="13000.00000"></scales>
<clustering>
<clus scale="   91.324">  5  6 -1 -1</clus>
<clus scale="   96.245">  7  8 -1 -1</clus>
<clus scale="   75.185">  7  9 -1 -1</clus>
<clus scale="  105.737">  1  5  2 -1</clus>
<clus scale="  357.752">  2  5  1 -1</clus>
</clustering>
</event>
<event>
 9    1  0.6399313E-006  0.2155853E+03  0.7546771E-02  0.1170373E+00
         21   -1    0    0  501  502  0.00000000000E+00  0.00000000000E+00  0.12189903239E+03  0.12189903239E+03  0.00000000000E+00 0. -1.
          1   -1    0    0  502    0 -0.00000000000E+00 -0.00000000000E+00 -0.24948047537E+03  0.24948047537E+03  0.00000000000E+00 0. -1.
         23    2    1    2    0    0 -0.27966169643E+02  0.28380586523E+02  0.31249666012E+02  0.10360282508E+03  0.90384951202E+02 0.  0.
         23    2    1    2    0    0 -0.45053501656E+02 -0.66227116177E+02 -0.13664148471E+03  0.18259093487E+03  0.90844401163E+02 0.  0.
        -11    1    4    4    0    0 -0.38962825698E+02 -0.29178429488E+01 -0.91702252271E+01  0.40133634580E+02  0.00000000000E+00 0.  1.
         11    1    4    4    0    0 -0.60906759575E+01 -0.63309273228E+02 -0.12747125949E+03  0.14245730029E+03  0.00000000000E+00 0. -1.
        -11    1    3    3    0    0 -0.87108136876E+01 -0.29752185563E+02  0.28801003751E+02  0.42315111224E+02  0.00000000000E+00 0. -1.
         11    1    3    3    0    0 -0.19255355955E+02  0.58132772086E+02  0.24486622610E+01  0.61287713860E+02  0.00000000000E+00 0.  1.
          1    1    1    2  501    0  0.73019671299E+02  0.37846529654E+02 -0.22189624274E+02  0.85185747803E+02  0.00000000000E+00 0. -1.
<scales pt_clust_5="13000.00000" pt_clust_6="13000.00000" pt_clust_7="13000.00000" pt_clust_8="13000.00000" pt_clust_9="13000.00000"></scales>
<clustering>
<clus scale="   90.385">  7  8 -1 -1</clus>
<clus scale="   90.844">  5  6 -1 -1</clus>
<clus scale="   82.245">  5  9 -1 -1</clus>
<clus scale="   98.778">  2  7  1 -1</clus>
<clus scale="  215.585">  1  5  2 -1</clus>
</clustering>
</event>
<event>
 9    1  0.6399313E-006  0.2614593E+03  0.7546771E-02  0.1150891E+00
         21   -1    0    0  501  502  0.00000000000E+00  0.00000000000E+00  0.14624533579E+03  0.14624533579E+03  0.00000000000E+00 0. -1.
          1   -1    0    0  502    0 -0.00000000000E+00 -0.00000000000E+00 -0.32673665770E+03  0.32673665770E+03  0.00000000000E+00 0. -1.
         23    2    1    2    0    0  0.30850135187E+02 -0.21890410763E+02 -0.19245347062E+03  0.21124922988E+03  0.78466412217E+02 0.  0.
         23    2    1    2    0    0 -0.56415793866E+02 -0.29695669162E+02 -0.90955121231E+02  0.14380612965E+03  0.91338897968E+02 0.  0.
        -13    1    4    4    0    0  0.16978880787E+02  0.17241009766E+02 -0.21921027216E+02  0.32650669897E+02  0.00000000000E+00 0.  1.
         13    1    4    4    0    0 -0.73394674653E+02 -0.46936678928E+02 -0.69034094015E+02  0.11115545975E+03  0.00000000000E+00 0. -1.
        -13    1    3    3    0    0  0.55339892490E+02 -0.99853315418E+01 -0.98416231414E+02  0.11334886480E+03  0.00000000000E+00 0.  1.
         13    1    3    3    0    0 -0.24489757304E+02 -0.11905079222E+02 -0.94037239207E+02  0.97900365075E+02  0.00000000000E+00 0. -1.
          1    1    1    2  501    0  0.25565658679E+02  0.51586079926E+02  0.10291726995E+03  0.11792663397E+03  0.00000000000E+00 0. -1.
<scales pt_clust_5="13000.00000" pt_clust_6="13000.00000" pt_clust_7="13000.00000" pt_clust_8="13000.00000" pt_clust_9="13000.00000"></scales>
<clustering>
<clus scale="   78.466">  7  8 -1 -1</clus>
<clus scale="   87.109">  2  7  1 -1</clus>
<clus scale="   91.339">  5  6 -1 -1</clus>
<clus scale="   57.262">  5  9 -1 -1</clus>
<clus scale="  261.459">  1  5  2 -1</clus>
</clustering>
</event>
<event>
 9    1  0.6399313E-006  0.1855910E+03  0.7546771E-02  0.1191710E+00
         -4   -1    0    0    0  501 -0.00000000000E+00  0.00000000000E+00  0.27582360186E+03  0.27582360186E+03  0.00000000000E+00 0.  1.
         21   -1    0    0  501  502  0.00000000000E+00 -0.00000000000E+00 -0.97252596425E+02  0.97252596425E+02  0.00000000000E+00 0. -1.
         23    2    1    2    0    0 -0.53959504654E+02  0.26087435466E+02  0.16001213213E+03  0.18655961619E+03  0.74889422054E+02 0.  0.
         23    2    1    2    0    0  0.20124864574E+02 -0.16760966842E+02 -0.44007420416E+02  0.11477881660E+03  0.10272090102E+03 0.  0.
        -11    1    3    3    0    0 -0.22619951051E+02  0.46781053482E+02  0.58094793593E+02  0.77943147184E+02  0.00000000000E+00 0. -1.
         11    1    3    3    0    0 -0.31339553603E+02 -0.20693618016E+02  0.10191733853E+03  0.10861646901E+03  0.00000000000E+00 0.  1.
        -13    1    4    4    0    0  0.47752474863E+02  0.22218231327E+02 -0.41290798382E+02  0.66924425211E+02  0.00000000000E+00 0. -1.
         13    1    4    4    0    0 -0.27627610290E+02 -0.38979198169E+02 -0.27166220340E+01  0.47854391392E+02  0.00000000000E+00 0.  1.
         -4    1    1    2    0  502  0.33834640080E+02 -0.93264686240E+01  0.62566293722E+02  0.71737765483E+02  0.00000000000E+00 0.  1.
<scales pt_clust_5="13000.00000" pt_clust_6="13000.00000" pt_clust_7="13000.00000" pt_clust_8="13000.00000" pt_clust_9="13000.00000"></scales>
<clustering>
<clus scale="   74.889">  5  6 -1 -1</clus>
<clus scale="   95.920">  1  5  2 -1</clus>
<clus scale="  102.721">  7  8 -1 -1</clus>
<clus scale="    7.903">  7  9 -1 -1</clus>
<clus scale="  185.591">  2  5  1 -1</clus>
</clustering>
</event>
<event>
 9    1  0.6399313E-006  0.2285234E+03  0.7546771E-02  0.1136421E+00
         21   -1    0    0  501  502  0.00000000000E+00  0.00000000000E+00  0.69837092170E+02  0.69837092170E+02  0.00000000000E+00 0.  1.
          2   -1    0    0  502    0 -0.00000000000E+00 -0.00000000000E+00 -0.71760281046E+03  0.71760281046E+03  0.00000000000E+00 0.  1.
         23    2    1    2    0    0  0.15443951335E+02 -0.15891292203E+03 -0.44570324853E+03  0.48239533065E+03  0.92531275065E+02 0.  0.
         23    2    1    2    0    0 -0.11177689130E+02  0.32330820255E+02 -0.11688857520E+03  0.15241488353E+03  0.91635882909E+02 0.  0.
        -11    1    3    3    0    0  0.49629456408E+02 -0.10945476145E+03 -0.34228516867E+03  0.36277067748E+03  0.00000000000E+00 0.  1.
         11    1    3    3    0    0 -0.34185505073E+02 -0.49458160578E+02 -0.10341807985E+03  0.11962465317E+03  0.00000000000E+00 0. -1.
        -13    1    4    4    0    0  0.22502919859E+02 -0.22410561405E+02 -0.25716171110E+02  0.40864851905E+02  0.00000000000E+00 0.  1.
         13    1    4    4    0    0 -0.33680608989E+02  0.54741381660E+02 -0.91172404093E+02  0.11155003163E+03  0.00000000000E+00 0. -1.
          2    1    1    2  501    0 -0.42662622050E+01  0.12658210177E+03 -0.85173894562E+02  0.15262968845E+03  0.00000000000E+00 0.  1.
<scales pt_clust_5="13000.00000" pt_clust_6="13000.00000" pt_clust_7="13000.00000" pt_clust_8="13000.00000" pt_clust_9="13000.00000"></scales>
<clustering>
<clus scale="   91.636">  7  8 -1 -1</clus>
<clus scale="   92.531">  5  6 -1 -1</clus>
<clus scale="  126.654">  7  9 -1 -1</clus>
<clus scale="  184.537">  2  5  1 -1</clus>
<clus scale="  228.523">  1  5  2 -1</clus>
</clustering>
</event>
<event>
 9    1  0.6399313E-006  0.3588581E+03  0.7546771E-02  0.1071259E+00
         21   -1    0    0  501  502  0.00000000000E+00  0.00000000000E+00  0.13218563291E+03  0.13218563291E+03  0.00000000000E+00 0.  1.
         -3   -1    0    0    0  501 -0.00000000000E+00 -0.00000000000E+00 -0.78215011502E+03  0.78215011502E+03  0.00000000000E+00 0.  1.
         23    2    1    2    0    0  0.50273652931E+02 -0.23338802228E+03 -0.40796162732E+03  0.48150261636E+03  0.91731516247E+02 0.  0.
         23    2    1    2    0    0 -0.62234953582E+02  0.60150866153E+02 -0.22605870139E+03  0.25845308395E+03  0.90576729804E+02 0.  0.
        -11    1    3    3    0    0  0.35256443958E+02 -0.17839279583E+02 -0.69683315279E+02  0.80106311642E+02  0.00000000000E+00 0. -1.
         11    1    3    3    0    0  0.15017208973E+02 -0.21554874270E+03 -0.33827831204E+03  0.40139630472E+03  0.00000000000E+00 0.  1.
        -13    1    4    4    0    0 -0.57902504065E+02 -0.66777243942E+01 -0.10255353646E+03  0.11795982291E+03  0.00000000000E+00 0.  1.
         13    1    4    4    0    0 -0.43324495170E+01  0.66828590547E+02 -0.12350516494E+03  0.14049326104E+03  0.00000000000E+00 0. -1.
         -3    1    1    2    0  502  0.11961300651E+02  0.17323715613E+03 -0.15944153404E+02  0.17438004761E+03  0.00000000000E+00 0.  1.
<scales pt_clust_5="13000.00000" pt_clust_6="13000.00000" pt_clust_7="13000.00000" pt_clust_8="13000.00000" pt_clust_9="13000.00000"></scales>
<clustering>
<clus scale="   90.577">  7  8 -1 -1</clus>
<clus scale="   91.732">  5  6 -1 -1</clus>
<clus scale="  173.650">  7  9 -1 -1</clus>
<clus scale="  255.758">  2  5  1 -1</clus>
<clus scale="  358.858">  1  5  2 -1</clus>
</clustering>
</event>
<event>
 9    1  0.6399313E-006  0.1515595E+03  0.7546771E-02  0.1219675E+00
         21   -1    0    0  501  502  0.00000000000E+00  0.00000000000E+00  0.39428438231E+03  0.39428438231E+03  0.00000000000E+00 0. -1.
         -1   -1    0    0    0  501 -0.00000000000E+00 -0.00000000000E+00 -0.47503818588E+02  0.47503818588E+02  0.00000000000E+00 0.  1.
         23    2    1    2    0    0 -0.67066890322E+01 -0.31641817697E+02  0.50329507723E+02  0.10884150498E+03  0.90924306723E+02 0.  0.
         23    2    1    2    0    0  0.98497109452E+01 -0.17282251223E+02  0.21994489062E+03  0.24208066020E+03  0.99154415538E+02 0.  0.
        -13    1    3    3    0    0 -0.43606554650E+02  0.11203766850E+01  0.38305035890E+02  0.58052240499E+02  0.00000000000E+00 0.  1.
         13    1    3    3    0    0  0.36899865618E+02 -0.32762194382E+02  0.12024471833E+02  0.50789264478E+02  0.00000000000E+00 0. -1.
        -13    1    4    4    0    0 -0.14285416026E+02 -0.54201318998E+02  0.13944140389E+03  0.15028559882E+03  0.00000000000E+00 0.  1.
         13    1    4    4    0    0  0.24135126971E+02  0.36919067776E+02  0.80503486730E+02  0.91795061387E+02  0.00000000000E+00 0. -1.
         -1    1    1    2    0  502 -0.31430219130E+01  0.48924068920E+02  0.76506165374E+02  0.90866035716E+02  0.00000000000E+00 0.  1.
<scales pt_clust_5="13000.00000" pt_clust_6="13000.00000" pt_clust_7="13000.00000" pt_clust_8="13000.00000" pt_clust_9="13000.00000"></scales>
<clustering>
<clus scale="   90.924">  5  6 -1 -1</clus>
<clus scale="   96.506">  2  5  1 -1</clus>
<clus scale="   99.154">  7  8 -1 -1</clus>
<clus scale="   36.929">  7  9 -1 -1</clus>
<clus scale="  151.559">  1  5  2 -1</clus>
</clustering>
</event>
<event>
 9    1  0.6399313E-006  0.1427227E+03  0.7546771E-02  0.1218233E+00
          2   -1    0    0  502    0 -0.00000000000E+00  0.00000000000E+00  0.61488540793E+03  0.61488540793E+03  0.00000000000E+00 0. -1.
         21   -1    0    0  501  502  0.00000000000E+00 -0.00000000000E+00 -0.36360530245E+02  0.36360530245E+02  0.00000000000E+00 0.  1.
         23    2    1    2    0    0  0.67894318942E+02  0.26359061558E+02  0.42607586309E+03  0.44241475090E+03  0.94264160904E+02 0.  0.
         23    2    1    2    0    0 -0.51751398696E+02  0.93226661996E+01  0.11927460443E+03  0.15750554982E+03  0.88410675785E+02 0.  0.
        -13    1    3    3    0    0  0.65012112645E+02 -0.31503028073E+01  0.39147031034E+03  0.39684443184E+03  0.00000000000E+00 0.  1.
         13    1    3    3    0    0  0.28822062971E+01  0.29509364365E+02  0.34605552750E+02  0.45570319063E+02  0.00000000000E+00 0. -1.
        -13    1    4    4    0    0 -0.10375674598E+02  0.32310994439E+02  0.56326978952E+01  0.34400323698E+02  0.00000000000E+00 0.  1.
         13    1    4    4    0    0 -0.41375724098E+02 -0.22988328239E+02  0.11364190653E+03  0.12310522613E+03  0.00000000000E+00 0. -1.
          2    1    1    2  501    0 -0.16142920245E+02 -0.35681727758E+02  0.33174410164E+02  0.51325637449E+02  0.00000000000E+00 0. -1.
<scales pt_clust_5="13000.00000" pt_clust_6="13000.00000" pt_clust_7="13000.00000" pt_clust_8="13000.00000" pt_clust_9="13000.00000"></scales>
<clustering>
<clus scale="   88.411">  7  8 -1 -1</clus>
<clus scale="   39.164">  7  9 -1 -1</clus>
<clus scale="   94.264">  5  6 -1 -1</clus>
<clus scale="  119.123">  1  5  2 -1</clus>
<clus scale="  142.723">  2  5  1 -1</clus>
</clustering>
</event>
<event>
 9    1  0.6399313E-006  0.2191767E+03  0.7546771E-02  0.1155645E+00
         21   -1    0    0  501  502  0.00000000000E+00  0.00000000000E+00  0.11095232145E+03  0.11095232145E+03  0.00000000000E+00 0. -1.
          1   -1    0    0  502    0 -0.00000000000E+00 -0.00000000000E+00 -0.28287339138E+03  0.28287339138E+03  0.00000000000E+00 0. -1.
         23    2    1    2    0    0 -0.70436115795E+02 -0.63974140321E+02 -0.40508725092E+02  0.13827213399E+03  0.91783926644E+02 0.  0.
         23    2    1    2    0    0  0.87828724838E+02  0.26550986114E+02 -0.15961519975E+03  0.20556961796E+03  0.91449527427E+02 0.  0.
        -11    1    4    4    0    0  0.50945519861E+02  0.60693304505E+02 -0.10026260438E+03  0.12779559086E+03  0.00000000000E+00 0. -1.
         11    1    4    4    0    0  0.36883204977E+02 -0.34142318391E+02 -0.59352595370E+02  0.77774027101E+02  0.00000000000E+00 0.  1.
        -11    1    3    3    0    0 -0.68127339588E+02 -0.85061222723E+02 -0.42481244278E+02  0.11696752595E+03  0.00000000000E+00 0. -1.
         11    1    3    3    0    0 -0.23087762079E+01  0.21087082402E+02  0.19725191853E+01  0.21304608040E+02  0.00000000000E+00 0.  1.
          1    1    1    2  501    0 -0.17392609042E+02  0.37423154207E+02  0.28202854920E+02  0.49983960885E+02  0.00000000000E+00 0. -1.
<scales pt_clust_5="13000.00000" pt_clust_6="13000.00000" pt_clust_7="13000.00000" pt_clust_8="13000.00000" pt_clust_9="13000.00000"></scales>
<clustering>
<clus scale="   91.450">  5  6 -1 -1</clus>
<clus scale="   41.267">  5  9 -1 -1</clus>
<clus scale="   91.784">  7  8 -1 -1</clus>
<clus scale="  132.205">  2  7  1 -1</clus>
<clus scale="  219.177">  1  5  2 -1</clus>
</clustering>
</event>
<event>
 9    1  0.6399313E-006  0.7359118E+03  0.7546771E-02  0.9967663E-01
          2   -1    0    0  502    0 -0.00000000000E+00  0.00000000000E+00  0.80037441385E+03  0.80037441385E+03  0.00000000000E+00 0. -1.
         21   -1    0    0  501  502  0.00000000000E+00 -0.00000000000E+00 -0.32220968467E+03  0.32220968467E+03  0.00000000000E+00 0. -1.
         23    2    1    2    0    0 -0.23437934022E+03  0.61211321725E+02  0.20996237439E+03  0.33932250587E+03  0.11124326182E+03 0.  0.
         23    2    1    2    0    0 -0.15571715675E+02 -0.26083112693E+03  0.35623561887E+03  0.45148839821E+03  0.93073102758E+02 0.  0.
        -11    1    3    3    0    0 -0.17187733450E+03  0.62548581634E+02  0.20771411892E+03  0.27676578252E+03  0.00000000000E+00 0. -1.
         11    1    3    3    0    0 -0.62502005715E+02 -0.13372599090E+01  0.22482554752E+01  0.62556723341E+02  0.00000000000E+00 0.  1.
        -11    1    4    4    0    0  0.34656875562E+02 -0.14949165862E+03  0.22343474886E+03  0.27105708259E+03  0.00000000000E+00 0.  1.
         11    1    4    4    0    0 -0.50228591237E+02 -0.11133946831E+03  0.13280087001E+03  0.18043131562E+03  0.00000000000E+00 0. -1.
          2    1    1    2  501    0  0.24995105589E+03  0.19961980520E+03 -0.88033264086E+02  0.33177319445E+03  0.00000000000E+00 0. -1.
<scales pt_clust_5="13000.00000" pt_clust_6="13000.00000" pt_clust_7="13000.00000" pt_clust_8="13000.00000" pt_clust_9="13000.00000"></scales>
<clustering>
<clus scale="   93.073">  7  8 -1 -1</clus>
<clus scale="  111.243">  5  6 -1 -1</clus>
<clus scale="  266.562">  1  5  2 -1</clus>
<clus scale="  289.796">  7  9 -1 -1</clus>
<clus scale="  735.912">  2  5  1 -1</clus>
</clustering>
</event>
<event>
 9    1  0.6399313E-006  0.2833641E+03  0.7546771E-02  0.1124759E+00
         21   -1    0    0  501  502  0.00000000000E+00  0.00000000000E+00  0.29120966611E+03  0.29120966611E+03  0.00000000000E+00 0. -1.
          1   -1    0    0  502    0 -0.00000000000E+00 -0.00000000000E+00 -0.16997280962E+03  0.16997280962E+03  0.00000000000E+00 0. -1.
         23    2    1    2    0    0  0.22296541451E+02 -0.86860319459E+02 -0.40301887316E+02  0.13500768536E+03  0.92525575537E+02 0.  0.
         23    2    1    2    0    0 -0.12662991620E+03  0.19731000297E+02  0.11317883503E+03  0.19301894425E+03  0.89567941204E+02 0.  0.
        -11    1    4    4    0    0 -0.40414215453E+02  0.37974935034E+02  0.83688996107E+01  0.56084248967E+02  0.00000000000E+00 0.  1.
         11    1    4    4    0    0 -0.86215700747E+02 -0.18243934737E+02  0.10480993542E+03  0.13693469528E+03  0.00000000000E+00 0. -1.
        -13    1    3    3    0    0 -0.66932379104E+01 -0.97677019816E+02 -0.30174892825E+02  0.10245059195E+03  0.00000000000E+00 0. -1.
         13    1    3    3    0    0  0.28989779361E+02  0.10816700358E+02 -0.10126994492E+02  0.32557093412E+02  0.00000000000E+00 0.  1.
          1    1    1    2  501    0  0.10433337475E+03  0.67129319162E+02  0.48359908779E+02  0.13315584612E+03  0.00000000000E+00 0. -1.
<scales pt_clust_5="13000.00000" pt_clust_6="13000.00000" pt_clust_7="13000.00000" pt_clust_8="13000.00000" pt_clust_9="13000.00000"></scales>
<clustering>
<clus scale="   89.568">  5  6 -1 -1</clus>
<clus scale="   92.526">  7  8 -1 -1</clus>
<clus scale="  124.064">  5  9 -1 -1</clus>
<clus scale="  128.852">  2  7  1 -1</clus>
<clus scale="  283.364">  1  5  2 -1</clus>
</clustering>
</event>
<event>
 9    1  0.6399313E-006  0.1558226E+03  0.7546771E-02  0.1208090E+00
          1   -1    0    0  502    0 -0.00000000000E+00  0.00000000000E+00  0.32301396943E+03  0.32301396943E+03  0.00000000000E+00 0. -1.
         21   -1    0    0  501  502  0.00000000000E+00 -0.00000000000E+00 -0.57031173114E+02  0.57031173114E+02  0.00000000000E+00 0.  1.
         23    2    1    2    0    0  0.41586121296E+02 -0.56365113149E+02  0.13569211517E+03  0.17692853812E+03  0.89358413237E+02 0.  0.
         23    2    1    2    0    0 -0.49821839883E+02  0.20970364336E+02  0.55752284459E+02  0.12019140991E+03  0.91737047506E+02 0.  0.
        -13    1    3    3    0    0  0.29611563866E+02  0.20179913978E+02  0.37775894672E+02  0.52068146318E+02  0.00000000000E+00 0.  1.
         13    1    3    3    0    0  0.11974557430E+02 -0.76545027127E+02  0.97916220497E+02  0.12486039180E+03  0.00000000000E+00 0. -1.
        -13    1    4    4    0    0 -0.33629244892E+02 -0.11269830732E+02 -0.16738607019E+02  0.39218824073E+02  0.00000000000E+00 0.  1.
         13    1    4    4    0    0 -0.16192594991E+02  0.32240195067E+02  0.72490891478E+02  0.80972585841E+02  0.00000000000E+00 0. -1.
          1    1    1    2  501    0  0.82357185866E+01  0.35394748814E+02  0.74538396685E+02  0.82925194510E+02  0.00000000000E+00 0. -1.
<scales pt_clust_5="13000.00000" pt_clust_6="13000.00000" pt_clust_7="13000.00000" pt_clust_8="13000.00000" pt_clust_9="13000.00000"></scales>
<clustering>
<clus scale="   89.358">  5  6 -1 -1</clus>
<clus scale="   91.737">  7  8 -1 -1</clus>
<clus scale="   36.340">  7  9 -1 -1</clus>
<clus scale="  113.540">  1  5  2 -1</clus>
<clus scale="  155.823">  2  5  1 -1</clus>
</clustering>
</event>
<event>
 9    1  0.6399313E-006  0.2539566E+03  0.7546771E-02  0.1150973E+00
         -1   -1    0    0    0  501 -0.00000000000E+00  0.00000000000E+00  0.11036197782E+03  0.11036197782E+03  0.00000000000E+00 0.  1.
         21   -1    0    0  501  502  0.00000000000E+00 -0.00000000000E+00 -0.28295008711E+03  0.28295008711E+03  0.00000000000E+00 0.  1.
         23    2    1    2    0    0 -0.25486474093E+02 -0.70716178802E+01 -0.76169691394E+02  0.12166806735E+03  0.91113822134E+02 0.  0.
         23    2    1    2    0    0 -0.28336366408E+02  0.24188957952E+01  0.57666064542E+02  0.10836333825E+03  0.87226357020E+02 0.  0.
        -11    1    4    4    0    0  0.15554866622E+02  0.25526537768E+02  0.49883169075E+02  0.58154007282E+02  0.00000000000E+00 0. -1.
         11    1    4    4    0    0 -0.43891233030E+02 -0.23107641973E+02  0.77828954670E+01  0.50209330968E+02  0.00000000000E+00 0.  1.
        -11    1    3    3    0    0  0.20350779434E+02  0.29585092436E+02 -0.24477770483E+02  0.43457947097E+02  0.00000000000E+00 0. -1.
         11    1    3    3    0    0 -0.45837253527E+02 -0.36656710317E+02 -0.51691920911E+02  0.78210120250E+02  0.00000000000E+00 0.  1.
         -1    1    1    2    0  502  0.53822840501E+02  0.46527220850E+01 -0.15408448244E+03  0.16328065933E+03  0.00000000000E+00 0.  1.
<scales pt_clust_5="13000.00000" pt_clust_6="13000.00000" pt_clust_7="13000.00000" pt_clust_8="13000.00000" pt_clust_9="13000.00000"></scales>
<clustering>
<clus scale="   87.226">  5  6 -1 -1</clus>
<clus scale="   54.024">  5  9 -1 -1</clus>
<clus scale="   91.114">  7  8 -1 -1</clus>
<clus scale="   94.875">  1  7  2 -1</clus>
<clus scale="  253.957">  2  5  1 -1</clus>
</clustering>
</event>
<event>
 9    1  0.6399313E-006  0.6123048E+03  0.7546771E-02  0.1017267E+00
         21   -1    0    0  501  502  0.00000000000E+00  0.00000000000E+00  0.11153528606E+03  0.11153528606E+03  0.00000000000E+00 0. -1.
          2   -1    0    0  502    0 -0.00000000000E+00 -0.00000000000E+00 -0.16523955323E+04  0.16523955323E+04  0.00000000000E+00 0. -1.
         23    2    1    2    0    0  0.12720203574E+03 -0.18881576029E+03 -0.48918975929E+03  0.54699698520E+03  0.89818327689E+02 0.  0.
         23    2    1    2    0    0  0.18873625121E+03  0.83521364792E+01 -0.60823364115E+03  0.64333087214E+03  0.90748653525E+02 0.  0.
        -13    1    4    4    0    0  0.71291878977E+01  0.23173663618E+02 -0.11472613553E+03  0.11726009628E+03  0.00000000000E+00 0.  1.
         13    1    4    4    0    0  0.18160706332E+03 -0.14821527139E+02 -0.49350750562E+03  0.52607077586E+03  0.00000000000E+00 0. -1.
        -13    1    3    3    0    0  0.57352106665E+02 -0.47793852365E+02 -0.24810760553E+03  0.25909631488E+03  0.00000000000E+00 0.  1.
         13    1    3    3    0    0  0.69849929072E+02 -0.14102190793E+03 -0.24108215376E+03  0.28790067032E+03  0.00000000000E+00 0. -1.
          2    1    1    2  501    0 -0.31593828695E+03  0.18046362381E+03 -0.44343684582E+03  0.57360296104E+03  0.00000000000E+00 0. -1.
<scales pt_clust_5="13000.00000" pt_clust_6="13000.00000" pt_clust_7="13000.00000" pt_clust_8="13000.00000" pt_clust_9="13000.00000"></scales>
<clustering>
<clus scale="   89.818">  7  8 -1 -1</clus>
<clus scale="   90.749">  5  6 -1 -1</clus>
<clus scale="  244.743">  2  7  1 -1</clus>
<clus scale="  276.073">  5  9 -1 -1</clus>
<clus scale="  612.305">  1  5  2 -1</clus>
</clustering>
</event>
<event>
 9    1  0.6399313E-006  0.2014905E+03  0.7546771E-02  0.1173092E+00
         21   -1    0    0  501  502  0.00000000000E+00  0.00000000000E+00  0.26919360167E+03  0.26919360167E+03  0.00000000000E+00 0. -1.
          1   -1    0    0  502    0 -0.00000000000E+00 -0.00000000000E+00 -0.11400982126E+03  0.11400982126E+03  0.00000000000E+00 0. -1.
         23    2    1    2    0    0 -0.62688632689E+02  0.23376607746E+02 -0.20890131036E+02  0.11562084091E+03  0.91953525330E+02 0.  0.
         23    2    1    2    0    0  0.35631046495E+02  0.59342329958E+02  0.85677100808E+02  0.14209904126E+03  0.89780222356E+02 0.  0.
        -13    1    4    4    0    0 -0.22401543108E+02  0.22146249557E+02 -0.80088414095E+00  0.31510742906E+02  0.00000000000E+00 0. -1.
         13    1    4    4    0    0  0.58032589603E+02  0.37196080401E+02  0.86477984949E+02  0.11058829836E+03  0.00000000000E+00 0.  1.
        -13    1    3    3    0    0 -0.17811336822E+02  0.28225622887E+02  0.31896682633E+02  0.46166306651E+02  0.00000000000E+00 0.  1.
         13    1    3    3    0    0 -0.44877295867E+02 -0.48490151419E+01 -0.52786813670E+02  0.69454534262E+02  0.00000000000E+00 0. -1.
          1    1    1    2  501    0  0.27057586194E+02 -0.82718937704E+02  0.90396810643E+02  0.12548354075E+03  0.00000000000E+00 0. -1.
<scales pt_clust_5="13000.00000" pt_clust_6="13000.00000" pt_clust_7="13000.00000" pt_clust_8="13000.00000" pt_clust_9="13000.00000"></scales>
<clustering>
<clus scale="   89.780">  5  6 -1 -1</clus>
<clus scale="   87.032">  5  9 -1 -1</clus>
<clus scale="   91.954">  7  8 -1 -1</clus>
<clus scale="  113.718">  2  7  1 -1</clus>
<clus scale="  201.490">  1  5  2 -1</clus>
</clustering>
</event>
<event>
 9    1  0.6399313E-006  0.2955748E+03  0.7546771E-02  0.1120558E+00
         21   -1    0    0  501  502  0.00000000000E+00  0.00000000000E+00  0.14753918142E+03  0.14753918142E+03  0.00000000000E+00 0. -1.
          4   -1    0    0  502    0 -0.00000000000E+00 -0.00000000000E+00 -0.35194677208E+03  0.35194677208E+03  0.00000000000E+00 0. -1.
         23    2    1    2    0    0 -0.25216786656E+02  0.80248960107E+02 -0.15504552220E+03  0.19981766087E+03  0.93873328034E+02 0.  0.
         23    2    1    2    0    0  0.12488512304E+03 -0.40684317909E+02 -0.92388169828E+02  0.18412443260E+03  0.90081768826E+02 0.  0.
        -13    1    4    4    0    0  0.42586072982E+02  0.19094376246E+01 -0.79977535456E+02  0.90629055726E+02  0.00000000000E+00 0.  1.
         13    1    4    4    0    0  0.82299050059E+02 -0.42593755534E+02 -0.12410634372E+02  0.93495376873E+02  0.00000000000E+00 0. -1.
        -13    1    3    3    0    0 -0.37086390746E+02  0.46522834512E+02 -0.15282175450E+03  0.16399470466E+03  0.00000000000E+00 0.  1.
         13    1    3    3    0    0  0.11869604090E+02  0.33726125596E+02 -0.22237676993E+01  0.35822956212E+02  0.00000000000E+00 0. -1.
          4    1    1    2  501    0 -0.99668336386E+02 -0.39564642198E+02  0.43026101367E+02  0.11554386002E+03  0.00000000000E+00 0. -1.
<scales pt_clust_5="13000.00000" pt_clust_6="13000.00000" pt_clust_7="13000.00000" pt_clust_8="13000.00000" pt_clust_9="13000.00000"></scales>
<clustering>
<clus scale="   90.082">  5  6 -1 -1</clus>
<clus scale="   93.873">  7  8 -1 -1</clus>
<clus scale="  107.234">  5  9 -1 -1</clus>
<clus scale="  126.048">  2  7  1 -1</clus>
<clus scale="  295.575">  1  5  2 -1</clus>
</clustering>
</event>
<event>
 9    1  0.6399313E-006  0.1317515E+03  0.7546771E-02  0.1237905E+00
          1   -1    0    0  502    0 -0.00000000000E+00  0.00000000000E+00  0.90610175862E+02  0.90610175862E+02  0.00000000000E+00 0. -1.
         21   -1    0    0  501  502  0.00000000000E+00 -0.00000000000E+00 -0.23245712255E+03  0.23245712255E+03  0.00000000000E+00 0.  1.
         23    2    1    2    0    0 -0.15123656051E+02  0.38837256866E+02  0.31299897639E+02  0.10549365170E+03  0.91717879738E+02 0.  0.
         23    2    1    2    0    0  0.15147374110E+02 -0.59200487585E+02 -0.13506556058E+03  0.17438978514E+03  0.91841988414E+02 0.  0.
        -11    1    3    3    0    0  0.38523211367E+02  0.12909580431E+02  0.18031864588E+02  0.44450458057E+02  0.00000000000E+00 0. -1.
         11    1    3    3    0    0 -0.53646867419E+02  0.25927676435E+02  0.13268033051E+02  0.61043193643E+02  0.00000000000E+00 0.  1.
        -13    1    4    4    0    0  0.20755494420E+02  0.19316240494E+02 -0.56281086345E+02  0.63019587238E+02  0.00000000000E+00 0.  1.
         13    1    4    4    0    0 -0.56081203095E+01 -0.78516728079E+02 -0.78784474232E+02  0.11137019791E+03  0.00000000000E+00 0. -1.
          1    1    1    2  501    0 -0.23718058946E-01  0.20363230719E+02 -0.38081283747E+02  0.43183861565E+02  0.00000000000E+00 0. -1.
<scales pt_clust_5="13000.00000" pt_clust_6="13000.00000" pt_clust_7="13000.00000" pt_clust_8="13000.00000" pt_clust_9="13000.00000"></scales>
<clustering>
<clus scale="   91.718">  5  6 -1 -1</clus>
<clus scale="   91.842">  7  8 -1 -1</clus>
<clus scale="   20.363">  7  9 -1 -1</clus>
<clus scale="  100.743">  1  5  2 -1</clus>
<clus scale="  131.752">  2  5  1 -1</clus>
</clustering>
</event>
<event>
 9    1  0.6399313E-006  0.1888957E+03  0.7546771E-02  0.1184689E+00
         21   -1    0    0  501  502  0.00000000000E+00  0.00000000000E+00  0.14872062513E+03  0.14872062513E+03  0.00000000000E+00 0. -1.
          1   -1    0    0  502    0 -0.00000000000E+00 -0.00000000000E+00 -0.47681565309E+03  0.47681565309E+03  0.00000000000E+00 0. -1.
         23    2    1    2    0    0 -0.52685001522E+02  0.15086544481E+02 -0.40712789804E+03  0.42077354759E+03  0.91071069935E+02 0.  0.
         23    2    1    2    0    0  0.11438925126E+02 -0.68150629990E+02 -0.50622864703E+00  0.10063058278E+03  0.73149849942E+02 0.  0.
        -11    1    4    4    0    0 -0.24770438191E+02 -0.32672793177E+01 -0.72671898767E+01  0.26020410662E+02  0.00000000000E+00 0.  1.
         11    1    4    4    0    0  0.36209363317E+02 -0.64883350673E+02  0.67609612297E+01  0.74610172116E+02  0.00000000000E+00 0. -1.
        -11    1    3    3    0    0  0.14963840985E+01  0.41653335233E+02 -0.22733012909E+03  0.23111950825E+03  0.00000000000E+00 0.  1.
         11    1    3    3    0    0 -0.54181385621E+02 -0.26566790753E+02 -0.17979776895E+03  0.18965403934E+03  0.00000000000E+00 0. -1.
          1    1    1    2  501    0  0.41246076396E+02  0.53064085510E+02  0.79539098733E+02  0.10413214785E+03  0.00000000000E+00 0. -1.
<scales pt_clust_5="13000.00000" pt_clust_6="13000.00000" pt_clust_7="13000.00000" pt_clust_8="13000.00000" pt_clust_9="13000.00000"></scales>
<clustering>
<clus scale="   73.150">  5  6 -1 -1</clus>
<clus scale="   67.209">  5  9 -1 -1</clus>
<clus scale="   91.071">  7  8 -1 -1</clus>
<clus scale="  106.289">  2  7  1 -1</clus>
<clus scale="  188.896">  1  5  2 -1</clus>
</clustering>
</event>
<event>
 9    1  0.6399313E-006  0.1999954E+03  0.7546771E-02  0.1160312E+00
          1   -1    0    0  502    0 -0.00000000000E+00  0.00000000000E+00  0.35409244014E+03  0.35409244014E+03  0.00000000000E+00 0. -1.
         21   -1    0    0  501  502  0.00000000000E+00 -0.00000000000E+00 -0.93594529204E+02  0.93594529204E+02  0.00000000000E+00 0. -1.
         23    2    1    2    0    0  0.86693686412E+02  0.93857074368E+02  0.16137939209E+03  0.22447710515E+03  0.89564037813E+02 0.  0.
         23    2    1    2    0    0 -0.31203969456E+02 -0.10026024432E+02  0.62765456239E+02  0.11630664263E+03  0.92268758237E+02 0.  0.
        -11    1    4    4    0    0  0.28817164451E+02  0.22224973019E+01  0.42499607180E+00  0.28905865891E+02  0.00000000000E+00 0.  1.
         11    1    4    4    0    0 -0.60021133908E+02 -0.12248521734E+02  0.62340460167E+02  0.87400776736E+02  0.00000000000E+00 0. -1.
        -13    1    3    3    0    0  0.20890539681E+01  0.31834097974E+02 -0.11388966605E+00  0.31902772782E+02  0.00000000000E+00 0.  1.
         13    1    3    3    0    0  0.84604632444E+02  0.62022976394E+02  0.16149328176E+03  0.19257433236E+03  0.00000000000E+00 0. -1.
          1    1    1    2  501    0 -0.55489716956E+02 -0.83831049936E+02  0.36353062602E+02  0.10690322157E+03  0.00000000000E+00 0. -1.
<scales pt_clust_5="13000.00000" pt_clust_6="13000.00000" pt_clust_7="13000.00000" pt_clust_8="13000.00000" pt_clust_9="13000.00000"></scales>
<clustering>
<clus scale="   89.564">  7  8 -1 -1</clus>
<clus scale="   92.269">  5  6 -1 -1</clus>
<clus scale="  100.532">  5  9 -1 -1</clus>
<clus scale="  156.034">  1  7  2 -1</clus>
<clus scale="  199.995">  2  5  1 -1</clus>
</clustering>
</event>
<event>
 9    1  0.6399313E-006  0.3495482E+03  0.7546771E-02  0.1108091E+00
         -2   -1    0    0    0  501 -0.00000000000E+00  0.00000000000E+00  0.79434782504E+03  0.79434782504E+03  0.00000000000E+00 0.  1.
         21   -1    0    0  501  502  0.00000000000E+00 -0.00000000000E+00 -0.66679482869E+02  0.66679482869E+02  0.00000000000E+00 0.  1.
         23    2    1    2    0    0 -0.18365448554E+02 -0.47354054647E+02  0.23285648050E+03  0.25520331007E+03  0.91251809683E+02 0.  0.
         23    2    1    2    0    0  0.58847328406E+02  0.16588737147E+03  0.40821272277E+03  0.45354681421E+03  0.89919172500E+02 0.  0.
        -11    1    3    3    0    0  0.29779973598E+02 -0.47674692264E+02  0.12053747147E+03  0.13300001932E+03  0.00000000000E+00 0.  1.
         11    1    3    3    0    0 -0.48145422152E+02  0.32063761743E+00  0.11231900902E+03  0.12220329075E+03  0.00000000000E+00 0. -1.
        -13    1    4    4    0    0 -0.14900468104E+02  0.65969325443E+02  0.19984132008E+03  0.21097518589E+03  0.00000000000E+00 0. -1.
         13    1    4    4    0    0  0.73747796510E+02  0.99918046023E+02  0.20837140268E+03  0.24257162832E+03  0.00000000000E+00 0.  1.
         -2    1    1    2    0  502 -0.40481879853E+02 -0.11853331682E+03  0.86599138910E+02  0.15227718362E+03  0.00000000000E+00 0.  1.
<scales pt_clust_5="13000.00000" pt_clust_6="13000.00000" pt_clust_7="13000.00000" pt_clust_8="13000.00000" pt_clust_9="13000.00000"></scales>
<clustering>
<clus scale="   89.919">  7  8 -1 -1</clus>
<clus scale="   91.252">  5  6 -1 -1</clus>
<clus scale="  104.435">  1  5  2 -1</clus>
<clus scale="  136.270">  7  9 -1 -1</clus>
<clus scale="  349.548">  2  5  1 -1</clus>
</clustering>
</event>
<event>
 9    1  0.6399313E-006  0.1082271E+04  0.7546771E-02  0.9927170E-01
         21   -1    0    0  501  502  0.00000000000E+00  0.00000000000E+00  0.73014046046E+03  0.73014046046E+03  0.00000000000E+00 0.  1.
         -4   -1    0    0    0  501 -0.00000000000E+00 -0.00000000000E+00 -0.52299318046E+03  0.52299318046E+03  0.00000000000E+00 0.  1.
         23    2    1    2    0    0 -0.25888134574E+02  0.13113068766E+02 -0.89683357573E+02  0.13089521983E+03  0.90820184235E+02 0.  0.
         23    2    1    2    0    0  0.20787026282E+01 -0.13002836257E+03 -0.39213889313E+03  0.42301378680E+03  0.90862843003E+02 0.  0.
        -11    1    3    3    0    0  0.28586472273E+02  0.21942274930E+02 -0.54872117897E+02  0.65647537262E+02  0.00000000000E+00 0.  1.
         11    1    3    3    0    0 -0.54474606847E+02 -0.88292061641E+01 -0.34811239677E+02  0.65247682568E+02  0.00000000000E+00 0. -1.
        -13    1    4    4    0    0  0.10419652319E+00 -0.51980352849E+02 -0.28910761330E+03  0.29374339143E+03  0.00000000000E+00 0.  1.
         13    1    4    4    0    0  0.19745061050E+01 -0.78048009723E+02 -0.10303127983E+03  0.12927039537E+03  0.00000000000E+00 0. -1.
         -4    1    1    2    0  502  0.23809431946E+02  0.11691529381E+03  0.68896953070E+03  0.69922463430E+03  0.00000000000E+00 0.  1.
<scales pt_clust_5="13000.00000" pt_clust_6="13000.00000" pt_clust_7="13000.00000" pt_clust_8="13000.00000" pt_clust_9="13000.00000"></scales>
<clustering>
<clus scale="   90.820">  5  6 -1 -1</clus>
<clus scale="   90.863">  7  8 -1 -1</clus>
<clus scale="   95.344">  2  5  1 -1</clus>
<clus scale="  119.411">  7  9 -1 -1</clus>
<clus scale=" 1082.271">  1  5  2 -1</clus>
</clustering>
</event>
<event>
 9    1  0.6399313E-006  0.5261720E+03  0.7546771E-02  0.1054496E+00
         21   -1    0    0  501  502  0.00000000000E+00  0.00000000000E+00  0.10228353273E+04  0.10228353273E+04  0.00000000000E+00 0. -1.
          3   -1    0    0  502    0 -0.00000000000E+00 -0.00000000000E+00 -0.12290991669E+03  0.12290991669E+03  0.00000000000E+00 0. -1.
         23    2    1    2    0    0 -0.69856738045E+02  0.55703432088E+02  0.36152089903E+02  0.13432972617E+03  0.93566369656E+02 0.  0.
         23    2    1    2    0    0  0.18719998554E+03 -0.23365299208E+03  0.51988886450E+03  0.60682683427E+03  0.91196601231E+02 0.  0.
        -11    1    3    3    0    0  0.28746542782E+01  0.56257681524E+02  0.11188525447E+02  0.57431467588E+02  0.00000000000E+00 0.  1.
         11    1    3    3    0    0 -0.72731392324E+02 -0.55424943659E+00  0.24963564456E+02  0.76898258577E+02  0.00000000000E+00 0. -1.
        -11    1    4    4    0    0  0.10666472847E+03 -0.19627896272E+03  0.35185149463E+03  0.41677604272E+03  0.00000000000E+00 0. -1.
         11    1    4    4    0    0  0.80535257065E+02 -0.37374029353E+02  0.16803736986E+03  0.19005079156E+03  0.00000000000E+00 0.  1.
          3    1    1    2  501    0 -0.11734324749E+03  0.17794955999E+03  0.34388445617E+03  0.40458868352E+03  0.00000000000E+00 0. -1.
<scales pt_clust_5="13000.00000" pt_clust_6="13000.00000" pt_clust_7="13000.00000" pt_clust_8="13000.00000" pt_clust_9="13000.00000"></scales>
<clustering>
<clus scale="   91.197">  7  8 -1 -1</clus>
<clus scale="   93.566">  5  6 -1 -1</clus>
<clus scale="  129.373">  2  5  1 -1</clus>
<clus scale="  248.348">  7  9 -1 -1</clus>
<clus scale="  526.172">  1  5  2 -1</clus>
</clustering>
</event>
<event>
 9    1  0.6399313E-006  0.2605363E+03  0.7546771E-02  0.1109142E+00
         21   -1    0    0  501  502  0.00000000000E+00  0.00000000000E+00  0.13317091160E+03  0.13317091160E+03  0.00000000000E+00 0. -1.
          3   -1    0    0  502    0 -0.00000000000E+00 -0.00000000000E+00 -0.61217463133E+03  0.61217463133E+03  0.00000000000E+00 0. -1.
         23    2    1    2    0    0 -0.38457273292E+02 -0.22445447381E+03 -0.61330567776E+02  0.25307525498E+03  0.91798003556E+02 0.  0.
         23    2    1    2    0    0  0.84120115287E+01  0.13431713942E+03 -0.30352295870E+03  0.34375186006E+03  0.89035380357E+02 0.  0.
        -13    1    3    3    0    0 -0.67421618016E+02 -0.12746820560E+03 -0.32271470582E+02  0.14776760751E+03  0.00000000000E+00 0. -1.
         13    1    3    3    0    0  0.28964344724E+02 -0.96986268207E+02 -0.29059097194E+02  0.10530764747E+03  0.00000000000E+00 0.  1.
        -13    1    4    4    0    0  0.24592875434E+02 -0.77542952396E+00 -0.35807687033E+02  0.43446533391E+02  0.00000000000E+00 0. -1.
         13    1    4    4    0    0 -0.16180863905E+02  0.13509256895E+03 -0.26771527166E+03  0.30030532667E+03  0.00000000000E+00 0.  1.
          3    1    1    2  501    0  0.30045261764E+02  0.90137334387E+02 -0.11415019325E+03  0.14851842789E+03  0.00000000000E+00 0. -1.
<scales pt_clust_5="13000.00000" pt_clust_6="13000.00000" pt_clust_7="13000.00000" pt_clust_8="13000.00000" pt_clust_9="13000.00000"></scales>
<clustering>
<clus scale="   89.035">  7  8 -1 -1</clus>
<clus scale="   91.798">  5  6 -1 -1</clus>
<clus scale="   95.013">  7  9 -1 -1</clus>
<clus scale="  245.531">  2  5  1 -1</clus>
<clus scale="  260.536">  1  5  2 -1</clus>
</clustering>
</event>
<event>
 9    1  0.8623354E-006  0.1425818E+04  0.7546771E-02  0.9636629E-01
          1   -1    0    0  502    0 -0.00000000000E+00  0.00000000000E+00  0.37813582407E+03  0.37813582407E+03  0.00000000000E+00 0. -1.
         21   -1    0    0  501  502  0.00000000000E+00 -0.00000000000E+00 -0.15598075282E+04  0.15598075282E+04  0.00000000000E+00 0. -1.
         23    2    1    2    0    0 -0.13481037051E+02 -0.58808250625E+02 -0.10664521255E+03  0.15226766428E+03  0.90399621257E+02 0.  0.
         23    2    1    2    0    0  0.19704487817E+03 -0.13793914487E+03  0.29387557375E+03  0.39057781119E+03  0.91292289095E+02 0.  0.
        -11    1    4    4    0    0  0.12280744680E+03 -0.11563284171E+03  0.24976799710E+03  0.30139123320E+03  0.00000000000E+00 0. -1.
         11    1    4    4    0    0  0.74237431362E+02 -0.22306303153E+02  0.44107576647E+02  0.89186577989E+02  0.00000000000E+00 0.  1.
        -13    1    3    3    0    0  0.33982017471E+02 -0.46417964398E+02 -0.42540228902E+02  0.71547718380E+02  0.00000000000E+00 0. -1.
         13    1    3    3    0    0 -0.47463054522E+02 -0.12390286226E+02 -0.64104983653E+02  0.80719945902E+02  0.00000000000E+00 0.  1.
          1    1    1    2  501    0 -0.18356384112E+03  0.19674739549E+03 -0.13689020653E+04  0.13950978768E+04  0.00000000000E+00 0. -1.
<scales pt_clust_5="13000.00000" pt_clust_6="13000.00000" pt_clust_7="13000.00000" pt_clust_8="13000.00000" pt_clust_9="13000.00000"></scales>
<clustering>
<clus scale="   90.400">  7  8 -1 -1</clus>
<clus scale="   91.292">  5  6 -1 -1</clus>
<clus scale="  108.684">  1  7  2 -1</clus>
<clus scale="  267.843">  5  9 -1 -1</clus>
<clus scale=" 1425.818">  2  5  1 -1</clus>
</clustering>
</event>
<event>
 9    1  0.6399313E-006  0.4142537E+03  0.7546771E-02  0.1088966E+00
          1   -1    0    0  502    0 -0.00000000000E+00  0.00000000000E+00  0.54796024489E+03  0.54796024489E+03  0.00000000000E+00 0. -1.
         21   -1    0    0  501  502  0.00000000000E+00 -0.00000000000E+00 -0.14753878274E+03  0.14753878274E+03  0.00000000000E+00 0.  1.
         23    2    1    2    0    0  0.17396733928E+02  0.43966458882E+02  0.22129628664E+03  0.24417658849E+03  0.91730387683E+02 0.  0.
         23    2    1    2    0    0 -0.19218583378E+03  0.31531237643E+02  0.14050340209E+03  0.25704744592E+03  0.91665532244E+02 0.  0.
        -11    1    3    3    0    0  0.34000021489E+02 -0.14449600230E+02  0.12486676530E+03  0.13021713207E+03  0.00000000000E+00 0. -1.
         11    1    3    3    0    0 -0.16603287561E+02  0.58416059113E+02  0.96429521344E+02  0.11395945642E+03  0.00000000000E+00 0.  1.
        -11    1    4    4    0    0 -0.73390795220E+02  0.56383389233E+02  0.46749256424E+02  0.10368600861E+03  0.00000000000E+00 0. -1.
         11    1    4    4    0    0 -0.11879503857E+03 -0.24852151590E+02  0.93754145665E+02  0.15336143732E+03  0.00000000000E+00 0.  1.
          1    1    1    2  501    0  0.17478909986E+03 -0.75497696525E+02  0.38621773413E+02  0.19427499322E+03  0.00000000000E+00 0. -1.
<scales pt_clust_5="13000.00000" pt_clust_6="13000.00000" pt_clust_7="13000.00000" pt_clust_8="13000.00000" pt_clust_9="13000.00000"></scales>
<clustering>
<clus scale="   91.666">  7  8 -1 -1</clus>
<clus scale="   91.730">  5  6 -1 -1</clus>
<clus scale="  103.200">  1  5  2 -1</clus>
<clus scale="  190.658">  7  9 -1 -1</clus>
<clus scale="  414.254">  2  5  1 -1</clus>
</clustering>
</event>
<event>
 9    1  0.6399313E-006  0.3032303E+03  0.7546771E-02  0.1131321E+00
         21   -1    0    0  501  502  0.00000000000E+00  0.00000000000E+00  0.88273263257E+02  0.88273263257E+02  0.00000000000E+00 0. -1.
          2   -1    0    0  502    0 -0.00000000000E+00 -0.00000000000E+00 -0.44847561838E+03  0.44847561838E+03  0.00000000000E+00 0. -1.
         23    2    1    2    0    0 -0.14035092688E+02  0.43043936533E+02 -0.12130103379E+03  0.15071458687E+03  0.77143901882E+02 0.  0.
         23    2    1    2    0    0  0.10206582857E+03 -0.11829731642E+03 -0.10462504216E+03  0.20871367896E+03  0.90572136446E+02 0.  0.
        -13    1    4    4    0    0  0.45692381022E+02 -0.99054465249E+01  0.16520054843E+01  0.46782910089E+02  0.00000000000E+00 0.  1.
         13    1    4    4    0    0  0.56373447549E+02 -0.10839186990E+03 -0.10627704765E+03  0.16193076887E+03  0.00000000000E+00 0. -1.
        -13    1    3    3    0    0  0.25802038858E+02 -0.47942023497E+01 -0.26461693431E+02  0.37268630303E+02  0.00000000000E+00 0.  1.
         13    1    3    3    0    0 -0.39837131546E+02  0.47838138883E+02 -0.94839340357E+02  0.11344595656E+03  0.00000000000E+00 0. -1.
          2    1    1    2  501    0 -0.88030735884E+02  0.75253379889E+02 -0.13427627918E+03  0.17732061582E+03  0.00000000000E+00 0. -1.
<scales pt_clust_5="13000.00000" pt_clust_6="13000.00000" pt_clust_7="13000.00000" pt_clust_8="13000.00000" pt_clust_9="13000.00000"></scales>
<clustering>
<clus scale="   77.144">  7  8 -1 -1</clus>
<clus scale="   89.448">  2  7  1 -1</clus>
<clus scale="   90.572">  5  6 -1 -1</clus>
<clus scale="  135.589">  5  9 -1 -1</clus>
<clus scale="  303.230">  1  5  2 -1</clus>
</clustering>
</event>
<event>
 9    1  0.6399313E-006  0.2131084E+03  0.7546771E-02  0.1169646E+00
         -1   -1    0    0    0  501 -0.00000000000E+00  0.00000000000E+00  0.40554145110E+03  0.40554145110E+03  0.00000000000E+00 0.  1.
         21   -1    0    0  501  502  0.00000000000E+00 -0.00000000000E+00 -0.98690578141E+02  0.98690578141E+02  0.00000000000E+00 0. -1.
         23    2    1    2    0    0 -0.47783218673E+02 -0.17309222465E+02  0.26819539546E+03  0.28764618446E+03  0.90712249000E+02 0.  0.
         23    2    1    2    0    0 -0.33876327553E+02  0.52162844818E+02 -0.19908684753E+02  0.11022411491E+03  0.88794323197E+02 0.  0.
        -11    1    4    4    0    0 -0.26833127642E+01 -0.23750929551E+02  0.50715675380E+01  0.24434148629E+02  0.00000000000E+00 0.  1.
         11    1    4    4    0    0 -0.31193014789E+02  0.75913774369E+02 -0.24980252291E+02  0.85789966285E+02  0.00000000000E+00 0. -1.
        -13    1    3    3    0    0  0.21486159637E+02 -0.12857570532E+02  0.13650388215E+03  0.13878141813E+03  0.00000000000E+00 0.  1.
         13    1    3    3    0    0 -0.69269378309E+02 -0.44516519329E+01  0.13169151330E+03  0.14886476632E+03  0.00000000000E+00 0. -1.
         -1    1    1    2    0  502  0.81659546226E+02 -0.34853622353E+02  0.58564162258E+02  0.10636172987E+03  0.00000000000E+00 0.  1.
<scales pt_clust_5="13000.00000" pt_clust_6="13000.00000" pt_clust_7="13000.00000" pt_clust_8="13000.00000" pt_clust_9="13000.00000"></scales>
<clustering>
<clus scale="   88.794">  5  6 -1 -1</clus>
<clus scale="   88.787">  5  9 -1 -1</clus>
<clus scale="   90.712">  7  8 -1 -1</clus>
<clus scale="  103.979">  1  7  2 -1</clus>
<clus scale="  213.108">  2  5  1 -1</clus>
</clustering>
</event>
<event>
 9    1  0.9608416E-006  0.3476042E+03  0.7546771E-02  0.1082911E+00
         21   -1    0    0  501  502  0.00000000000E+00  0.00000000000E+00  0.37084317629E+03  0.37084317629E+03  0.00000000000E+00 0. -1.
          1   -1    0    0  502    0 -0.00000000000E+00 -0.00000000000E+00 -0.28367362918E+03  0.28367362918E+03  0.00000000000E+00 0. -1.
         23    2    1    2    0    0  0.18262039519E+03 -0.35772235387E+02  0.20245233214E+03  0.28829450886E+03  0.86584730115E+02 0.  0.
         23    2    1    2    0    0 -0.10535419649E+02  0.57260432926E+02 -0.15440107278E+03  0.18844372119E+03  0.91003255633E+02 0.  0.
        -11    1    3    3    0    0  0.20988027840E+02 -0.72044205077E+01  0.81335529115E+02  0.84308180409E+02  0.00000000000E+00 0.  1.
         11    1    3    3    0    0  0.16163236735E+03 -0.28567814879E+02  0.12111680302E+03  0.20398632845E+03  0.00000000000E+00 0. -1.
        -13    1    4    4    0    0 -0.22390421783E+02 -0.19594167585E+02 -0.51305334174E+02  0.59308512928E+02  0.00000000000E+00 0.  1.
         13    1    4    4    0    0  0.11855002134E+02  0.76854600511E+02 -0.10309573860E+03  0.12913520826E+03  0.00000000000E+00 0. -1.
          1    1    1    2  501    0 -0.17208497554E+03 -0.21488197539E+02  0.39118287753E+02  0.17777857541E+03  0.00000000000E+00 0. -1.
<scales pt_clust_5="13000.00000" pt_clust_6="13000.00000" pt_clust_7="13000.00000" pt_clust_8="13000.00000" pt_clust_9="13000.00000"></scales>
<clustering>
<clus scale="   86.585">  5  6 -1 -1</clus>
<clus scale="   91.003">  7  8 -1 -1</clus>
<clus scale="  173.421">  7  9 -1 -1</clus>
<clus scale="  205.248">  2  5  1 -1</clus>
<clus scale="  347.604">  1  5  2 -1</clus>
</clustering>
</event>
<event>
 9    1  0.6399313E-006  0.1989954E+03  0.7546771E-02  0.1182001E+00
         21   -1    0    0  501  502  0.00000000000E+00  0.00000000000E+00  0.54555140799E+02  0.54555140799E+02  0.00000000000E+00 0.  1.
          2   -1    0    0  502    0 -0.00000000000E+00 -0.00000000000E+00 -0.41099197644E+03  0.41099197644E+03  0.00000000000E+00 0. -1.
         23    2    1    2    0    0  0.28553247771E+02  0.14432490644E+02 -0.15341830512E+03  0.18126609933E+03  0.91085880770E+02 0.  0.
         23    2    1    2    0    0 -0.65213362592E+02 -0.15092513872E+02 -0.21727753598E+03  0.24493995938E+03  0.91134457948E+02 0.  0.
        -11    1    4    4    0    0 -0.77951106335E+02  0.15877611791E+02 -0.15004193391E+03  0.16982654524E+03  0.00000000000E+00 0.  1.
         11    1    4    4    0    0  0.12737743743E+02 -0.30970125663E+02 -0.67235602069E+02  0.75113414147E+02  0.00000000000E+00 0. -1.
        -13    1    3    3    0    0  0.48574331514E+01  0.51019794265E+02 -0.99570653976E+02  0.11198629022E+03  0.00000000000E+00 0.  1.
         13    1    3    3    0    0  0.23695814620E+02 -0.36587303620E+02 -0.53847651144E+02  0.69279809111E+02  0.00000000000E+00 0. -1.
          2    1    1    2  501    0  0.36660114821E+02  0.66002322798E+00  0.14259005459E+02  0.39341058527E+02  0.00000000000E+00 0. -1.
<scales pt_clust_5="13000.00000" pt_clust_6="13000.00000" pt_clust_7="13000.00000" pt_clust_8="13000.00000" pt_clust_9="13000.00000"></scales>
<clustering>
<clus scale="   91.086">  7  8 -1 -1</clus>
<clus scale="   91.134">  5  6 -1 -1</clus>
<clus scale="   36.666">  5  9 -1 -1</clus>
<clus scale="   96.541">  2  7  1 -1</clus>
<clus scale="  198.995">  1  5  2 -1</clus>
</clustering>
</event>
<event>
 9    1  0.6399313E-006  0.1892582E+03  0.7546771E-02  0.1191466E+00
         21   -1    0    0  501  502  0.00000000000E+00  0.00000000000E+00  0.77528457968E+02  0.77528457968E+02  0.00000000000E+00 0. -1.
          3   -1    0    0  502    0 -0.00000000000E+00 -0.00000000000E+00 -0.31244145493E+03  0.31244145493E+03  0.00000000000E+00 0. -1.
         23    2    1    2    0    0 -0.10110906844E+02  0.23920501665E+02 -0.16464221158E+03  0.18808717327E+03  0.87151053225E+02 0.  0.
         23    2    1    2    0    0 -0.63610163244E+01  0.53637764107E+02 -0.23509458120E+02  0.10983258716E+03  0.92698599309E+02 0.  0.
        -11    1    3    3    0    0  0.23354377417E+02 -0.23258981742E+02 -0.54917185138E+02  0.64049234185E+02  0.00000000000E+00 0.  1.
         11    1    3    3    0    0 -0.33465284261E+02  0.47179483407E+02 -0.10972502644E+03  0.12403793909E+03  0.00000000000E+00 0. -1.
        -11    1    4    4    0    0  0.31228922644E+02 -0.90482563705E+01 -0.16342206072E+02  0.36389342563E+02  0.00000000000E+00 0.  1.
         11    1    4    4    0    0 -0.37589938968E+02  0.62686020477E+02 -0.71672520481E+01  0.73443244596E+02  0.00000000000E+00 0. -1.
          3    1    1    2  501    0  0.16471923168E+02 -0.77558265772E+02 -0.46761327267E+02  0.92050152472E+02  0.00000000000E+00 0. -1.
<scales pt_clust_5="13000.00000" pt_clust_6="13000.00000" pt_clust_7="13000.00000" pt_clust_8="13000.00000" pt_clust_9="13000.00000"></scales>
<clustering>
<clus scale="   87.151">  5  6 -1 -1</clus>
<clus scale="   90.938">  2  5  1 -1</clus>
<clus scale="   92.699">  7  8 -1 -1</clus>
<clus scale="   66.330">  7  9 -1 -1</clus>
<clus scale="  189.258">  1  5  2 -1</clus>
</clustering>
</event>
<event>
 9    1  0.6399313E-006  0.7904860E+03  0.7546771E-02  0.1008651E+00
          2   -1    0    0  502    0 -0.00000000000E+00  0.00000000000E+00  0.72932435808E+03  0.72932435808E+03  0.00000000000E+00 0. -1.
         21   -1    0    0  501  502  0.00000000000E+00 -0.00000000000E+00 -0.87937525533E+03  0.87937525533E+03  0.00000000000E+00 0. -1.
         23    2    1    2    0    0  0.52262598422E+02 -0.11245496781E+03  0.53964962038E+03  0.55962628645E+03  0.81131798544E+02 0.  0.
         23    2    1    2    0    0 -0.39045283263E+02 -0.11837203549E+03  0.12754331474E+03  0.19975402043E+03  0.89988324863E+02 0.  0.
        -11    1    3    3    0    0  0.39884784911E+02 -0.76821672975E+02  0.48828748251E+03  0.49590022291E+03  0.00000000000E+00 0. -1.
         11    1    3    3    0    0  0.12377813510E+02 -0.35633294836E+02  0.51362137865E+02  0.63726063540E+02  0.00000000000E+00 0.  1.
        -13    1    4    4    0    0 -0.59664924513E+02 -0.11280015455E+03  0.12431611920E+03  0.17815239425E+03  0.00000000000E+00 0. -1.
         13    1    4    4    0    0  0.20619641250E+02 -0.55718809406E+01  0.32271955366E+01  0.21601626178E+02  0.00000000000E+00 0.  1.
          2    1    1    2  501    0 -0.13217315159E+02  0.23082700331E+03 -0.81724383237E+03  0.84931930652E+03  0.00000000000E+00 0. -1.
<scales pt_clust_5="13000.00000" pt_clust_6="13000.00000" pt_clust_7="13000.00000" pt_clust_8="13000.00000" pt_clust_9="13000.00000"></scales>
<clustering>
<clus scale="   81.132">  5  6 -1 -1</clus>
<clus scale="   89.988">  7  8 -1 -1</clus>
<clus scale="  148.189">  1  5  2 -1</clus>
<clus scale="  220.956">  7  9 -1 -1</clus>
<clus scale="  790.486">  2  5  1 -1</clus>
</clustering>
</event>
<event>
 9    1  0.6399313E-006  0.1810089E+03  0.7546771E-02  0.1188004E+00
         21   -1    0    0  501  502  0.00000000000E+00  0.00000000000E+00  0.70268711608E+02  0.70268711608E+02  0.00000000000E+00 0. -1.
          1   -1    0    0  502    0 -0.00000000000E+00 -0.00000000000E+00 -0.42120254010E+03  0.42120254010E+03  0.00000000000E+00 0. -1.
         23    2    1    2    0    0 -0.66490373115E+02  0.38434292835E+01 -0.27154715513E+03  0.29381885933E+03  0.90310148760E+02 0.  0.
         23    2    1    2    0    0 -0.11639446750E+02  0.22571606580E+02 -0.32624959309E+02  0.10284373891E+03  0.94167364406E+02 0.  0.
        -11    1    4    4    0    0 -0.42640165612E+02  0.12543679764E+02 -0.49186788887E+02  0.66293799306E+02  0.00000000000E+00 0. -1.
         11    1    4    4    0    0  0.31000718862E+02  0.10027926816E+02  0.16561829578E+02  0.36549939606E+02  0.00000000000E+00 0.  1.
        -13    1    3    3    0    0  0.13006904147E+02 -0.22502289377E+02 -0.41133450913E+02  0.48656894339E+02  0.00000000000E+00 0.  1.
         13    1    3    3    0    0 -0.79497277262E+02  0.26345718661E+02 -0.23041370422E+03  0.24516196499E+03  0.00000000000E+00 0. -1.
          1    1    1    2  501    0  0.78129819865E+02 -0.26415035863E+02 -0.46761714050E+02  0.94808653469E+02  0.00000000000E+00 0. -1.
<scales pt_clust_5="13000.00000" pt_clust_6="13000.00000" pt_clust_7="13000.00000" pt_clust_8="13000.00000" pt_clust_9="13000.00000"></scales>
<clustering>
<clus scale="   90.310">  7  8 -1 -1</clus>
<clus scale="   94.167">  5  6 -1 -1</clus>
<clus scale="   82.474">  5  9 -1 -1</clus>
<clus scale="  112.213">  2  7  1 -1</clus>
<clus scale="  181.009">  1  5  2 -1</clus>
</clustering>
</event>
<event>
 9    1  0.6399313E-006  0.2576007E+03  0.7546771E-02  0.1147527E+00
          3   -1    0    0  502    0 -0.00000000000E+00  0.00000000000E+00  0.24094743501E+03  0.24094743501E+03  0.00000000000E+00 0. -1.
         21   -1    0    0  501  502  0.00000000000E+00 -0.00000000000E+00 -0.13189615029E+03  0.13189615029E+03  0.00000000000E+00 0.  1.
         23    2    1    2    0    0 -0.19685344908E+02  0.35880156013E+02  0.36941380581E+02  0.10534038257E+03  0.89760972595E+02 0.  0.
         23    2    1    2    0    0 -0.93593244350E+02 -0.15777244665E+02  0.75105160594E+02  0.15241568217E+03  0.92634433045E+02 0.  0.
        -11    1    4    4    0    0 -0.84129293367E+02 -0.44030854406E+02  0.32374904128E+02  0.10032242301E+03  0.00000000000E+00 0.  1.
         11    1    4    4    0    0 -0.94639509834E+01  0.28253609741E+02  0.42730256466E+02  0.52093259153E+02  0.00000000000E+00 0. -1.
        -13    1    3    3    0    0 -0.19422485340E+02  0.65723384662E+01  0.62919117991E+02  0.66175856461E+02  0.00000000000E+00 0. -1.
         13    1    3    3    0    0 -0.26285956841E+00  0.29307817546E+02 -0.25977737409E+02  0.39164526110E+02  0.00000000000E+00 0.  1.
          3    1    1    2  501    0  0.11327858926E+03 -0.20102911347E+02 -0.29952564562E+01  0.11508752057E+03  0.00000000000E+00 0. -1.
<scales pt_clust_5="13000.00000" pt_clust_6="13000.00000" pt_clust_7="13000.00000" pt_clust_8="13000.00000" pt_clust_9="13000.00000"></scales>
<clustering>
<clus scale="   89.761">  7  8 -1 -1</clus>
<clus scale="   92.634">  5  6 -1 -1</clus>
<clus scale="   98.651">  1  7  2 -1</clus>
<clus scale="  107.100">  5  9 -1 -1</clus>
<clus scale="  257.601">  2  5  1 -1</clus>
</clustering>
</event>
<event>
 9    1  0.6399313E-006  0.2227401E+03  0.7546771E-02  0.1147997E+00
         21   -1    0    0  501  502  0.00000000000E+00  0.00000000000E+00  0.70812499131E+02  0.70812499131E+02  0.00000000000E+00 0. -1.
          2   -1    0    0  502    0 -0.00000000000E+00 -0.00000000000E+00 -0.82982721196E+03  0.82982721196E+03  0.00000000000E+00 0. -1.
         23    2    1    2    0    0 -0.11841032994E+03  0.21781199111E+02 -0.61995329429E+03  0.63805402489E+03  0.90969361365E+02 0.  0.
         23    2    1    2    0    0  0.32785978350E+02 -0.43028522756E+02 -0.13870155487E+03  0.17436376235E+03  0.90764674588E+02 0.  0.
        -11    1    3    3    0    0  0.14026309317E+01  0.24215901488E+02 -0.49186600442E+02  0.54842491933E+02  0.00000000000E+00 0.  1.
         11    1    3    3    0    0 -0.11981296087E+03 -0.24347023776E+01 -0.57076669384E+03  0.58321153295E+03  0.00000000000E+00 0. -1.
        -11    1    4    4    0    0  0.35579622371E+02 -0.64107588851E+02 -0.13375550383E+03  0.15253270889E+03  0.00000000000E+00 0.  1.
         11    1    4    4    0    0 -0.27936440204E+01  0.21079066095E+02 -0.49460510306E+01  0.21831053460E+02  0.00000000000E+00 0. -1.
          2    1    1    2  501    0  0.85624351585E+02  0.21247323645E+02 -0.35986367964E+00  0.88221923853E+02  0.00000000000E+00 0. -1.
<scales pt_clust_5="13000.00000" pt_clust_6="13000.00000" pt_clust_7="13000.00000" pt_clust_8="13000.00000" pt_clust_9="13000.00000"></scales>
<clustering>
<clus scale="   90.765">  7  8 -1 -1</clus>
<clus scale="   88.221">  7  9 -1 -1</clus>
<clus scale="   90.969">  5  6 -1 -1</clus>
<clus scale="  150.900">  2  5  1 -1</clus>
<clus scale="  222.740">  1  5  2 -1</clus>
</clustering>
</event>
<event>
 9    1  0.6399313E-006  0.1699231E+03  0.7546771E-02  0.1195627E+00
          1   -1    0    0  502    0 -0.00000000000E+00  0.00000000000E+00  0.31731625414E+03  0.31731625414E+03  0.00000000000E+00 0. -1.
         21   -1    0    0  501  502  0.00000000000E+00 -0.00000000000E+00 -0.99734824960E+02  0.99734824960E+02  0.00000000000E+00 0. -1.
         23    2    1    2    0    0  0.28358940010E+02  0.70720656785E+02 -0.28348279173E+02  0.11812751818E+03  0.85702070250E+02 0.  0.
         23    2    1    2    0    0 -0.90406074565E+00 -0.10672844363E+01  0.16696383289E+03  0.19010732976E+03  0.90895098409E+02 0.  0.
        -13    1    4    4    0    0 -0.34160903208E+02  0.76567703606E+01  0.22516206290E+02  0.41624187513E+02  0.00000000000E+00 0.  1.
         13    1    4    4    0    0  0.33256842463E+02 -0.87240547969E+01  0.14444762660E+03  0.14848314225E+03  0.00000000000E+00 0. -1.
        -13    1    3    3    0    0  0.50402149034E+02  0.18910505184E+02 -0.30328235277E+02  0.61788232606E+02  0.00000000000E+00 0. -1.
         13    1    3    3    0    0 -0.22043209024E+02  0.51810151601E+02  0.19799561032E+01  0.56339285576E+02  0.00000000000E+00 0.  1.
          1    1    1    2  501    0 -0.27454879264E+02 -0.69653372349E+02  0.78965875468E+02  0.10881623116E+03  0.00000000000E+00 0. -1.
<scales pt_clust_5="13000.00000" pt_clust_6="13000.00000" pt_clust_7="13000.00000" pt_clust_8="13000.00000" pt_clust_9="13000.00000"></scales>
<clustering>
<clus scale="   85.702">  7  8 -1 -1</clus>
<clus scale="   90.895">  5  6 -1 -1</clus>
<clus scale="   74.869">  5  9 -1 -1</clus>
<clus scale="  114.676">  1  7  2 -1</clus>
<clus scale="  169.923">  2  5  1 -1</clus>
</clustering>
</event>
<event>
 9    1  0.6399313E-006  0.1892165E+03  0.7546771E-02  0.1181666E+00
         21   -1    0    0  501  502  0.00000000000E+00  0.00000000000E+00  0.32966412014E+02  0.32966412014E+02  0.00000000000E+00 0.  1.
          1   -1    0    0  502    0 -0.00000000000E+00 -0.00000000000E+00 -0.69425519236E+03  0.69425519236E+03  0.00000000000E+00 0. -1.
         23    2    1    2    0    0  0.64878876980E+02 -0.12373020352E+02 -0.23446599091E+03  0.26033771619E+03  0.91864385194E+02 0.  0.
         23    2    1    2    0    0 -0.31190238350E+02  0.33717736991E+02 -0.41207328720E+03  0.42436249219E+03  0.90384810646E+02 0.  0.
        -13    1    3    3    0    0  0.55416475021E+02 -0.32390499990E+02 -0.22858845831E+03  0.23742959686E+03  0.00000000000E+00 0. -1.
         13    1    3    3    0    0  0.94624019592E+01  0.20017479639E+02 -0.58775326064E+01  0.22908119335E+02  0.00000000000E+00 0.  1.
        -13    1    4    4    0    0 -0.28961316090E+02  0.64390184979E+02 -0.29168090820E+03  0.30010432513E+03  0.00000000000E+00 0. -1.
         13    1    4    4    0    0 -0.22289222599E+01 -0.30672447988E+02 -0.12039237900E+03  0.12425816706E+03  0.00000000000E+00 0.  1.
          1    1    1    2  501    0 -0.33688638630E+02 -0.21344716639E+02 -0.14749502233E+02  0.42521395994E+02  0.00000000000E+00 0. -1.
<scales pt_clust_5="13000.00000" pt_clust_6="13000.00000" pt_clust_7="13000.00000" pt_clust_8="13000.00000" pt_clust_9="13000.00000"></scales>
<clustering>
<clus scale="   90.385">  7  8 -1 -1</clus>
<clus scale="   39.881">  7  9 -1 -1</clus>
<clus scale="   91.864">  5  6 -1 -1</clus>
<clus scale="  113.143">  2  5  1 -1</clus>
<clus scale="  189.216">  1  5  2 -1</clus>
</clustering>
</event>
<event>
 9    1  0.6399313E-006  0.1416510E+03  0.7546771E-02  0.1225803E+00
         21   -1    0    0  501  502  0.00000000000E+00  0.00000000000E+00  0.55855161465E+02  0.55855161465E+02  0.00000000000E+00 0.  1.
          1   -1    0    0  502    0 -0.00000000000E+00 -0.00000000000E+00 -0.30953130553E+03  0.30953130553E+03  0.00000000000E+00 0. -1.
         23    2    1    2    0    0  0.17110286199E+02  0.44524044503E+02 -0.17442001628E+03  0.20307028355E+03  0.92412366864E+02 0.  0.
         23    2    1    2    0    0 -0.96426429624E+01 -0.69408501539E+02 -0.72504366055E+02  0.13547240979E+03  0.90473035035E+02 0.  0.
        -11    1    3    3    0    0 -0.23637064963E+00  0.63834202004E+02 -0.66929927492E+02  0.92490412534E+02  0.00000000000E+00 0.  1.
         11    1    3    3    0    0  0.17346656849E+02 -0.19310157501E+02 -0.10749008878E+03  0.11057987101E+03  0.00000000000E+00 0. -1.
        -13    1    4    4    0    0 -0.45221983059E+02 -0.59052099551E+02 -0.62337285503E+02  0.97046975105E+02  0.00000000000E+00 0.  1.
         13    1    4    4    0    0  0.35579340097E+02 -0.10356401988E+02 -0.10167080551E+02  0.38425434686E+02  0.00000000000E+00 0. -1.
          1    1    1    2  501    0 -0.74676432367E+01  0.24884457036E+02 -0.67517617306E+01  0.26843773653E+02  0.00000000000E+00 0. -1.
<scales pt_clust_5="13000.00000" pt_clust_6="13000.00000" pt_clust_7="13000.00000" pt_clust_8="13000.00000" pt_clust_9="13000.00000"></scales>
<clustering>
<clus scale="   90.473">  7  8 -1 -1</clus>
<clus scale="   25.981">  7  9 -1 -1</clus>
<clus scale="   92.412">  5  6 -1 -1</clus>
<clus scale="  103.996">  2  5  1 -1</clus>
<clus scale="  141.651">  1  5  2 -1</clus>
</clustering>
</event>
<event>
 9    1  0.6847395E-006  0.4979638E+03  0.7546771E-02  0.1049696E+00
         21   -1    0    0  501  502  0.00000000000E+00  0.00000000000E+00  0.31473711360E+03  0.31473711360E+03  0.00000000000E+00 0. -1.
          2   -1    0    0  502    0 -0.00000000000E+00 -0.00000000000E+00 -0.40200248482E+03  0.40200248482E+03  0.00000000000E+00 0. -1.
         23    2    1    2    0    0  0.37182301295E+02  0.14259134548E+03 -0.12852309778E+03  0.21706957851E+03  0.94266642647E+02 0.  0.
         23    2    1    2    0    0 -0.15837630258E+02  0.34959456067E+02 -0.18575854193E+03  0.21067820642E+03  0.91684658802E+02 0.  0.
        -13    1    4    4    0    0 -0.33413686417E+01 -0.30481868946E+02 -0.80093728928E+02  0.85763130146E+02  0.00000000000E+00 0.  1.
         13    1    4    4    0    0 -0.12496261617E+02  0.65441325012E+02 -0.10566481300E+03  0.12491507627E+03  0.00000000000E+00 0. -1.
        -13    1    3    3    0    0 -0.25691907602E+02  0.13666505194E+02 -0.36369828743E+02  0.46579093199E+02  0.00000000000E+00 0.  1.
         13    1    3    3    0    0  0.62874208898E+02  0.12892484028E+03 -0.92153269040E+02  0.17049048531E+03  0.00000000000E+00 0. -1.
          2    1    1    2  501    0 -0.21344671037E+02 -0.17755080155E+03  0.22701626849E+03  0.28899181350E+03  0.00000000000E+00 0. -1.
<scales pt_clust_5="13000.00000" pt_clust_6="13000.00000" pt_clust_7="13000.00000" pt_clust_8="13000.00000" pt_clust_9="13000.00000"></scales>
<clustering>
<clus scale="   91.685">  5  6 -1 -1</clus>
<clus scale="   94.267">  7  8 -1 -1</clus>
<clus scale="  174.931">  2  7  1 -1</clus>
<clus scale="  159.112">  5  9 -1 -1</clus>
<clus scale="  497.964">  1  5  2 -1</clus>
</clustering>
</event>
<event>
 9    1  0.6399313E-006  0.3158696E+03  0.7546771E-02  0.1093159E+00
         21   -1    0    0  501  502  0.00000000000E+00  0.00000000000E+00  0.61488071092E+02  0.61488071092E+02  0.00000000000E+00 0.  1.
          2   -1    0    0  502    0 -0.00000000000E+00 -0.00000000000E+00 -0.13975919127E+04  0.13975919127E+04  0.00000000000E+00 0. -1.
         23    2    1    2    0    0  0.18035075955E+03  0.54427700128E+02 -0.87958152322E+03  0.90393472751E+03  0.89137896553E+02 0.  0.
         23    2    1    2    0    0  0.30877812048E+02  0.50959755085E+01 -0.11561184345E+03  0.14970656875E+03  0.89813975191E+02 0.  0.
        -11    1    3    3    0    0  0.10311121361E+03 -0.13135344791E+02 -0.50257268927E+03  0.51320928251E+03  0.00000000000E+00 0.  1.
         11    1    3    3    0    0  0.77239545945E+02  0.67563044919E+02 -0.37700883395E+03  0.39072544500E+03  0.00000000000E+00 0. -1.
        -13    1    4    4    0    0  0.32286286874E+02  0.43594940577E+02 -0.83391610424E+02  0.99484088442E+02  0.00000000000E+00 0. -1.
         13    1    4    4    0    0 -0.14084748253E+01 -0.38498965068E+02 -0.32220233021E+02  0.50222480311E+02  0.00000000000E+00 0.  1.
          2    1    1    2  501    0 -0.21122857160E+03 -0.59523675637E+02 -0.34091047497E+03  0.40543868756E+03  0.00000000000E+00 0. -1.
<scales pt_clust_5="13000.00000" pt_clust_6="13000.00000" pt_clust_7="13000.00000" pt_clust_8="13000.00000" pt_clust_9="13000.00000"></scales>
<clustering>
<clus scale="   89.138">  5  6 -1 -1</clus>
<clus scale="   89.814">  7  8 -1 -1</clus>
<clus scale="  208.409">  2  5  1 -1</clus>
<clus scale="   80.540">  7  9 -1 -1</clus>
<clus scale="  315.870">  1  5  2 -1</clus>
</clustering>
</event>
<event>
 9    1  0.6399313E-006  0.4032226E+03  0.7546771E-02  0.1094798E+00
         21   -1    0    0  501  502  0.00000000000E+00  0.00000000000E+00  0.52749530072E+03  0.52749530072E+03  0.00000000000E+00 0. -1.
          2   -1    0    0  502    0 -0.00000000000E+00 -0.00000000000E+00 -0.17274395418E+03  0.17274395418E+03  0.00000000000E+00 0. -1.
         23    2    1    2    0    0  0.26057918820E+02  0.33774161863E+01 -0.66772041379E+02  0.11691223669E+03  0.92301373252E+02 0.  0.
         23    2    1    2    0    0  0.11093864710E+03 -0.13561300951E+03  0.13158337875E+03  0.23645597570E+03  0.88876156041E+02 0.  0.
        -11    1    3    3    0    0 -0.16925500374E+02 -0.29652291600E+02 -0.46400226052E+01  0.34456650589E+02  0.00000000000E+00 0.  1.
         11    1    3    3    0    0  0.42983419193E+02  0.33029707786E+02 -0.62132018774E+02  0.82455586099E+02  0.00000000000E+00 0. -1.
        -13    1    4    4    0    0  0.92446647110E+02 -0.48653369752E+02  0.91742021672E+02  0.13903284321E+03  0.00000000000E+00 0. -1.
         13    1    4    4    0    0  0.18491999989E+02 -0.86959639761E+02  0.39841357073E+02  0.97423132491E+02  0.00000000000E+00 0.  1.
          2    1    1    2  501    0 -0.13699656592E+03  0.13223559333E+03  0.28994000917E+03  0.34687104251E+03  0.00000000000E+00 0. -1.
<scales pt_clust_5="13000.00000" pt_clust_6="13000.00000" pt_clust_7="13000.00000" pt_clust_8="13000.00000" pt_clust_9="13000.00000"></scales>
<clustering>
<clus scale="   88.876">  7  8 -1 -1</clus>
<clus scale="   92.301">  5  6 -1 -1</clus>
<clus scale="   95.969">  2  5  1 -1</clus>
<clus scale="  184.776">  7  9 -1 -1</clus>
<clus scale="  403.223">  1  5  2 -1</clus>
</clustering>
</event>
<event>
 9    1  0.6399313E-006  0.2990855E+03  0.7546771E-02  0.1113127E+00
         21   -1    0    0  501  502  0.00000000000E+00  0.00000000000E+00  0.60325505347E+03  0.60325505347E+03  0.00000000000E+00 0.  1.
          1   -1    0    0  502    0 -0.00000000000E+00 -0.00000000000E+00 -0.82343327443E+02  0.82343327443E+02  0.00000000000E+00 0. -1.
         23    2    1    2    0    0  0.92078118687E+02  0.65271085423E+02  0.17041575719E+03  0.22483860740E+03  0.93659887612E+02 0.  0.
         23    2    1    2    0    0 -0.90166680104E+02  0.76006614021E+02  0.15271386693E+03  0.21769434653E+03  0.10080807399E+03 0.  0.
        -11    1    4    4    0    0 -0.91185485214E+02  0.29632041112E+02  0.57543895103E+02  0.11182195866E+03  0.00000000000E+00 0. -1.
         11    1    4    4    0    0  0.10188051092E+01  0.46374572909E+02  0.95169971828E+02  0.10587238787E+03  0.00000000000E+00 0.  1.
        -11    1    3    3    0    0  0.36775345324E+02 -0.18490759835E+02  0.78982424799E+02  0.89064906951E+02  0.00000000000E+00 0. -1.
         11    1    3    3    0    0  0.55302773363E+02  0.83761845258E+02  0.91433332389E+02  0.13577370045E+03  0.00000000000E+00 0.  1.
          1    1    1    2  501    0 -0.19114385826E+01 -0.14127769944E+03  0.19778210191E+03  0.24306542698E+03  0.00000000000E+00 0. -1.
<scales pt_clust_5="13000.00000" pt_clust_6="13000.00000" pt_clust_7="13000.00000" pt_clust_8="13000.00000" pt_clust_9="13000.00000"></scales>
<clustering>
<clus scale="   93.660">  7  8 -1 -1</clus>
<clus scale="  100.808">  5  6 -1 -1</clus>
<clus scale="  141.291">  5  9 -1 -1</clus>
<clus scale="  146.666">  2  7  1 -1</clus>
<clus scale="  299.086">  1  5  2 -1</clus>
</clustering>
</event>
<event>
 9    1  0.6399313E-006  0.3960679E+03  0.7546771E-02  0.1075097E+00
         21   -1    0    0  501  502  0.00000000000E+00  0.00000000000E+00  0.38316247698E+03  0.38316247698E+03  0.00000000000E+00 0.  1.
          2   -1    0    0  502    0 -0.00000000000E+00 -0.00000000000E+00 -0.22304467566E+03  0.22304467566E+03  0.00000000000E+00 0.  1.
         23    2    1    2    0    0  0.14395501605E+03 -0.15334468389E+02 -0.17354864049E+02  0.17219526726E+03  0.91606911274E+02 0.  0.
         23    2    1    2    0    0 -0.41779620584E+01 -0.12895033405E+03 -0.15698431701E+02  0.15531706702E+03  0.85037089138E+02 0.  0.
        -11    1    4    4    0    0  0.35546613886E+02 -0.96902534963E+02 -0.14773317839E+02  0.10426847060E+03  0.00000000000E+00 0.  1.
         11    1    4    4    0    0 -0.39724575945E+02 -0.32047799092E+02 -0.92511386282E+00  0.51048596418E+02  0.00000000000E+00 0. -1.
        -13    1    3    3    0    0  0.38380262715E+02  0.36269941839E+02 -0.14019455715E+02  0.54636053899E+02  0.00000000000E+00 0. -1.
         13    1    3    3    0    0  0.10557475334E+03 -0.51604410229E+02 -0.33354083334E+01  0.11755921336E+03  0.00000000000E+00 0.  1.
          2    1    1    2  501    0 -0.13977705400E+03  0.14428480244E+03  0.19317109707E+03  0.27869481836E+03  0.00000000000E+00 0.  1.
<scales pt_clust_5="13000.00000" pt_clust_6="13000.00000" pt_clust_7="13000.00000" pt_clust_8="13000.00000" pt_clust_9="13000.00000"></scales>
<clustering>
<clus scale="   85.037">  5  6 -1 -1</clus>
<clus scale="   91.607">  7  8 -1 -1</clus>
<clus scale="  171.318">  2  7  1 -1</clus>
<clus scale="  166.715">  5  9 -1 -1</clus>
<clus scale="  396.068">  1  5  2 -1</clus>
</clustering>
</event>
<event>
 9    1  0.6399313E-006  0.3262852E+03  0.7546771E-02  0.1117080E+00
         21   -1    0    0  501  502  0.00000000000E+00  0.00000000000E+00  0.20703813112E+03  0.20703813112E+03  0.00000000000E+00 0. -1.
          1   -1    0    0  502    0 -0.00000000000E+00 -0.00000000000E+00 -0.23267229808E+03  0.23267229808E+03  0.00000000000E+00 0. -1.
         23    2    1    2    0    0 -0.43058994167E+02  0.17472022311E+02  0.34560322855E+02  0.10791917651E+03  0.91064725330E+02 0.  0.
         23    2    1    2    0    0  0.69150603521E+02 -0.38452249478E+02 -0.17438619653E+03  0.21279256408E+03  0.92788729551E+02 0.  0.
        -13    1    3    3    0    0 -0.42762960186E+02 -0.28506683583E+02  0.34571692109E+02  0.61939516207E+02  0.00000000000E+00 0.  1.
         13    1    3    3    0    0 -0.29603398138E+00  0.45978705895E+02 -0.11369253334E-01  0.45979660298E+02  0.00000000000E+00 0. -1.
        -13    1    4    4    0    0  0.77145154272E+02  0.54164641855E+01 -0.11230658084E+03  0.13635791510E+03  0.00000000000E+00 0. -1.
         13    1    4    4    0    0 -0.79945507511E+01 -0.43868713663E+02 -0.62079615694E+02  0.76434648981E+02  0.00000000000E+00 0.  1.
          1    1    1    2  501    0 -0.26091609353E+02  0.20980227166E+02  0.11419170671E+03  0.11899868861E+03  0.00000000000E+00 0. -1.
<scales pt_clust_5="13000.00000" pt_clust_6="13000.00000" pt_clust_7="13000.00000" pt_clust_8="13000.00000" pt_clust_9="13000.00000"></scales>
<clustering>
<clus scale="   91.065">  5  6 -1 -1</clus>
<clus scale="   92.789">  7  8 -1 -1</clus>
<clus scale="   33.480">  7  9 -1 -1</clus>
<clus scale="  102.236">  2  5  1 -1</clus>
<clus scale="  326.285">  1  5  2 -1</clus>
</clustering>
</event>
<event>
 9    1  0.6399313E-006  0.2091828E+03  0.7546771E-02  0.1176117E+00
         21   -1    0    0  501  502  0.00000000000E+00  0.00000000000E+00  0.25191144296E+03  0.25191144296E+03  0.00000000000E+00 0. -1.
          1   -1    0    0  502    0 -0.00000000000E+00 -0.00000000000E+00 -0.10302849224E+03  0.10302849224E+03  0.00000000000E+00 0. -1.
         23    2    1    2    0    0 -0.10944574484E+02 -0.17774875225E+02  0.10440381497E+03  0.14108056730E+03  0.92562627390E+02 0.  0.
         23    2    1    2    0    0  0.58032432351E+02 -0.13467631392E+02 -0.36733321284E+02  0.11492088320E+03  0.91150053226E+02 0.  0.
        -13    1    3    3    0    0 -0.48118945207E+01  0.34815189406E+02  0.68857712323E+02  0.77308707716E+02  0.00000000000E+00 0. -1.
         13    1    3    3    0    0 -0.61326799633E+01 -0.52590064631E+02  0.35546102647E+02  0.63771859584E+02  0.00000000000E+00 0.  1.
        -13    1    4    4    0    0  0.47328660211E+02  0.19777652490E+02  0.14144151405E+02  0.53209159309E+02  0.00000000000E+00 0.  1.
         13    1    4    4    0    0  0.10703772140E+02 -0.33245283882E+02 -0.50877472689E+02  0.61711723891E+02  0.00000000000E+00 0. -1.
          1    1    1    2  501    0 -0.47087857867E+02  0.31242506617E+02  0.81212457028E+02  0.98938484700E+02  0.00000000000E+00 0. -1.
<scales pt_clust_5="13000.00000" pt_clust_6="13000.00000" pt_clust_7="13000.00000" pt_clust_8="13000.00000" pt_clust_9="13000.00000"></scales>
<clustering>
<clus scale="   91.150">  7  8 -1 -1</clus>
<clus scale="   56.510">  7  9 -1 -1</clus>
<clus scale="   92.563">  5  6 -1 -1</clus>
<clus scale="   94.887">  2  5  1 -1</clus>
<clus scale="  209.183">  1  5  2 -1</clus>
</clustering>
</event>
<event>
 9    1  0.6399313E-006  0.5738492E+03  0.7546771E-02  0.1051225E+00
         21   -1    0    0  501  502  0.00000000000E+00  0.00000000000E+00  0.13572984238E+03  0.13572984238E+03  0.00000000000E+00 0. -1.
          1   -1    0    0  502    0 -0.00000000000E+00 -0.00000000000E+00 -0.90281534269E+03  0.90281534269E+03  0.00000000000E+00 0. -1.
         23    2    1    2    0    0  0.48336088218E+01 -0.68074718511E+02 -0.21992888433E+03  0.24564966678E+03  0.85542466347E+02 0.  0.
         23    2    1    2    0    0  0.11698788172E+03 -0.43154660668E+02 -0.60139163827E+03  0.61924676940E+03  0.79032712345E+02 0.  0.
        -13    1    4    4    0    0 -0.52184254928E+01 -0.23223560893E+02 -0.94842073550E+02  0.97783355744E+02  0.00000000000E+00 0.  1.
         13    1    4    4    0    0  0.12220630722E+03 -0.19931099775E+02 -0.50654956472E+03  0.52146341366E+03  0.00000000000E+00 0. -1.
        -13    1    3    3    0    0  0.41610555865E+02 -0.13822979008E+02 -0.91496608927E+02  0.10146005398E+03  0.00000000000E+00 0.  1.
         13    1    3    3    0    0 -0.36776947043E+02 -0.54251739504E+02 -0.12843227541E+03  0.14418961280E+03  0.00000000000E+00 0. -1.
          1    1    1    2  501    0 -0.12182149055E+03  0.11122937918E+03  0.54235022294E+02  0.17364874890E+03  0.00000000000E+00 0. -1.
<scales pt_clust_5="13000.00000" pt_clust_6="13000.00000" pt_clust_7="13000.00000" pt_clust_8="13000.00000" pt_clust_9="13000.00000"></scales>
<clustering>
<clus scale="   79.033">  5  6 -1 -1</clus>
<clus scale="   85.542">  7  8 -1 -1</clus>
<clus scale="  109.431">  2  7  1 -1</clus>
<clus scale="  160.608">  5  9 -1 -1</clus>
<clus scale="  573.849">  1  5  2 -1</clus>
</clustering>
</event>
<event>
 9    1  0.6399313E-006  0.3375316E+03  0.7546771E-02  0.1111783E+00
         21   -1    0    0  501  502  0.00000000000E+00  0.00000000000E+00  0.70226980951E+02  0.70226980951E+02  0.00000000000E+00 0.  1.
          4   -1    0    0  502    0 -0.00000000000E+00 -0.00000000000E+00 -0.75421233655E+03  0.75421233655E+03  0.00000000000E+00 0. -1.
         23    2    1    2    0    0  0.45609437045E+02  0.39471124680E+02 -0.27244209506E+03  0.29218427718E+03  0.86653137489E+02 0.  0.
         23    2    1    2    0    0 -0.15696201670E+03 -0.10213055197E+03 -0.26526206662E+03  0.33802891304E+03  0.93977964075E+02 0.  0.
        -11    1    4    4    0    0 -0.70764852150E+02  0.62203442767E+01 -0.87286074423E+02  0.11253984082E+03  0.00000000000E+00 0. -1.
         11    1    4    4    0    0 -0.86197164552E+02 -0.10835089625E+03 -0.17797599220E+03  0.22548907223E+03  0.00000000000E+00 0.  1.
        -11    1    3    3    0    0  0.16541837738E+02  0.42414279659E+02 -0.25306254126E+03  0.25712497604E+03  0.00000000000E+00 0. -1.
         11    1    3    3    0    0  0.29067599307E+02 -0.29431549791E+01 -0.19379553804E+02  0.35059301139E+02  0.00000000000E+00 0.  1.
          4    1    1    2  501    0  0.11135257966E+03  0.62659427295E+02 -0.14628119392E+03  0.19422612728E+03  0.00000000000E+00 0. -1.
<scales pt_clust_5="13000.00000" pt_clust_6="13000.00000" pt_clust_7="13000.00000" pt_clust_8="13000.00000" pt_clust_9="13000.00000"></scales>
<clustering>
<clus scale="   86.653">  7  8 -1 -1</clus>
<clus scale="   93.978">  5  6 -1 -1</clus>
<clus scale="  105.579">  2  7  1 -1</clus>
<clus scale="  149.159">  5  9 -1 -1</clus>
<clus scale="  337.532">  1  5  2 -1</clus>
</clustering>
</event>
<event>
 9    1  0.6399313E-006  0.1810065E+03  0.7546771E-02  0.1193567E+00
          1   -1    0    0  502    0 -0.00000000000E+00  0.00000000000E+00  0.13067311731E+04  0.13067311731E+04  0.00000000000E+00 0. -1.
         21   -1    0    0  501  502  0.00000000000E+00 -0.00000000000E+00 -0.15029198595E+02  0.15029198595E+02  0.00000000000E+00 0. -1.
         23    2    1    2    0    0 -0.39470265823E+02  0.86532678661E+01  0.45031954752E+03  0.46112818972E+03  0.90657220045E+02 0.  0.
         23    2    1    2    0    0 -0.13857192523E-01 -0.63878735782E+02  0.53577991029E+03  0.54757987566E+03  0.93290486571E+02 0.  0.
        -11    1    3    3    0    0  0.26248332673E+02 -0.13632894113E+02  0.11916393336E+03  0.12277977758E+03  0.00000000000E+00 0.  1.
         11    1    3    3    0    0 -0.65718598496E+02  0.22286161979E+02  0.33115561416E+03  0.33834841214E+03  0.00000000000E+00 0. -1.
        -13    1    4    4    0    0  0.13510251018E+02 -0.85757144710E+02  0.43422227398E+03  0.44281576076E+03  0.00000000000E+00 0. -1.
         13    1    4    4    0    0 -0.13524108211E+02  0.21878408927E+02  0.10155763630E+03  0.10476411490E+03  0.00000000000E+00 0.  1.
          1    1    1    2  501    0  0.39484123015E+02  0.55225467916E+02  0.30560251670E+03  0.31305230632E+03  0.00000000000E+00 0. -1.
<scales pt_clust_5="13000.00000" pt_clust_6="13000.00000" pt_clust_7="13000.00000" pt_clust_8="13000.00000" pt_clust_9="13000.00000"></scales>
<clustering>
<clus scale="   90.657">  5  6 -1 -1</clus>
<clus scale="   93.290">  7  8 -1 -1</clus>
<clus scale="   67.889">  7  9 -1 -1</clus>
<clus scale="   99.255">  1  5  2 -1</clus>
<clus scale="  181.007">  2  5  1 -1</clus>
</clustering>
</event>
<event>
 9    1  0.6399313E-006  0.2583532E+03  0.7546771E-02  0.1149963E+00
          1   -1    0    0  502    0 -0.00000000000E+00  0.00000000000E+00  0.26446250682E+03  0.26446250682E+03  0.00000000000E+00 0. -1.
         21   -1    0    0  501  502  0.00000000000E+00 -0.00000000000E+00 -0.15699333580E+03  0.15699333580E+03  0.00000000000E+00 0. -1.
         23    2    1    2    0    0 -0.84389661797E+01 -0.16728973189E+02  0.13295485213E+03  0.16184867676E+03  0.90371050504E+02 0.  0.
         23    2    1    2    0    0  0.17680119252E+00 -0.53594024373E+02  0.80823084391E+02  0.13187642963E+03  0.89368176739E+02 0.  0.
        -11    1    3    3    0    0 -0.42951626189E+02  0.77354621591E+01  0.96862150949E+02  0.10624008591E+03  0.00000000000E+00 0. -1.
         11    1    3    3    0    0  0.34512660009E+02 -0.24464435349E+02  0.36092701178E+02  0.55608590849E+02  0.00000000000E+00 0.  1.
        -11    1    4    4    0    0  0.79334681461E+01  0.22357734272E+02  0.49386319302E+01  0.24232174561E+02  0.00000000000E+00 0.  1.
         11    1    4    4    0    0 -0.77566669536E+01 -0.75951758645E+02  0.75884452460E+02  0.10764425507E+03  0.00000000000E+00 0. -1.
          1    1    1    2  501    0  0.82621649872E+01  0.70322997562E+02 -0.10630876550E+03  0.12773073623E+03  0.00000000000E+00 0. -1.
<scales pt_clust_5="13000.00000" pt_clust_6="13000.00000" pt_clust_7="13000.00000" pt_clust_8="13000.00000" pt_clust_9="13000.00000"></scales>
<clustering>
<clus scale="   89.368">  7  8 -1 -1</clus>
<clus scale="   70.807">  7  9 -1 -1</clus>
<clus scale="   90.371">  5  6 -1 -1</clus>
<clus scale="   92.293">  1  5  2 -1</clus>
<clus scale="  258.353">  2  5  1 -1</clus>
</clustering>
</event>
<event>
 9    1  0.6399313E-006  0.6750832E+03  0.7546771E-02  0.1033874E+00
         21   -1    0    0  501  502  0.00000000000E+00  0.00000000000E+00  0.18612710065E+03  0.18612710065E+03  0.00000000000E+00 0.  1.
          2   -1    0    0  502    0 -0.00000000000E+00 -0.00000000000E+00 -0.86861294371E+03  0.86861294371E+03  0.00000000000E+00 0. -1.
         23    2    1    2    0    0 -0.25577584739E+02 -0.57015667072E+02 -0.18638354287E+03  0.21697225520E+03  0.91832104098E+02 0.  0.
         23    2    1    2    0    0 -0.27709700204E+03  0.74200241024E+02 -0.57147782982E+02  0.30429962399E+03  0.83928348935E+02 0.  0.
        -11    1    4    4    0    0 -0.10466179579E+03  0.54262833699E+02 -0.56459493221E+02  0.13071427234E+03  0.00000000000E+00 0. -1.
         11    1    4    4    0    0 -0.17243520625E+03  0.19937407325E+02 -0.68828976080E+00  0.17358535165E+03  0.00000000000E+00 0.  1.
        -13    1    3    3    0    0 -0.52402761605E+02 -0.10311466467E+02 -0.12099414174E+03  0.13225716654E+03  0.00000000000E+00 0. -1.
         13    1    3    3    0    0  0.26825176866E+02 -0.46704200604E+02 -0.65389401123E+02  0.84715088663E+02  0.00000000000E+00 0.  1.
          2    1    1    2  501    0  0.30267458678E+03 -0.17184573952E+02 -0.43895451721E+03  0.53346816516E+03  0.00000000000E+00 0. -1.
<scales pt_clust_5="13000.00000" pt_clust_6="13000.00000" pt_clust_7="13000.00000" pt_clust_8="13000.00000" pt_clust_9="13000.00000"></scales>
<clustering>
<clus scale="   83.928">  5  6 -1 -1</clus>
<clus scale="   91.832">  7  8 -1 -1</clus>
<clus scale="  111.077">  2  7  1 -1</clus>
<clus scale="  290.041">  5  9 -1 -1</clus>
<clus scale="  675.083">  1  5  2 -1</clus>
</clustering>
</event>
<event>
 9    1  0.6399313E-006  0.2171939E+03  0.7546771E-02  0.1157130E+00
          1   -1    0    0  502    0 -0.00000000000E+00  0.00000000000E+00  0.81451926238E+03  0.81451926238E+03  0.00000000000E+00 0. -1.
         21   -1    0    0  501  502  0.00000000000E+00 -0.00000000000E+00 -0.45925763182E+02  0.45925763182E+02  0.00000000000E+00 0.  1.
         23    2    1    2    0    0 -0.90186705872E+02 -0.40015144115E+02  0.48958984244E+03  0.50686867653E+03  0.86503108342E+02 0.  0.
         23    2    1    2    0    0  0.31690075563E+02 -0.32885512563E+02  0.19637605260E+03  0.22882186025E+03  0.10821354753E+03 0.  0.
        -11    1    4    4    0    0  0.44057468636E+02 -0.66738815697E+02  0.15104945531E+03  0.17091245716E+03  0.00000000000E+00 0. -1.
         11    1    4    4    0    0 -0.12367393073E+02  0.33853303134E+02  0.45326597288E+02  0.57909403090E+02  0.00000000000E+00 0.  1.
        -13    1    3    3    0    0 -0.74720765053E+02  0.13015674844E+02  0.27205765691E+03  0.28243223826E+03  0.00000000000E+00 0.  1.
         13    1    3    3    0    0 -0.15465940819E+02 -0.53030818959E+02  0.21753218553E+03  0.22443643827E+03  0.00000000000E+00 0. -1.
          1    1    1    2  501    0  0.58496630309E+02  0.72900656678E+02  0.82627604159E+02  0.12475448878E+03  0.00000000000E+00 0. -1.
<scales pt_clust_5="13000.00000" pt_clust_6="13000.00000" pt_clust_7="13000.00000" pt_clust_8="13000.00000" pt_clust_9="13000.00000"></scales>
<clustering>
<clus scale="   86.503">  7  8 -1 -1</clus>
<clus scale="  108.214">  5  6 -1 -1</clus>
<clus scale="   93.469">  5  9 -1 -1</clus>
<clus scale="  131.216">  1  7  2 -1</clus>
<clus scale="  217.194">  2  5  1 -1</clus>
</clustering>
</event>
<event>
 9    1  0.6399313E-006  0.2887064E+03  0.7546771E-02  0.1097182E+00
         21   -1    0    0  501  502  0.00000000000E+00  0.00000000000E+00  0.72453596388E+03  0.72453596388E+03  0.00000000000E+00 0.  1.
         -1   -1    0    0    0  501 -0.00000000000E+00 -0.00000000000E+00 -0.20258649649E+03  0.20258649649E+03  0.00000000000E+00 0.  1.
         23    2    1    2    0    0  0.49148446662E+02  0.22258129550E+03 -0.80962379036E+02  0.25865098928E+03  0.91582883345E+02 0.  0.
         23    2    1    2    0    0 -0.24476016718E+02 -0.41785535362E+02  0.17132025760E+03  0.19989155771E+03  0.90889481346E+02 0.  0.
        -11    1    3    3    0    0  0.54612890866E+02  0.13157425800E+03 -0.87603425898E+02  0.16723849271E+03  0.00000000000E+00 0.  1.
         11    1    3    3    0    0 -0.54644442036E+01  0.91007037503E+02  0.66410468611E+01  0.91412496569E+02  0.00000000000E+00 0. -1.
        -11    1    4    4    0    0 -0.40498985312E+02 -0.57278013922E+02  0.16040688817E+03  0.17507515090E+03  0.00000000000E+00 0.  1.
         11    1    4    4    0    0  0.16022968594E+02  0.15492478560E+02  0.10913369424E+02  0.24816406804E+02  0.00000000000E+00 0. -1.
         -1    1    1    2    0  502 -0.24672429944E+02 -0.18079576014E+03  0.43159158882E+03  0.46857991338E+03  0.00000000000E+00 0.  1.
<scales pt_clust_5="13000.00000" pt_clust_6="13000.00000" pt_clust_7="13000.00000" pt_clust_8="13000.00000" pt_clust_9="13000.00000"></scales>
<clustering>
<clus scale="   90.889">  7  8 -1 -1</clus>
<clus scale="   91.583">  5  6 -1 -1</clus>
<clus scale="  182.472">  7  9 -1 -1</clus>
<clus scale="  245.653">  2  5  1 -1</clus>
<clus scale="  288.706">  1  5  2 -1</clus>
</clustering>
</event>
<event>
 9    1  0.6399313E-006  0.4134608E+03  0.7546771E-02  0.1055712E+00
         -1   -1    0    0    0  501 -0.00000000000E+00  0.00000000000E+00  0.39656729862E+03  0.39656729862E+03  0.00000000000E+00 0.  1.
         21   -1    0    0  501  502  0.00000000000E+00 -0.00000000000E+00 -0.37293663702E+03  0.37293663702E+03  0.00000000000E+00 0. -1.
         23    2    1    2    0    0  0.21138770337E+03 -0.11512896003E+03  0.19380727796E+03  0.32239104282E+03  0.91843807248E+02 0.  0.
         23    2    1    2    0    0 -0.13133138874E+03  0.10880120551E+03  0.60478568943E+02  0.20287761998E+03  0.91738952471E+02 0.  0.
        -13    1    4    4    0    0 -0.42698750121E+02  0.56075125311E+02 -0.18628890470E+02  0.72901567204E+02  0.00000000000E+00 0.  1.
         13    1    4    4    0    0 -0.88632638617E+02  0.52726080196E+02  0.79107459414E+02  0.12997605278E+03  0.00000000000E+00 0. -1.
        -13    1    3    3    0    0  0.21054799436E+03 -0.85594481915E+02  0.17920787184E+03  0.28943450830E+03  0.00000000000E+00 0. -1.
         13    1    3    3    0    0  0.83970900517E+00 -0.29534478119E+02  0.14599406123E+02  0.32956534528E+02  0.00000000000E+00 0.  1.
         -1    1    1    2    0  502 -0.80056314632E+02  0.63277545260E+01 -0.23065518530E+03  0.24423527283E+03  0.00000000000E+00 0.  1.
<scales pt_clust_5="13000.00000" pt_clust_6="13000.00000" pt_clust_7="13000.00000" pt_clust_8="13000.00000" pt_clust_9="13000.00000"></scales>
<clustering>
<clus scale="   91.739">  5  6 -1 -1</clus>
<clus scale="   80.306">  5  9 -1 -1</clus>
<clus scale="   91.844">  7  8 -1 -1</clus>
<clus scale="  257.633">  1  7  2 -1</clus>
<clus scale="  413.461">  2  5  1 -1</clus>
</clustering>
</event>
<event>
 9    1  0.6399313E-006  0.3814918E+03  0.7546771E-02  0.1081650E+00
          1   -1    0    0  502    0 -0.00000000000E+00  0.00000000000E+00  0.67213055693E+03  0.67213055693E+03  0.00000000000E+00 0. -1.
         21   -1    0    0  501  502  0.00000000000E+00 -0.00000000000E+00 -0.11198301483E+03  0.11198301483E+03  0.00000000000E+00 0. -1.
         23    2    1    2    0    0  0.45547003686E+02  0.12340059622E+03  0.22416927684E+03  0.27576585349E+03  0.92155871117E+02 0.  0.
         23    2    1    2    0    0 -0.13035619260E+02  0.76582957947E+02  0.26999679377E+03  0.29526565278E+03  0.90822135232E+02 0.  0.
        -11    1    4    4    0    0  0.44150451948E+01  0.91925440938E+02  0.24183939236E+03  0.25875871195E+03  0.00000000000E+00 0. -1.
         11    1    4    4    0    0 -0.17450664455E+02 -0.15342482991E+02  0.28157401415E+02  0.36506940829E+02  0.00000000000E+00 0.  1.
        -11    1    3    3    0    0 -0.38246737999E+01  0.88040780290E+02  0.78780782301E+02  0.11820414030E+03  0.00000000000E+00 0.  1.
         11    1    3    3    0    0  0.49371677486E+02  0.35359815929E+02  0.14538849454E+03  0.15756171319E+03  0.00000000000E+00 0. -1.
          1    1    1    2  501    0 -0.32511384426E+02 -0.19998355417E+03  0.65981471482E+02  0.21308206549E+03  0.00000000000E+00 0. -1.
<scales pt_clust_5="13000.00000" pt_clust_6="13000.00000" pt_clust_7="13000.00000" pt_clust_8="13000.00000" pt_clust_9="13000.00000"></scales>
<clustering>
<clus scale="   90.822">  5  6 -1 -1</clus>
<clus scale="   92.156">  7  8 -1 -1</clus>
<clus scale="  160.608">  1  7  2 -1</clus>
<clus scale="  160.152">  5  9 -1 -1</clus>
<clus scale="  381.492">  2  5  1 -1</clus>
</clustering>
</event>
<event>
 9    1  0.6399313E-006  0.1558188E+03  0.7546771E-02  0.1210499E+00
          1   -1    0    0  502    0 -0.00000000000E+00  0.00000000000E+00  0.27865501451E+03  0.27865501451E+03  0.00000000000E+00 0. -1.
         21   -1    0    0  501  502  0.00000000000E+00 -0.00000000000E+00 -0.87280159057E+02  0.87280159057E+02  0.00000000000E+00 0.  1.
         23    2    1    2    0    0 -0.17994673438E+02 -0.55707747573E+02  0.17982921248E+03  0.20968922072E+03  0.90575174365E+02 0.  0.
         23    2    1    2    0    0  0.14101726621E+02  0.28718133894E+02  0.51317886238E+02  0.10802328581E+03  0.89509300757E+02 0.  0.
        -11    1    3    3    0    0  0.80539578373E+01 -0.53079109513E+02  0.17502161658E+03  0.18307054480E+03  0.00000000000E+00 0. -1.
         11    1    3    3    0    0 -0.26048631275E+02 -0.26286380599E+01  0.48075959071E+01  0.26618675920E+02  0.00000000000E+00 0.  1.
        -11    1    4    4    0    0  0.30763908145E+02 -0.18239827670E+02 -0.99496276515E+00  0.35778475494E+02  0.00000000000E+00 0. -1.
         11    1    4    4    0    0 -0.16662181524E+02  0.46957961563E+02  0.52312849004E+02  0.72244810320E+02  0.00000000000E+00 0.  1.
          1    1    1    2  501    0  0.38929468160E+01  0.26989613679E+02 -0.39772243268E+02  0.48222667036E+02  0.00000000000E+00 0. -1.
<scales pt_clust_5="13000.00000" pt_clust_6="13000.00000" pt_clust_7="13000.00000" pt_clust_8="13000.00000" pt_clust_9="13000.00000"></scales>
<clustering>
<clus scale="   89.509">  7  8 -1 -1</clus>
<clus scale="   27.269">  7  9 -1 -1</clus>
<clus scale="   90.575">  5  6 -1 -1</clus>
<clus scale="  107.847">  1  5  2 -1</clus>
<clus scale="  155.819">  2  5  1 -1</clus>
</clustering>
</event>
<event>
 9    1  0.6399313E-006  0.1860914E+03  0.7546771E-02  0.1187321E+00
          2   -1    0    0  502    0 -0.00000000000E+00  0.00000000000E+00  0.12753522909E+03  0.12753522909E+03  0.00000000000E+00 0. -1.
         21   -1    0    0  501  502  0.00000000000E+00 -0.00000000000E+00 -0.17026869951E+03  0.17026869951E+03  0.00000000000E+00 0. -1.
         23    2    1    2    0    0 -0.51136879969E+02  0.18254992723E+02 -0.38420468580E+02  0.11166251522E+03  0.89689239310E+02 0.  0.
         23    2    1    2    0    0  0.11221052857E+01 -0.46447261134E+02  0.46207577150E+02  0.10966520410E+03  0.87935826695E+02 0.  0.
        -11    1    3    3    0    0  0.96819397257E+01 -0.24866585895E+02 -0.23654180345E+02  0.35659603176E+02  0.00000000000E+00 0.  1.
         11    1    3    3    0    0 -0.60818819695E+02  0.43121578617E+02 -0.14766288235E+02  0.76002912048E+02  0.00000000000E+00 0. -1.
        -13    1    4    4    0    0 -0.25172048919E+02 -0.51094597837E+02  0.57261284677E+02  0.80765987258E+02  0.00000000000E+00 0.  1.
         13    1    4    4    0    0  0.26294154205E+02  0.46473367029E+01 -0.11053707527E+02  0.28899216839E+02  0.00000000000E+00 0. -1.
          2    1    1    2  501    0  0.50014774684E+02  0.28192268411E+02 -0.50520578984E+02  0.76476209279E+02  0.00000000000E+00 0. -1.
<scales pt_clust_5="13000.00000" pt_clust_6="13000.00000" pt_clust_7="13000.00000" pt_clust_8="13000.00000" pt_clust_9="13000.00000"></scales>
<clustering>
<clus scale="   87.936">  7  8 -1 -1</clus>
<clus scale="   57.413">  7  9 -1 -1</clus>
<clus scale="   89.689">  5  6 -1 -1</clus>
<clus scale="  104.845">  1  5  2 -1</clus>
<clus scale="  186.091">  2  5  1 -1</clus>
</clustering>
</event>
<event>
 9    1  0.6399313E-006  0.2363351E+03  0.7546771E-02  0.1126086E+00
          1   -1    0    0  502    0 -0.00000000000E+00  0.00000000000E+00  0.10155314737E+04  0.10155314737E+04  0.00000000000E+00 0. -1.
         21   -1    0    0  501  502  0.00000000000E+00 -0.00000000000E+00 -0.51081731233E+02  0.51081731233E+02  0.00000000000E+00 0. -1.
         23    2    1    2    0    0 -0.10750205618E+03 -0.16034749455E+03  0.38701306508E+03  0.44268422364E+03  0.94457388453E+02 0.  0.
         23    2    1    2    0    0  0.48852142740E+02  0.59259101604E+02  0.31425477175E+03  0.33596476304E+03  0.90653667680E+02 0.  0.
        -11    1    4    4    0    0 -0.20169498554E+02  0.42090478230E+02  0.14649199995E+03  0.15374759536E+03  0.00000000000E+00 0.  1.
         11    1    4    4    0    0  0.69021641294E+02  0.17168623374E+02  0.16776277180E+03  0.18221716768E+03  0.00000000000E+00 0. -1.
        -11    1    3    3    0    0 -0.50417031291E+01 -0.44511485450E+02  0.30838378916E+02  0.54384710366E+02  0.00000000000E+00 0.  1.
         11    1    3    3    0    0 -0.10246035305E+03 -0.11583600910E+03  0.35617468616E+03  0.38829951328E+03  0.00000000000E+00 0. -1.
          1    1    1    2  501    0  0.58649913443E+02  0.10108839294E+03  0.26318190564E+03  0.28796421825E+03  0.00000000000E+00 0. -1.
<scales pt_clust_5="13000.00000" pt_clust_6="13000.00000" pt_clust_7="13000.00000" pt_clust_8="13000.00000" pt_clust_9="13000.00000"></scales>
<clustering>
<clus scale="   90.654">  5  6 -1 -1</clus>
<clus scale="   94.457">  7  8 -1 -1</clus>
<clus scale="  116.870">  5  9 -1 -1</clus>
<clus scale="  214.919">  1  7  2 -1</clus>
<clus scale="  236.335">  2  5  1 -1</clus>
</clustering>
</event>
<event>
 9    1  0.6399313E-006  0.3336531E+03  0.7546771E-02  0.1088620E+00
         21   -1    0    0  501  502  0.00000000000E+00  0.00000000000E+00  0.25136290127E+03  0.25136290127E+03  0.00000000000E+00 0.  1.
         -1   -1    0    0    0  501 -0.00000000000E+00 -0.00000000000E+00 -0.28299124282E+03  0.28299124282E+03  0.00000000000E+00 0.  1.
         23    2    1    2    0    0  0.17684755715E+03 -0.85640042828E+01 -0.22245478194E+02  0.20056913977E+03  0.91568105196E+02 0.  0.
         23    2    1    2    0    0 -0.10202459306E+03  0.65365065188E+02 -0.11705672172E+03  0.19089170059E+03  0.89753862961E+02 0.  0.
        -11    1    3    3    0    0  0.10800500419E+03  0.39860399536E+02 -0.10911800306E+02  0.11564168698E+03  0.00000000000E+00 0.  1.
         11    1    3    3    0    0  0.68842552952E+02 -0.48424403819E+02 -0.11333677888E+02  0.84927452786E+02  0.00000000000E+00 0. -1.
        -13    1    4    4    0    0 -0.59992528114E+02 -0.12074163283E+02 -0.61321696656E+02  0.86632784378E+02  0.00000000000E+00 0.  1.
         13    1    4    4    0    0 -0.42032064948E+02  0.77439228471E+02 -0.55735025068E+02  0.10425891621E+03  0.00000000000E+00 0. -1.
         -1    1    1    2    0  502 -0.74822964084E+02 -0.56801060906E+02  0.10767385837E+03  0.14289330373E+03  0.00000000000E+00 0.  1.
<scales pt_clust_5="13000.00000" pt_clust_6="13000.00000" pt_clust_7="13000.00000" pt_clust_8="13000.00000" pt_clust_9="13000.00000"></scales>
<clustering>
<clus scale="   89.754">  7  8 -1 -1</clus>
<clus scale="   91.568">  5  6 -1 -1</clus>
<clus scale="   93.941">  7  9 -1 -1</clus>
<clus scale="  199.332">  2  5  1 -1</clus>
<clus scale="  333.653">  1  5  2 -1</clus>
</clustering>
</event>
<event>
 9    1  0.6399313E-006  0.2708111E+03  0.7546771E-02  0.1138025E+00
          2   -1    0    0  502    0 -0.00000000000E+00  0.00000000000E+00  0.26304979391E+03  0.26304979391E+03  0.00000000000E+00 0. -1.
         21   -1    0    0  501  502  0.00000000000E+00 -0.00000000000E+00 -0.13541764332E+03  0.13541764332E+03  0.00000000000E+00 0. -1.
         23    2    1    2    0    0  0.31417918261E+02  0.45661018282E+02  0.37093940714E+02  0.11292265375E+03  0.91123822981E+02 0.  0.
         23    2    1    2    0    0  0.14399884079E+02  0.50634810314E+00  0.16348926372E+03  0.18780762071E+03  0.91298137959E+02 0.  0.
        -13    1    3    3    0    0  0.16118791382E+02 -0.26790014871E+02  0.19380185703E+02  0.36784669773E+02  0.00000000000E+00 0.  1.
         13    1    3    3    0    0  0.15299126879E+02  0.72451033153E+02  0.17713755011E+02  0.76137983981E+02  0.00000000000E+00 0. -1.
        -13    1    4    4    0    0  0.24415923838E+02 -0.40547729765E+02  0.63035064198E+02  0.78826867529E+02  0.00000000000E+00 0. -1.
         13    1    4    4    0    0 -0.10016039759E+02  0.41054077868E+02  0.10045419952E+03  0.10898075318E+03  0.00000000000E+00 0.  1.
          2    1    1    2  501    0 -0.45817802340E+02 -0.46167366385E+02 -0.72951053843E+02  0.97737162773E+02  0.00000000000E+00 0. -1.
<scales pt_clust_5="13000.00000" pt_clust_6="13000.00000" pt_clust_7="13000.00000" pt_clust_8="13000.00000" pt_clust_9="13000.00000"></scales>
<clustering>
<clus scale="   91.124">  5  6 -1 -1</clus>
<clus scale="   91.298">  7  8 -1 -1</clus>
<clus scale="   65.044">  7  9 -1 -1</clus>
<clus scale="  106.656">  1  5  2 -1</clus>
<clus scale="  270.811">  2  5  1 -1</clus>
</clustering>
</event>
<event>
 9    1  0.6399313E-006  0.2200967E+03  0.7546771E-02  0.1170465E+00
         21   -1    0    0  501  502  0.00000000000E+00  0.00000000000E+00  0.56610586133E+02  0.56610586133E+02  0.00000000000E+00 0. -1.
          2   -1    0    0  502    0 -0.00000000000E+00 -0.00000000000E+00 -0.50189512507E+03  0.50189512507E+03  0.00000000000E+00 0. -1.
         23    2    1    2    0    0 -0.49008577104E+02 -0.52582374710E+01 -0.24109909675E+03  0.25828205875E+03  0.78430591799E+02 0.  0.
         23    2    1    2    0    0 -0.53617853170E+02  0.38007823409E+02 -0.11853830360E+03  0.16260042796E+03  0.89822608145E+02 0.  0.
        -11    1    3    3    0    0 -0.53183735764E+01  0.24654499585E+02 -0.23987217899E+02  0.34806839411E+02  0.00000000000E+00 0.  1.
         11    1    3    3    0    0 -0.43690203527E+02 -0.29912737056E+02 -0.21711187885E+03  0.22347521934E+03  0.00000000000E+00 0. -1.
        -11    1    4    4    0    0 -0.10054369629E+02  0.17736747360E+02  0.11890811887E+02  0.23602414344E+02  0.00000000000E+00 0.  1.
         11    1    4    4    0    0 -0.43563483541E+02  0.20271076049E+02 -0.13042911549E+03  0.13899801362E+03  0.00000000000E+00 0. -1.
          2    1    1    2  501    0  0.10262643027E+03 -0.32749585938E+02 -0.85647138581E+02  0.13762322448E+03  0.00000000000E+00 0. -1.
<scales pt_clust_5="13000.00000" pt_clust_6="13000.00000" pt_clust_7="13000.00000" pt_clust_8="13000.00000" pt_clust_9="13000.00000"></scales>
<clustering>
<clus scale="   78.431">  5  6 -1 -1</clus>
<clus scale="   89.823">  7  8 -1 -1</clus>
<clus scale="   92.633">  2  5  1 -1</clus>
<clus scale="   88.208">  7  9 -1 -1</clus>
<clus scale="  220.097">  1  5  2 -1</clus>
</clustering>
</event>
<event>
 9    1  0.6399313E-006  0.1814798E+03  0.7546771E-02  0.1209682E+00
         21   -1    0    0  501  502  0.00000000000E+00  0.00000000000E+00  0.14543949923E+03  0.14543949923E+03  0.00000000000E+00 0. -1.
         -3   -1    0    0    0  501 -0.00000000000E+00 -0.00000000000E+00 -0.10832697220E+03  0.10832697220E+03  0.00000000000E+00 0.  1.
         23    2    1    2    0    0 -0.11669321556E+02 -0.35541588466E+02  0.71807980303E+01  0.69834922751E+02  0.58531828939E+02 0.  0.
         23    2    1    2    0    0  0.60003835019E+02 -0.69950619321E+01  0.45556948409E+02  0.11767644094E+03  0.90127232819E+02 0.  0.
        -11    1    4    4    0    0 -0.18011837728E+00 -0.21008500978E+02 -0.18989278828E+02  0.28319291418E+02  0.00000000000E+00 0.  1.
         11    1    4    4    0    0  0.60183953396E+02  0.14013439046E+02  0.64546227237E+02  0.89357149523E+02  0.00000000000E+00 0. -1.
        -13    1    3    3    0    0 -0.35063570961E+02 -0.23746939084E+02 -0.10865257063E+01  0.42362148937E+02  0.00000000000E+00 0.  1.
         13    1    3    3    0    0  0.23394249405E+02 -0.11794649382E+02  0.82673237365E+01  0.27472773814E+02  0.00000000000E+00 0. -1.
         -3    1    1    2    0  502 -0.48334513462E+02  0.42536650398E+02 -0.15625219411E+02  0.66255107730E+02  0.00000000000E+00 0.  1.
<scales pt_clust_5="13000.00000" pt_clust_6="13000.00000" pt_clust_7="13000.00000" pt_clust_8="13000.00000" pt_clust_9="13000.00000"></scales>
<clustering>
<clus scale="   58.532">  7  8 -1 -1</clus>
<clus scale="   69.465">  2  7  1 -1</clus>
<clus scale="   90.127">  5  6 -1 -1</clus>
<clus scale="   59.442">  5  9 -1 -1</clus>
<clus scale="  181.480">  1  5  2 -1</clus>
</clustering>
</event>
<event>
 9    1  0.6399313E-006  0.3244564E+03  0.7546771E-02  0.1083029E+00
         -1   -1    0    0    0  501 -0.00000000000E+00  0.00000000000E+00  0.20023654552E+03  0.20023654552E+03  0.00000000000E+00 0.  1.
         21   -1    0    0  501  502  0.00000000000E+00 -0.00000000000E+00 -0.10583535940E+04  0.10583535940E+04  0.00000000000E+00 0.  1.
         23    2    1    2    0    0  0.16711732358E+03 -0.16451230453E+03  0.81560952856E+02  0.26447410785E+03  0.91114579028E+02 0.  0.
         23    2    1    2    0    0 -0.71188878760E+02  0.75315353033E+02 -0.19909997051E+03  0.24204277564E+03  0.90573992532E+02 0.  0.
        -13    1    3    3    0    0  0.12214409118E+03 -0.15854919635E+03  0.88033360686E+02  0.21864788878E+03  0.00000000000E+00 0.  1.
         13    1    3    3    0    0  0.44973232399E+02 -0.59631081809E+01 -0.64724078300E+01  0.45826219075E+02  0.00000000000E+00 0. -1.
        -13    1    4    4    0    0 -0.71418131277E+02  0.10875165009E+02 -0.11936092577E+03  0.13952006769E+03  0.00000000000E+00 0. -1.
         13    1    4    4    0    0  0.22925251697E+00  0.64440188024E+02 -0.79739044741E+02  0.10252270795E+03  0.00000000000E+00 0.  1.
         -1    1    1    2    0  502 -0.95928444819E+02  0.89196951497E+02 -0.74057803081E+03  0.75207325600E+03  0.00000000000E+00 0.  1.
<scales pt_clust_5="13000.00000" pt_clust_6="13000.00000" pt_clust_7="13000.00000" pt_clust_8="13000.00000" pt_clust_9="13000.00000"></scales>
<clustering>
<clus scale="   90.574">  7  8 -1 -1</clus>
<clus scale="   91.115">  5  6 -1 -1</clus>
<clus scale="  130.990">  7  9 -1 -1</clus>
<clus scale="  251.584">  1  5  2 -1</clus>
<clus scale="  324.456">  2  5  1 -1</clus>
</clustering>
</event>
<event>
 9    1  0.6399313E-006  0.2429387E+03  0.7546771E-02  0.1160594E+00
         21   -1    0    0  501  502  0.00000000000E+00  0.00000000000E+00  0.39271813668E+02  0.39271813668E+02  0.00000000000E+00 0. -1.
         -1   -1    0    0    0  501 -0.00000000000E+00 -0.00000000000E+00 -0.72971081649E+03  0.72971081649E+03  0.00000000000E+00 0.  1.
         23    2    1    2    0    0 -0.14409182556E+02  0.44971617793E+02 -0.11129384787E+03  0.14094733910E+03  0.72455233601E+02 0.  0.
         23    2    1    2    0    0  0.63626565505E+02 -0.10482997241E+03 -0.47484739577E+03  0.49809916840E+03  0.87092303562E+02 0.  0.
        -11    1    4    4    0    0  0.73636887644E+02 -0.42805283369E+02 -0.22825181045E+03  0.24362588631E+03  0.00000000000E+00 0.  1.
         11    1    4    4    0    0 -0.10010322139E+02 -0.62024689037E+02 -0.24659558531E+03  0.25447328208E+03  0.00000000000E+00 0. -1.
        -13    1    3    3    0    0 -0.39704860750E+02  0.15118098943E+02 -0.34385227200E+02  0.54656900136E+02  0.00000000000E+00 0. -1.
         13    1    3    3    0    0  0.25295678194E+02  0.29853518850E+02 -0.76908620666E+02  0.86290438959E+02  0.00000000000E+00 0.  1.
         -1    1    1    2    0  502 -0.49217382949E+02  0.59858354612E+02 -0.10429775919E+03  0.12993612266E+03  0.00000000000E+00 0.  1.
<scales pt_clust_5="13000.00000" pt_clust_6="13000.00000" pt_clust_7="13000.00000" pt_clust_8="13000.00000" pt_clust_9="13000.00000"></scales>
<clustering>
<clus scale="   72.455">  7  8 -1 -1</clus>
<clus scale="   86.486">  2  7  1 -1</clus>
<clus scale="   87.092">  5  6 -1 -1</clus>
<clus scale="   86.077">  5  9 -1 -1</clus>
<clus scale="  242.939">  1  5  2 -1</clus>
</clustering>
</event>
<event>
 9    1  0.6399313E-006  0.5080368E+03  0.7546771E-02  0.1025895E+00
         21   -1    0    0  501  502  0.00000000000E+00  0.00000000000E+00  0.53166072491E+03  0.53166072491E+03  0.00000000000E+00 0. -1.
          2   -1    0    0  502    0 -0.00000000000E+00 -0.00000000000E+00 -0.10275135754E+04  0.10275135754E+04  0.00000000000E+00 0. -1.
         23    2    1    2    0    0 -0.23207263142E+03  0.21738647149E+03 -0.86846541608E+03  0.92914138872E+03  0.89201777241E+02 0.  0.
         23    2    1    2    0    0  0.60479665453E+02  0.98133903617E+02  0.11995005321E+03  0.19090240907E+03  0.93635792037E+02 0.  0.
        -11    1    4    4    0    0  0.52696751169E+02  0.11231622136E+02  0.18211020658E+02  0.56874758838E+02  0.00000000000E+00 0.  1.
         11    1    4    4    0    0  0.77829142841E+01  0.86902281481E+02  0.10173903255E+03  0.13402765023E+03  0.00000000000E+00 0. -1.
        -13    1    3    3    0    0 -0.69212955402E+01  0.46026117931E+02 -0.10196777084E+03  0.11208806427E+03  0.00000000000E+00 0.  1.
         13    1    3    3    0    0 -0.22515133588E+03  0.17136035356E+03 -0.76649764525E+03  0.81705332444E+03  0.00000000000E+00 0. -1.
          2    1    1    2  501    0  0.17159296596E+03 -0.31552037511E+03  0.25266251238E+03  0.43913050252E+03  0.00000000000E+00 0. -1.
<scales pt_clust_5="13000.00000" pt_clust_6="13000.00000" pt_clust_7="13000.00000" pt_clust_8="13000.00000" pt_clust_9="13000.00000"></scales>
<clustering>
<clus scale="   89.202">  7  8 -1 -1</clus>
<clus scale="   93.636">  5  6 -1 -1</clus>
<clus scale="  330.260">  2  7  1 -1</clus>
<clus scale="  158.090">  5  9 -1 -1</clus>
<clus scale="  508.037">  1  5  2 -1</clus>
</clustering>
</event>
<event>
 9    1  0.6399313E-006  0.4214974E+03  0.7546771E-02  0.1037774E+00
         -1   -1    0    0    0  501 -0.00000000000E+00  0.00000000000E+00  0.36738888501E+03  0.36738888501E+03  0.00000000000E+00 0.  1.
         21   -1    0    0  501  502  0.00000000000E+00 -0.00000000000E+00 -0.62467690403E+03  0.62467690403E+03  0.00000000000E+00 0.  1.
         23    2    1    2    0    0 -0.38650184457E+03 -0.58805928273E+02  0.12211953279E+03  0.42495893292E+03  0.11329210620E+03 0.  0.
         23    2    1    2    0    0  0.29351496327E+03 -0.70029999650E+01 -0.27035961169E+03  0.40940831974E+03  0.91218292944E+02 0.  0.
        -13    1    3    3    0    0 -0.17524305933E+03 -0.14785183670E+02  0.11285910934E+03  0.20896389655E+03  0.00000000000E+00 0. -1.
         13    1    3    3    0    0 -0.21125878523E+03 -0.44020744603E+02  0.92604234484E+01  0.21599503637E+03  0.00000000000E+00 0.  1.
        -13    1    4    4    0    0  0.28390359459E+03 -0.25866304777E+02 -0.26000680197E+03  0.38584174711E+03  0.00000000000E+00 0.  1.
         13    1    4    4    0    0  0.96113686786E+01  0.18863304812E+02 -0.10352809720E+02  0.23566572627E+02  0.00000000000E+00 0. -1.
         -1    1    1    2    0  502  0.92986881292E+02  0.65808928238E+02 -0.10904794012E+03  0.15769853637E+03  0.00000000000E+00 0.  1.
<scales pt_clust_5="13000.00000" pt_clust_6="13000.00000" pt_clust_7="13000.00000" pt_clust_8="13000.00000" pt_clust_9="13000.00000"></scales>
<clustering>
<clus scale="   91.218">  7  8 -1 -1</clus>
<clus scale="  113.292">  5  6 -1 -1</clus>
<clus scale="  113.918">  7  9 -1 -1</clus>
<clus scale="  407.034">  1  5  2 -1</clus>
<clus scale="  421.497">  2  5  1 -1</clus>
</clustering>
</event>
<event>
 9    1  0.6399313E-006  0.1894038E+03  0.7546771E-02  0.1190891E+00
          1   -1    0    0  502    0 -0.00000000000E+00  0.00000000000E+00  0.14426677359E+03  0.14426677359E+03  0.00000000000E+00 0. -1.
         21   -1    0    0  501  502  0.00000000000E+00 -0.00000000000E+00 -0.17157438681E+03  0.17157438681E+03  0.00000000000E+00 0. -1.
         23    2    1    2    0    0 -0.16905294320E+02 -0.16179797304E+02  0.57418007707E+02  0.10835083174E+03  0.88856627847E+02 0.  0.
         23    2    1    2    0    0  0.59927468566E+02 -0.41605996118E+02 -0.42159145404E+02  0.12381231341E+03  0.90717886933E+02 0.  0.
        -11    1    4    4    0    0  0.10748367478E+02  0.26102065749E+02  0.35632518796E+01  0.28452451630E+02  0.00000000000E+00 0.  1.
         11    1    4    4    0    0  0.49179101088E+02 -0.67708061867E+02 -0.45722397283E+02  0.95359861781E+02  0.00000000000E+00 0. -1.
        -11    1    3    3    0    0 -0.18011675184E+02  0.25104172620E+02 -0.71415880035E+01  0.31711862214E+02  0.00000000000E+00 0.  1.
         11    1    3    3    0    0  0.11063808645E+01 -0.41283969924E+02  0.64559595711E+02  0.76638969524E+02  0.00000000000E+00 0. -1.
          1    1    1    2  501    0 -0.43022174246E+02  0.57785793422E+02 -0.42566475526E+02  0.83678015255E+02  0.00000000000E+00 0. -1.
<scales pt_clust_5="13000.00000" pt_clust_6="13000.00000" pt_clust_7="13000.00000" pt_clust_8="13000.00000" pt_clust_9="13000.00000"></scales>
<clustering>
<clus scale="   88.857">  7  8 -1 -1</clus>
<clus scale="   90.718">  5  6 -1 -1</clus>
<clus scale="   72.042">  5  9 -1 -1</clus>
<clus scale="   91.886">  1  7  2 -1</clus>
<clus scale="  189.404">  2  5  1 -1</clus>
</clustering>
</event>
<event>
 9    1  0.6399313E-006  0.3079638E+03  0.7546771E-02  0.1120096E+00
         21   -1    0    0  501  502  0.00000000000E+00  0.00000000000E+00  0.47717692475E+03  0.47717692475E+03  0.00000000000E+00 0.  1.
         -1   -1    0    0    0  501 -0.00000000000E+00 -0.00000000000E+00 -0.93025687551E+02  0.93025687551E+02  0.00000000000E+00 0.  1.
         23    2    1    2    0    0  0.41724176814E+02 -0.52757074837E+02  0.11757664961E+03  0.16288982080E+03  0.90468830594E+02 0.  0.
         23    2    1    2    0    0  0.26700468059E+02 -0.36705514792E+00 -0.28809381294E+02  0.99488500253E+02  0.91405314441E+02 0.  0.
        -11    1    4    4    0    0  0.38504200989E+02 -0.32648879361E+02 -0.38826003277E+02  0.63686586875E+02  0.00000000000E+00 0.  1.
         11    1    4    4    0    0 -0.11803732930E+02  0.32281824213E+02  0.10016621983E+02  0.35801913378E+02  0.00000000000E+00 0. -1.
        -13    1    3    3    0    0  0.28577065881E+02 -0.70379499579E+02  0.47840582251E+02  0.89769950237E+02  0.00000000000E+00 0. -1.
         13    1    3    3    0    0  0.13147110932E+02  0.17622424743E+02  0.69736067362E+02  0.73119870561E+02  0.00000000000E+00 0.  1.
         -1    1    1    2    0  502 -0.68424644873E+02  0.53124129985E+02  0.29538396888E+03  0.30782429125E+03  0.00000000000E+00 0.  1.
<scales pt_clust_5="13000.00000" pt_clust_6="13000.00000" pt_clust_7="13000.00000" pt_clust_8="13000.00000" pt_clust_9="13000.00000"></scales>
<clustering>
<clus scale="   90.469">  7  8 -1 -1</clus>
<clus scale="   91.405">  5  6 -1 -1</clus>
<clus scale="   86.626">  5  9 -1 -1</clus>
<clus scale="  112.733">  2  7  1 -1</clus>
<clus scale="  307.964">  1  5  2 -1</clus>
</clustering>
</event>
<event>
 9    1  0.6399313E-006  0.3751305E+03  0.7546771E-02  0.1067357E+00
         21   -1    0    0  501  502  0.00000000000E+00  0.00000000000E+00  0.36206042408E+03  0.36206042408E+03  0.00000000000E+00 0. -1.
          1   -1    0    0  502    0 -0.00000000000E+00 -0.00000000000E+00 -0.28855987758E+03  0.28855987758E+03  0.00000000000E+00 0. -1.
         23    2    1    2    0    0 -0.27450259563E+02  0.23049269165E+03  0.11250144548E+03  0.27346789717E+03  0.90816947185E+02 0.  0.
         23    2    1    2    0    0 -0.37832107626E+02  0.30250819141E+02 -0.32796404747E+02  0.10828912764E+03  0.91129306895E+02 0.  0.
        -11    1    3    3    0    0  0.46898220670E+01  0.20648867998E+03  0.78757770897E+02  0.22104831116E+03  0.00000000000E+00 0. -1.
         11    1    3    3    0    0 -0.32140081630E+02  0.24004011670E+02  0.33743674582E+02  0.52419586012E+02  0.00000000000E+00 0.  1.
        -13    1    4    4    0    0 -0.62106596892E+02  0.35591383293E+02 -0.61431326282E+01  0.71845069564E+02  0.00000000000E+00 0.  1.
         13    1    4    4    0    0  0.24274489266E+02 -0.53405641529E+01 -0.26653272119E+02  0.36444058078E+02  0.00000000000E+00 0. -1.
          1    1    1    2  501    0  0.65282367189E+02 -0.26074351079E+03 -0.62044942334E+01  0.26886327684E+03  0.00000000000E+00 0. -1.
<scales pt_clust_5="13000.00000" pt_clust_6="13000.00000" pt_clust_7="13000.00000" pt_clust_8="13000.00000" pt_clust_9="13000.00000"></scales>
<clustering>
<clus scale="   90.817">  5  6 -1 -1</clus>
<clus scale="   91.129">  7  8 -1 -1</clus>
<clus scale="  249.255">  2  5  1 -1</clus>
<clus scale="  118.199">  7  9 -1 -1</clus>
<clus scale="  375.130">  1  5  2 -1</clus>
</clustering>
</event>
<event>
 9    1  0.6399313E-006  0.3680533E+03  0.7546771E-02  0.1101821E+00
          2   -1    0    0  502    0 -0.00000000000E+00  0.00000000000E+00  0.79997753097E+02  0.79997753097E+02  0.00000000000E+00 0. -1.
         21   -1    0    0  501  502  0.00000000000E+00 -0.00000000000E+00 -0.99670315845E+03  0.99670315845E+03  0.00000000000E+00 0. -1.
         23    2    1    2    0    0  0.37425280178E+02  0.37142105486E+02 -0.19452141950E+02  0.10689338345E+03  0.90926464803E+02 0.  0.
         23    2    1    2    0    0 -0.16316058569E+03  0.35461510785E+01 -0.26780648278E+03  0.32663713784E+03  0.91310216774E+02 0.  0.
        -11    1    4    4    0    0 -0.45835386441E+02 -0.41011751512E+02 -0.88406940100E+02  0.10769695200E+03  0.00000000000E+00 0.  1.
         11    1    4    4    0    0 -0.11732519925E+03  0.44557902590E+02 -0.17939954268E+03  0.21894018584E+03  0.00000000000E+00 0. -1.
        -13    1    3    3    0    0 -0.14506316768E+02  0.25897540335E+02 -0.40096921124E+02  0.49888665097E+02  0.00000000000E+00 0.  1.
         13    1    3    3    0    0  0.51931596946E+02  0.11244565151E+02  0.20644779174E+02  0.57004718348E+02  0.00000000000E+00 0. -1.
          2    1    1    2  501    0  0.12573530551E+03 -0.40688256565E+02 -0.62944678063E+03  0.64317039027E+03  0.00000000000E+00 0. -1.
<scales pt_clust_5="13000.00000" pt_clust_6="13000.00000" pt_clust_7="13000.00000" pt_clust_8="13000.00000" pt_clust_9="13000.00000"></scales>
<clustering>
<clus scale="   90.926">  7  8 -1 -1</clus>
<clus scale="   91.310">  5  6 -1 -1</clus>
<clus scale="  105.109">  1  7  2 -1</clus>
<clus scale="  137.014">  5  9 -1 -1</clus>
<clus scale="  368.053">  2  5  1 -1</clus>
</clustering>
</event>
<event>
 9    1  0.6399313E-006  0.2521124E+03  0.7546771E-02  0.1134790E+00
         -3   -1    0    0    0  501 -0.00000000000E+00  0.00000000000E+00  0.47581762448E+03  0.47581762448E+03  0.00000000000E+00 0.  1.
         21   -1    0    0  501  502  0.00000000000E+00 -0.00000000000E+00 -0.10228519726E+03  0.10228519726E+03  0.00000000000E+00 0.  1.
         23    2    1    2    0    0  0.57880282826E+02 -0.93630195834E+02  0.27006647890E+03  0.30558520592E+03  0.91267049569E+02 0.  0.
         23    2    1    2    0    0 -0.11506513508E+03  0.14422250497E+02  0.94549591727E+02  0.17441813903E+03  0.89633003453E+02 0.  0.
        -11    1    3    3    0    0 -0.20983975266E+02 -0.13550646034E+02  0.89289006696E+02  0.92717171779E+02  0.00000000000E+00 0. -1.
         11    1    3    3    0    0  0.78864258092E+02 -0.80079549800E+02  0.18077747220E+03  0.21286803414E+03  0.00000000000E+00 0.  1.
        -11    1    4    4    0    0 -0.10990590281E+03  0.40215594147E+02  0.90195430416E+02  0.14775593779E+03  0.00000000000E+00 0.  1.
         11    1    4    4    0    0 -0.51592322684E+01 -0.25793343650E+02  0.43541613116E+01  0.26662201241E+02  0.00000000000E+00 0. -1.
         -3    1    1    2    0  502  0.57184852254E+02  0.79207945337E+02  0.89163565885E+01  0.98099476791E+02  0.00000000000E+00 0.  1.
<scales pt_clust_5="13000.00000" pt_clust_6="13000.00000" pt_clust_7="13000.00000" pt_clust_8="13000.00000" pt_clust_9="13000.00000"></scales>
<clustering>
<clus scale="   89.633">  7  8 -1 -1</clus>
<clus scale="   91.267">  5  6 -1 -1</clus>
<clus scale="   97.693">  7  9 -1 -1</clus>
<clus scale="  142.991">  1  5  2 -1</clus>
<clus scale="  252.112">  2  5  1 -1</clus>
</clustering>
</event>
<event>
 9    1  0.6399313E-006  0.3818599E+03  0.7546771E-02  0.1075617E+00
         21   -1    0    0  501  502  0.00000000000E+00  0.00000000000E+00  0.43967724825E+02  0.43967724825E+02  0.00000000000E+00 0. -1.
          4   -1    0    0  502    0 -0.00000000000E+00 -0.00000000000E+00 -0.19247332298E+04  0.19247332298E+04  0.00000000000E+00 0. -1.
         23    2    1    2    0    0 -0.13472680596E+02  0.17897072790E+03 -0.45053764764E+03  0.48837372961E+03  0.57556001144E+02 0.  0.
         23    2    1    2    0    0 -0.75071285562E+02 -0.24352419415E+03 -0.10740548934E+04  0.11076794501E+04  0.91761206244E+02 0.  0.
        -11    1    4    4    0    0 -0.62357286965E+02 -0.97056435119E+02 -0.33974591661E+03  0.35879753439E+03  0.00000000000E+00 0.  1.
         11    1    4    4    0    0 -0.12713998597E+02 -0.14646775903E+03 -0.73430897684E+03  0.74888191570E+03  0.00000000000E+00 0. -1.
        -11    1    3    3    0    0 -0.12253006207E+02  0.13578538234E+03 -0.39590939842E+03  0.41872671037E+03  0.00000000000E+00 0. -1.
         11    1    3    3    0    0 -0.12196743884E+01  0.43185345560E+02 -0.54628249215E+02  0.69647019240E+02  0.00000000000E+00 0.  1.
          4    1    1    2  501    0  0.88543966158E+02  0.64553466252E+02 -0.35617296393E+03  0.37264777496E+03  0.00000000000E+00 0. -1.
<scales pt_clust_5="13000.00000" pt_clust_6="13000.00000" pt_clust_7="13000.00000" pt_clust_8="13000.00000" pt_clust_9="13000.00000"></scales>
<clustering>
<clus scale="   57.556">  7  8 -1 -1</clus>
<clus scale="   91.761">  5  6 -1 -1</clus>
<clus scale="  109.577">  5  9 -1 -1</clus>
<clus scale="  188.480">  2  7  1 -1</clus>
<clus scale="  381.860">  1  5  2 -1</clus>
</clustering>
</event>
<event>
 9    1  0.6399313E-006  0.1808742E+03  0.7546771E-02  0.1192461E+00
         21   -1    0    0  501  502  0.00000000000E+00  0.00000000000E+00  0.21403611481E+03  0.21403611481E+03  0.00000000000E+00 0.  1.
          1   -1    0    0  502    0 -0.00000000000E+00 -0.00000000000E+00 -0.11020619397E+03  0.11020619397E+03  0.00000000000E+00 0. -1.
         23    2    1    2    0    0 -0.31237793970E+02 -0.80182150681E+01 -0.21533374555E+02  0.10417089996E+03  0.96684014368E+02 0.  0.
         23    2    1    2    0    0 -0.31039451006E+02  0.35028306489E+02  0.39207600020E+02  0.11038638647E+03  0.91964605391E+02 0.  0.
        -11    1    3    3    0    0 -0.43683522565E+02 -0.42103813682E+02 -0.28806548782E+02  0.67162478536E+02  0.00000000000E+00 0.  1.
         11    1    3    3    0    0  0.12445728595E+02  0.34085598614E+02  0.72731742270E+01  0.37008421427E+02  0.00000000000E+00 0. -1.
        -13    1    4    4    0    0 -0.33731621114E+02 -0.24557367193E+02  0.60998828062E+01  0.42167465144E+02  0.00000000000E+00 0.  1.
         13    1    4    4    0    0  0.26921701080E+01  0.59585673682E+02  0.33107717213E+02  0.68218921327E+02  0.00000000000E+00 0. -1.
          1    1    1    2  501    0  0.62277244976E+02 -0.27010091421E+02  0.86155695379E+02  0.10968502234E+03  0.00000000000E+00 0. -1.
<scales pt_clust_5="13000.00000" pt_clust_6="13000.00000" pt_clust_7="13000.00000" pt_clust_8="13000.00000" pt_clust_9="13000.00000"></scales>
<clustering>
<clus scale="   91.965">  7  8 -1 -1</clus>
<clus scale="   67.882">  7  9 -1 -1</clus>
<clus scale="   96.684">  5  6 -1 -1</clus>
<clus scale="  101.921">  2  5  1 -1</clus>
<clus scale="  180.874">  1  5  2 -1</clus>
</clustering>
</event>
<event>
 9    1  0.6399313E-006  0.3688237E+03  0.7546771E-02  0.1065842E+00
         -3   -1    0    0    0  501 -0.00000000000E+00  0.00000000000E+00  0.27132753344E+03  0.27132753344E+03  0.00000000000E+00 0.  1.
         21   -1    0    0  501  502  0.00000000000E+00 -0.00000000000E+00 -0.38426132605E+03  0.38426132605E+03  0.00000000000E+00 0.  1.
         23    2    1    2    0    0  0.23791703711E+03 -0.65507161202E+02 -0.81832390029E+02  0.28545611846E+03  0.11786836212E+03 0.  0.
         23    2    1    2    0    0 -0.13781384376E+03  0.16053420875E+03 -0.13901857908E+02  0.23104063694E+03  0.91774868855E+02 0.  0.
        -11    1    3    3    0    0  0.19006806506E+03 -0.74746928427E+02 -0.17832845408E+02  0.20501459226E+03  0.00000000000E+00 0.  1.
         11    1    3    3    0    0  0.47848972055E+02  0.92397672253E+01 -0.63999544621E+02  0.80441526196E+02  0.00000000000E+00 0. -1.
        -11    1    4    4    0    0 -0.14844523830E+03  0.13180281394E+03 -0.20914198184E+02  0.19961306125E+03  0.00000000000E+00 0.  1.
         11    1    4    4    0    0  0.10631394539E+02  0.28731394813E+02  0.70123402764E+01  0.31427575692E+02  0.00000000000E+00 0. -1.
         -3    1    1    2    0  502 -0.10010319336E+03 -0.95027047550E+02 -0.17199544670E+02  0.13909210410E+03  0.00000000000E+00 0.  1.
<scales pt_clust_5="13000.00000" pt_clust_6="13000.00000" pt_clust_7="13000.00000" pt_clust_8="13000.00000" pt_clust_9="13000.00000"></scales>
<clustering>
<clus scale="   91.775">  7  8 -1 -1</clus>
<clus scale="  117.868">  5  6 -1 -1</clus>
<clus scale="  138.025">  7  9 -1 -1</clus>
<clus scale="  273.475">  1  5  2 -1</clus>
<clus scale="  368.824">  2  5  1 -1</clus>
</clustering>
</event>
<event>
 9    1  0.6399313E-006  0.3274090E+03  0.7546771E-02  0.1115181E+00
         -1   -1    0    0    0  501 -0.00000000000E+00  0.00000000000E+00  0.27605317580E+03  0.27605317580E+03  0.00000000000E+00 0.  1.
         21   -1    0    0  501  502  0.00000000000E+00 -0.00000000000E+00 -0.22542449598E+03  0.22542449598E+03  0.00000000000E+00 0.  1.
         23    2    1    2    0    0 -0.31800019110E+02 -0.37133937972E+02  0.12676262127E+03  0.16533336021E+03  0.94213519636E+02 0.  0.
         23    2    1    2    0    0  0.13099502636E+02 -0.81790058912E+02  0.73698380406E+02  0.14394038076E+03  0.91794178641E+02 0.  0.
        -11    1    3    3    0    0 -0.62530722046E+02 -0.15547391844E+02  0.10095740627E+03  0.11976731805E+03  0.00000000000E+00 0.  1.
         11    1    3    3    0    0  0.30730702936E+02 -0.21586546127E+02  0.25805215000E+02  0.45566042157E+02  0.00000000000E+00 0. -1.
        -13    1    4    4    0    0  0.21752436877E+02 -0.29246390535E+02  0.82289482987E+02  0.90000438220E+02  0.00000000000E+00 0. -1.
         13    1    4    4    0    0 -0.86529342406E+01 -0.52543668377E+02 -0.85911025816E+01  0.53939942539E+02  0.00000000000E+00 0.  1.
         -1    1    1    2    0  502  0.18700516474E+02  0.11892399688E+03 -0.14983232185E+03  0.19220393082E+03  0.00000000000E+00 0.  1.
<scales pt_clust_5="13000.00000" pt_clust_6="13000.00000" pt_clust_7="13000.00000" pt_clust_8="13000.00000" pt_clust_9="13000.00000"></scales>
<clustering>
<clus scale="   91.794">  7  8 -1 -1</clus>
<clus scale="   94.214">  5  6 -1 -1</clus>
<clus scale="  106.143">  1  5  2 -1</clus>
<clus scale="  113.679">  7  9 -1 -1</clus>
<clus scale="  327.409">  2  5  1 -1</clus>
</clustering>
</event>
<event>
 9    1  0.6399313E-006  0.1881697E+03  0.7546771E-02  0.1168310E+00
         -4   -1    0    0    0  501 -0.00000000000E+00  0.00000000000E+00  0.42720033906E+03  0.42720033906E+03  0.00000000000E+00 0.  1.
         21   -1    0    0  501  502  0.00000000000E+00 -0.00000000000E+00 -0.69226828570E+02  0.69226828570E+02  0.00000000000E+00 0.  1.
         23    2    1    2    0    0 -0.85340348962E+02 -0.90096402957E+02  0.15866066495E+03  0.22232235100E+03  0.94094017692E+02 0.  0.
         23    2    1    2    0    0  0.20303887416E+02  0.68499230091E+02  0.15096691278E+03  0.19023880193E+03  0.91079090029E+02 0.  0.
        -11    1    3    3    0    0 -0.55763797633E+02 -0.10157658426E+03  0.14979004106E+03  0.18937914351E+03  0.00000000000E+00 0.  1.
         11    1    3    3    0    0 -0.29576551329E+02  0.11480181306E+02  0.88706238880E+01  0.32943207486E+02  0.00000000000E+00 0. -1.
        -13    1    4    4    0    0 -0.25989037435E+02  0.45451902388E+02  0.34211904463E+02  0.62544063703E+02  0.00000000000E+00 0.  1.
         13    1    4    4    0    0  0.46292924851E+02  0.23047327702E+02  0.11675500831E+03  0.12769473823E+03  0.00000000000E+00 0. -1.
         -4    1    1    2    0  502  0.65036461546E+02  0.21597172866E+02  0.48345932767E+02  0.83866014698E+02  0.00000000000E+00 0.  1.
<scales pt_clust_5="13000.00000" pt_clust_6="13000.00000" pt_clust_7="13000.00000" pt_clust_8="13000.00000" pt_clust_9="13000.00000"></scales>
<clustering>
<clus scale="   91.079">  7  8 -1 -1</clus>
<clus scale="   68.529">  7  9 -1 -1</clus>
<clus scale="   94.094">  5  6 -1 -1</clus>
<clus scale="  155.737">  1  5  2 -1</clus>
<clus scale="  188.170">  2  5  1 -1</clus>
</clustering>
</event>
<event>
 9    1  0.6399313E-006  0.2530601E+03  0.7546771E-02  0.1133307E+00
         -1   -1    0    0    0  501 -0.00000000000E+00  0.00000000000E+00  0.41633224434E+03  0.41633224434E+03  0.00000000000E+00 0.  1.
         21   -1    0    0  501  502  0.00000000000E+00 -0.00000000000E+00 -0.10223697913E+03  0.10223697913E+03  0.00000000000E+00 0.  1.
         23    2    1    2    0    0  0.10700176680E+03 -0.41247075804E+02  0.18010864853E+03  0.23222706439E+03  0.91321327185E+02 0.  0.
         23    2    1    2    0    0  0.31926390511E+02  0.30996115896E+00  0.88317975624E+02  0.13447871704E+03  0.96255233794E+02 0.  0.
        -11    1    4    4    0    0 -0.34014919417E+02  0.79896741118E+01  0.33089011982E+02  0.48122056786E+02  0.00000000000E+00 0. -1.
         11    1    4    4    0    0  0.65941309928E+02 -0.76797129528E+01  0.55228963642E+02  0.86356660259E+02  0.00000000000E+00 0.  1.
        -13    1    3    3    0    0  0.52000787260E+02  0.20048474835E+02  0.36312801627E+02  0.66517988401E+02  0.00000000000E+00 0. -1.
         13    1    3    3    0    0  0.55000979541E+02 -0.61295550639E+02  0.14379584690E+03  0.16570907599E+03  0.00000000000E+00 0.  1.
         -1    1    1    2    0  502 -0.13892815731E+03  0.40937114645E+02  0.45668641061E+02  0.15186344203E+03  0.00000000000E+00 0.  1.
<scales pt_clust_5="13000.00000" pt_clust_6="13000.00000" pt_clust_7="13000.00000" pt_clust_8="13000.00000" pt_clust_9="13000.00000"></scales>
<clustering>
<clus scale="   91.321">  7  8 -1 -1</clus>
<clus scale="   96.255">  5  6 -1 -1</clus>
<clus scale="  144.834">  5  9 -1 -1</clus>
<clus scale="  146.596">  1  7  2 -1</clus>
<clus scale="  253.060">  2  5  1 -1</clus>
</clustering>
</event>
<event>
 9    1  0.6399313E-006  0.2051139E+03  0.7546771E-02  0.1180809E+00
          2   -1    0    0  502    0 -0.00000000000E+00  0.00000000000E+00  0.20100211053E+03  0.20100211053E+03  0.00000000000E+00 0. -1.
         21   -1    0    0  501  502  0.00000000000E+00 -0.00000000000E+00 -0.11459273067E+03  0.11459273067E+03  0.00000000000E+00 0. -1.
         23    2    1    2    0    0 -0.57260450648E+01  0.33640226365E+01 -0.57477790895E+01  0.90728982760E+02  0.90302863232E+02 0.  0.
         23    2    1    2    0    0 -0.37147880071E+02 -0.62286154989E+02  0.99748705122E+02  0.15160179693E+03  0.88168988656E+02 0.  0.
        -11    1    4    4    0    0 -0.61914930275E+02 -0.36604097413E+02  0.88812357214E+02  0.11428452797E+03  0.00000000000E+00 0. -1.
         11    1    4    4    0    0  0.24767050204E+02 -0.25682057575E+02  0.10936347907E+02  0.37317268960E+02  0.00000000000E+00 0.  1.
        -13    1    3    3    0    0  0.42189089442E+02  0.60792308723E+00  0.13364487710E+01  0.42214629380E+02  0.00000000000E+00 0. -1.
         13    1    3    3    0    0 -0.47915134506E+02  0.27560995492E+01 -0.70842278605E+01  0.48514353380E+02  0.00000000000E+00 0.  1.
          2    1    1    2  501    0  0.42873925136E+02  0.58922132352E+02 -0.75915461722E+01  0.73264061522E+02  0.00000000000E+00 0. -1.
<scales pt_clust_5="13000.00000" pt_clust_6="13000.00000" pt_clust_7="13000.00000" pt_clust_8="13000.00000" pt_clust_9="13000.00000"></scales>
<clustering>
<clus scale="   88.169">  5  6 -1 -1</clus>
<clus scale="   72.870">  5  9 -1 -1</clus>
<clus scale="   90.303">  7  8 -1 -1</clus>
<clus scale="   90.547">  1  7  2 -1</clus>
<clus scale="  205.114">  2  5  1 -1</clus>
</clustering>
</event>
<event>
 9    1  0.6399313E-006  0.2945594E+03  0.7546771E-02  0.1123267E+00
          3   -1    0    0  502    0 -0.00000000000E+00  0.00000000000E+00  0.48932844169E+03  0.48932844169E+03  0.00000000000E+00 0. -1.
         21   -1    0    0  501  502  0.00000000000E+00 -0.00000000000E+00 -0.11825430227E+03  0.11825430227E+03  0.00000000000E+00 0. -1.
         23    2    1    2    0    0  0.29255732998E+02  0.42214950738E+02  0.27183159139E+03  0.29675430469E+03  0.10739042459E+03 0.  0.
         23    2    1    2    0    0  0.10874227878E+02 -0.31192534064E+02  0.18870201704E+03  0.21216282203E+03  0.91177786767E+02 0.  0.
        -11    1    3    3    0    0  0.24684993525E+02 -0.18029135815E+02  0.17244797535E+02  0.35096747507E+02  0.00000000000E+00 0.  1.
         11    1    3    3    0    0  0.45707394736E+01  0.60244086554E+02  0.25458679386E+03  0.26165755718E+03  0.00000000000E+00 0. -1.
        -13    1    4    4    0    0 -0.28104793202E+02 -0.45888565448E+02  0.12448467762E+03  0.13561738385E+03  0.00000000000E+00 0.  1.
         13    1    4    4    0    0  0.38979021080E+02  0.14696031384E+02  0.64217339423E+02  0.76545438175E+02  0.00000000000E+00 0. -1.
          3    1    1    2  501    0 -0.40129960877E+02 -0.11022416674E+02 -0.89459469013E+02  0.98665617241E+02  0.00000000000E+00 0. -1.
<scales pt_clust_5="13000.00000" pt_clust_6="13000.00000" pt_clust_7="13000.00000" pt_clust_8="13000.00000" pt_clust_9="13000.00000"></scales>
<clustering>
<clus scale="   91.178">  7  8 -1 -1</clus>
<clus scale="   41.616">  7  9 -1 -1</clus>
<clus scale="  107.390">  5  6 -1 -1</clus>
<clus scale="  119.041">  1  5  2 -1</clus>
<clus scale="  294.559">  2  5  1 -1</clus>
</clustering>
</event>
<event>
 9    1  0.6399313E-006  0.3282877E+03  0.7546771E-02  0.1099904E+00
         21   -1    0    0  501  502  0.00000000000E+00  0.00000000000E+00  0.89386564128E+03  0.89386564128E+03  0.00000000000E+00 0.  1.
         -1   -1    0    0    0  501 -0.00000000000E+00 -0.00000000000E+00 -0.86170249288E+02  0.86170249288E+02  0.00000000000E+00 0.  1.
         23    2    1    2    0    0 -0.86337640051E+02  0.10256928135E+03  0.66261376097E+02  0.16917387603E+03  0.79085933033E+02 0.  0.
         23    2    1    2    0    0 -0.76785114417E+02 -0.26517940867E+02  0.15896368248E+03  0.20121906270E+03  0.92846668558E+02 0.  0.
        -11    1    4    4    0    0 -0.46075510296E+02  0.18617917188E+02  0.13052155518E+03  0.13966193417E+03  0.00000000000E+00 0. -1.
         11    1    4    4    0    0 -0.30709604121E+02 -0.45135858056E+02  0.28442127304E+02  0.61557128534E+02  0.00000000000E+00 0.  1.
        -11    1    3    3    0    0 -0.96406074902E+02  0.65234828314E+02  0.43261311721E+02  0.12418234655E+03  0.00000000000E+00 0.  1.
         11    1    3    3    0    0  0.10068434851E+02  0.37334453036E+02  0.23000064376E+02  0.44991529482E+02  0.00000000000E+00 0. -1.
         -1    1    1    2    0  502  0.16312275447E+03 -0.76051340483E+02  0.58247033341E+03  0.60964295183E+03  0.00000000000E+00 0.  1.
<scales pt_clust_5="13000.00000" pt_clust_6="13000.00000" pt_clust_7="13000.00000" pt_clust_8="13000.00000" pt_clust_9="13000.00000"></scales>
<clustering>
<clus scale="   79.086">  7  8 -1 -1</clus>
<clus scale="   92.847">  5  6 -1 -1</clus>
<clus scale="  155.657">  2  7  1 -1</clus>
<clus scale="  134.224">  5  9 -1 -1</clus>
<clus scale="  328.288">  1  5  2 -1</clus>
</clustering>
</event>
<event>
 9    1  0.6399313E-006  0.2276902E+03  0.7546771E-02  0.1132956E+00
          1   -1    0    0  502    0 -0.00000000000E+00  0.00000000000E+00  0.31370494773E+03  0.31370494773E+03  0.00000000000E+00 0. -1.
         21   -1    0    0  501  502  0.00000000000E+00 -0.00000000000E+00 -0.14848340206E+03  0.14848340206E+03  0.00000000000E+00 0. -1.
         23    2    1    2    0    0  0.16717829857E+03 -0.66864552842E+02  0.93296429816E+02  0.22340804516E+03  0.93741553685E+02 0.  0.
         23    2    1    2    0    0 -0.11707332672E+03  0.62289319833E+02  0.92410916686E+02  0.18445619399E+03  0.88871743459E+02 0.  0.
        -13    1    3    3    0    0  0.78304511693E+02  0.17723861656E+02  0.35537825218E+02  0.87799025306E+02  0.00000000000E+00 0.  1.
         13    1    3    3    0    0  0.88873786872E+02 -0.84588414498E+02  0.57758604599E+02  0.13560901985E+03  0.00000000000E+00 0. -1.
        -13    1    4    4    0    0 -0.30251488578E+02 -0.20838464998E+02  0.80498880964E+01  0.37605782574E+02  0.00000000000E+00 0.  1.
         13    1    4    4    0    0 -0.86821838140E+02  0.83127784831E+02  0.84361028590E+02  0.14685041142E+03  0.00000000000E+00 0. -1.
          1    1    1    2  501    0 -0.50104971847E+02  0.45752330091E+01 -0.20485800827E+02  0.54324110636E+02  0.00000000000E+00 0. -1.
<scales pt_clust_5="13000.00000" pt_clust_6="13000.00000" pt_clust_7="13000.00000" pt_clust_8="13000.00000" pt_clust_9="13000.00000"></scales>
<clustering>
<clus scale="   88.872">  7  8 -1 -1</clus>
<clus scale="   50.313">  7  9 -1 -1</clus>
<clus scale="   93.742">  5  6 -1 -1</clus>
<clus scale="  202.995">  1  5  2 -1</clus>
<clus scale="  227.690">  2  5  1 -1</clus>
</clustering>
</event>
<event>
 9    1  0.6399313E-006  0.4461452E+03  0.7546771E-02  0.1060275E+00
         21   -1    0    0  501  502  0.00000000000E+00  0.00000000000E+00  0.14648191616E+03  0.14648191616E+03  0.00000000000E+00 0.  1.
         -1   -1    0    0    0  501 -0.00000000000E+00 -0.00000000000E+00 -0.94298999110E+03  0.94298999110E+03  0.00000000000E+00 0.  1.
         23    2    1    2    0    0  0.14922494327E+03 -0.45629575347E+02 -0.55198283686E+03  0.58071057775E+03  0.90496304245E+02 0.  0.
         23    2    1    2    0    0  0.10454691877E+03 -0.71927935356E+02 -0.14306841198E+03  0.21124928966E+03  0.89744112710E+02 0.  0.
        -13    1    3    3    0    0  0.44628947406E+02 -0.20293438455E+02 -0.61966893298E+02  0.79015583627E+02  0.00000000000E+00 0. -1.
         13    1    3    3    0    0  0.10459599587E+03 -0.25336136892E+02 -0.49001594356E+03  0.50169499412E+03  0.00000000000E+00 0.  1.
        -13    1    4    4    0    0 -0.12306847683E+01 -0.35361315755E+02 -0.67484219542E+02  0.76197487649E+02  0.00000000000E+00 0. -1.
         13    1    4    4    0    0  0.10577760354E+03 -0.36566619601E+02 -0.75584192443E+02  0.13505180201E+03  0.00000000000E+00 0.  1.
         -1    1    1    2    0  502 -0.25377186205E+03  0.11755751070E+03 -0.10145682610E+03  0.29751203984E+03  0.00000000000E+00 0.  1.
<scales pt_clust_5="13000.00000" pt_clust_6="13000.00000" pt_clust_7="13000.00000" pt_clust_8="13000.00000" pt_clust_9="13000.00000"></scales>
<clustering>
<clus scale="   89.744">  7  8 -1 -1</clus>
<clus scale="   90.496">  5  6 -1 -1</clus>
<clus scale="  180.388">  2  5  1 -1</clus>
<clus scale="  198.128">  7  9 -1 -1</clus>
<clus scale="  446.145">  1  5  2 -1</clus>
</clustering>
</event>
<event>
 9    1  0.6399313E-006  0.1401260E+03  0.7546771E-02  0.1229723E+00
         21   -1    0    0  501  502  0.00000000000E+00  0.00000000000E+00  0.36985572558E+02  0.36985572558E+02  0.00000000000E+00 0. -1.
         -3   -1    0    0    0  501 -0.00000000000E+00 -0.00000000000E+00 -0.43626149923E+03  0.43626149923E+03  0.00000000000E+00 0.  1.
         23    2    1    2    0    0  0.26079428775E+02  0.21440336202E+02 -0.24798352176E+03  0.26703189680E+03  0.93114887221E+02 0.  0.
         23    2    1    2    0    0 -0.46656059471E+02 -0.37422210757E+02 -0.10140415490E+03  0.14993324597E+03  0.92843771319E+02 0.  0.
        -11    1    4    4    0    0 -0.20812604994E+02 -0.60803870834E+02 -0.30951842708E+02  0.71332263402E+02  0.00000000000E+00 0.  1.
         11    1    4    4    0    0 -0.25843454477E+02  0.23381660077E+02 -0.70452312195E+02  0.78600982569E+02  0.00000000000E+00 0. -1.
        -13    1    3    3    0    0  0.56652398164E+02  0.33399845542E+02 -0.17705754683E+03  0.18887672908E+03  0.00000000000E+00 0. -1.
         13    1    3    3    0    0 -0.30572969388E+02 -0.11959509340E+02 -0.70925974928E+02  0.78155167714E+02  0.00000000000E+00 0.  1.
         -3    1    1    2    0  502  0.20576630695E+02  0.15981874555E+02 -0.49888250015E+02  0.56281929024E+02  0.00000000000E+00 0.  1.
<scales pt_clust_5="13000.00000" pt_clust_6="13000.00000" pt_clust_7="13000.00000" pt_clust_8="13000.00000" pt_clust_9="13000.00000"></scales>
<clustering>
<clus scale="   92.844">  5  6 -1 -1</clus>
<clus scale="   26.054">  5  9 -1 -1</clus>
<clus scale="   93.115">  7  8 -1 -1</clus>
<clus scale="   99.046">  2  7  1 -1</clus>
<clus scale="  140.126">  1  5  2 -1</clus>
</clustering>
</event>
<event>
 9    1  0.6399313E-006  0.2872152E+03  0.7546771E-02  0.1108599E+00
          2   -1    0    0  502    0 -0.00000000000E+00  0.00000000000E+00  0.53766745916E+03  0.53766745916E+03  0.00000000000E+00 0. -1.
         21   -1    0    0  501  502  0.00000000000E+00 -0.00000000000E+00 -0.13217217606E+03  0.13217217606E+03  0.00000000000E+00 0.  1.
         23    2    1    2    0    0  0.14292426432E+03 -0.78012859745E+02  0.32022051985E+03  0.37023264596E+03  0.89541494203E+02 0.  0.
         23    2    1    2    0    0 -0.41050197687E+02  0.11847681019E+03 -0.74767356532E+01  0.15601556442E+03  0.92536919557E+02 0.  0.
        -11    1    3    3    0    0  0.11212120982E+03 -0.58879473007E+02  0.30619888115E+03  0.33135436145E+03  0.00000000000E+00 0. -1.
         11    1    3    3    0    0  0.30803054501E+02 -0.19133386738E+02  0.14021638699E+02  0.38878284510E+02  0.00000000000E+00 0.  1.
        -11    1    4    4    0    0 -0.15666271375E+02  0.11915905219E+03  0.16231057201E+02  0.12127554987E+03  0.00000000000E+00 0.  1.
         11    1    4    4    0    0 -0.25383926311E+02 -0.68224199561E+00 -0.23707792854E+02  0.34740014553E+02  0.00000000000E+00 0. -1.
          2    1    1    2  501    0 -0.10187406663E+03 -0.40463950448E+02  0.92751498904E+02  0.14359142484E+03  0.00000000000E+00 0. -1.
<scales pt_clust_5="13000.00000" pt_clust_6="13000.00000" pt_clust_7="13000.00000" pt_clust_8="13000.00000" pt_clust_9="13000.00000"></scales>
<clustering>
<clus scale="   89.541">  5  6 -1 -1</clus>
<clus scale="   92.537">  7  8 -1 -1</clus>
<clus scale="  109.616">  7  9 -1 -1</clus>
<clus scale="  185.825">  1  5  2 -1</clus>
<clus scale="  287.215">  2  5  1 -1</clus>
</clustering>
</event>
<event>
 9    1  0.6399313E-006  0.3103976E+03  0.7546771E-02  0.1103310E+00
          1   -1    0    0  502    0 -0.00000000000E+00  0.00000000000E+00  0.82760070221E+03  0.82760070221E+03  0.00000000000E+00 0. -1.
         21   -1    0    0  501  502  0.00000000000E+00 -0.00000000000E+00 -0.72047587024E+02  0.72047587024E+02  0.00000000000E+00 0. -1.
         23    2    1    2    0    0  0.83080276764E+02  0.11046538935E+03  0.18637699543E+03  0.25133652728E+03  0.96585355464E+02 0.  0.
         23    2    1    2    0    0 -0.16889144785E+03 -0.70332387882E+02  0.33305783754E+03  0.39389859782E+03  0.10371892920E+03 0.  0.
        -11    1    4    4    0    0 -0.13625641184E+02  0.24731575527E+02  0.46205642765E+02  0.54150441818E+02  0.00000000000E+00 0.  1.
         11    1    4    4    0    0 -0.15526580666E+03 -0.95063963409E+02  0.28685219478E+03  0.33974815600E+03  0.00000000000E+00 0. -1.
        -13    1    3    3    0    0  0.52266316280E+02  0.23863631519E+02  0.19243532585E+02  0.60593351723E+02  0.00000000000E+00 0.  1.
         13    1    3    3    0    0  0.30813960485E+02  0.86601757826E+02  0.16713346285E+03  0.19074317556E+03  0.00000000000E+00 0. -1.
          1    1    1    2  501    0  0.85811171083E+02 -0.40133001463E+02  0.23611828221E+03  0.25441316413E+03  0.00000000000E+00 0. -1.
<scales pt_clust_5="13000.00000" pt_clust_6="13000.00000" pt_clust_7="13000.00000" pt_clust_8="13000.00000" pt_clust_9="13000.00000"></scales>
<clustering>
<clus scale="   96.585">  7  8 -1 -1</clus>
<clus scale="  103.719">  5  6 -1 -1</clus>
<clus scale="   94.732">  5  9 -1 -1</clus>
<clus scale="  168.623">  1  7  2 -1</clus>
<clus scale="  310.398">  2  5  1 -1</clus>
</clustering>
</event>
<event>
 9    1  0.6399313E-006  0.1877539E+03  0.7546771E-02  0.1183681E+00
         21   -1    0    0  501  502  0.00000000000E+00  0.00000000000E+00  0.12816490198E+03  0.12816490198E+03  0.00000000000E+00 0.  1.
          4   -1    0    0  502    0 -0.00000000000E+00 -0.00000000000E+00 -0.18018673187E+03  0.18018673187E+03  0.00000000000E+00 0.  1.
         23    2    1    2    0    0 -0.39936403948E+02 -0.47812097279E+02 -0.47716875065E+02  0.12054835781E+03  0.91510072663E+02 0.  0.
         23    2    1    2    0    0  0.14321291994E+00 -0.28300545200E+02 -0.24709128411E+02  0.99525517244E+02  0.92162064795E+02 0.  0.
        -11    1    3    3    0    0 -0.52839510155E+02 -0.68288485648E+02 -0.34590752445E+02  0.93015328093E+02  0.00000000000E+00 0.  1.
         11    1    3    3    0    0  0.12903106208E+02  0.20476388370E+02 -0.13126122621E+02  0.27533029719E+02  0.00000000000E+00 0. -1.
        -11    1    4    4    0    0 -0.20391065585E+02 -0.36621308521E+01  0.29791942629E+02  0.36287278814E+02  0.00000000000E+00 0. -1.
         11    1    4    4    0    0  0.20534278505E+02 -0.24638414348E+02 -0.54501071040E+02  0.63238238431E+02  0.00000000000E+00 0.  1.
          4    1    1    2  501    0  0.39793191028E+02  0.76112642479E+02  0.20404173582E+02  0.88277758789E+02  0.00000000000E+00 0.  1.
<scales pt_clust_5="13000.00000" pt_clust_6="13000.00000" pt_clust_7="13000.00000" pt_clust_8="13000.00000" pt_clust_9="13000.00000"></scales>
<clustering>
<clus scale="   91.510">  5  6 -1 -1</clus>
<clus scale="   92.162">  7  8 -1 -1</clus>
<clus scale="   85.887">  7  9 -1 -1</clus>
<clus scale="  110.702">  2  5  1 -1</clus>
<clus scale="  187.754">  1  5  2 -1</clus>
</clustering>
</event>
<event>
 9    1  0.6399313E-006  0.3321084E+03  0.7546771E-02  0.1109814E+00
         21   -1    0    0  501  502  0.00000000000E+00  0.00000000000E+00  0.14028986140E+03  0.14028986140E+03  0.00000000000E+00 0.  1.
          2   -1    0    0  502    0 -0.00000000000E+00 -0.00000000000E+00 -0.60886114349E+03  0.60886114349E+03  0.00000000000E+00 0. -1.
         23    2    1    2    0    0  0.67434357172E+02 -0.25533967967E+02 -0.39114963866E+03  0.40813765548E+03  0.91536495198E+02 0.  0.
         23    2    1    2    0    0  0.45262752565E+02  0.11166063662E+03  0.40171961310E+02  0.15676705374E+03  0.91898357560E+02 0.  0.
        -11    1    4    4    0    0  0.22185340481E+01  0.99932202425E+02  0.52208744492E+01  0.10009307921E+03  0.00000000000E+00 0.  1.
         11    1    4    4    0    0  0.43044218517E+02  0.11728434191E+02  0.34951086860E+02  0.56673974530E+02  0.00000000000E+00 0. -1.
        -13    1    3    3    0    0 -0.73075385482E+01 -0.20017662619E+02 -0.19106643523E+02  0.28621159359E+02  0.00000000000E+00 0.  1.
         13    1    3    3    0    0  0.74741895721E+02 -0.55163053477E+01 -0.37204299513E+03  0.37951649612E+03  0.00000000000E+00 0. -1.
          2    1    1    2  501    0 -0.11269710974E+03 -0.86126668650E+02 -0.11759360474E+03  0.18424629568E+03  0.00000000000E+00 0. -1.
<scales pt_clust_5="13000.00000" pt_clust_6="13000.00000" pt_clust_7="13000.00000" pt_clust_8="13000.00000" pt_clust_9="13000.00000"></scales>
<clustering>
<clus scale="   91.536">  7  8 -1 -1</clus>
<clus scale="   91.898">  5  6 -1 -1</clus>
<clus scale="  116.526">  2  7  1 -1</clus>
<clus scale="  122.608">  5  9 -1 -1</clus>
<clus scale="  332.108">  1  5  2 -1</clus>
</clustering>
</event>
<event>
 9    1  0.6399313E-006  0.4729422E+03  0.7546771E-02  0.1064413E+00
          4   -1    0    0  502    0 -0.00000000000E+00  0.00000000000E+00  0.35611156795E+03  0.35611156795E+03  0.00000000000E+00 0. -1.
         21   -1    0    0  501  502  0.00000000000E+00 -0.00000000000E+00 -0.26123638552E+03  0.26123638552E+03  0.00000000000E+00 0. -1.
         23    2    1    2    0    0 -0.97063061452E+01 -0.97863535715E+02 -0.21160153993E+00  0.13494162300E+03  0.92399744815E+02 0.  0.
         23    2    1    2    0    0  0.10649070226E+03 -0.78311955308E+02  0.19927356527E+03  0.25599981916E+03  0.91394319217E+02 0.  0.
        -13    1    4    4    0    0  0.23475028188E+02 -0.70373204875E+02  0.11911583858E+03  0.14032835748E+03  0.00000000000E+00 0. -1.
         13    1    4    4    0    0  0.83015674068E+02 -0.79387504325E+01  0.80157726683E+02  0.11567146168E+03  0.00000000000E+00 0.  1.
        -13    1    3    3    0    0 -0.44257652447E+02 -0.33539497570E+02 -0.20443608334E+02  0.59174139783E+02  0.00000000000E+00 0.  1.
         13    1    3    3    0    0  0.34551346302E+02 -0.64324038145E+02  0.20232006794E+02  0.75767483220E+02  0.00000000000E+00 0. -1.
          4    1    1    2  501    0 -0.96784396111E+02  0.17617549102E+03 -0.10418678129E+03  0.22640651131E+03  0.00000000000E+00 0. -1.
<scales pt_clust_5="13000.00000" pt_clust_6="13000.00000" pt_clust_7="13000.00000" pt_clust_8="13000.00000" pt_clust_9="13000.00000"></scales>
<clustering>
<clus scale="   91.394">  5  6 -1 -1</clus>
<clus scale="   92.400">  7  8 -1 -1</clus>
<clus scale="  134.942">  1  7  2 -1</clus>
<clus scale="  184.223">  5  9 -1 -1</clus>
<clus scale="  472.942">  2  5  1 -1</clus>
</clustering>
</event>
<event>
 9    1  0.6399313E-006  0.6074467E+03  0.7546771E-02  0.1036193E+00
          4   -1    0    0  502    0 -0.00000000000E+00  0.00000000000E+00  0.22179032299E+03  0.22179032299E+03  0.00000000000E+00 0. -1.
         21   -1    0    0  501  502  0.00000000000E+00 -0.00000000000E+00 -0.91149821431E+03  0.91149821431E+03  0.00000000000E+00 0. -1.
         23    2    1    2    0    0  0.87303814146E+02 -0.65673319017E+02  0.71543231023E+02  0.15938157728E+03  0.91373477967E+02 0.  0.
         23    2    1    2    0    0  0.90897812244E+02  0.20111760952E+03 -0.72277271816E+02  0.24948585169E+03  0.91150869678E+02 0.  0.
        -11    1    3    3    0    0  0.54942961599E+02 -0.67875365124E+02  0.87161777995E+02  0.12338139958E+03  0.00000000000E+00 0. -1.
         11    1    3    3    0    0  0.32360852547E+02  0.22020461062E+01 -0.15618546972E+02  0.36000177697E+02  0.00000000000E+00 0.  1.
        -13    1    4    4    0    0  0.13784677971E+02  0.11525706964E+03 -0.56232217515E+01  0.11621458631E+03  0.00000000000E+00 0. -1.
         13    1    4    4    0    0  0.77113134273E+02  0.85860539883E+02 -0.66654050064E+02  0.13327126538E+03  0.00000000000E+00 0.  1.
          4    1    1    2  501    0 -0.17820162639E+03 -0.13544429051E+03 -0.68897385053E+03  0.72442110833E+03  0.00000000000E+00 0. -1.
<scales pt_clust_5="13000.00000" pt_clust_6="13000.00000" pt_clust_7="13000.00000" pt_clust_8="13000.00000" pt_clust_9="13000.00000"></scales>
<clustering>
<clus scale="   91.151">  7  8 -1 -1</clus>
<clus scale="   91.373">  5  6 -1 -1</clus>
<clus scale="  142.422">  1  5  2 -1</clus>
<clus scale="  219.571">  7  9 -1 -1</clus>
<clus scale="  607.447">  2  5  1 -1</clus>
</clustering>
</event>
<event>
 9    1  0.6399313E-006  0.1804655E+03  0.7546771E-02  0.1196440E+00
         21   -1    0    0  501  502  0.00000000000E+00  0.00000000000E+00  0.34227709621E+03  0.34227709621E+03  0.00000000000E+00 0. -1.
         -1   -1    0    0    0  501 -0.00000000000E+00 -0.00000000000E+00 -0.68861415129E+02  0.68861415129E+02  0.00000000000E+00 0.  1.
         23    2    1    2    0    0  0.27894109632E+02 -0.16515107433E+01  0.13931290617E+02  0.95068999123E+02  0.89795461445E+02 0.  0.
         23    2    1    2    0    0  0.11575087940E+02  0.58315985567E+02  0.12405994419E+03  0.16405483887E+03  0.89377757695E+02 0.  0.
        -11    1    4    4    0    0 -0.33794777040E+02  0.53763103672E+01  0.61508593379E+02  0.70386779496E+02  0.00000000000E+00 0.  1.
         11    1    4    4    0    0  0.45369864980E+02  0.52939675200E+02  0.62551350814E+02  0.93668059376E+02  0.00000000000E+00 0. -1.
        -11    1    3    3    0    0 -0.20330172153E+02 -0.22794174631E+02  0.27055019345E+02  0.40802749523E+02  0.00000000000E+00 0.  1.
         11    1    3    3    0    0  0.48224281785E+02  0.21142663888E+02 -0.13123728728E+02  0.54266249600E+02  0.00000000000E+00 0. -1.
         -1    1    1    2    0  502 -0.39469197572E+02 -0.56664474824E+02  0.13542444627E+03  0.15201467334E+03  0.00000000000E+00 0.  1.
<scales pt_clust_5="13000.00000" pt_clust_6="13000.00000" pt_clust_7="13000.00000" pt_clust_8="13000.00000" pt_clust_9="13000.00000"></scales>
<clustering>
<clus scale="   89.378">  5  6 -1 -1</clus>
<clus scale="   69.056">  5  9 -1 -1</clus>
<clus scale="   89.795">  7  8 -1 -1</clus>
<clus scale="   94.043">  2  7  1 -1</clus>
<clus scale="  180.465">  1  5  2 -1</clus>
</clustering>
</event>
<event>
 9    1  0.6399313E-006  0.2854079E+03  0.7546771E-02  0.1129624E+00
          2   -1    0    0  502    0 -0.00000000000E+00  0.00000000000E+00  0.55868720680E+03  0.55868720680E+03  0.00000000000E+00 0. -1.
         21   -1    0    0  501  502  0.00000000000E+00 -0.00000000000E+00 -0.70991409903E+02  0.70991409903E+02  0.00000000000E+00 0.  1.
         23    2    1    2    0    0 -0.71815321773E+02 -0.37829912217E+02  0.11717516649E+03  0.16197869966E+03  0.76932027141E+02 0.  0.
         23    2    1    2    0    0  0.95040567906E+02 -0.55779358812E+02  0.33532580403E+03  0.36503159923E+03  0.93062490679E+02 0.  0.
        -11    1    4    4    0    0  0.19029169382E+02  0.25143532293E+02  0.99530317123E+02  0.10440589318E+03  0.00000000000E+00 0. -1.
         11    1    4    4    0    0  0.76011398524E+02 -0.80922891105E+02  0.23579548690E+03  0.26062570605E+03  0.00000000000E+00 0.  1.
        -11    1    3    3    0    0 -0.38480688674E+02 -0.54934001126E+01  0.10780809476E+03  0.11460159747E+03  0.00000000000E+00 0. -1.
         11    1    3    3    0    0 -0.33334633099E+02 -0.32336512104E+02  0.93670717279E+01  0.47377102187E+02  0.00000000000E+00 0.  1.
          2    1    1    2  501    0 -0.23225246134E+02  0.93609271029E+02  0.35194826382E+02  0.10266831782E+03  0.00000000000E+00 0. -1.
<scales pt_clust_5="13000.00000" pt_clust_6="13000.00000" pt_clust_7="13000.00000" pt_clust_8="13000.00000" pt_clust_9="13000.00000"></scales>
<clustering>
<clus scale="   76.932">  7  8 -1 -1</clus>
<clus scale="   93.062">  5  6 -1 -1</clus>
<clus scale="   96.447">  5  9 -1 -1</clus>
<clus scale="  111.835">  1  7  2 -1</clus>
<clus scale="  285.408">  2  5  1 -1</clus>
</clustering>
</event>
<event>
 9    1  0.6399313E-006  0.4217446E+03  0.7546771E-02  0.1056223E+00
         21   -1    0    0  501  502  0.00000000000E+00  0.00000000000E+00  0.73471790354E+02  0.73471790354E+02  0.00000000000E+00 0. -1.
          2   -1    0    0  502    0 -0.00000000000E+00 -0.00000000000E+00 -0.14880814587E+04  0.14880814587E+04  0.00000000000E+00 0. -1.
         23    2    1    2    0    0  0.21035927748E+03  0.72985110913E+02 -0.53428500114E+03  0.58541801094E+03  0.87612402408E+02 0.  0.
         23    2    1    2    0    0 -0.10238928023E+03 -0.11132640968E+03 -0.83387033238E+03  0.85250036957E+03  0.92412199955E+02 0.  0.
        -11    1    3    3    0    0  0.41774894229E+02 -0.15740925080E+02 -0.15001607612E+03  0.15651754408E+03  0.00000000000E+00 0. -1.
         11    1    3    3    0    0  0.16858438325E+03  0.88726035993E+02 -0.38426892502E+03  0.42890046686E+03  0.00000000000E+00 0.  1.
        -13    1    4    4    0    0 -0.88271954776E+02 -0.12674151233E+03 -0.76858436384E+03  0.78394979003E+03  0.00000000000E+00 0. -1.
         13    1    4    4    0    0 -0.14117325452E+02  0.15415102649E+02 -0.65285968543E+02  0.68550579546E+02  0.00000000000E+00 0.  1.
          2    1    1    2  501    0 -0.10796999725E+03  0.38341298766E+02 -0.46454334840E+02  0.12363486855E+03  0.00000000000E+00 0. -1.
<scales pt_clust_5="13000.00000" pt_clust_6="13000.00000" pt_clust_7="13000.00000" pt_clust_8="13000.00000" pt_clust_9="13000.00000"></scales>
<clustering>
<clus scale="   87.612">  5  6 -1 -1</clus>
<clus scale="   92.412">  7  8 -1 -1</clus>
<clus scale="  114.576">  7  9 -1 -1</clus>
<clus scale="  239.278">  2  5  1 -1</clus>
<clus scale="  421.745">  1  5  2 -1</clus>
</clustering>
</event>
<event>
 9    1  0.6399313E-006  0.3466489E+03  0.7546771E-02  0.1105162E+00
          3   -1    0    0  502    0 -0.00000000000E+00  0.00000000000E+00  0.15494682143E+03  0.15494682143E+03  0.00000000000E+00 0. -1.
         21   -1    0    0  501  502  0.00000000000E+00 -0.00000000000E+00 -0.71023526968E+03  0.71023526968E+03  0.00000000000E+00 0.  1.
         23    2    1    2    0    0 -0.10994699279E+02 -0.69266622395E+02  0.80713861518E+02  0.14084486311E+03  0.91672240251E+02 0.  0.
         23    2    1    2    0    0 -0.13565419041E+03  0.97053524841E+02 -0.43476396831E+03  0.47378807341E+03  0.87372674803E+02 0.  0.
        -11    1    3    3    0    0 -0.43524607454E+02 -0.14540299891E+02  0.56365019616E+02  0.72683060002E+02  0.00000000000E+00 0.  1.
         11    1    3    3    0    0  0.32529908175E+02 -0.54726322504E+02  0.24348841901E+02  0.68161803106E+02  0.00000000000E+00 0. -1.
        -11    1    4    4    0    0 -0.12801870076E+03  0.46532307725E+02 -0.29351521888E+03  0.32358187082E+03  0.00000000000E+00 0.  1.
         11    1    4    4    0    0 -0.76354896472E+01  0.50521217116E+02 -0.14124874943E+03  0.15020620259E+03  0.00000000000E+00 0. -1.
          3    1    1    2  501    0  0.14664888969E+03 -0.27786902446E+02 -0.20123834146E+03  0.25054915459E+03  0.00000000000E+00 0. -1.
<scales pt_clust_5="13000.00000" pt_clust_6="13000.00000" pt_clust_7="13000.00000" pt_clust_8="13000.00000" pt_clust_9="13000.00000"></scales>
<clustering>
<clus scale="   87.373">  7  8 -1 -1</clus>
<clus scale="   91.672">  5  6 -1 -1</clus>
<clus scale="  115.423">  1  5  2 -1</clus>
<clus scale="  155.433">  7  9 -1 -1</clus>
<clus scale="  346.649">  2  5  1 -1</clus>
</clustering>
</event>
<event>
 9    1  0.6399313E-006  0.3744271E+03  0.7546771E-02  0.1072306E+00
         21   -1    0    0  501  502  0.00000000000E+00  0.00000000000E+00  0.31559110492E+03  0.31559110492E+03  0.00000000000E+00 0.  1.
          2   -1    0    0  502    0 -0.00000000000E+00 -0.00000000000E+00 -0.32525245593E+03  0.32525245593E+03  0.00000000000E+00 0. -1.
         23    2    1    2    0    0 -0.16589135140E+03 -0.10672394557E+03  0.11374357600E+03  0.24660449846E+03  0.94690213609E+02 0.  0.
         23    2    1    2    0    0 -0.29045951179E+02 -0.51455236515E+02 -0.87660002132E+02  0.14066677439E+03  0.92798474122E+02 0.  0.
        -11    1    4    4    0    0  0.26524065282E+02 -0.11688491615E+02  0.66678355415E+00  0.28992955620E+02  0.00000000000E+00 0.  1.
         11    1    4    4    0    0 -0.55570016461E+02 -0.39766744900E+02 -0.88326785686E+02  0.11167381877E+03  0.00000000000E+00 0. -1.
        -13    1    3    3    0    0 -0.67891842086E+02 -0.88122104180E+02  0.92366143750E+02  0.14459015173E+03  0.00000000000E+00 0.  1.
         13    1    3    3    0    0 -0.97999509317E+02 -0.18601841390E+02  0.21377432251E+02  0.10201434673E+03  0.00000000000E+00 0. -1.
          2    1    1    2  501    0  0.19493730258E+03  0.15817918209E+03 -0.35744924878E+02  0.25357228799E+03  0.00000000000E+00 0. -1.
<scales pt_clust_5="13000.00000" pt_clust_6="13000.00000" pt_clust_7="13000.00000" pt_clust_8="13000.00000" pt_clust_9="13000.00000"></scales>
<clustering>
<clus scale="   92.798">  5  6 -1 -1</clus>
<clus scale="   94.690">  7  8 -1 -1</clus>
<clus scale="  218.806">  2  7  1 -1</clus>
<clus scale="  141.975">  5  9 -1 -1</clus>
<clus scale="  374.427">  1  5  2 -1</clus>
</clustering>
</event>
<event>
 9    1  0.6399313E-006  0.1754135E+03  0.7546771E-02  0.1193126E+00
         21   -1    0    0  501  502  0.00000000000E+00  0.00000000000E+00  0.51706645672E+02  0.51706645672E+02  0.00000000000E+00 0. -1.
          2   -1    0    0  502    0 -0.00000000000E+00 -0.00000000000E+00 -0.49521520366E+03  0.49521520366E+03  0.00000000000E+00 0. -1.
         23    2    1    2    0    0  0.20055320340E+02  0.65129904340E+02 -0.60471165127E+02  0.12562915781E+03  0.86497417114E+02 0.  0.
         23    2    1    2    0    0 -0.32796698441E+02 -0.19768462938E+01 -0.29824530357E+03  0.31480161273E+03  0.95237927961E+02 0.  0.
        -11    1    3    3    0    0  0.32217796261E+02  0.42948558521E+02 -0.78115167621E+02  0.94786837100E+02  0.00000000000E+00 0.  1.
         11    1    3    3    0    0 -0.12162475922E+02  0.22181345819E+02  0.17644002494E+02  0.30842320712E+02  0.00000000000E+00 0. -1.
        -13    1    4    4    0    0  0.14424262926E+02 -0.35015277562E+02 -0.17054660387E+03  0.17470052408E+03  0.00000000000E+00 0.  1.
         13    1    4    4    0    0 -0.47220961367E+02  0.33038431268E+02 -0.12769869970E+03  0.14010108864E+03  0.00000000000E+00 0. -1.
          2    1    1    2  501    0  0.12741378102E+02 -0.63153058046E+02 -0.84792089288E+02  0.10649107879E+03  0.00000000000E+00 0. -1.
<scales pt_clust_5="13000.00000" pt_clust_6="13000.00000" pt_clust_7="13000.00000" pt_clust_8="13000.00000" pt_clust_9="13000.00000"></scales>
<clustering>
<clus scale="   86.497">  5  6 -1 -1</clus>
<clus scale="   95.238">  7  8 -1 -1</clus>
<clus scale="   64.426">  7  9 -1 -1</clus>
<clus scale="  110.118">  2  5  1 -1</clus>
<clus scale="  175.413">  1  5  2 -1</clus>
</clustering>
</event>
<event>
 9    1  0.6399313E-006  0.3201456E+03  0.7546771E-02  0.1116718E+00
         21   -1    0    0  501  502  0.00000000000E+00  0.00000000000E+00  0.96910426956E+02  0.96910426956E+02  0.00000000000E+00 0. -1.
          1   -1    0    0  502    0 -0.00000000000E+00 -0.00000000000E+00 -0.49383940291E+03  0.49383940291E+03  0.00000000000E+00 0. -1.
         23    2    1    2    0    0 -0.50439946271E+02  0.31933571867E+02 -0.54818188678E+02  0.12220633267E+03  0.91462630302E+02 0.  0.
         23    2    1    2    0    0  0.14687141453E+03  0.58992142357E+02 -0.23629477354E+03  0.29894531814E+03  0.92096677304E+02 0.  0.
        -11    1    4    4    0    0  0.87508399273E+02  0.10640887346E+01 -0.17549178495E+03  0.19610257217E+03  0.00000000000E+00 0. -1.
         11    1    4    4    0    0  0.59363015257E+02  0.57928053622E+02 -0.60802988592E+02  0.10284274597E+03  0.00000000000E+00 0.  1.
        -13    1    3    3    0    0 -0.31082883738E+02 -0.23777345069E+02  0.34664264876E+01  0.39287706889E+02  0.00000000000E+00 0.  1.
         13    1    3    3    0    0 -0.19357062533E+02  0.55710916936E+02 -0.58284615166E+02  0.82918625777E+02  0.00000000000E+00 0. -1.
          1    1    1    2  501    0 -0.96431468259E+02 -0.90925714224E+02 -0.10581601374E+03  0.16959817906E+03  0.00000000000E+00 0. -1.
<scales pt_clust_5="13000.00000" pt_clust_6="13000.00000" pt_clust_7="13000.00000" pt_clust_8="13000.00000" pt_clust_9="13000.00000"></scales>
<clustering>
<clus scale="   91.463">  7  8 -1 -1</clus>
<clus scale="   92.097">  5  6 -1 -1</clus>
<clus scale="  109.222">  2  7  1 -1</clus>
<clus scale="  138.960">  5  9 -1 -1</clus>
<clus scale="  320.146">  1  5  2 -1</clus>
</clustering>
</event>
<event>
 9    1  0.6399313E-006  0.6971777E+03  0.7546771E-02  0.1027537E+00
          1   -1    0    0  502    0 -0.00000000000E+00  0.00000000000E+00  0.32280688211E+03  0.32280688211E+03  0.00000000000E+00 0. -1.
         21   -1    0    0  501  502  0.00000000000E+00 -0.00000000000E+00 -0.52198376925E+03  0.52198376925E+03  0.00000000000E+00 0. -1.
         23    2    1    2    0    0  0.50814564435E+02 -0.68577260068E+02 -0.83394072174E+01  0.12196582432E+03  0.86724598769E+02 0.  0.
         23    2    1    2    0    0  0.13852953683E+03  0.22378583911E+03  0.13962720779E+03  0.31154900534E+03  0.91085076777E+02 0.  0.
        -13    1    3    3    0    0  0.12884206112E+02 -0.76632095837E+02  0.11257636023E+02  0.78518884661E+02  0.00000000000E+00 0.  1.
         13    1    3    3    0    0  0.37930358323E+02  0.80548357695E+01 -0.19597043240E+02  0.43446939657E+02  0.00000000000E+00 0. -1.
        -13    1    4    4    0    0  0.25344036254E+02  0.12490956317E+03  0.52624659752E+02  0.13789152969E+03  0.00000000000E+00 0. -1.
         13    1    4    4    0    0  0.11318550058E+03  0.98876275937E+02  0.87002548040E+02  0.17365747565E+03  0.00000000000E+00 0.  1.
          1    1    1    2  501    0 -0.18934410127E+03 -0.15520857904E+03 -0.33046468771E+03  0.41127582170E+03  0.00000000000E+00 0. -1.
<scales pt_clust_5="13000.00000" pt_clust_6="13000.00000" pt_clust_7="13000.00000" pt_clust_8="13000.00000" pt_clust_9="13000.00000"></scales>
<clustering>
<clus scale="   86.725">  5  6 -1 -1</clus>
<clus scale="   91.085">  7  8 -1 -1</clus>
<clus scale="  121.680">  1  5  2 -1</clus>
<clus scale="  245.804">  7  9 -1 -1</clus>
<clus scale="  697.178">  2  5  1 -1</clus>
</clustering>
</event>
<event>
 9    1  0.6399313E-006  0.7510336E+03  0.7546771E-02  0.1009004E+00
         21   -1    0    0  501  502  0.00000000000E+00  0.00000000000E+00  0.63247586137E+03  0.63247586137E+03  0.00000000000E+00 0.  1.
         -2   -1    0    0    0  501 -0.00000000000E+00 -0.00000000000E+00 -0.34918414125E+03  0.34918414125E+03  0.00000000000E+00 0.  1.
         23    2    1    2    0    0 -0.13792382822E+03  0.46610288912E+02  0.13099928526E+03  0.21534122247E+03  0.89529480796E+02 0.  0.
         23    2    1    2    0    0  0.27801676344E+03 -0.19702659429E+03 -0.16514578902E+03  0.38814141250E+03  0.85251538731E+02 0.  0.
        -11    1    3    3    0    0 -0.52105911805E+02  0.44637564197E+02  0.13664822590E+02  0.69959027716E+02  0.00000000000E+00 0.  1.
         11    1    3    3    0    0 -0.85817916418E+02  0.19727247147E+01  0.11733446267E+03  0.14538219475E+03  0.00000000000E+00 0. -1.
        -13    1    4    4    0    0  0.23094970095E+03 -0.16526914403E+03 -0.98501661555E+02  0.30058980633E+03  0.00000000000E+00 0.  1.
         13    1    4    4    0    0  0.47067062492E+02 -0.31757450260E+02 -0.66644127465E+02  0.87551606178E+02  0.00000000000E+00 0. -1.
         -2    1    1    2    0  502 -0.14009293522E+03  0.15041630538E+03  0.31743822388E+03  0.37817736765E+03  0.00000000000E+00 0.  1.
<scales pt_clust_5="13000.00000" pt_clust_6="13000.00000" pt_clust_7="13000.00000" pt_clust_8="13000.00000" pt_clust_9="13000.00000"></scales>
<clustering>
<clus scale="   85.252">  7  8 -1 -1</clus>
<clus scale="   89.529">  5  6 -1 -1</clus>
<clus scale="  170.912">  2  5  1 -1</clus>
<clus scale="  218.331">  7  9 -1 -1</clus>
<clus scale="  751.034">  1  5  2 -1</clus>
</clustering>
</event>
<event>
 9    1  0.6399313E-006  0.2237657E+03  0.7546771E-02  0.1157836E+00
         21   -1    0    0  501  502  0.00000000000E+00  0.00000000000E+00  0.15041835668E+03  0.15041835668E+03  0.00000000000E+00 0. -1.
          2   -1    0    0  502    0 -0.00000000000E+00 -0.00000000000E+00 -0.22253526808E+03  0.22253526808E+03  0.00000000000E+00 0. -1.
         23    2    1    2    0    0  0.49738514235E+02 -0.57380538928E+02 -0.90073124106E+02  0.14846866665E+03  0.90351155198E+02 0.  0.
         23    2    1    2    0    0 -0.39877312142E+02  0.61535877728E+01 -0.69374405908E+02  0.12275944126E+03  0.92892440796E+02 0.  0.
        -11    1    3    3    0    0 -0.15389838208E+02  0.12810875170E+02 -0.56302809536E+01  0.20800617931E+02  0.00000000000E+00 0.  1.
         11    1    3    3    0    0  0.65128352443E+02 -0.70191414097E+02 -0.84442843152E+02  0.12766804872E+03  0.00000000000E+00 0. -1.
        -13    1    4    4    0    0  0.34457223262E+01  0.31465027049E+02  0.59952190462E+01  0.32215890194E+02  0.00000000000E+00 0.  1.
         13    1    4    4    0    0 -0.43323034468E+02 -0.25311439276E+02 -0.75369624955E+02  0.90543551065E+02  0.00000000000E+00 0. -1.
          2    1    1    2  501    0 -0.98612020931E+01  0.51226951155E+02  0.87330618616E+02  0.10172551685E+03  0.00000000000E+00 0. -1.
<scales pt_clust_5="13000.00000" pt_clust_6="13000.00000" pt_clust_7="13000.00000" pt_clust_8="13000.00000" pt_clust_9="13000.00000"></scales>
<clustering>
<clus scale="   90.351">  5  6 -1 -1</clus>
<clus scale="   92.892">  7  8 -1 -1</clus>
<clus scale="   52.167">  7  9 -1 -1</clus>
<clus scale="  118.024">  2  5  1 -1</clus>
<clus scale="  223.766">  1  5  2 -1</clus>
</clustering>
</event>
<event>
 9    1  0.6399313E-006  0.3440630E+03  0.7546771E-02  0.1097653E+00
         21   -1    0    0  501  502  0.00000000000E+00  0.00000000000E+00  0.16017327354E+03  0.16017327354E+03  0.00000000000E+00 0. -1.
         -2   -1    0    0    0  501 -0.00000000000E+00 -0.00000000000E+00 -0.47166243647E+03  0.47166243647E+03  0.00000000000E+00 0.  1.
         23    2    1    2    0    0 -0.11003196326E+03 -0.90033096347E+01 -0.24131257512E+03  0.28068882426E+03  0.91467833840E+02 0.  0.
         23    2    1    2    0    0  0.71008260737E+02 -0.14304512952E+03 -0.21367953389E+02  0.18675753086E+03  0.94433594285E+02 0.  0.
        -11    1    3    3    0    0 -0.65917590584E+02  0.37075270595E+02 -0.97745864591E+02  0.12358785734E+03  0.00000000000E+00 0.  1.
         11    1    3    3    0    0 -0.44114372678E+02 -0.46078580229E+02 -0.14356671053E+03  0.15710096691E+03  0.00000000000E+00 0. -1.
        -11    1    4    4    0    0  0.34348201076E+02 -0.16881507815E+02 -0.38472189091E+02  0.54266873475E+02  0.00000000000E+00 0.  1.
         11    1    4    4    0    0  0.36660059661E+02 -0.12616362170E+03  0.17104235702E+02  0.13249065739E+03  0.00000000000E+00 0. -1.
         -2    1    1    2    0  502  0.39023702525E+02  0.15204843915E+03 -0.48808634428E+02  0.16438935489E+03  0.00000000000E+00 0.  1.
<scales pt_clust_5="13000.00000" pt_clust_6="13000.00000" pt_clust_7="13000.00000" pt_clust_8="13000.00000" pt_clust_9="13000.00000"></scales>
<clustering>
<clus scale="   91.468">  5  6 -1 -1</clus>
<clus scale="   94.434">  7  8 -1 -1</clus>
<clus scale="  143.368">  2  5  1 -1</clus>
<clus scale="  148.430">  7  9 -1 -1</clus>
<clus scale="  344.063">  1  5  2 -1</clus>
</clustering>
</event>
<event>
 9    1  0.6399313E-006  0.2652127E+03  0.7546771E-02  0.1131481E+00
         21   -1    0    0  501  502  0.00000000000E+00  0.00000000000E+00  0.55993049064E+02  0.55993049064E+02  0.00000000000E+00 0.  1.
         -1   -1    0    0    0  501 -0.00000000000E+00 -0.00000000000E+00 -0.71688083286E+03  0.71688083286E+03  0.00000000000E+00 0.  1.
         23    2    1    2    0    0  0.36751445656E+02 -0.88885444738E+02 -0.18299909418E+03  0.22632527306E+03  0.92104124296E+02 0.  0.
         23    2    1    2    0    0 -0.26810564463E+02  0.16472124230E+03 -0.35900904933E+03  0.40518999333E+03  0.86252763218E+02 0.  0.
        -11    1    4    4    0    0  0.12715880136E+02  0.13590636254E+03 -0.23327896214E+03  0.27028005321E+03  0.00000000000E+00 0.  1.
         11    1    4    4    0    0 -0.39526444598E+02  0.28814879757E+02 -0.12573008719E+03  0.13490994012E+03  0.00000000000E+00 0. -1.
        -11    1    3    3    0    0  0.16813354742E+02 -0.10042586686E+03 -0.17397829967E+03  0.20158495080E+03  0.00000000000E+00 0. -1.
         11    1    3    3    0    0  0.19938090914E+02  0.11540422125E+02 -0.90207945101E+01  0.24740322264E+02  0.00000000000E+00 0.  1.
         -1    1    1    2    0  502 -0.99408811931E+01 -0.75835797559E+02 -0.11887964030E+03  0.14135861554E+03  0.00000000000E+00 0.  1.
<scales pt_clust_5="13000.00000" pt_clust_6="13000.00000" pt_clust_7="13000.00000" pt_clust_8="13000.00000" pt_clust_9="13000.00000"></scales>
<clustering>
<clus scale="   86.253">  5  6 -1 -1</clus>
<clus scale="   76.485">  5  9 -1 -1</clus>
<clus scale="   92.104">  7  8 -1 -1</clus>
<clus scale="  133.171">  2  7  1 -1</clus>
<clus scale="  265.213">  1  5  2 -1</clus>
</clustering>
</event>
<event>
 9    1  0.6399313E-006  0.2444298E+03  0.7546771E-02  0.1139870E+00
          2   -1    0    0  502    0 -0.00000000000E+00  0.00000000000E+00  0.49831169094E+03  0.49831169094E+03  0.00000000000E+00 0. -1.
         21   -1    0    0  501  502  0.00000000000E+00 -0.00000000000E+00 -0.26001311001E+03  0.26001311001E+03  0.00000000000E+00 0. -1.
         23    2    1    2    0    0  0.19903941613E+02 -0.10480481752E+03  0.42735869207E+03  0.44931078978E+03  0.88682114670E+02 0.  0.
         23    2    1    2    0    0  0.31148958572E+02 -0.13048305515E+02 -0.23693105692E+02  0.99629189097E+02  0.90686802600E+02 0.  0.
        -11    1    3    3    0    0 -0.17398110184E+02 -0.45571632129E+02  0.71000533941E+02  0.86142577816E+02  0.00000000000E+00 0.  1.
         11    1    3    3    0    0  0.37302051796E+02 -0.59233185391E+02  0.35635815813E+03  0.36316821197E+03  0.00000000000E+00 0. -1.
        -13    1    4    4    0    0  0.61243826910E+02 -0.63624547536E+01 -0.29472468002E+02  0.68263559351E+02  0.00000000000E+00 0. -1.
         13    1    4    4    0    0 -0.30094868338E+02 -0.66858507613E+01  0.57793623100E+01  0.31365629747E+02  0.00000000000E+00 0.  1.
          2    1    1    2  501    0 -0.51052900185E+02  0.11785312304E+03 -0.16536700544E+03  0.20938482207E+03  0.00000000000E+00 0. -1.
<scales pt_clust_5="13000.00000" pt_clust_6="13000.00000" pt_clust_7="13000.00000" pt_clust_8="13000.00000" pt_clust_9="13000.00000"></scales>
<clustering>
<clus scale="   88.682">  5  6 -1 -1</clus>
<clus scale="   90.687">  7  8 -1 -1</clus>
<clus scale="  128.436">  7  9 -1 -1</clus>
<clus scale="  138.725">  1  5  2 -1</clus>
<clus scale="  244.430">  2  5  1 -1</clus>
</clustering>
</event>
<event>
 9    1  0.6399313E-006  0.3324688E+03  0.7546771E-02  0.1104199E+00
         21   -1    0    0  501  502  0.00000000000E+00  0.00000000000E+00  0.53817072932E+02  0.53817072932E+02  0.00000000000E+00 0. -1.
          1   -1    0    0  502    0 -0.00000000000E+00 -0.00000000000E+00 -0.10208196082E+04  0.10208196082E+04  0.00000000000E+00 0. -1.
         23    2    1    2    0    0 -0.83413196276E+02  0.52333479017E+02 -0.32692419835E+03  0.35336294328E+03  0.91046053598E+02 0.  0.
         23    2    1    2    0    0  0.16836182848E+03 -0.30530378172E+02 -0.58843814779E+03  0.61949773647E+03  0.90775450635E+02 0.  0.
        -13    1    3    3    0    0 -0.15313947266E+02  0.59057150734E+02 -0.20088557767E+03  0.20994589624E+03  0.00000000000E+00 0. -1.
         13    1    3    3    0    0 -0.68099249010E+02 -0.67236717170E+01 -0.12603862069E+03  0.14341704704E+03  0.00000000000E+00 0.  1.
        -13    1    4    4    0    0  0.61321990744E+02  0.10424624700E+01 -0.36079987877E+03  0.36597544425E+03  0.00000000000E+00 0. -1.
         13    1    4    4    0    0  0.10703983773E+03 -0.31572840642E+02 -0.22763826902E+03  0.25352229222E+03  0.00000000000E+00 0.  1.
          1    1    1    2  501    0 -0.84948632201E+02 -0.21803100846E+02 -0.51640189073E+02  0.10177600133E+03  0.00000000000E+00 0. -1.
<scales pt_clust_5="13000.00000" pt_clust_6="13000.00000" pt_clust_7="13000.00000" pt_clust_8="13000.00000" pt_clust_9="13000.00000"></scales>
<clustering>
<clus scale="   90.775">  7  8 -1 -1</clus>
<clus scale="   87.702">  7  9 -1 -1</clus>
<clus scale="   91.046">  5  6 -1 -1</clus>
<clus scale="  134.112">  2  5  1 -1</clus>
<clus scale="  332.469">  1  5  2 -1</clus>
</clustering>
</event>
<event>
 9    1  0.6399313E-006  0.1807244E+03  0.7546771E-02  0.1192732E+00
          3   -1    0    0  502    0 -0.00000000000E+00  0.00000000000E+00  0.13069324470E+03  0.13069324470E+03  0.00000000000E+00 0. -1.
         21   -1    0    0  501  502  0.00000000000E+00 -0.00000000000E+00 -0.49497859964E+03  0.49497859964E+03  0.00000000000E+00 0. -1.
         23    2    1    2    0    0 -0.21304857977E+02 -0.37801637297E+02  0.90660128310E+02  0.13614481962E+03  0.91832958620E+02 0.  0.
         23    2    1    2    0    0  0.30898537339E+02 -0.55384832710E+01 -0.42469947943E+03  0.43581272977E+03  0.92615836637E+02 0.  0.
        -11    1    4    4    0    0  0.49848825728E+02  0.28179766206E+02 -0.29335540998E+03  0.29889195575E+03  0.00000000000E+00 0. -1.
         11    1    4    4    0    0 -0.18950288389E+02 -0.33718249477E+02 -0.13134406945E+03  0.13692077402E+03  0.00000000000E+00 0.  1.
        -11    1    3    3    0    0 -0.24468948425E+02  0.38369615530E+01 -0.10349808389E+02  0.26843439509E+02  0.00000000000E+00 0.  1.
         11    1    3    3    0    0  0.31640904480E+01 -0.41638598850E+02  0.10100993670E+03  0.10930138011E+03  0.00000000000E+00 0. -1.
          3    1    1    2  501    0 -0.95936793619E+01  0.43340120568E+02 -0.30246003827E+02  0.53714294951E+02  0.00000000000E+00 0. -1.
<scales pt_clust_5="13000.00000" pt_clust_6="13000.00000" pt_clust_7="13000.00000" pt_clust_8="13000.00000" pt_clust_9="13000.00000"></scales>
<clustering>
<clus scale="   91.833">  7  8 -1 -1</clus>
<clus scale="   92.616">  5  6 -1 -1</clus>
<clus scale="   44.389">  5  9 -1 -1</clus>
<clus scale="  101.568">  1  7  2 -1</clus>
<clus scale="  180.724">  2  5  1 -1</clus>
</clustering>
</event>
<event>
 9    1  0.6399313E-006  0.4359919E+03  0.7546771E-02  0.1057871E+00
         21   -1    0    0  501  502  0.00000000000E+00  0.00000000000E+00  0.30311657952E+03  0.30311657952E+03  0.00000000000E+00 0. -1.
          2   -1    0    0  502    0 -0.00000000000E+00 -0.00000000000E+00 -0.44334608763E+03  0.44334608763E+03  0.00000000000E+00 0. -1.
         23    2    1    2    0    0 -0.25925392081E+02  0.18393112784E+03 -0.22145106096E+03  0.30296987339E+03  0.90815120082E+02 0.  0.
         23    2    1    2    0    0  0.89587239901E+01  0.78392863854E+02 -0.74028777237E+02  0.13819882161E+03  0.85982292334E+02 0.  0.
        -11    1    4    4    0    0 -0.15267937088E+02  0.87913101261E+02 -0.65909287306E+02  0.11093176925E+03  0.00000000000E+00 0. -1.
         11    1    4    4    0    0  0.24226661078E+02 -0.95202374066E+01 -0.81194899310E+01  0.27267052353E+02  0.00000000000E+00 0.  1.
        -13    1    3    3    0    0 -0.57999837677E+02  0.95026347287E+02 -0.10546905339E+03  0.15335484691E+03  0.00000000000E+00 0. -1.
         13    1    3    3    0    0  0.32074445596E+02  0.88904780553E+02 -0.11598200758E+03  0.14961502648E+03  0.00000000000E+00 0.  1.
          2    1    1    2  501    0  0.16966668091E+02 -0.26232399169E+03  0.15525033009E+03  0.30529397216E+03  0.00000000000E+00 0. -1.
<scales pt_clust_5="13000.00000" pt_clust_6="13000.00000" pt_clust_7="13000.00000" pt_clust_8="13000.00000" pt_clust_9="13000.00000"></scales>
<clustering>
<clus scale="   85.982">  5  6 -1 -1</clus>
<clus scale="   90.815">  7  8 -1 -1</clus>
<clus scale="  206.761">  2  7  1 -1</clus>
<clus scale="  186.249">  5  9 -1 -1</clus>
<clus scale="  435.992">  1  5  2 -1</clus>
</clustering>
</event>
<event>
 9    1  0.6399313E-006  0.1888730E+03  0.7546771E-02  0.1181109E+00
         21   -1    0    0  501  502  0.00000000000E+00  0.00000000000E+00  0.47315887126E+02  0.47315887126E+02  0.00000000000E+00 0. -1.
          2   -1    0    0  502    0 -0.00000000000E+00 -0.00000000000E+00 -0.52111792167E+03  0.52111792167E+03  0.00000000000E+00 0. -1.
         23    2    1    2    0    0 -0.40707674686E+01  0.71002170313E+02 -0.25220798227E+03  0.27726901421E+03  0.90616557991E+02 0.  0.
         23    2    1    2    0    0 -0.36074679055E+02 -0.20366355700E+02 -0.20024507475E+03  0.22311024706E+03  0.89240806061E+02 0.  0.
        -11    1    3    3    0    0 -0.41470553399E+02  0.18127485907E+02 -0.65242638981E+02  0.79404121340E+02  0.00000000000E+00 0. -1.
         11    1    3    3    0    0  0.37399785930E+02  0.52874684406E+02 -0.18696534329E+03  0.19786489287E+03  0.00000000000E+00 0.  1.
        -13    1    4    4    0    0 -0.94867782232E+01  0.35333458676E+02 -0.78977828116E+02  0.87039931049E+02  0.00000000000E+00 0.  1.
         13    1    4    4    0    0 -0.26587900832E+02 -0.55699814376E+02 -0.12126724664E+03  0.13607031601E+03  0.00000000000E+00 0. -1.
          2    1    1    2  501    0  0.40145446523E+02 -0.50635814613E+02 -0.21348977520E+02  0.68054547528E+02  0.00000000000E+00 0. -1.
<scales pt_clust_5="13000.00000" pt_clust_6="13000.00000" pt_clust_7="13000.00000" pt_clust_8="13000.00000" pt_clust_9="13000.00000"></scales>
<clustering>
<clus scale="   89.241">  7  8 -1 -1</clus>
<clus scale="   64.619">  7  9 -1 -1</clus>
<clus scale="   90.617">  5  6 -1 -1</clus>
<clus scale="  115.192">  2  5  1 -1</clus>
<clus scale="  188.873">  1  5  2 -1</clus>
</clustering>
</event>
<event>
 9    1  0.6399313E-006  0.4543659E+03  0.7546771E-02  0.1036792E+00
         21   -1    0    0  501  502  0.00000000000E+00  0.00000000000E+00  0.10582650651E+04  0.10582650651E+04  0.00000000000E+00 0. -1.
          4   -1    0    0  502    0 -0.00000000000E+00 -0.00000000000E+00 -0.22660844644E+03  0.22660844644E+03  0.00000000000E+00 0. -1.
         23    2    1    2    0    0 -0.28678904461E+03  0.14059483860E+03 -0.31627346248E+01  0.33441482325E+03  0.99037398825E+02 0.  0.
         23    2    1    2    0    0  0.86759122628E+02  0.51824333763E+01  0.65391457374E+02  0.14219989946E+03  0.91601122999E+02 0.  0.
        -11    1    3    3    0    0 -0.24929989112E+03  0.14845397179E+03  0.17893740761E+02  0.29070466700E+03  0.00000000000E+00 0. -1.
         11    1    3    3    0    0 -0.37489153489E+02 -0.78591331897E+01 -0.21056475386E+02  0.43710156251E+02  0.00000000000E+00 0.  1.
        -11    1    4    4    0    0  0.74431671011E+02 -0.35336267662E+02  0.32485374785E+02  0.88566500646E+02  0.00000000000E+00 0. -1.
         11    1    4    4    0    0  0.12327451617E+02  0.40518701038E+02  0.32906082589E+02  0.53633398816E+02  0.00000000000E+00 0.  1.
          4    1    1    2  501    0  0.20002992199E+03 -0.14577727198E+03  0.76942789592E+03  0.80825878884E+03  0.00000000000E+00 0. -1.
<scales pt_clust_5="13000.00000" pt_clust_6="13000.00000" pt_clust_7="13000.00000" pt_clust_8="13000.00000" pt_clust_9="13000.00000"></scales>
<clustering>
<clus scale="   91.601">  7  8 -1 -1</clus>
<clus scale="   99.037">  5  6 -1 -1</clus>
<clus scale="  247.514">  7  9 -1 -1</clus>
<clus scale="  334.400">  2  5  1 -1</clus>
<clus scale="  454.366">  1  5  2 -1</clus>
</clustering>
</event>
<event>
 9    1  0.6399313E-006  0.2821512E+03  0.7546771E-02  0.1124868E+00
         21   -1    0    0  501  502  0.00000000000E+00  0.00000000000E+00  0.11896588754E+03  0.11896588754E+03  0.00000000000E+00 0. -1.
          2   -1    0    0  502    0 -0.00000000000E+00 -0.00000000000E+00 -0.59121789039E+03  0.59121789039E+03  0.00000000000E+00 0. -1.
         23    2    1    2    0    0 -0.30750704357E+02 -0.87448051568E+02 -0.39753995814E+03  0.41830849466E+03  0.91384959638E+02 0.  0.
         23    2    1    2    0    0  0.11412775556E+03  0.70446840617E+01 -0.94035337405E+02  0.17444520273E+03  0.92269777886E+02 0.  0.
        -11    1    4    4    0    0  0.10581244047E+03 -0.28791106717E+02 -0.76395122432E+02  0.13364660532E+03  0.00000000000E+00 0. -1.
         11    1    4    4    0    0  0.83153150966E+01  0.35835790779E+02 -0.17640214974E+02  0.40798597405E+02  0.00000000000E+00 0.  1.
        -11    1    3    3    0    0 -0.56488345755E+02 -0.79414161127E+02 -0.35334521426E+03  0.36653837812E+03  0.00000000000E+00 0. -1.
         11    1    3    3    0    0  0.25737641398E+02 -0.80338904409E+01 -0.44194743876E+02  0.51770116540E+02  0.00000000000E+00 0.  1.
          2    1    1    2  501    0 -0.83377051205E+02  0.80403367506E+02  0.19323292697E+02  0.11743008054E+03  0.00000000000E+00 0. -1.
<scales pt_clust_5="13000.00000" pt_clust_6="13000.00000" pt_clust_7="13000.00000" pt_clust_8="13000.00000" pt_clust_9="13000.00000"></scales>
<clustering>
<clus scale="   91.385">  7  8 -1 -1</clus>
<clus scale="   92.270">  5  6 -1 -1</clus>
<clus scale="  115.829">  5  9 -1 -1</clus>
<clus scale="  130.169">  2  7  1 -1</clus>
<clus scale="  282.151">  1  5  2 -1</clus>
</clustering>
</event>
<event>
 9    1  0.6399313E-006  0.5776247E+03  0.7546771E-02  0.1047011E+00
         21   -1    0    0  501  502  0.00000000000E+00  0.00000000000E+00  0.29174784385E+03  0.29174784385E+03  0.00000000000E+00 0.  1.
          1   -1    0    0  502    0 -0.00000000000E+00 -0.00000000000E+00 -0.50037993717E+03  0.50037993717E+03  0.00000000000E+00 0. -1.
         23    2    1    2    0    0 -0.48851371694E+02  0.58365251466E+02  0.81320190719E+02  0.14581315106E+03  0.94103892100E+02 0.  0.
         23    2    1    2    0    0  0.10067245774E+02  0.35384266309E+02 -0.44782596705E+03  0.45865195307E+03  0.91978919063E+02 0.  0.
        -11    1    3    3    0    0 -0.24282576800E+02  0.53769635497E+02  0.98965660439E+02  0.11521726947E+03  0.00000000000E+00 0.  1.
         11    1    3    3    0    0 -0.24568794895E+02  0.45956159692E+01 -0.17645469721E+02  0.30595881592E+02  0.00000000000E+00 0. -1.
        -13    1    4    4    0    0  0.32122607020E+02  0.58173226517E+02 -0.27289788811E+03  0.28087229038E+03  0.00000000000E+00 0.  1.
         13    1    4    4    0    0 -0.22055361246E+02 -0.22788960208E+02 -0.17492807894E+03  0.17777966269E+03  0.00000000000E+00 0. -1.
          1    1    1    2  501    0  0.38784125920E+02 -0.93749517775E+02  0.15787368301E+03  0.18766267688E+03  0.00000000000E+00 0. -1.
<scales pt_clust_5="13000.00000" pt_clust_6="13000.00000" pt_clust_7="13000.00000" pt_clust_8="13000.00000" pt_clust_9="13000.00000"></scales>
<clustering>
<clus scale="   91.979">  7  8 -1 -1</clus>
<clus scale="   94.104">  5  6 -1 -1</clus>
<clus scale="  101.455">  7  9 -1 -1</clus>
<clus scale="  121.031">  2  5  1 -1</clus>
<clus scale="  577.625">  1  5  2 -1</clus>
</clustering>
</event>
<event>
 9    1  0.6399313E-006  0.3926401E+03  0.7546771E-02  0.1057898E+00
          2   -1    0    0  502    0 -0.00000000000E+00  0.00000000000E+00  0.65314740911E+03  0.65314740911E+03  0.00000000000E+00 0. -1.
         21   -1    0    0  501  502  0.00000000000E+00 -0.00000000000E+00 -0.69083614413E+03  0.69083614413E+03  0.00000000000E+00 0.  1.
         23    2    1    2    0    0  0.13136596290E+03 -0.23464793353E+03 -0.59699295269E+03  0.66061872567E+03  0.87748767718E+02 0.  0.
         23    2    1    2    0    0 -0.54176389007E+02  0.19477655870E+03  0.55373513839E+03  0.59630753900E+03  0.89928241619E+02 0.  0.
        -11    1    4    4    0    0 -0.44832809899E+01  0.11396614249E+03  0.20169785083E+03  0.23171189972E+03  0.00000000000E+00 0.  1.
         11    1    4    4    0    0 -0.49693108017E+02  0.80810416206E+02  0.35203728755E+03  0.36459563928E+03  0.00000000000E+00 0. -1.
        -11    1    3    3    0    0  0.12020577472E+03 -0.19872766244E+03 -0.56628107740E+03  0.61205912355E+03  0.00000000000E+00 0.  1.
         11    1    3    3    0    0  0.11160188182E+02 -0.35920271084E+02 -0.30711875284E+02  0.48559602125E+02  0.00000000000E+00 0. -1.
          2    1    1    2  501    0 -0.77189573893E+02  0.39871374830E+02  0.55690792834E+01  0.87057288567E+02  0.00000000000E+00 0. -1.
<scales pt_clust_5="13000.00000" pt_clust_6="13000.00000" pt_clust_7="13000.00000" pt_clust_8="13000.00000" pt_clust_9="13000.00000"></scales>
<clustering>
<clus scale="   87.749">  7  8 -1 -1</clus>
<clus scale="   89.928">  5  6 -1 -1</clus>
<clus scale="   86.879">  5  9 -1 -1</clus>
<clus scale="  282.872">  1  7  2 -1</clus>
<clus scale="  392.640">  2  5  1 -1</clus>
</clustering>
</event>
<event>
 9    1  0.6399313E-006  0.3633662E+03  0.7546771E-02  0.1097905E+00
          1   -1    0    0  502    0 -0.00000000000E+00  0.00000000000E+00  0.50487779754E+03  0.50487779754E+03  0.00000000000E+00 0. -1.
         21   -1    0    0  501  502  0.00000000000E+00 -0.00000000000E+00 -0.13815561472E+03  0.13815561472E+03  0.00000000000E+00 0. -1.
         23    2    1    2    0    0 -0.54832272691E+02  0.54341472540E+02  0.22024752285E+03  0.25125565525E+03  0.93063737347E+02 0.  0.
         23    2    1    2    0    0 -0.53976352684E+02  0.31214687499E+02  0.21170593519E+03  0.23876046144E+03  0.91100777102E+02 0.  0.
        -11    1    3    3    0    0 -0.21415489184E+02  0.53046838301E+02  0.44831874748E+02  0.72680721132E+02  0.00000000000E+00 0.  1.
         11    1    3    3    0    0 -0.33416783506E+02  0.12946342385E+01  0.17541564810E+03  0.17857493412E+03  0.00000000000E+00 0. -1.
        -11    1    4    4    0    0 -0.41164091163E+02 -0.25700164880E+02  0.12656763762E+03  0.13555201130E+03  0.00000000000E+00 0. -1.
         11    1    4    4    0    0 -0.12812261521E+02  0.56914852379E+02  0.85138297575E+02  0.10320845014E+03  0.00000000000E+00 0.  1.
          1    1    1    2  501    0  0.10880862538E+03 -0.85556160038E+02 -0.65231275223E+02  0.15301729557E+03  0.00000000000E+00 0. -1.
<scales pt_clust_5="13000.00000" pt_clust_6="13000.00000" pt_clust_7="13000.00000" pt_clust_8="13000.00000" pt_clust_9="13000.00000"></scales>
<clustering>
<clus scale="   91.101">  7  8 -1 -1</clus>
<clus scale="   93.064">  5  6 -1 -1</clus>
<clus scale="  120.915">  1  5  2 -1</clus>
<clus scale="  125.917">  7  9 -1 -1</clus>
<clus scale="  363.366">  2  5  1 -1</clus>
</clustering>
</event>
<event>
 9    1  0.6399313E-006  0.2453124E+03  0.7546771E-02  0.1145654E+00
         21   -1    0    0  501  502  0.00000000000E+00  0.00000000000E+00  0.76717424502E+02  0.76717424502E+02  0.00000000000E+00 0. -1.
          2   -1    0    0  502    0 -0.00000000000E+00 -0.00000000000E+00 -0.43458588292E+03  0.43458588292E+03  0.00000000000E+00 0. -1.
         23    2    1    2    0    0  0.17691855002E+02  0.68834822048E+02 -0.12896920283E+03  0.17578427040E+03  0.95999062407E+02 0.  0.
         23    2    1    2    0    0  0.24120501288E+02  0.35290129576E+02 -0.18987422520E+03  0.21671991376E+03  0.95331567682E+02 0.  0.
        -11    1    3    3    0    0  0.13221960813E+02  0.16728642918E+02  0.12666797102E+02  0.24801521938E+02  0.00000000000E+00 0.  1.
         11    1    3    3    0    0  0.44698941884E+01  0.52106179130E+02 -0.14163599993E+03  0.15098274846E+03  0.00000000000E+00 0. -1.
        -11    1    4    4    0    0 -0.26438762533E+02  0.43054019927E+02 -0.11930244088E+03  0.12955975145E+03  0.00000000000E+00 0.  1.
         11    1    4    4    0    0  0.50559263821E+02 -0.77638903511E+01 -0.70571784323E+02  0.87160162311E+02  0.00000000000E+00 0. -1.
          2    1    1    2  501    0 -0.41812356290E+02 -0.10412495162E+03 -0.39025030381E+02  0.11879912325E+03  0.00000000000E+00 0. -1.
<scales pt_clust_5="13000.00000" pt_clust_6="13000.00000" pt_clust_7="13000.00000" pt_clust_8="13000.00000" pt_clust_9="13000.00000"></scales>
<clustering>
<clus scale="   95.332">  7  8 -1 -1</clus>
<clus scale="   95.999">  5  6 -1 -1</clus>
<clus scale="  112.206">  7  9 -1 -1</clus>
<clus scale="  119.445">  2  5  1 -1</clus>
<clus scale="  245.312">  1  5  2 -1</clus>
</clustering>
</event>
<event>
 9    1  0.6399313E-006  0.5431041E+03  0.7546771E-02  0.1024364E+00
         -2   -1    0    0    0  501 -0.00000000000E+00  0.00000000000E+00  0.30550009299E+03  0.30550009299E+03  0.00000000000E+00 0. -1.
         21   -1    0    0  501  502  0.00000000000E+00 -0.00000000000E+00 -0.56630831063E+03  0.56630831063E+03  0.00000000000E+00 0. -1.
         23    2    1    2    0    0 -0.22711498334E+03  0.13370236548E+03 -0.13853949346E+03  0.31511124982E+03  0.10317155771E+03 0.  0.
         23    2    1    2    0    0 -0.56643455465E+02 -0.42010126425E+02  0.12435962547E+03  0.16971929766E+03  0.91465795682E+02 0.  0.
        -11    1    4    4    0    0  0.13542227548E+01  0.21053570738E+02  0.56854940620E+02  0.60642980080E+02  0.00000000000E+00 0.  1.
         11    1    4    4    0    0 -0.57997678220E+02 -0.63063697163E+02  0.67504684852E+02  0.10907631758E+03  0.00000000000E+00 0. -1.
        -11    1    3    3    0    0 -0.97971086203E+02  0.22212257707E+02 -0.96717470068E+02  0.13944886927E+03  0.00000000000E+00 0.  1.
         11    1    3    3    0    0 -0.12914389713E+03  0.11149010778E+03 -0.41822023391E+02  0.17566238055E+03  0.00000000000E+00 0. -1.
         -2    1    1    2    0  502  0.28375843880E+03 -0.91692239059E+02 -0.24662834965E+03  0.38697785615E+03  0.00000000000E+00 0. -1.
<scales pt_clust_5="13000.00000" pt_clust_6="13000.00000" pt_clust_7="13000.00000" pt_clust_8="13000.00000" pt_clust_9="13000.00000"></scales>
<clustering>
<clus scale="   91.466">  5  6 -1 -1</clus>
<clus scale="  103.172">  7  8 -1 -1</clus>
<clus scale="  283.023">  1  7  2 -1</clus>
<clus scale="  215.903">  5  9 -1 -1</clus>
<clus scale="  543.104">  2  5  1 -1</clus>
</clustering>
</event>
<event>
 9    1  0.6399313E-006  0.1665473E+03  0.7546771E-02  0.1206452E+00
          1   -1    0    0  502    0 -0.00000000000E+00  0.00000000000E+00  0.24347761245E+03  0.24347761245E+03  0.00000000000E+00 0. -1.
         21   -1    0    0  501  502  0.00000000000E+00 -0.00000000000E+00 -0.30119544547E+03  0.30119544547E+03  0.00000000000E+00 0. -1.
         23    2    1    2    0    0  0.16443878415E+02 -0.17262739993E+02  0.20905844290E+03  0.23017728329E+03  0.93315303507E+02 0.  0.
         23    2    1    2    0    0 -0.16903025835E+02  0.69607027708E+02 -0.16742635890E+03  0.20219910823E+03  0.87875156460E+02 0.  0.
        -11    1    3    3    0    0 -0.22419079680E+02 -0.32155293338E+01  0.66658143068E+01  0.23609062730E+02  0.00000000000E+00 0.  1.
         11    1    3    3    0    0  0.38862958095E+02 -0.14047210659E+02  0.20239262859E+03  0.20656822056E+03  0.00000000000E+00 0. -1.
        -13    1    4    4    0    0 -0.37755605224E+02 -0.27211243824E+01 -0.62385425695E+02  0.72971443613E+02  0.00000000000E+00 0.  1.
         13    1    4    4    0    0  0.20852579389E+02  0.72328152091E+02 -0.10504093321E+03  0.12922766461E+03  0.00000000000E+00 0. -1.
          1    1    1    2  501    0  0.45914742036E+00 -0.52344287716E+02 -0.99349917017E+02  0.11229666640E+03  0.00000000000E+00 0. -1.
<scales pt_clust_5="13000.00000" pt_clust_6="13000.00000" pt_clust_7="13000.00000" pt_clust_8="13000.00000" pt_clust_9="13000.00000"></scales>
<clustering>
<clus scale="   87.875">  7  8 -1 -1</clus>
<clus scale="   52.346">  7  9 -1 -1</clus>
<clus scale="   93.315">  5  6 -1 -1</clus>
<clus scale="   96.313">  1  5  2 -1</clus>
<clus scale="  166.547">  2  5  1 -1</clus>
</clustering>
</event>
<event>
 9    1  0.6399313E-006  0.2900238E+03  0.7546771E-02  0.1093530E+00
         21   -1    0    0  501  502  0.00000000000E+00  0.00000000000E+00  0.13240855739E+04  0.13240855739E+04  0.00000000000E+00 0. -1.
          2   -1    0    0  502    0 -0.00000000000E+00 -0.00000000000E+00 -0.61765264695E+02  0.61765264695E+02  0.00000000000E+00 0. -1.
         23    2    1    2    0    0 -0.78936230098E+02 -0.23725959173E+03  0.44695332689E+03  0.52043931420E+03  0.92556799087E+02 0.  0.
         23    2    1    2    0    0  0.87689538604E+02  0.15475093771E+03  0.46439921516E+03  0.50476949692E+03  0.86534999153E+02 0.  0.
        -11    1    3    3    0    0 -0.20405703708E+02 -0.72096586283E+01  0.84074172637E+02  0.86814966601E+02  0.00000000000E+00 0.  1.
         11    1    3    3    0    0 -0.58530526390E+02 -0.23004993310E+03  0.36287915425E+03  0.43362434760E+03  0.00000000000E+00 0. -1.
        -13    1    4    4    0    0  0.92707723832E+02  0.85602524622E+02  0.33482419002E+03  0.35781245437E+03  0.00000000000E+00 0. -1.
         13    1    4    4    0    0 -0.50181852274E+01  0.69148413085E+02  0.12957502513E+03  0.14695704255E+03  0.00000000000E+00 0.  1.
          2    1    1    2  501    0 -0.87533085061E+01  0.82508654021E+02  0.35096776714E+03  0.36064202746E+03  0.00000000000E+00 0. -1.
<scales pt_clust_5="13000.00000" pt_clust_6="13000.00000" pt_clust_7="13000.00000" pt_clust_8="13000.00000" pt_clust_9="13000.00000"></scales>
<clustering>
<clus scale="   86.535">  7  8 -1 -1</clus>
<clus scale="   82.972">  7  9 -1 -1</clus>
<clus scale="   92.557">  5  6 -1 -1</clus>
<clus scale="  266.627">  2  5  1 -1</clus>
<clus scale="  290.024">  1  5  2 -1</clus>
</clustering>
</event>
<event>
 9    1  0.6399313E-006  0.5071523E+03  0.7546771E-02  0.1033637E+00
          2   -1    0    0  502    0 -0.00000000000E+00  0.00000000000E+00  0.17461747889E+03  0.17461747889E+03  0.00000000000E+00 0. -1.
         21   -1    0    0  501  502  0.00000000000E+00 -0.00000000000E+00 -0.85576961192E+03  0.85576961192E+03  0.00000000000E+00 0. -1.
         23    2    1    2    0    0  0.11733810127E+03 -0.21953136901E+03 -0.27018167732E+03  0.37762359859E+03  0.87402468285E+02 0.  0.
         23    2    1    2    0    0 -0.81990308720E+02 -0.99801816005E+02 -0.41545463743E+02  0.16317389452E+03  0.90647013697E+02 0.  0.
        -11    1    4    4    0    0  0.28318587015E+01 -0.63640157534E+02 -0.47006342147E+01  0.63876326105E+02  0.00000000000E+00 0. -1.
         11    1    4    4    0    0 -0.84822167421E+02 -0.36161658471E+02 -0.36844829528E+02  0.99297568411E+02  0.00000000000E+00 0.  1.
        -11    1    3    3    0    0  0.11224222265E+03 -0.12059813963E+03 -0.16734624938E+03  0.23483397328E+03  0.00000000000E+00 0. -1.
         11    1    3    3    0    0  0.50958786187E+01 -0.98933229380E+02 -0.10283542795E+03  0.14278962531E+03  0.00000000000E+00 0.  1.
          2    1    1    2  501    0 -0.35347792548E+02  0.31933318502E+03 -0.36942499196E+03  0.48958959770E+03  0.00000000000E+00 0. -1.
<scales pt_clust_5="13000.00000" pt_clust_6="13000.00000" pt_clust_7="13000.00000" pt_clust_8="13000.00000" pt_clust_9="13000.00000"></scales>
<clustering>
<clus scale="   87.402">  7  8 -1 -1</clus>
<clus scale="   90.647">  5  6 -1 -1</clus>
<clus scale="  263.821">  1  7  2 -1</clus>
<clus scale="  211.483">  5  9 -1 -1</clus>
<clus scale="  507.152">  2  5  1 -1</clus>
</clustering>
</event>
<event>
 9    1  0.6399313E-006  0.8855041E+03  0.7546771E-02  0.1001697E+00
         21   -1    0    0  501  502  0.00000000000E+00  0.00000000000E+00  0.86362209790E+03  0.86362209790E+03  0.00000000000E+00 0. -1.
          1   -1    0    0  502    0 -0.00000000000E+00 -0.00000000000E+00 -0.33592949694E+03  0.33592949694E+03  0.00000000000E+00 0. -1.
         23    2    1    2    0    0 -0.41134715819E+02  0.90747472456E+02 -0.52301994953E+02  0.14100955524E+03  0.84976628489E+02 0.  0.
         23    2    1    2    0    0  0.35793569565E+00 -0.26387366003E+03 -0.14845382785E+03  0.30869370248E+03  0.60198225642E+02 0.  0.
        -11    1    4    4    0    0  0.17910741924E+02 -0.23657185111E+03 -0.12176017112E+03  0.26666941086E+03  0.00000000000E+00 0. -1.
         11    1    4    4    0    0 -0.17552806229E+02 -0.27301808915E+02 -0.26693656728E+02  0.42024291618E+02  0.00000000000E+00 0.  1.
        -11    1    3    3    0    0 -0.53945527832E+02  0.17777116454E+02 -0.20488893299E+02  0.60381624615E+02  0.00000000000E+00 0. -1.
         11    1    3    3    0    0  0.12810812013E+02  0.72970356002E+02 -0.31813101654E+02  0.80627930622E+02  0.00000000000E+00 0.  1.
          1    1    1    2  501    0  0.40776780124E+02  0.17312618757E+03  0.72844842376E+03  0.74984833713E+03  0.00000000000E+00 0. -1.
<scales pt_clust_5="13000.00000" pt_clust_6="13000.00000" pt_clust_7="13000.00000" pt_clust_8="13000.00000" pt_clust_9="13000.00000"></scales>
<clustering>
<clus scale="   60.198">  5  6 -1 -1</clus>
<clus scale="   84.977">  7  8 -1 -1</clus>
<clus scale="  130.951">  2  7  1 -1</clus>
<clus scale="  181.412">  5  9 -1 -1</clus>
<clus scale="  885.504">  1  5  2 -1</clus>
</clustering>
</event>
<event>
 9    1  0.6399313E-006  0.2844708E+03  0.7546771E-02  0.1108698E+00
         21   -1    0    0  501  502  0.00000000000E+00  0.00000000000E+00  0.88189073134E+02  0.88189073134E+02  0.00000000000E+00 0.  1.
          1   -1    0    0  502    0 -0.00000000000E+00 -0.00000000000E+00 -0.72302153240E+03  0.72302153240E+03  0.00000000000E+00 0. -1.
         23    2    1    2    0    0 -0.11074298131E+03  0.13061885028E+03 -0.39684384452E+03  0.44031676446E+03  0.84074515614E+02 0.  0.
         23    2    1    2    0    0 -0.40140917092E+02 -0.58596323649E+02 -0.12731119298E+03  0.17038776429E+03  0.88198798134E+02 0.  0.
        -11    1    4    4    0    0 -0.20233669929E+02 -0.44281768677E+02 -0.13593931401E+03  0.14439450658E+03  0.00000000000E+00 0. -1.
         11    1    4    4    0    0 -0.19907247163E+02 -0.14314554972E+02  0.86281210382E+01  0.25993257708E+02  0.00000000000E+00 0.  1.
        -13    1    3    3    0    0 -0.12108448574E+03  0.95847391937E+02 -0.31671028867E+03  0.35235434179E+03  0.00000000000E+00 0. -1.
         13    1    3    3    0    0  0.10341504435E+02  0.34771458339E+02 -0.80133555845E+02  0.87962422667E+02  0.00000000000E+00 0.  1.
          1    1    1    2  501    0  0.15088389840E+03 -0.72022526627E+02 -0.11067742178E+03  0.20050607679E+03  0.00000000000E+00 0. -1.
<scales pt_clust_5="13000.00000" pt_clust_6="13000.00000" pt_clust_7="13000.00000" pt_clust_8="13000.00000" pt_clust_9="13000.00000"></scales>
<clustering>
<clus scale="   84.075">  7  8 -1 -1</clus>
<clus scale="   88.199">  5  6 -1 -1</clus>
<clus scale="  167.192">  5  9 -1 -1</clus>
<clus scale="  190.772">  2  7  1 -1</clus>
<clus scale="  284.471">  1  5  2 -1</clus>
</clustering>
</event>
<event>
 9    1  0.6399313E-006  0.2107105E+03  0.7546771E-02  0.1175277E+00
          4   -1    0    0  502    0 -0.00000000000E+00  0.00000000000E+00  0.36837042154E+02  0.36837042154E+02  0.00000000000E+00 0. -1.
         21   -1    0    0  501  502  0.00000000000E+00 -0.00000000000E+00 -0.71433077703E+03  0.71433077703E+03  0.00000000000E+00 0. -1.
         23    2    1    2    0    0 -0.15299699978E+02 -0.22657848133E+02 -0.34323120814E+03  0.35603447742E+03  0.90583817397E+02 0.  0.
         23    2    1    2    0    0  0.25333229437E+02 -0.44375415751E+02 -0.79499684829E+02  0.13150816125E+03  0.91450787590E+02 0.  0.
        -11    1    3    3    0    0 -0.46137198464E+02  0.12397820326E+02 -0.16333338479E+03  0.17017679518E+03  0.00000000000E+00 0.  1.
         11    1    3    3    0    0  0.30837498486E+02 -0.35055668459E+02 -0.17989782335E+03  0.18585768225E+03  0.00000000000E+00 0. -1.
        -11    1    4    4    0    0  0.35159964723E+02 -0.69032451023E+02 -0.65773305377E+02  0.10162593229E+03  0.00000000000E+00 0. -1.
         11    1    4    4    0    0 -0.98267352868E+01  0.24657035272E+02 -0.13726379452E+02  0.29882228961E+02  0.00000000000E+00 0.  1.
          4    1    1    2  501    0 -0.10033529459E+02  0.67033263884E+02 -0.25476284191E+03  0.26362518051E+03  0.00000000000E+00 0. -1.
<scales pt_clust_5="13000.00000" pt_clust_6="13000.00000" pt_clust_7="13000.00000" pt_clust_8="13000.00000" pt_clust_9="13000.00000"></scales>
<clustering>
<clus scale="   90.584">  5  6 -1 -1</clus>
<clus scale="   91.451">  7  8 -1 -1</clus>
<clus scale="   67.780">  7  9 -1 -1</clus>
<clus scale="   94.620">  1  5  2 -1</clus>
<clus scale="  210.711">  2  5  1 -1</clus>
</clustering>
</event>
<event>
 9    1  0.6399313E-006  0.3004500E+03  0.7546771E-02  0.1129103E+00
         -3   -1    0    0    0  501 -0.00000000000E+00  0.00000000000E+00  0.52666327576E+03  0.52666327576E+03  0.00000000000E+00 0.  1.
         21   -1    0    0  501  502  0.00000000000E+00 -0.00000000000E+00 -0.18854528931E+03  0.18854528931E+03  0.00000000000E+00 0.  1.
         23    2    1    2    0    0  0.21382060485E+02  0.17836501219E+02  0.39729266678E+03  0.40898667826E+03  0.93023151019E+02 0.  0.
         23    2    1    2    0    0 -0.20844787317E+02 -0.14068425749E+03 -0.44246684612E+02  0.18246929112E+03  0.10540734149E+03 0.  0.
        -11    1    4    4    0    0  0.25888333979E+02 -0.36757897476E+02 -0.51407666689E+02  0.68294194903E+02  0.00000000000E+00 0. -1.
         11    1    4    4    0    0 -0.46733121296E+02 -0.10392636002E+03  0.71609820763E+01  0.11417509622E+03  0.00000000000E+00 0.  1.
        -11    1    3    3    0    0  0.14076047833E+02  0.55986792272E+02  0.25797040597E+03  0.26435087741E+03  0.00000000000E+00 0.  1.
         11    1    3    3    0    0  0.73060126520E+01 -0.38150291053E+02  0.13932226081E+03  0.14463580085E+03  0.00000000000E+00 0. -1.
         -3    1    1    2    0  502 -0.53727316887E+00  0.12284775628E+03 -0.14927995721E+02  0.12375259569E+03  0.00000000000E+00 0.  1.
<scales pt_clust_5="13000.00000" pt_clust_6="13000.00000" pt_clust_7="13000.00000" pt_clust_8="13000.00000" pt_clust_9="13000.00000"></scales>
<clustering>
<clus scale="   93.023">  7  8 -1 -1</clus>
<clus scale="   97.101">  1  7  2 -1</clus>
<clus scale="  105.407">  5  6 -1 -1</clus>
<clus scale="  131.006">  5  9 -1 -1</clus>
<clus scale="  300.450">  2  5  1 -1</clus>
</clustering>
</event>
<event>
 9    1  0.6399313E-006  0.4113996E+03  0.7546771E-02  0.1094023E+00
         -4   -1    0    0    0  501 -0.00000000000E+00  0.00000000000E+00  0.10409459347E+03  0.10409459347E+03  0.00000000000E+00 0.  1.
         21   -1    0    0  501  502  0.00000000000E+00 -0.00000000000E+00 -0.61308124634E+03  0.61308124634E+03  0.00000000000E+00 0.  1.
         23    2    1    2    0    0 -0.77822168016E+01  0.46870265166E+01 -0.11657502023E+03  0.14863694042E+03  0.91764228326E+02 0.  0.
         23    2    1    2    0    0 -0.12772551076E+03  0.74132091868E+02 -0.34006647160E+02  0.17734977471E+03  0.92125552349E+02 0.  0.
        -11    1    3    3    0    0  0.38324318531E+02 -0.16105636122E+02 -0.55347366430E+02  0.69220487404E+02  0.00000000000E+00 0.  1.
         11    1    3    3    0    0 -0.46106535333E+02  0.20792662638E+02 -0.61227653802E+02  0.79416453019E+02  0.00000000000E+00 0. -1.
        -13    1    4    4    0    0 -0.93129136046E+02  0.75451355966E+02  0.11232122876E+02  0.12038315365E+03  0.00000000000E+00 0.  1.
         13    1    4    4    0    0 -0.34596374712E+02 -0.13192640978E+01 -0.45238770036E+02  0.56966621063E+02  0.00000000000E+00 0. -1.
         -4    1    1    2    0  502  0.13550772756E+03 -0.78819118384E+02 -0.35840498548E+03  0.39118912468E+03  0.00000000000E+00 0.  1.
<scales pt_clust_5="13000.00000" pt_clust_6="13000.00000" pt_clust_7="13000.00000" pt_clust_8="13000.00000" pt_clust_9="13000.00000"></scales>
<clustering>
<clus scale="   91.764">  5  6 -1 -1</clus>
<clus scale="   92.126">  7  8 -1 -1</clus>
<clus scale="   92.213">  1  5  2 -1</clus>
<clus scale="  155.073">  7  9 -1 -1</clus>
<clus scale="  411.400">  2  5  1 -1</clus>
</clustering>
</event>
<event>
 9    1  0.6399313E-006  0.2953967E+03  0.7546771E-02  0.1122141E+00
         21   -1    0    0  501  502  0.00000000000E+00  0.00000000000E+00  0.72316989094E+03  0.72316989094E+03  0.00000000000E+00 0. -1.
          1   -1    0    0  502    0 -0.00000000000E+00 -0.00000000000E+00 -0.10729951681E+03  0.10729951681E+03  0.00000000000E+00 0. -1.
         23    2    1    2    0    0  0.11341818811E+02 -0.80726761592E+02 -0.25775604326E+02  0.12409218346E+03  0.89939097879E+02 0.  0.
         23    2    1    2    0    0  0.88203899715E+02  0.13372693042E+03  0.40039412958E+03  0.44006758766E+03  0.87642471787E+02 0.  0.
        -11    1    3    3    0    0  0.45206985021E+02 -0.54979703784E+02  0.53505988952E+01  0.71379746647E+02  0.00000000000E+00 0. -1.
         11    1    3    3    0    0 -0.33865166209E+02 -0.25747057808E+02 -0.31126203222E+02  0.52712436817E+02  0.00000000000E+00 0.  1.
        -13    1    4    4    0    0  0.22431301553E+01  0.78942097517E+02  0.14558443913E+03  0.16562522546E+03  0.00000000000E+00 0.  1.
         13    1    4    4    0    0  0.85960769560E+02  0.54784832904E+02  0.25480969046E+03  0.27444236220E+03  0.00000000000E+00 0. -1.
          1    1    1    2  501    0 -0.99545718526E+02 -0.53000168829E+02  0.24125184888E+03  0.26630963663E+03  0.00000000000E+00 0. -1.
<scales pt_clust_5="13000.00000" pt_clust_6="13000.00000" pt_clust_7="13000.00000" pt_clust_8="13000.00000" pt_clust_9="13000.00000"></scales>
<clustering>
<clus scale="   87.642">  7  8 -1 -1</clus>
<clus scale="   89.939">  5  6 -1 -1</clus>
<clus scale="  112.776">  7  9 -1 -1</clus>
<clus scale="  121.386">  2  5  1 -1</clus>
<clus scale="  295.397">  1  5  2 -1</clus>
</clustering>
</event>
<event>
 9    1  0.6399313E-006  0.1599192E+03  0.7546771E-02  0.1206583E+00
          1   -1    0    0  502    0 -0.00000000000E+00  0.00000000000E+00  0.48442873130E+03  0.48442873130E+03  0.00000000000E+00 0. -1.
         21   -1    0    0  501  502  0.00000000000E+00 -0.00000000000E+00 -0.14815595609E+03  0.14815595609E+03  0.00000000000E+00 0. -1.
         23    2    1    2    0    0 -0.30988028145E+00  0.58264823670E+02  0.43253215653E+03  0.44592990806E+03  0.91512462367E+02 0.  0.
         23    2    1    2    0    0 -0.36972324462E+02 -0.68893377097E+02 -0.61166503933E+02  0.13436291589E+03  0.90547235073E+02 0.  0.
        -11    1    3    3    0    0 -0.44817709513E+02  0.36357691942E+02  0.26480146081E+03  0.27101719963E+03  0.00000000000E+00 0. -1.
         11    1    3    3    0    0  0.44507829232E+02  0.21907131728E+02  0.16773069572E+03  0.17491270843E+03  0.00000000000E+00 0.  1.
        -13    1    4    4    0    0 -0.45571885196E+01  0.20917011613E+02 -0.84691780723E+00  0.21424439591E+02  0.00000000000E+00 0.  1.
         13    1    4    4    0    0 -0.32415135943E+02 -0.89810388710E+02 -0.60319586126E+02  0.11293847630E+03  0.00000000000E+00 0. -1.
          1    1    1    2  501    0  0.37282204744E+02  0.10628553426E+02 -0.35092877383E+02  0.52291863435E+02  0.00000000000E+00 0. -1.
<scales pt_clust_5="13000.00000" pt_clust_6="13000.00000" pt_clust_7="13000.00000" pt_clust_8="13000.00000" pt_clust_9="13000.00000"></scales>
<clustering>
<clus scale="   90.547">  7  8 -1 -1</clus>
<clus scale="   38.768">  7  9 -1 -1</clus>
<clus scale="   91.512">  5  6 -1 -1</clus>
<clus scale="  108.487">  1  5  2 -1</clus>
<clus scale="  159.919">  2  5  1 -1</clus>
</clustering>
</event>
<event>
 9    1  0.6399313E-006  0.6900013E+03  0.7546771E-02  0.1034952E+00
          1   -1    0    0  502    0 -0.00000000000E+00  0.00000000000E+00  0.24663644200E+03  0.24663644200E+03  0.00000000000E+00 0. -1.
         21   -1    0    0  501  502  0.00000000000E+00 -0.00000000000E+00 -0.72562103755E+03  0.72562103755E+03  0.00000000000E+00 0. -1.
         23    2    1    2    0    0  0.37802015016E+02 -0.18822569462E+02  0.40448627754E+02  0.10859513013E+03  0.91506990664E+02 0.  0.
         23    2    1    2    0    0 -0.33308807095E+03 -0.21742446512E+02 -0.12292032258E+03  0.36761612598E+03  0.92799856641E+02 0.  0.
        -11    1    4    4    0    0 -0.53447685436E+02  0.31028534484E+02 -0.24957991476E+02  0.66650779209E+02  0.00000000000E+00 0.  1.
         11    1    4    4    0    0 -0.27964038551E+03 -0.52770980995E+02 -0.97962331107E+02  0.30096534677E+03  0.00000000000E+00 0. -1.
        -13    1    3    3    0    0  0.63727693309E+02 -0.24550500575E+02  0.11395394769E+02  0.69237280383E+02  0.00000000000E+00 0. -1.
         13    1    3    3    0    0 -0.25925678293E+02  0.57279311129E+01  0.29053232986E+02  0.39357849747E+02  0.00000000000E+00 0.  1.
          1    1    1    2  501    0  0.29528605593E+03  0.40565015974E+02 -0.39651290072E+03  0.49604622344E+03  0.00000000000E+00 0. -1.
<scales pt_clust_5="13000.00000" pt_clust_6="13000.00000" pt_clust_7="13000.00000" pt_clust_8="13000.00000" pt_clust_9="13000.00000"></scales>
<clustering>
<clus scale="   91.507">  7  8 -1 -1</clus>
<clus scale="   92.800">  5  6 -1 -1</clus>
<clus scale="  100.781">  1  7  2 -1</clus>
<clus scale="  308.224">  5  9 -1 -1</clus>
<clus scale="  690.001">  2  5  1 -1</clus>
</clustering>
</event>
<event>
 9    1  0.6399313E-006  0.3267055E+03  0.7546771E-02  0.1087784E+00
         21   -1    0    0  501  502  0.00000000000E+00  0.00000000000E+00  0.37318921887E+03  0.37318921887E+03  0.00000000000E+00 0. -1.
          2   -1    0    0  502    0 -0.00000000000E+00 -0.00000000000E+00 -0.35682127368E+03  0.35682127368E+03  0.00000000000E+00 0. -1.
         23    2    1    2    0    0 -0.10153543208E+03  0.16940928572E+03 -0.23341591208E+03  0.31875819969E+03  0.90082472196E+02 0.  0.
         23    2    1    2    0    0  0.31996258845E+01 -0.94713285972E+00 -0.36549706136E+01  0.91438804711E+02  0.91304772769E+02 0.  0.
        -13    1    3    3    0    0 -0.34319053741E+02  0.87574828467E+01 -0.12730743672E+02  0.37637252689E+02  0.00000000000E+00 0.  1.
         13    1    3    3    0    0 -0.67216378338E+02  0.16065180287E+03 -0.22068516841E+03  0.28112094700E+03  0.00000000000E+00 0. -1.
        -13    1    4    4    0    0  0.12675404028E+02  0.43377239821E+02  0.43916653655E+01  0.45404157590E+02  0.00000000000E+00 0. -1.
         13    1    4    4    0    0 -0.94757781439E+01 -0.44324372681E+02 -0.80466359792E+01  0.46034647121E+02  0.00000000000E+00 0.  1.
          2    1    1    2  501    0  0.98335806195E+02 -0.16846215286E+03  0.25343882789E+03  0.31981348815E+03  0.00000000000E+00 0. -1.
<scales pt_clust_5="13000.00000" pt_clust_6="13000.00000" pt_clust_7="13000.00000" pt_clust_8="13000.00000" pt_clust_9="13000.00000"></scales>
<clustering>
<clus scale="   90.082">  5  6 -1 -1</clus>
<clus scale="   91.305">  7  8 -1 -1</clus>
<clus scale="  195.063">  7  9 -1 -1</clus>
<clus scale="  217.080">  2  5  1 -1</clus>
<clus scale="  326.705">  1  5  2 -1</clus>
</clustering>
</event>
<event>
 9    1  0.6399313E-006  0.1638924E+03  0.7546771E-02  0.1211490E+00
          2   -1    0    0  502    0 -0.00000000000E+00  0.00000000000E+00  0.16440534318E+03  0.16440534318E+03  0.00000000000E+00 0. -1.
         21   -1    0    0  501  502  0.00000000000E+00 -0.00000000000E+00 -0.11790589939E+03  0.11790589939E+03  0.00000000000E+00 0. -1.
         23    2    1    2    0    0 -0.39544177921E+01 -0.10132765223E+02  0.72780504206E+02  0.11632502787E+03  0.90089954853E+02 0.  0.
         23    2    1    2    0    0  0.88265776494E+01 -0.48970372817E+02 -0.15494318283E+02  0.10570958014E+03  0.91969753441E+02 0.  0.
        -11    1    3    3    0    0 -0.35473187659E+02  0.22299808228E+02  0.18859339639E+02  0.45948919262E+02  0.00000000000E+00 0. -1.
         11    1    3    3    0    0  0.31518769867E+02 -0.32432573451E+02  0.53921164567E+02  0.70376108609E+02  0.00000000000E+00 0.  1.
        -13    1    4    4    0    0  0.27116087301E+02 -0.12121063426E+02 -0.45817832393E+02  0.54602894926E+02  0.00000000000E+00 0. -1.
         13    1    4    4    0    0 -0.18289509651E+02 -0.36849309391E+02  0.30323514110E+02  0.51106685217E+02  0.00000000000E+00 0.  1.
          2    1    1    2  501    0 -0.48721598573E+01  0.59103138040E+02 -0.10786742133E+02  0.60276634559E+02  0.00000000000E+00 0. -1.
<scales pt_clust_5="13000.00000" pt_clust_6="13000.00000" pt_clust_7="13000.00000" pt_clust_8="13000.00000" pt_clust_9="13000.00000"></scales>
<clustering>
<clus scale="   90.090">  5  6 -1 -1</clus>
<clus scale="   90.744">  1  5  2 -1</clus>
<clus scale="   91.970">  7  8 -1 -1</clus>
<clus scale="   55.867">  7  9 -1 -1</clus>
<clus scale="  163.892">  2  5  1 -1</clus>
</clustering>
</event>
<event>
 9    1  0.6399313E-006  0.2528948E+03  0.7546771E-02  0.1146655E+00
          3   -1    0    0  502    0 -0.00000000000E+00  0.00000000000E+00  0.87171508448E+02  0.87171508448E+02  0.00000000000E+00 0. -1.
         21   -1    0    0  501  502  0.00000000000E+00 -0.00000000000E+00 -0.38773932821E+03  0.38773932821E+03  0.00000000000E+00 0. -1.
         23    2    1    2    0    0  0.33461468649E+02 -0.47387151953E+02 -0.13794406023E+03  0.17424113239E+03  0.89253551244E+02 0.  0.
         23    2    1    2    0    0  0.60037352034E+02  0.57428143496E+02 -0.13277161228E+02  0.12418384816E+03  0.91339311522E+02 0.  0.
        -13    1    3    3    0    0 -0.18649803831E+02 -0.44604744725E+02 -0.95245635670E+02  0.10681352700E+03  0.00000000000E+00 0.  1.
         13    1    3    3    0    0  0.52111272480E+02 -0.27824072273E+01 -0.42698424558E+02  0.67427605394E+02  0.00000000000E+00 0. -1.
        -13    1    4    4    0    0  0.21729219009E+02 -0.24661943264E+02 -0.26959146150E+01  0.32979362636E+02  0.00000000000E+00 0.  1.
         13    1    4    4    0    0  0.38308133026E+02  0.82090086760E+02 -0.10581246613E+02  0.91204485526E+02  0.00000000000E+00 0. -1.
          3    1    1    2  501    0 -0.93498820683E+02 -0.10040991543E+02 -0.14934659830E+03  0.17648585610E+03  0.00000000000E+00 0. -1.
<scales pt_clust_5="13000.00000" pt_clust_6="13000.00000" pt_clust_7="13000.00000" pt_clust_8="13000.00000" pt_clust_9="13000.00000"></scales>
<clustering>
<clus scale="   89.254">  5  6 -1 -1</clus>
<clus scale="   91.339">  7  8 -1 -1</clus>
<clus scale="   94.036">  7  9 -1 -1</clus>
<clus scale="  106.449">  1  5  2 -1</clus>
<clus scale="  252.895">  2  5  1 -1</clus>
</clustering>
</event>
<event>
 9    1  0.6399313E-006  0.2918414E+03  0.7546771E-02  0.1130509E+00
         21   -1    0    0  501  502  0.00000000000E+00  0.00000000000E+00  0.10565653246E+03  0.10565653246E+03  0.00000000000E+00 0. -1.
          2   -1    0    0  502    0 -0.00000000000E+00 -0.00000000000E+00 -0.74670124833E+03  0.74670124833E+03  0.00000000000E+00 0. -1.
         23    2    1    2    0    0  0.82118826005E+01  0.61594024992E+02 -0.53049703882E+03  0.54028058055E+03  0.81331043197E+02 0.  0.
         23    2    1    2    0    0 -0.59879123982E+02  0.22348186525E+02 -0.16528305109E+03  0.19933075960E+03  0.91265074451E+02 0.  0.
        -11    1    4    4    0    0  0.49303446904E+01 -0.23727252034E+02 -0.12914344117E+02  0.27460354547E+02  0.00000000000E+00 0.  1.
         11    1    4    4    0    0 -0.64809468673E+02  0.46075438559E+02 -0.15236870697E+03  0.17187040505E+03  0.00000000000E+00 0. -1.
        -13    1    3    3    0    0  0.43996227596E+02  0.26280652973E+02 -0.23342440010E+03  0.23898387252E+03  0.00000000000E+00 0.  1.
         13    1    3    3    0    0 -0.35784344995E+02  0.35313372020E+02 -0.29707263872E+03  0.30129670803E+03  0.00000000000E+00 0. -1.
          2    1    1    2  501    0  0.51667241382E+02 -0.83942211517E+02  0.54735374039E+02  0.11274644064E+03  0.00000000000E+00 0. -1.
<scales pt_clust_5="13000.00000" pt_clust_6="13000.00000" pt_clust_7="13000.00000" pt_clust_8="13000.00000" pt_clust_9="13000.00000"></scales>
<clustering>
<clus scale="   81.331">  7  8 -1 -1</clus>
<clus scale="   91.265">  5  6 -1 -1</clus>
<clus scale="   98.569">  5  9 -1 -1</clus>
<clus scale="  102.352">  2  7  1 -1</clus>
<clus scale="  291.841">  1  5  2 -1</clus>
</clustering>
</event>
<event>
 9    1  0.6399313E-006  0.5212499E+03  0.7546771E-02  0.1055184E+00
         21   -1    0    0  501  502  0.00000000000E+00  0.00000000000E+00  0.22492344781E+03  0.22492344781E+03  0.00000000000E+00 0.  1.
          1   -1    0    0  502    0 -0.00000000000E+00 -0.00000000000E+00 -0.50079259571E+03  0.50079259571E+03  0.00000000000E+00 0. -1.
         23    2    1    2    0    0  0.91865394449E+02 -0.22474266207E+02 -0.13053112058E+03  0.18458336144E+03  0.89934979537E+02 0.  0.
         23    2    1    2    0    0  0.19252049154E+03  0.50622872560E+02  0.11589045750E+01  0.21999559726E+03  0.93647770225E+02 0.  0.
        -11    1    3    3    0    0  0.90082754327E+02  0.13664153653E+02 -0.73595237130E+02  0.11712331386E+03  0.00000000000E+00 0.  1.
         11    1    3    3    0    0  0.17826401219E+01 -0.36138419860E+02 -0.56935883446E+02  0.67460047580E+02  0.00000000000E+00 0. -1.
        -11    1    4    4    0    0  0.66705305372E+02 -0.17674052969E+02  0.27772074570E+02  0.74385872577E+02  0.00000000000E+00 0.  1.
         11    1    4    4    0    0  0.12581518616E+03  0.68296925529E+02 -0.26613169995E+02  0.14560972469E+03  0.00000000000E+00 0. -1.
          1    1    1    2  501    0 -0.28438588599E+03 -0.28148606353E+02 -0.14649693190E+03  0.32113708481E+03  0.00000000000E+00 0. -1.
<scales pt_clust_5="13000.00000" pt_clust_6="13000.00000" pt_clust_7="13000.00000" pt_clust_8="13000.00000" pt_clust_9="13000.00000"></scales>
<clustering>
<clus scale="   89.935">  5  6 -1 -1</clus>
<clus scale="   93.648">  7  8 -1 -1</clus>
<clus scale="  130.509">  2  5  1 -1</clus>
<clus scale="  226.023">  7  9 -1 -1</clus>
<clus scale="  521.250">  1  5  2 -1</clus>
</clustering>
</event>
<event>
 9    1  0.6399313E-006  0.1443115E+03  0.7546771E-02  0.1217731E+00
         -2   -1    0    0    0  501 -0.00000000000E+00  0.00000000000E+00  0.41549857489E+03  0.41549857489E+03  0.00000000000E+00 0.  1.
         21   -1    0    0  501  502  0.00000000000E+00 -0.00000000000E+00 -0.85538107274E+02  0.85538107274E+02  0.00000000000E+00 0.  1.
         23    2    1    2    0    0 -0.72958027258E+02  0.88202793161E+01  0.33699906220E+03  0.35655358771E+03  0.90340588432E+02 0.  0.
         23    2    1    2    0    0  0.48107762411E+02 -0.17298940943E+02  0.21120597309E+02  0.10598162107E+03  0.90401406026E+02 0.  0.
        -13    1    4    4    0    0 -0.21477422520E+02  0.37137384605E+01  0.25027568637E+02  0.33188111175E+02  0.00000000000E+00 0.  1.
         13    1    4    4    0    0  0.69585184931E+02 -0.21012679403E+02 -0.39069713279E+01  0.72793509893E+02  0.00000000000E+00 0. -1.
        -13    1    3    3    0    0 -0.78043408294E+02 -0.11312231588E+02  0.32042202681E+03  0.32998335629E+03  0.00000000000E+00 0.  1.
         13    1    3    3    0    0  0.50853810362E+01  0.20132510904E+02  0.16577035386E+02  0.26570231422E+02  0.00000000000E+00 0. -1.
         -2    1    1    2    0  502  0.24850264847E+02  0.84786616265E+01 -0.28159191884E+02  0.38501473394E+02  0.00000000000E+00 0.  1.
<scales pt_clust_5="13000.00000" pt_clust_6="13000.00000" pt_clust_7="13000.00000" pt_clust_8="13000.00000" pt_clust_9="13000.00000"></scales>
<clustering>
<clus scale="   90.341">  7  8 -1 -1</clus>
<clus scale="   90.401">  5  6 -1 -1</clus>
<clus scale="   26.257">  5  9 -1 -1</clus>
<clus scale="  116.456">  1  7  2 -1</clus>
<clus scale="  144.312">  2  5  1 -1</clus>
</clustering>
</event>
<event>
 9    1  0.6399313E-006  0.3348044E+03  0.7546771E-02  0.1099956E+00
         21   -1    0    0  501  502  0.00000000000E+00  0.00000000000E+00  0.79513620301E+03  0.79513620301E+03  0.00000000000E+00 0. -1.
          2   -1    0    0  502    0 -0.00000000000E+00 -0.00000000000E+00 -0.18699211967E+03  0.18699211967E+03  0.00000000000E+00 0. -1.
         23    2    1    2    0    0  0.11085778627E+03 -0.50680157194E+01 -0.11431627430E+03  0.18586016600E+03  0.95711322091E+02 0.  0.
         23    2    1    2    0    0  0.66551922876E+02 -0.77070850652E+02  0.31852562154E+03  0.34750956981E+03  0.94526478140E+02 0.  0.
        -11    1    4    4    0    0  0.70129179831E+02 -0.10511432884E+02  0.13974811743E+03  0.15671033281E+03  0.00000000000E+00 0.  1.
         11    1    4    4    0    0 -0.35772569541E+01 -0.66559417767E+02  0.17877750412E+03  0.19079923700E+03  0.00000000000E+00 0. -1.
        -13    1    3    3    0    0  0.74904686362E+02 -0.55549920698E+01 -0.10310893887E+02  0.75814804020E+02  0.00000000000E+00 0.  1.
         13    1    3    3    0    0  0.35953099907E+02  0.48697635038E+00 -0.10400538041E+03  0.11004536198E+03  0.00000000000E+00 0. -1.
          2    1    1    2  501    0 -0.17740970914E+03  0.82138866371E+02  0.40393473609E+03  0.44875858687E+03  0.00000000000E+00 0. -1.
<scales pt_clust_5="13000.00000" pt_clust_6="13000.00000" pt_clust_7="13000.00000" pt_clust_8="13000.00000" pt_clust_9="13000.00000"></scales>
<clustering>
<clus scale="   94.526">  5  6 -1 -1</clus>
<clus scale="   95.711">  7  8 -1 -1</clus>
<clus scale="  146.546">  2  7  1 -1</clus>
<clus scale="  135.534">  5  9 -1 -1</clus>
<clus scale="  334.804">  1  5  2 -1</clus>
</clustering>
</event>
<event>
 9    1  0.6399313E-006  0.3202602E+03  0.7546771E-02  0.1116323E+00
         21   -1    0    0  501  502  0.00000000000E+00  0.00000000000E+00  0.31997626310E+03  0.31997626310E+03  0.00000000000E+00 0. -1.
          2   -1    0    0  502    0 -0.00000000000E+00 -0.00000000000E+00 -0.15433458428E+03  0.15433458428E+03  0.00000000000E+00 0. -1.
         23    2    1    2    0    0  0.21836370997E+01  0.59211873247E+02 -0.71239833874E+01  0.11042271473E+03  0.92906461477E+02 0.  0.
         23    2    1    2    0    0  0.63822457828E+02 -0.16186728713E+03  0.12385769825E+03  0.23240837183E+03  0.91643860213E+02 0.  0.
        -13    1    4    4    0    0  0.13764415799E+02 -0.14098605010E+03  0.98489695694E+02  0.17253041942E+03  0.00000000000E+00 0.  1.
         13    1    4    4    0    0  0.50058042029E+02 -0.20881237026E+02  0.25368002559E+02  0.59877952415E+02  0.00000000000E+00 0. -1.
        -13    1    3    3    0    0  0.47525224239E+02  0.28547178647E+02 -0.45052426861E+01  0.55622707228E+02  0.00000000000E+00 0.  1.
         13    1    3    3    0    0 -0.45341587139E+02  0.30664694599E+02 -0.26187407013E+01  0.54800007500E+02  0.00000000000E+00 0. -1.
          2    1    1    2  501    0 -0.66006094928E+02  0.10265541388E+03  0.48907963959E+02  0.13147976082E+03  0.00000000000E+00 0. -1.
<scales pt_clust_5="13000.00000" pt_clust_6="13000.00000" pt_clust_7="13000.00000" pt_clust_8="13000.00000" pt_clust_9="13000.00000"></scales>
<clustering>
<clus scale="   91.644">  5  6 -1 -1</clus>
<clus scale="   92.906">  7  8 -1 -1</clus>
<clus scale="  110.193">  2  7  1 -1</clus>
<clus scale="  143.798">  5  9 -1 -1</clus>
<clus scale="  320.260">  1  5  2 -1</clus>
</clustering>
</event>
<event>
 9    1  0.6399313E-006  0.3057828E+03  0.7546771E-02  0.1113445E+00
          1   -1    0    0  502    0 -0.00000000000E+00  0.00000000000E+00  0.51690148518E+03  0.51690148518E+03  0.00000000000E+00 0. -1.
         21   -1    0    0  501  502  0.00000000000E+00 -0.00000000000E+00 -0.98497948709E+02  0.98497948709E+02  0.00000000000E+00 0. -1.
         23    2    1    2    0    0  0.58060009096E+02  0.83204141396E+02  0.18996082883E+03  0.23370688598E+03  0.90773885367E+02 0.  0.
         23    2    1    2    0    0 -0.75587369935E+02 -0.12371224299E+03  0.27051945231E+03  0.32071249286E+03  0.93046007118E+02 0.  0.
        -11    1    3    3    0    0 -0.15192973807E+02  0.36720589186E+02  0.10503853927E+03  0.11230459855E+03  0.00000000000E+00 0. -1.
         11    1    3    3    0    0  0.73252982903E+02  0.46483552210E+02  0.84922289559E+02  0.12140228743E+03  0.00000000000E+00 0.  1.
        -13    1    4    4    0    0 -0.37115879854E+02  0.25157684011E+01  0.87508679404E+02  0.95087783648E+02  0.00000000000E+00 0.  1.
         13    1    4    4    0    0 -0.38471490081E+02 -0.12622801139E+03  0.18301077290E+03  0.22562470921E+03  0.00000000000E+00 0. -1.
          1    1    1    2  501    0  0.17527360839E+02  0.40508101592E+02 -0.42076744662E+02  0.60980055050E+02  0.00000000000E+00 0. -1.
<scales pt_clust_5="13000.00000" pt_clust_6="13000.00000" pt_clust_7="13000.00000" pt_clust_8="13000.00000" pt_clust_9="13000.00000"></scales>
<clustering>
<clus scale="   90.774">  5  6 -1 -1</clus>
<clus scale="   93.046">  7  8 -1 -1</clus>
<clus scale="   44.137">  7  9 -1 -1</clus>
<clus scale="  136.139">  1  5  2 -1</clus>
<clus scale="  305.783">  2  5  1 -1</clus>
</clustering>
</event>
<event>
 9    1  0.6399313E-006  0.3250708E+03  0.7546771E-02  0.1100178E+00
         21   -1    0    0  501  502  0.00000000000E+00  0.00000000000E+00  0.64127524732E+03  0.64127524732E+03  0.00000000000E+00 0.  1.
         -2   -1    0    0    0  501 -0.00000000000E+00 -0.00000000000E+00 -0.12878022982E+03  0.12878022982E+03  0.00000000000E+00 0.  1.
         23    2    1    2    0    0 -0.45104621937E+02 -0.12187257075E+03 -0.46160624863E+01  0.15925691058E+03  0.91946207715E+02 0.  0.
         23    2    1    2    0    0  0.10980111594E+03  0.13417523432E+02  0.44125682924E+03  0.46348257632E+03  0.88725386463E+02 0.  0.
        -11    1    3    3    0    0 -0.60605992764E+02 -0.50352167507E+02 -0.26072609874E+02  0.82995229485E+02  0.00000000000E+00 0.  1.
         11    1    3    3    0    0  0.15501370828E+02 -0.71520403243E+02  0.21456547388E+02  0.76261681095E+02  0.00000000000E+00 0. -1.
        -13    1    4    4    0    0  0.24601569195E+01  0.32656926819E+02  0.10054650038E+03  0.10574557191E+03  0.00000000000E+00 0. -1.
         13    1    4    4    0    0  0.10734095902E+03 -0.19239403387E+02  0.34071032887E+03  0.35773700441E+03  0.00000000000E+00 0.  1.
         -2    1    1    2    0  502 -0.64696494007E+02  0.10845504732E+03  0.75854250741E+02  0.14731599024E+03  0.00000000000E+00 0.  1.
<scales pt_clust_5="13000.00000" pt_clust_6="13000.00000" pt_clust_7="13000.00000" pt_clust_8="13000.00000" pt_clust_9="13000.00000"></scales>
<clustering>
<clus scale="   88.725">  7  8 -1 -1</clus>
<clus scale="   91.946">  5  6 -1 -1</clus>
<clus scale="  126.286">  7  9 -1 -1</clus>
<clus scale="  159.190">  2  5  1 -1</clus>
<clus scale="  325.071">  1  5  2 -1</clus>
</clustering>
</event>
<event>
 9    1  0.6399313E-006  0.1665874E+03  0.7546771E-02  0.1194829E+00
         21   -1    0    0  501  502  0.00000000000E+00  0.00000000000E+00  0.40070440610E+02  0.40070440610E+02  0.00000000000E+00 0. -1.
         -1   -1    0    0    0  501 -0.00000000000E+00 -0.00000000000E+00 -0.54300457878E+03  0.54300457878E+03  0.00000000000E+00 0.  1.
         23    2    1    2    0    0  0.45927686153E+02  0.68729731280E+02 -0.16497482167E+03  0.20628877313E+03  0.92223846245E+02 0.  0.
         23    2    1    2    0    0 -0.25896178834E+02 -0.98286565871E+01 -0.25708540803E+03  0.27475102216E+03  0.92887042099E+02 0.  0.
        -11    1    4    4    0    0 -0.32214956832E+02  0.36838461508E+02 -0.11230793828E+03  0.12250693324E+03  0.00000000000E+00 0.  1.
         11    1    4    4    0    0  0.63187779979E+01 -0.46667118095E+02 -0.14477746975E+03  0.15224408893E+03  0.00000000000E+00 0. -1.
        -13    1    3    3    0    0  0.26789060170E+02  0.11948881648E+02 -0.13709988420E+03  0.14020273808E+03  0.00000000000E+00 0.  1.
         13    1    3    3    0    0  0.19138625983E+02  0.56780849633E+02 -0.27874937471E+02  0.66086035049E+02  0.00000000000E+00 0. -1.
         -1    1    1    2    0  502 -0.20031507319E+02 -0.58901074693E+02 -0.80873908476E+02  0.10203522410E+03  0.00000000000E+00 0.  1.
<scales pt_clust_5="13000.00000" pt_clust_6="13000.00000" pt_clust_7="13000.00000" pt_clust_8="13000.00000" pt_clust_9="13000.00000"></scales>
<clustering>
<clus scale="   92.224">  7  8 -1 -1</clus>
<clus scale="   92.887">  5  6 -1 -1</clus>
<clus scale="   62.214">  5  9 -1 -1</clus>
<clus scale="  123.848">  2  7  1 -1</clus>
<clus scale="  166.587">  1  5  2 -1</clus>
</clustering>
</event>
<event>
 9    1  0.6399313E-006  0.4708167E+03  0.7546771E-02  0.1075035E+00
          2   -1    0    0  502    0 -0.00000000000E+00  0.00000000000E+00  0.27631663807E+03  0.27631663807E+03  0.00000000000E+00 0. -1.
         21   -1    0    0  501  502  0.00000000000E+00 -0.00000000000E+00 -0.30171746657E+03  0.30171746657E+03  0.00000000000E+00 0. -1.
         23    2    1    2    0    0  0.16359531514E+02  0.41825070137E+02 -0.32360095810E+02  0.10716597815E+03  0.91762739223E+02 0.  0.
         23    2    1    2    0    0 -0.14990633660E+03 -0.19575531711E+03  0.35286447024E+02  0.26512143954E+03  0.90841567741E+02 0.  0.
        -11    1    3    3    0    0  0.54515622398E+02  0.29621412205E+02 -0.21451365132E+02  0.65647103611E+02  0.00000000000E+00 0. -1.
         11    1    3    3    0    0 -0.38156090883E+02  0.12203657931E+02 -0.10908730678E+02  0.41518874544E+02  0.00000000000E+00 0.  1.
        -13    1    4    4    0    0 -0.10953900355E+03 -0.18279523753E+03  0.52583300848E+01  0.21316787327E+03  0.00000000000E+00 0. -1.
         13    1    4    4    0    0 -0.40367333053E+02 -0.12960079581E+02  0.30028116939E+02  0.51953566264E+02  0.00000000000E+00 0.  1.
          2    1    1    2  501    0  0.13354680509E+03  0.15393024697E+03 -0.28327179717E+02  0.20574668695E+03  0.00000000000E+00 0. -1.
<scales pt_clust_5="13000.00000" pt_clust_6="13000.00000" pt_clust_7="13000.00000" pt_clust_8="13000.00000" pt_clust_9="13000.00000"></scales>
<clustering>
<clus scale="   90.842">  7  8 -1 -1</clus>
<clus scale="   91.763">  5  6 -1 -1</clus>
<clus scale="  102.164">  1  5  2 -1</clus>
<clus scale="  219.570">  7  9 -1 -1</clus>
<clus scale="  470.817">  2  5  1 -1</clus>
</clustering>
</event>
<event>
 9    1  0.6399313E-006  0.2274900E+03  0.7546771E-02  0.1162348E+00
          2   -1    0    0  502    0 -0.00000000000E+00  0.00000000000E+00  0.50790286751E+03  0.50790286751E+03  0.00000000000E+00 0. -1.
         21   -1    0    0  501  502  0.00000000000E+00 -0.00000000000E+00 -0.15331871965E+03  0.15331871965E+03  0.00000000000E+00 0. -1.
         23    2    1    2    0    0 -0.19179568074E+01  0.48440463865E+02  0.41394149692E+03  0.42611522363E+03  0.88749444123E+02 0.  0.
         23    2    1    2    0    0  0.79265876157E+02 -0.46171174233E+02 -0.79033735510E+02  0.15526270075E+03  0.97187028153E+02 0.  0.
        -11    1    3    3    0    0  0.65482019122E+01 -0.20413803990E+02  0.36326537245E+02  0.42180797169E+02  0.00000000000E+00 0.  1.
         11    1    3    3    0    0 -0.84661587196E+01  0.68854267854E+02  0.37761495968E+03  0.38393442646E+03  0.00000000000E+00 0. -1.
        -11    1    4    4    0    0 -0.12466910394E+02 -0.19506933169E+02  0.94929096443E+01  0.25021183624E+02  0.00000000000E+00 0.  1.
         11    1    4    4    0    0  0.91732786552E+02 -0.26664241064E+02 -0.88526645154E+02  0.13024151712E+03  0.00000000000E+00 0. -1.
          2    1    1    2  501    0 -0.77347919350E+02 -0.22692896316E+01  0.19676386444E+02  0.79843662784E+02  0.00000000000E+00 0. -1.
<scales pt_clust_5="13000.00000" pt_clust_6="13000.00000" pt_clust_7="13000.00000" pt_clust_8="13000.00000" pt_clust_9="13000.00000"></scales>
<clustering>
<clus scale="   88.749">  5  6 -1 -1</clus>
<clus scale="   97.187">  7  8 -1 -1</clus>
<clus scale="   77.381">  7  9 -1 -1</clus>
<clus scale="  101.127">  1  5  2 -1</clus>
<clus scale="  227.490">  2  5  1 -1</clus>
</clustering>
</event>
<event>
 9    1  0.6399313E-006  0.1524282E+03  0.7546771E-02  0.1210631E+00
         -3   -1    0    0    0  501 -0.00000000000E+00  0.00000000000E+00  0.75575465909E+02  0.75575465909E+02  0.00000000000E+00 0.  1.
         21   -1    0    0  501  502  0.00000000000E+00 -0.00000000000E+00 -0.33037981220E+03  0.33037981220E+03  0.00000000000E+00 0.  1.
         23    2    1    2    0    0 -0.13407511517E+02  0.67001196440E+02 -0.70901175605E+01  0.11510018504E+03  0.92351833436E+02 0.  0.
         23    2    1    2    0    0  0.20628917094E+02  0.95342956052E+01 -0.10601105647E+03  0.12964213060E+03  0.71079412764E+02 0.  0.
        -13    1    3    3    0    0 -0.15444129277E+01  0.86739689885E+02  0.86835298841E+01  0.87186941131E+02  0.00000000000E+00 0.  1.
         13    1    3    3    0    0 -0.11863098590E+02 -0.19738493445E+02 -0.15773647445E+02  0.27913243906E+02  0.00000000000E+00 0. -1.
        -13    1    4    4    0    0 -0.54583632526E+00  0.35113010355E+02 -0.80308616014E+02  0.87650985389E+02  0.00000000000E+00 0.  1.
         13    1    4    4    0    0  0.21174753419E+02 -0.25578714750E+02 -0.25702440459E+02  0.41991145212E+02  0.00000000000E+00 0. -1.
         -3    1    1    2    0  502 -0.72214055764E+01 -0.76535492045E+02 -0.14170317226E+03  0.16121296247E+03  0.00000000000E+00 0.  1.
<scales pt_clust_5="13000.00000" pt_clust_6="13000.00000" pt_clust_7="13000.00000" pt_clust_8="13000.00000" pt_clust_9="13000.00000"></scales>
<clustering>
<clus scale="   71.079">  7  8 -1 -1</clus>
<clus scale="   76.875">  7  9 -1 -1</clus>
<clus scale="   92.352">  5  6 -1 -1</clus>
<clus scale="  114.882">  1  5  2 -1</clus>
<clus scale="  152.428">  2  5  1 -1</clus>
</clustering>
</event>
<event>
 9    1  0.6399313E-006  0.1199837E+03  0.7546771E-02  0.1254876E+00
          1   -1    0    0  502    0 -0.00000000000E+00  0.00000000000E+00  0.48308005053E+02  0.48308005053E+02  0.00000000000E+00 0. -1.
         21   -1    0    0  501  502  0.00000000000E+00 -0.00000000000E+00 -0.25453712815E+03  0.25453712815E+03  0.00000000000E+00 0.  1.
         23    2    1    2    0    0  0.19627429191E+02  0.20197901161E+02 -0.12916765050E+03  0.16024584740E+03  0.90560799923E+02 0.  0.
         23    2    1    2    0    0 -0.16752241042E+02  0.16224667917E+00 -0.41852895553E+02  0.10182617918E+03  0.91303022931E+02 0.  0.
        -11    1    3    3    0    0  0.35248667365E+02  0.40846697782E+02 -0.39370550235E+02  0.66790429677E+02  0.00000000000E+00 0.  1.
         11    1    3    3    0    0 -0.15621238174E+02 -0.20648796621E+02 -0.89797100269E+02  0.93455417718E+02  0.00000000000E+00 0. -1.
        -11    1    4    4    0    0 -0.36999899493E+02  0.27290867626E+02 -0.49038646196E+02  0.67220330548E+02  0.00000000000E+00 0.  1.
         11    1    4    4    0    0  0.20247658451E+02 -0.27128620946E+02  0.71857506436E+01  0.34605848631E+02  0.00000000000E+00 0. -1.
          1    1    1    2  501    0 -0.28751881485E+01 -0.20360147840E+02 -0.35208577038E+02  0.40773106627E+02  0.00000000000E+00 0. -1.
<scales pt_clust_5="13000.00000" pt_clust_6="13000.00000" pt_clust_7="13000.00000" pt_clust_8="13000.00000" pt_clust_9="13000.00000"></scales>
<clustering>
<clus scale="   90.561">  5  6 -1 -1</clus>
<clus scale="   91.303">  7  8 -1 -1</clus>
<clus scale="   20.562">  7  9 -1 -1</clus>
<clus scale="   94.839">  1  5  2 -1</clus>
<clus scale="  119.984">  2  5  1 -1</clus>
</clustering>
</event>
<event>
 9    1  0.6399313E-006  0.4695151E+03  0.7546771E-02  0.1062013E+00
         21   -1    0    0  501  502  0.00000000000E+00  0.00000000000E+00  0.63891159933E+02  0.63891159933E+02  0.00000000000E+00 0. -1.
          2   -1    0    0  502    0 -0.00000000000E+00 -0.00000000000E+00 -0.16024044387E+04  0.16024044387E+04  0.00000000000E+00 0. -1.
         23    2    1    2    0    0 -0.11075862184E+03  0.23307088090E+02 -0.58720311465E+03  0.60543016199E+03  0.94485398510E+02 0.  0.
         23    2    1    2    0    0 -0.10072634151E+03 -0.15753034057E+03 -0.31774487814E+03  0.37958227757E+03  0.90328809271E+02 0.  0.
        -11    1    3    3    0    0 -0.89994761156E+02  0.56744606094E+02 -0.46623681086E+03  0.47822146664E+03  0.00000000000E+00 0. -1.
         11    1    3    3    0    0 -0.20763860681E+02 -0.33437518004E+02 -0.12096630379E+03  0.12720869535E+03  0.00000000000E+00 0.  1.
        -13    1    4    4    0    0 -0.19303767137E+02 -0.93399873432E+02 -0.98684446772E+02  0.13723990607E+03  0.00000000000E+00 0.  1.
         13    1    4    4    0    0 -0.81422574377E+02 -0.64130467142E+02 -0.21906043136E+03  0.24234237150E+03  0.00000000000E+00 0. -1.
          2    1    1    2  501    0  0.21148496335E+03  0.13422325248E+03 -0.63356528594E+03  0.68128315903E+03  0.00000000000E+00 0. -1.
<scales pt_clust_5="13000.00000" pt_clust_6="13000.00000" pt_clust_7="13000.00000" pt_clust_8="13000.00000" pt_clust_9="13000.00000"></scales>
<clustering>
<clus scale="   90.329">  7  8 -1 -1</clus>
<clus scale="   94.485">  5  6 -1 -1</clus>
<clus scale="  147.439">  2  5  1 -1</clus>
<clus scale="  204.176">  7  9 -1 -1</clus>
<clus scale="  469.515">  1  5  2 -1</clus>
</clustering>
</event>
